  26  26   0   0
  0.3076923E+03  0.2000000E-08  0.2000000E-08  0.2000000E-08  0.2000000E-16
  1.000000000000000E-004
  CAR 
 SiGe                                    
      2.21100842    -17.16955675  301     -5.41195079      1.00000000
    -17.170  0.0000E+00  0.0000E+00
    -17.105  0.0000E+00  0.0000E+00
    -17.040  0.0000E+00  0.0000E+00
    -16.976  0.0000E+00  0.0000E+00
    -16.911  0.0000E+00  0.0000E+00
    -16.847  0.0000E+00  0.0000E+00
    -16.782  0.0000E+00  0.0000E+00
    -16.717  0.0000E+00  0.0000E+00
    -16.653  0.0000E+00  0.0000E+00
    -16.588  0.0000E+00  0.0000E+00
    -16.524  0.0000E+00  0.0000E+00
    -16.459  0.0000E+00  0.0000E+00
    -16.394  0.0000E+00  0.0000E+00
    -16.330  0.9848E-17  0.6362E-18
    -16.265  0.4087E-15  0.2704E-16
    -16.201  0.1332E-13  0.8875E-15
    -16.136  0.3544E-12  0.2378E-13
    -16.071  0.7670E-11  0.5193E-12
    -16.007  0.1351E-09  0.9244E-11
    -15.942  0.1935E-08  0.1343E-09
    -15.878  0.2256E-07  0.1592E-08
    -15.813  0.2142E-06  0.1543E-07
    -15.748  0.1654E-05  0.1223E-06
    -15.684  0.1041E-04  0.7945E-06
    -15.619  0.5329E-04  0.4237E-05
    -15.555  0.2222E-03  0.1859E-04
    -15.490  0.7545E-03  0.6733E-04
    -15.425  0.2086E-02  0.2021E-03
    -15.361  0.4700E-02  0.5057E-03
    -15.296  0.8622E-02  0.1063E-02
    -15.232  0.1288E-01  0.1895E-02
    -15.167  0.1568E-01  0.2908E-02
    -15.102  0.1555E-01  0.3913E-02
    -15.038  0.1256E-01  0.4725E-02
    -14.973  0.8266E-02  0.5259E-02
    -14.908  0.4431E-02  0.5545E-02
    -14.844  0.1938E-02  0.5670E-02
    -14.779  0.7121E-03  0.5716E-02
    -14.715  0.3128E-03  0.5736E-02
    -14.650  0.4789E-03  0.5767E-02
    -14.585  0.1355E-02  0.5855E-02
    -14.521  0.3464E-02  0.6078E-02
    -14.456  0.7422E-02  0.6558E-02
    -14.392  0.1344E-01  0.7426E-02
    -14.327  0.2099E-01  0.8782E-02
    -14.262  0.2884E-01  0.1065E-01
    -14.198  0.3540E-01  0.1293E-01
    -14.133  0.3887E-01  0.1544E-01
    -14.069  0.3767E-01  0.1788E-01
    -14.004  0.3159E-01  0.1992E-01
    -13.939  0.2250E-01  0.2137E-01
    -13.875  0.1342E-01  0.2224E-01
    -13.810  0.6646E-02  0.2267E-01
    -13.746  0.2722E-02  0.2284E-01
    -13.681  0.9523E-03  0.2291E-01
    -13.616  0.4272E-03  0.2293E-01
    -13.552  0.6777E-03  0.2298E-01
    -13.487  0.1801E-02  0.2309E-01
    -13.423  0.4231E-02  0.2337E-01
    -13.358  0.8231E-02  0.2390E-01
    -13.293  0.1333E-01  0.2476E-01
    -13.229  0.1831E-01  0.2594E-01
    -13.164  0.2191E-01  0.2736E-01
    -13.100  0.2357E-01  0.2888E-01
    -13.035  0.2329E-01  0.3038E-01
    -12.970  0.2104E-01  0.3174E-01
    -12.906  0.1694E-01  0.3284E-01
    -12.841  0.1177E-01  0.3360E-01
    -12.777  0.6893E-02  0.3404E-01
    -12.712  0.3348E-02  0.3426E-01
    -12.647  0.1336E-02  0.3435E-01
    -12.583  0.4366E-03  0.3437E-01
    -12.518  0.1164E-03  0.3438E-01
    -12.454  0.2541E-04  0.3438E-01
    -12.389  0.5311E-05  0.3438E-01
    -12.324  0.6238E-05  0.3438E-01
    -12.260  0.3085E-04  0.3439E-01
    -12.195  0.1380E-03  0.3440E-01
    -12.131  0.5038E-03  0.3443E-01
    -12.066  0.1500E-02  0.3452E-01
    -12.001  0.3646E-02  0.3476E-01
    -11.937  0.7262E-02  0.3523E-01
    -11.872  0.1196E-01  0.3600E-01
    -11.808  0.1661E-01  0.3708E-01
    -11.743  0.2028E-01  0.3839E-01
    -11.678  0.2328E-01  0.3989E-01
    -11.614  0.2671E-01  0.4162E-01
    -11.549  0.3063E-01  0.4359E-01
    -11.485  0.3306E-01  0.4573E-01
    -11.420  0.3149E-01  0.4776E-01
    -11.355  0.2548E-01  0.4941E-01
    -11.291  0.1719E-01  0.5052E-01
    -11.226  0.9590E-02  0.5114E-01
    -11.162  0.4410E-02  0.5142E-01
    -11.097  0.1674E-02  0.5153E-01
    -11.032  0.5528E-03  0.5157E-01
    -10.968  0.2860E-03  0.5159E-01
    -10.903  0.5807E-03  0.5162E-01
    -10.839  0.1622E-02  0.5173E-01
    -10.774  0.3851E-02  0.5198E-01
    -10.709  0.7467E-02  0.5246E-01
    -10.645  0.1179E-01  0.5322E-01
    -10.580  0.1518E-01  0.5420E-01
    -10.516  0.1591E-01  0.5523E-01
    -10.451  0.1358E-01  0.5611E-01
    -10.386  0.9445E-02  0.5672E-01
    -10.322  0.5351E-02  0.5706E-01
    -10.257  0.2469E-02  0.5722E-01
    -10.193  0.9280E-03  0.5728E-01
    -10.128  0.2841E-03  0.5730E-01
    -10.063  0.7081E-04  0.5731E-01
     -9.999  0.1437E-04  0.5731E-01
     -9.934  0.2375E-05  0.5731E-01
     -9.870  0.3197E-06  0.5731E-01
     -9.805  0.3678E-07  0.5731E-01
     -9.740  0.2394E-07  0.5731E-01
     -9.676  0.1992E-06  0.5731E-01
     -9.611  0.1548E-05  0.5731E-01
     -9.547  0.9806E-05  0.5731E-01
     -9.482  0.5057E-04  0.5731E-01
     -9.417  0.2123E-03  0.5732E-01
     -9.353  0.7262E-03  0.5737E-01
     -9.288  0.2023E-02  0.5750E-01
     -9.224  0.4590E-02  0.5780E-01
     -9.159  0.8494E-02  0.5835E-01
     -9.094  0.1285E-01  0.5918E-01
     -9.030  0.1604E-01  0.6021E-01
     -8.965  0.1700E-01  0.6131E-01
     -8.901  0.1661E-01  0.6238E-01
     -8.836  0.1754E-01  0.6352E-01
     -8.771  0.2230E-01  0.6496E-01
     -8.707  0.3086E-01  0.6695E-01
     -8.642  0.4003E-01  0.6954E-01
     -8.578  0.4532E-01  0.7247E-01
     -8.513  0.4416E-01  0.7532E-01
     -8.448  0.3800E-01  0.7777E-01
     -8.384  0.3140E-01  0.7980E-01
     -8.319  0.2893E-01  0.8167E-01
     -8.254  0.3256E-01  0.8378E-01
     -8.190  0.4135E-01  0.8645E-01
     -8.125  0.5260E-01  0.8984E-01
     -8.061  0.6284E-01  0.9390E-01
     -7.996  0.6858E-01  0.9833E-01
     -7.931  0.6753E-01  0.1027E+00
     -7.867  0.5972E-01  0.1066E+00
     -7.802  0.4747E-01  0.1096E+00
     -7.738  0.3391E-01  0.1118E+00
     -7.673  0.2164E-01  0.1132E+00
     -7.608  0.1217E-01  0.1140E+00
     -7.544  0.5923E-02  0.1144E+00
     -7.479  0.2453E-02  0.1145E+00
     -7.415  0.8539E-03  0.1146E+00
     -7.350  0.2608E-03  0.1146E+00
     -7.285  0.1389E-03  0.1146E+00
     -7.221  0.3535E-03  0.1146E+00
     -7.156  0.1189E-02  0.1147E+00
     -7.092  0.3373E-02  0.1149E+00
     -7.027  0.7853E-02  0.1154E+00
     -6.962  0.1500E-01  0.1164E+00
     -6.898  0.2361E-01  0.1179E+00
     -6.833  0.3095E-01  0.1199E+00
     -6.769  0.3495E-01  0.1222E+00
     -6.704  0.3690E-01  0.1246E+00
     -6.639  0.4162E-01  0.1273E+00
     -6.575  0.5349E-01  0.1307E+00
     -6.510  0.7128E-01  0.1353E+00
     -6.446  0.8717E-01  0.1410E+00
     -6.381  0.9177E-01  0.1469E+00
     -6.316  0.8129E-01  0.1521E+00
     -6.252  0.6018E-01  0.1560E+00
     -6.187  0.3717E-01  0.1584E+00
     -6.123  0.1914E-01  0.1597E+00
     -6.058  0.8212E-02  0.1602E+00
     -5.993  0.2930E-02  0.1604E+00
     -5.929  0.8683E-03  0.1604E+00
     -5.864  0.2132E-03  0.1605E+00
     -5.800  0.4329E-04  0.1605E+00
     -5.735  0.7251E-05  0.1605E+00
     -5.670  0.1000E-05  0.1605E+00
     -5.606  0.1134E-06  0.1605E+00
     -5.541  0.1055E-07  0.1605E+00
     -5.477  0.8038E-09  0.1605E+00
     -5.412  0.5013E-10  0.1605E+00
     -5.347  0.2556E-11  0.1605E+00
     -5.283  0.1065E-12  0.1605E+00
     -5.218  0.3605E-14  0.1605E+00
     -5.154  0.9848E-16  0.1605E+00
     -5.089  0.0000E+00  0.1605E+00
     -5.024  0.0000E+00  0.1605E+00
     -4.960  0.0000E+00  0.1605E+00
     -4.895  0.0000E+00  0.1605E+00
     -4.831  0.0000E+00  0.1605E+00
     -4.766  0.0000E+00  0.1605E+00
     -4.701  0.0000E+00  0.1605E+00
     -4.637  0.0000E+00  0.1605E+00
     -4.572  0.0000E+00  0.1605E+00
     -4.508  0.0000E+00  0.1605E+00
     -4.443  0.0000E+00  0.1605E+00
     -4.378  0.0000E+00  0.1605E+00
     -4.314  0.0000E+00  0.1605E+00
     -4.249  0.0000E+00  0.1605E+00
     -4.185  0.0000E+00  0.1605E+00
     -4.120  0.0000E+00  0.1605E+00
     -4.055  0.0000E+00  0.1605E+00
     -3.991  0.0000E+00  0.1605E+00
     -3.926  0.0000E+00  0.1605E+00
     -3.862  0.0000E+00  0.1605E+00
     -3.797  0.0000E+00  0.1605E+00
     -3.732  0.0000E+00  0.1605E+00
     -3.668  0.0000E+00  0.1605E+00
     -3.603  0.0000E+00  0.1605E+00
     -3.539  0.0000E+00  0.1605E+00
     -3.474  0.0000E+00  0.1605E+00
     -3.409  0.0000E+00  0.1605E+00
     -3.345  0.0000E+00  0.1605E+00
     -3.280  0.0000E+00  0.1605E+00
     -3.216  0.0000E+00  0.1605E+00
     -3.151  0.0000E+00  0.1605E+00
     -3.086  0.0000E+00  0.1605E+00
     -3.022  0.0000E+00  0.1605E+00
     -2.957  0.0000E+00  0.1605E+00
     -2.893  0.0000E+00  0.1605E+00
     -2.828  0.1970E-16  0.1605E+00
     -2.763  0.8223E-15  0.1605E+00
     -2.699  0.2575E-13  0.1605E+00
     -2.634  0.6578E-12  0.1605E+00
     -2.570  0.1367E-10  0.1605E+00
     -2.505  0.2312E-09  0.1605E+00
     -2.440  0.3182E-08  0.1605E+00
     -2.376  0.3564E-07  0.1605E+00
     -2.311  0.3249E-06  0.1605E+00
     -2.247  0.2411E-05  0.1605E+00
     -2.182  0.1456E-04  0.1605E+00
     -2.117  0.7165E-04  0.1605E+00
     -2.053  0.2871E-03  0.1605E+00
     -1.988  0.9370E-03  0.1605E+00
     -1.924  0.2494E-02  0.1607E+00
     -1.859  0.5422E-02  0.1611E+00
     -1.794  0.9679E-02  0.1617E+00
     -1.730  0.1437E-01  0.1626E+00
     -1.665  0.1833E-01  0.1638E+00
     -1.601  0.2157E-01  0.1652E+00
     -1.536  0.2608E-01  0.1669E+00
     -1.471  0.3448E-01  0.1691E+00
     -1.407  0.4743E-01  0.1722E+00
     -1.342  0.6220E-01  0.1762E+00
     -1.277  0.7398E-01  0.1810E+00
     -1.213  0.7885E-01  0.1861E+00
     -1.148  0.7584E-01  0.1910E+00
     -1.084  0.6708E-01  0.1953E+00
     -1.019  0.5628E-01  0.1989E+00
     -0.954  0.4680E-01  0.2019E+00
     -0.890  0.4011E-01  0.2045E+00
     -0.825  0.3577E-01  0.2068E+00
     -0.761  0.3264E-01  0.2090E+00
     -0.696  0.3030E-01  0.2109E+00
     -0.631  0.2926E-01  0.2128E+00
     -0.567  0.3033E-01  0.2148E+00
     -0.502  0.3386E-01  0.2170E+00
     -0.438  0.3959E-01  0.2195E+00
     -0.373  0.4658E-01  0.2225E+00
     -0.308  0.5324E-01  0.2260E+00
     -0.244  0.5802E-01  0.2297E+00
     -0.179  0.6063E-01  0.2336E+00
     -0.115  0.6261E-01  0.2377E+00
     -0.050  0.6667E-01  0.2420E+00
      0.015  0.7456E-01  0.2468E+00
      0.079  0.8458E-01  0.2523E+00
      0.144  0.9104E-01  0.2581E+00
      0.208  0.8758E-01  0.2638E+00
      0.273  0.7249E-01  0.2685E+00
      0.338  0.5054E-01  0.2717E+00
      0.402  0.2936E-01  0.2736E+00
      0.467  0.1412E-01  0.2746E+00
      0.531  0.5605E-02  0.2749E+00
      0.596  0.1833E-02  0.2750E+00
      0.661  0.4929E-03  0.2751E+00
      0.725  0.1089E-03  0.2751E+00
      0.790  0.1976E-04  0.2751E+00
      0.854  0.2941E-05  0.2751E+00
      0.919  0.3587E-06  0.2751E+00
      0.984  0.3584E-07  0.2751E+00
      1.048  0.2931E-08  0.2751E+00
      1.113  0.1960E-09  0.2751E+00
      1.177  0.1072E-10  0.2751E+00
      1.242  0.4787E-12  0.2751E+00
      1.307  0.1747E-13  0.2751E+00
      1.371  0.5023E-15  0.2751E+00
      1.436  0.9848E-17  0.2751E+00
      1.500  0.0000E+00  0.2751E+00
      1.565  0.0000E+00  0.2751E+00
      1.630  0.0000E+00  0.2751E+00
      1.694  0.0000E+00  0.2751E+00
      1.759  0.0000E+00  0.2751E+00
      1.823  0.0000E+00  0.2751E+00
      1.888  0.0000E+00  0.2751E+00
      1.953  0.0000E+00  0.2751E+00
      2.017  0.0000E+00  0.2751E+00
      2.082  0.0000E+00  0.2751E+00
      2.146  0.0000E+00  0.2751E+00
      2.211  0.0000E+00  0.2751E+00
