       N       E                     dE             d eps       ncg     rms          rms(c)
DAV:   1     0.204150921774E+03    0.20415E+03   -0.10478E+04   116   0.546E+02
DAV:   2    -0.267205029931E+02   -0.23087E+03   -0.21626E+03   144   0.103E+02
DAV:   3    -0.101430552273E+03   -0.74710E+02   -0.74526E+02   112   0.546E+01
DAV:   4    -0.105691927356E+03   -0.42614E+01   -0.42467E+01   104   0.181E+01
DAV:   5    -0.105765966015E+03   -0.74039E-01   -0.73979E-01   128   0.266E+00    0.147E+01
DAV:   6    -0.102587658622E+03    0.31783E+01   -0.15570E+00    96   0.453E+00    0.855E+00
DAV:   7    -0.100918787428E+03    0.16689E+01   -0.40465E+00   104   0.670E+00    0.122E+00
DAV:   8    -0.100865607074E+03    0.53180E-01   -0.26359E-01   104   0.217E+00    0.611E-01
DAV:   9    -0.100829906492E+03    0.35701E-01   -0.74602E-02   120   0.770E-01    0.332E-01
DAV:  10    -0.100830068349E+03   -0.16186E-03   -0.26612E-03   112   0.203E-01    0.153E-01
DAV:  11    -0.100829749584E+03    0.31877E-03   -0.66342E-03   104   0.238E-01    0.828E-02
DAV:  12    -0.100833698084E+03   -0.39485E-02   -0.10327E-03    94   0.958E-02    0.597E-02
DAV:  13    -0.100838878884E+03   -0.51808E-02   -0.20107E-03   112   0.116E-01    0.369E-02
DAV:  14    -0.100842650626E+03   -0.37717E-02   -0.28865E-04   112   0.515E-02    0.162E-02
DAV:  15    -0.100847296119E+03   -0.46455E-02   -0.59876E-04   112   0.638E-02    0.171E-02
DAV:  16    -0.100848214782E+03   -0.91866E-03   -0.48258E-05   112   0.214E-02    0.726E-03
DAV:  17    -0.100849307526E+03   -0.10927E-02   -0.10082E-04   104   0.243E-02    0.317E-03
DAV:  18    -0.100849522514E+03   -0.21499E-03   -0.69667E-06   112   0.819E-03    0.199E-03
DAV:  19    -0.100849702830E+03   -0.18032E-03   -0.68344E-06    96   0.629E-03    0.168E-03
DAV:  20    -0.100849744397E+03   -0.41567E-04   -0.69967E-07    88   0.300E-03    0.552E-04
DAV:  21    -0.100849775741E+03   -0.31344E-04   -0.99125E-07    80   0.258E-03    0.567E-04
DAV:  22    -0.100849783152E+03   -0.74104E-05   -0.18434E-07    88   0.140E-03    0.241E-04
DAV:  23    -0.100849787094E+03   -0.39424E-05   -0.10167E-07    80   0.806E-04    0.151E-04
DAV:  24    -0.100849789758E+03   -0.26637E-05   -0.41311E-08    80   0.530E-04    0.671E-05
DAV:  25    -0.100849790325E+03   -0.56758E-06   -0.11979E-08    88   0.290E-04
   1 F= -.10084979E+03 E0= -.10084979E+03  d E =-.100850E+03
       N       E                     dE             d eps       ncg     rms          rms(c)
DAV:   1    -0.100981475328E+03   -0.13169E+00   -0.52462E+00    84   0.955E+00    0.101E+00
DAV:   2    -0.101002107007E+03   -0.20632E-01   -0.25883E-01   120   0.201E+00    0.519E-01
DAV:   3    -0.100998472340E+03    0.36347E-02   -0.91787E-03   120   0.397E-01    0.260E-01
DAV:   4    -0.100997598042E+03    0.87430E-03   -0.50466E-03   112   0.250E-01    0.590E-02
DAV:   5    -0.100997438093E+03    0.15995E-03   -0.39560E-04   120   0.931E-02    0.363E-02
DAV:   6    -0.100997445706E+03   -0.76127E-05   -0.11575E-04   120   0.465E-02    0.205E-02
DAV:   7    -0.100997578996E+03   -0.13329E-03   -0.57114E-05   102   0.354E-02    0.761E-03
DAV:   8    -0.100997648934E+03   -0.69938E-04   -0.22347E-05   112   0.199E-02    0.923E-03
DAV:   9    -0.100997701304E+03   -0.52370E-04   -0.22279E-06    96   0.562E-03    0.645E-03
DAV:  10    -0.100997870383E+03   -0.16908E-03   -0.16125E-05   112   0.954E-03    0.412E-03
DAV:  11    -0.100997894645E+03   -0.24262E-04   -0.61699E-07    96   0.337E-03    0.256E-03
DAV:  12    -0.100997974445E+03   -0.79801E-04   -0.50111E-06   102   0.596E-03    0.928E-04
DAV:  13    -0.100997992560E+03   -0.18115E-04   -0.60955E-07    88   0.292E-03    0.666E-04
DAV:  14    -0.100998013568E+03   -0.21008E-04   -0.49214E-07    88   0.186E-03    0.489E-04
DAV:  15    -0.100998024376E+03   -0.10808E-04   -0.25173E-07    88   0.112E-03    0.561E-04
DAV:  16    -0.100998030396E+03   -0.60199E-05   -0.82580E-08    88   0.826E-04    0.296E-04
DAV:  17    -0.100998031344E+03   -0.94777E-06   -0.17785E-08    96   0.396E-04
   2 F= -.10099803E+03 E0= -.10099803E+03  d E =-.148241E+00
       N       E                     dE             d eps       ncg     rms          rms(c)
DAV:   1    -0.100998913804E+03   -0.88341E-03   -0.27760E-02    84   0.701E-01    0.709E-02
DAV:   2    -0.100999019447E+03   -0.10564E-03   -0.13931E-03   120   0.148E-01    0.391E-02
DAV:   3    -0.100998996140E+03    0.23307E-04   -0.52540E-05   120   0.300E-02    0.191E-02
DAV:   4    -0.100998987876E+03    0.82638E-05   -0.27383E-05   112   0.185E-02    0.465E-03
DAV:   5    -0.100998986386E+03    0.14899E-05   -0.19040E-06    96   0.676E-03    0.251E-03
DAV:   6    -0.100998987392E+03   -0.10057E-05   -0.89619E-07    88   0.399E-03    0.137E-03
DAV:   7    -0.100998990286E+03   -0.28937E-05   -0.37566E-07    80   0.266E-03    0.514E-04
DAV:   8    -0.100998991705E+03   -0.14188E-05   -0.16063E-07    88   0.161E-03    0.613E-04
DAV:   9    -0.100998993145E+03   -0.14409E-05   -0.64426E-08    88   0.867E-04    0.360E-04
DAV:  10    -0.100998995817E+03   -0.26715E-05   -0.17402E-07    88   0.939E-04    0.221E-04
DAV:  11    -0.100998996240E+03   -0.42306E-06   -0.18097E-08    88   0.400E-04
   3 F= -.10099900E+03 E0= -.10099900E+03  d E =-.149206E+00
       N       E                     dE             d eps       ncg     rms          rms(c)
DAV:   1    -0.101041093012E+03   -0.42097E-01   -0.11788E+00    84   0.464E+00    0.474E-01
DAV:   2    -0.101045700897E+03   -0.46079E-02   -0.57848E-02   120   0.899E-01    0.216E-01
DAV:   3    -0.101045181843E+03    0.51905E-03   -0.25213E-03   128   0.197E-01    0.114E-01
DAV:   4    -0.101045098531E+03    0.83312E-04   -0.71747E-04   112   0.980E-02    0.378E-02
DAV:   5    -0.101045077473E+03    0.21058E-04   -0.57407E-05   120   0.371E-02    0.193E-02
DAV:   6    -0.101045081839E+03   -0.43655E-05   -0.24234E-05   120   0.226E-02    0.916E-03
DAV:   7    -0.101045107152E+03   -0.25313E-04   -0.13406E-05   112   0.160E-02    0.385E-03
DAV:   8    -0.101045119383E+03   -0.12231E-04   -0.34987E-06   112   0.752E-03    0.396E-03
DAV:   9    -0.101045127978E+03   -0.85950E-05   -0.22913E-07    80   0.169E-03    0.254E-03
DAV:  10    -0.101045158552E+03   -0.30574E-04   -0.33271E-06    96   0.482E-03    0.154E-03
DAV:  11    -0.101045163937E+03   -0.53855E-05   -0.32294E-07    96   0.198E-03    0.104E-03
DAV:  12    -0.101045175468E+03   -0.11530E-04   -0.72903E-07    88   0.222E-03    0.301E-04
DAV:  13    -0.101045180015E+03   -0.45478E-05   -0.21445E-07    88   0.133E-03    0.426E-04
DAV:  14    -0.101045182727E+03   -0.27121E-05   -0.75362E-08    88   0.797E-04    0.182E-04
DAV:  15    -0.101045184830E+03   -0.21030E-05   -0.76275E-08    88   0.649E-04    0.123E-04
DAV:  16    -0.101045185409E+03   -0.57884E-06   -0.12812E-08    88   0.315E-04
   4 F= -.10104519E+03 E0= -.10104519E+03  d E =-.461892E-01
       N       E                     dE             d eps       ncg     rms          rms(c)
DAV:   1    -0.101047756604E+03   -0.25718E-02   -0.13041E-01    84   0.154E+00    0.155E-01
DAV:   2    -0.101048270327E+03   -0.51372E-03   -0.65079E-03   120   0.301E-01    0.724E-02
DAV:   3    -0.101048213705E+03    0.56622E-04   -0.29040E-04   128   0.666E-02    0.375E-02
DAV:   4    -0.101048204842E+03    0.88627E-05   -0.81536E-05   112   0.329E-02    0.131E-02
DAV:   5    -0.101048200213E+03    0.46284E-05   -0.62822E-06   120   0.123E-02    0.653E-03
DAV:   6    -0.101048200077E+03    0.13680E-06   -0.28587E-06   104   0.771E-03
   5 F= -.10104820E+03 E0= -.10104820E+03  d E =-.492038E-01
       N       E                     dE             d eps       ncg     rms          rms(c)
DAV:   1    -0.101057865148E+03   -0.96649E-02   -0.26743E-01    84   0.229E+00    0.177E-01
DAV:   2    -0.101058737280E+03   -0.87213E-03   -0.10737E-02   112   0.405E-01    0.986E-02
DAV:   3    -0.101058659695E+03    0.77585E-04   -0.35892E-04   128   0.776E-02    0.536E-02
DAV:   4    -0.101058651395E+03    0.83003E-05   -0.14729E-04   112   0.433E-02    0.120E-02
DAV:   5    -0.101058647135E+03    0.42600E-05   -0.18257E-05   120   0.165E-02    0.783E-03
DAV:   6    -0.101058647479E+03   -0.34412E-06   -0.29752E-06   112   0.634E-03
   6 F= -.10105865E+03 E0= -.10105865E+03  d E =-.104474E-01
       N       E                     dE             d eps       ncg     rms          rms(c)
DAV:   1    -0.101060400896E+03   -0.17538E-02   -0.13551E-01    84   0.163E+00    0.127E-01
DAV:   2    -0.101060844733E+03   -0.44384E-03   -0.55407E-03   112   0.292E-01    0.707E-02
DAV:   3    -0.101060799669E+03    0.45064E-04   -0.18290E-04   120   0.556E-02    0.385E-02
DAV:   4    -0.101060794614E+03    0.50557E-05   -0.75244E-05   120   0.312E-02    0.859E-03
DAV:   5    -0.101060796750E+03   -0.21368E-05   -0.97874E-06   112   0.120E-02    0.572E-03
DAV:   6    -0.101060802734E+03   -0.59834E-05   -0.16302E-06    96   0.485E-03    0.273E-03
DAV:   7    -0.101060814244E+03   -0.11510E-04   -0.10262E-06    80   0.395E-03    0.808E-04
DAV:   8    -0.101060826548E+03   -0.12304E-04   -0.89018E-07    96   0.302E-03    0.100E-03
DAV:   9    -0.101060836817E+03   -0.10269E-04   -0.50927E-07    88   0.209E-03    0.308E-04
DAV:  10    -0.101060842066E+03   -0.52496E-05   -0.32636E-07    88   0.132E-03    0.282E-04
DAV:  11    -0.101060845553E+03   -0.34868E-05   -0.13767E-07    88   0.952E-04    0.108E-04
DAV:  12    -0.101060847236E+03   -0.16831E-05   -0.62048E-08    88   0.605E-04    0.826E-05
DAV:  13    -0.101060848320E+03   -0.10835E-05   -0.26520E-08    88   0.397E-04    0.429E-05
DAV:  14    -0.101060848804E+03   -0.48423E-06   -0.11584E-08    88   0.263E-04
   7 F= -.10106085E+03 E0= -.10106085E+03  d E =-.126487E-01
       N       E                     dE             d eps       ncg     rms          rms(c)
DAV:   1    -0.101068734054E+03   -0.78857E-02   -0.20294E-01    84   0.212E+00    0.123E-01
DAV:   2    -0.101068730498E+03    0.35564E-05   -0.26750E-03   120   0.221E-01    0.665E-02
DAV:   3    -0.101068651502E+03    0.78996E-04   -0.30773E-04   120   0.747E-02    0.273E-02
DAV:   4    -0.101068657343E+03   -0.58411E-05   -0.11811E-04   120   0.409E-02    0.121E-02
DAV:   5    -0.101068658224E+03   -0.88185E-06   -0.72525E-06   112   0.107E-02
   8 F= -.10106866E+03 E0= -.10106866E+03  d E =-.780942E-02
       N       E                     dE             d eps       ncg     rms          rms(c)
DAV:   1    -0.101074743652E+03   -0.60863E-02   -0.72979E-01    84   0.403E+00    0.234E-01
DAV:   2    -0.101074746291E+03   -0.26390E-05   -0.96514E-03   120   0.420E-01    0.126E-01
DAV:   3    -0.101074461316E+03    0.28498E-03   -0.10844E-03   120   0.142E-01    0.523E-02
DAV:   4    -0.101074479221E+03   -0.17905E-04   -0.42639E-04   120   0.783E-02    0.227E-02
DAV:   5    -0.101074482031E+03   -0.28098E-05   -0.27617E-05   112   0.210E-02    0.154E-02
DAV:   6    -0.101074486398E+03   -0.43674E-05   -0.49328E-06   112   0.795E-03    0.303E-03
DAV:   7    -0.101074491280E+03   -0.48820E-05   -0.10593E-06    88   0.388E-03    0.178E-03
DAV:   8    -0.101074501954E+03   -0.10673E-04   -0.65280E-07    88   0.364E-03    0.124E-03
DAV:   9    -0.101074509293E+03   -0.73389E-05   -0.44140E-07    88   0.282E-03    0.698E-04
DAV:  10    -0.101074517313E+03   -0.80203E-05   -0.36961E-07    88   0.197E-03    0.426E-04
DAV:  11    -0.101074521218E+03   -0.39048E-05   -0.13074E-07    88   0.110E-03    0.250E-04
DAV:  12    -0.101074524466E+03   -0.32483E-05   -0.81022E-08    88   0.736E-04    0.130E-04
DAV:  13    -0.101074526761E+03   -0.22952E-05   -0.70367E-08    88   0.578E-04    0.791E-05
DAV:  14    -0.101074528357E+03   -0.15957E-05   -0.38763E-08    88   0.445E-04    0.596E-05
DAV:  15    -0.101074528722E+03   -0.36553E-06   -0.77367E-09    88   0.225E-04
   9 F= -.10107453E+03 E0= -.10107453E+03  d E =-.136799E-01
       N       E                     dE             d eps       ncg     rms          rms(c)
DAV:   1    -0.101079995968E+03   -0.54676E-02   -0.23383E-01    84   0.220E+00    0.138E-01
DAV:   2    -0.101080320088E+03   -0.32412E-03   -0.56927E-03   120   0.306E-01    0.780E-02
DAV:   3    -0.101080230127E+03    0.89961E-04   -0.31341E-04   128   0.705E-02    0.390E-02
DAV:   4    -0.101080214941E+03    0.15186E-04   -0.10367E-04   120   0.386E-02    0.956E-03
DAV:   5    -0.101080209984E+03    0.49568E-05   -0.13969E-05   112   0.156E-02    0.670E-03
DAV:   6    -0.101080210003E+03   -0.18559E-07   -0.26641E-06   120   0.671E-03
  10 F= -.10108021E+03 E0= -.10108021E+03  d E =-.568128E-02
       N       E                     dE             d eps       ncg     rms          rms(c)
DAV:   1    -0.101081762328E+03   -0.15523E-02   -0.29174E-01    84   0.246E+00    0.154E-01
DAV:   2    -0.101082168068E+03   -0.40574E-03   -0.71338E-03   120   0.342E-01    0.872E-02
DAV:   3    -0.101082051525E+03    0.11654E-03   -0.39284E-04   128   0.790E-02    0.438E-02
DAV:   4    -0.101082030414E+03    0.21112E-04   -0.12862E-04   120   0.434E-02    0.107E-02
DAV:   5    -0.101082027470E+03    0.29435E-05   -0.18525E-05   120   0.181E-02    0.764E-03
DAV:   6    -0.101082030749E+03   -0.32792E-05   -0.35910E-06   112   0.782E-03    0.489E-03
DAV:   7    -0.101082041792E+03   -0.11043E-04   -0.76652E-07    88   0.427E-03    0.101E-03
DAV:   8    -0.101082049488E+03   -0.76958E-05   -0.74488E-07    88   0.363E-03    0.138E-03
DAV:   9    -0.101082067213E+03   -0.17725E-04   -0.13396E-06    96   0.412E-03    0.108E-03
DAV:  10    -0.101082072664E+03   -0.54509E-05   -0.43221E-07    88   0.241E-03    0.714E-04
DAV:  11    -0.101082075104E+03   -0.24402E-05   -0.96141E-08    88   0.120E-03    0.457E-04
DAV:  12    -0.101082078759E+03   -0.36552E-05   -0.10293E-07    88   0.952E-04    0.146E-04
DAV:  13    -0.101082081611E+03   -0.28514E-05   -0.10210E-07    88   0.742E-04    0.183E-04
DAV:  14    -0.101082083488E+03   -0.18777E-05   -0.49997E-08    88   0.513E-04    0.748E-05
DAV:  15    -0.101082083933E+03   -0.44495E-06   -0.98112E-09    88   0.274E-04
  11 F= -.10108208E+03 E0= -.10108208E+03  d E =-.755521E-02
       N       E                     dE             d eps       ncg     rms          rms(c)
DAV:   1    -0.101084538525E+03   -0.24550E-02   -0.23651E-01    84   0.219E+00    0.142E-01
DAV:   2    -0.101085012454E+03   -0.47393E-03   -0.69565E-03   120   0.325E-01    0.821E-02
DAV:   3    -0.101084919536E+03    0.92919E-04   -0.32062E-04   128   0.727E-02    0.400E-02
DAV:   4    -0.101084918065E+03    0.14706E-05   -0.13298E-04   120   0.415E-02    0.105E-02
DAV:   5    -0.101084917377E+03    0.68789E-06   -0.10874E-05   112   0.136E-02    0.518E-03
DAV:   6    -0.101084917655E+03   -0.27752E-06   -0.22270E-06   112   0.542E-03
  12 F= -.10108492E+03 E0= -.10108492E+03  d E =-.283372E-02
       N       E                     dE             d eps       ncg     rms          rms(c)
DAV:   1    -0.101084958099E+03   -0.40721E-04   -0.55001E-03    84   0.333E-01    0.217E-02
DAV:   2    -0.101084969040E+03   -0.10942E-04   -0.16424E-04   120   0.499E-02    0.127E-02
DAV:   3    -0.101084967015E+03    0.20257E-05   -0.74121E-06   128   0.111E-02    0.626E-03
DAV:   4    -0.101084967786E+03   -0.77171E-06   -0.31110E-06   120   0.648E-03
  13 F= -.10108497E+03 E0= -.10108497E+03  d E =-.288385E-02
       N       E                     dE             d eps       ncg     rms          rms(c)
DAV:   1    -0.101086928638E+03   -0.19616E-02   -0.11605E-01    84   0.154E+00    0.109E-01
DAV:   2    -0.101087083989E+03   -0.15535E-03   -0.28924E-03   120   0.208E-01    0.571E-02
DAV:   3    -0.101087036982E+03    0.47007E-04   -0.14338E-04   120   0.463E-02    0.285E-02
DAV:   4    -0.101087029695E+03    0.72865E-05   -0.47500E-05   112   0.238E-02    0.799E-03
DAV:   5    -0.101087029399E+03    0.29569E-06   -0.29576E-06   104   0.799E-03
  14 F= -.10108703E+03 E0= -.10108703E+03  d E =-.206161E-02
       N       E                     dE             d eps       ncg     rms          rms(c)
DAV:   1    -0.101087178644E+03   -0.14895E-03   -0.17343E-02    84   0.597E-01    0.422E-02
DAV:   2    -0.101087199615E+03   -0.20971E-04   -0.44243E-04   120   0.813E-02    0.219E-02
DAV:   3    -0.101087190453E+03    0.91618E-05   -0.21465E-05   120   0.180E-02    0.111E-02
DAV:   4    -0.101087189318E+03    0.11348E-05   -0.72937E-06   112   0.942E-03    0.313E-03
DAV:   5    -0.101087190927E+03   -0.16088E-05   -0.51296E-07    88   0.345E-03    0.151E-03
DAV:   6    -0.101087193146E+03   -0.22190E-05   -0.30495E-07    88   0.220E-03    0.608E-04
DAV:   7    -0.101087196122E+03   -0.29761E-05   -0.15997E-07    80   0.142E-03    0.326E-04
DAV:   8    -0.101087197834E+03   -0.17120E-05   -0.68427E-08    88   0.854E-04    0.277E-04
DAV:   9    -0.101087200336E+03   -0.25019E-05   -0.12118E-07    80   0.855E-04    0.111E-04
DAV:  10    -0.101087201098E+03   -0.76246E-06   -0.29066E-08    88   0.475E-04
  15 F= -.10108720E+03 E0= -.10108720E+03  d E =-.223331E-02
       N       E                     dE             d eps       ncg     rms          rms(c)
DAV:   1    -0.101087671496E+03   -0.47116E-03   -0.34503E-02    84   0.810E-01    0.614E-02
DAV:   2    -0.101087771397E+03   -0.99900E-04   -0.13977E-03   120   0.141E-01    0.343E-02
DAV:   3    -0.101087755820E+03    0.15577E-04   -0.52415E-05   120   0.305E-02    0.180E-02
DAV:   4    -0.101087752900E+03    0.29203E-05   -0.20387E-05   112   0.189E-02    0.444E-03
DAV:   5    -0.101087752479E+03    0.42069E-06   -0.29882E-06   104   0.783E-03
  16 F= -.10108775E+03 E0= -.10108775E+03  d E =-.551381E-03
       N       E                     dE             d eps       ncg     rms          rms(c)
DAV:   1    -0.101087754506E+03   -0.16063E-05   -0.21747E-04   104   0.644E-02    0.549E-03
DAV:   2    -0.101087755156E+03   -0.65040E-06   -0.10090E-05   120   0.118E-02    0.277E-03
DAV:   3    -0.101087755095E+03    0.61436E-07   -0.24501E-07    72   0.235E-03
  17 F= -.10108776E+03 E0= -.10108776E+03  d E =-.553997E-03
       N       E                     dE             d eps       ncg     rms          rms(c)
DAV:   1    -0.101087898291E+03   -0.14313E-03   -0.85257E-03    84   0.412E-01    0.312E-02
DAV:   2    -0.101087927255E+03   -0.28963E-04   -0.38396E-04   120   0.730E-02    0.172E-02
DAV:   3    -0.101087924372E+03    0.28831E-05   -0.12574E-05   120   0.143E-02    0.968E-03
DAV:   4    -0.101087923531E+03    0.84051E-06   -0.42110E-06   112   0.801E-03
  18 F= -.10108792E+03 E0= -.10108792E+03  d E =-.168436E-03
