       N       E                     dE             d eps       ncg     rms          rms(c)
DAV:   1     0.207085974401E+03    0.20709E+03   -0.10472E+04   116   0.546E+02
DAV:   2    -0.257393710551E+02   -0.23283E+03   -0.21714E+03   144   0.103E+02
DAV:   3    -0.100592406689E+03   -0.74853E+02   -0.74697E+02   112   0.551E+01
DAV:   4    -0.104826335387E+03   -0.42339E+01   -0.42180E+01   104   0.181E+01
DAV:   5    -0.104898131180E+03   -0.71796E-01   -0.71743E-01   136   0.254E+00    0.146E+01
DAV:   6    -0.101702944163E+03    0.31952E+01   -0.16166E+00   104   0.457E+00    0.844E+00
DAV:   7    -0.100039636500E+03    0.16633E+01   -0.40551E+00   104   0.672E+00    0.122E+00
DAV:   8    -0.999854126820E+02    0.54224E-01   -0.28876E-01   112   0.224E+00    0.610E-01
DAV:   9    -0.999502609845E+02    0.35152E-01   -0.69213E-02   120   0.755E-01    0.328E-01
DAV:  10    -0.999499374441E+02    0.32354E-03   -0.28518E-03   112   0.208E-01    0.146E-01
DAV:  11    -0.999496931745E+02    0.24427E-03   -0.60209E-03   104   0.225E-01    0.826E-02
DAV:  12    -0.999544113882E+02   -0.47182E-02   -0.13430E-03   102   0.106E-01    0.571E-02
DAV:  13    -0.999587110854E+02   -0.42997E-02   -0.17452E-03   112   0.109E-01    0.355E-02
DAV:  14    -0.999632929464E+02   -0.45819E-02   -0.38197E-04   112   0.596E-02    0.148E-02
DAV:  15    -0.999669071233E+02   -0.36142E-02   -0.37181E-04   112   0.511E-02    0.132E-02
DAV:  16    -0.999683896997E+02   -0.14826E-02   -0.10389E-04   112   0.277E-02    0.642E-03
DAV:  17    -0.999693766745E+02   -0.98697E-03   -0.85432E-05   104   0.222E-02    0.403E-03
DAV:  18    -0.999696749380E+02   -0.29826E-03   -0.10433E-05   104   0.842E-03    0.188E-03
DAV:  19    -0.999697900570E+02   -0.11512E-03   -0.38406E-06   104   0.511E-03    0.152E-03
DAV:  20    -0.999698382450E+02   -0.48188E-04   -0.89658E-07    88   0.321E-03    0.476E-04
DAV:  21    -0.999698602453E+02   -0.22000E-04   -0.63821E-07    88   0.207E-03    0.399E-04
DAV:  22    -0.999698686338E+02   -0.83885E-05   -0.18467E-07    88   0.123E-03    0.148E-04
DAV:  23    -0.999698716521E+02   -0.30184E-05   -0.74172E-08    88   0.717E-04    0.114E-04
DAV:  24    -0.999698738881E+02   -0.22360E-05   -0.30680E-08    88   0.454E-04    0.519E-05
DAV:  25    -0.999698745959E+02   -0.70776E-06   -0.11996E-08    88   0.287E-04
   1 F= -.99969875E+02 E0= -.99969875E+02  d E =-.999699E+02
       N       E                     dE             d eps       ncg     rms          rms(c)
DAV:   1    -0.100126805480E+03   -0.15693E+00   -0.74497E+00    84   0.112E+01    0.123E+00
DAV:   2    -0.100156284558E+03   -0.29479E-01   -0.36419E-01   120   0.241E+00    0.614E-01
DAV:   3    -0.100151891525E+03    0.43930E-02   -0.13370E-02   120   0.455E-01    0.315E-01
DAV:   4    -0.100150817028E+03    0.10745E-02   -0.59900E-03   112   0.275E-01    0.668E-02
DAV:   5    -0.100150657828E+03    0.15920E-03   -0.65959E-04   112   0.107E-01    0.414E-02
DAV:   6    -0.100150720238E+03   -0.62410E-04   -0.16853E-04   120   0.463E-02    0.226E-02
DAV:   7    -0.100150953720E+03   -0.23348E-03   -0.60803E-05   102   0.342E-02    0.875E-03
DAV:   8    -0.100151079393E+03   -0.12567E-03   -0.35213E-05   112   0.229E-02    0.928E-03
DAV:   9    -0.100151179683E+03   -0.10029E-03   -0.63494E-06   112   0.962E-03    0.705E-03
DAV:  10    -0.100151386736E+03   -0.20705E-03   -0.17828E-05   112   0.103E-02    0.329E-03
DAV:  11    -0.100151430626E+03   -0.43890E-04   -0.15334E-06    96   0.399E-03    0.253E-03
DAV:  12    -0.100151515638E+03   -0.85012E-04   -0.49007E-06   104   0.610E-03    0.133E-03
DAV:  13    -0.100151531436E+03   -0.15798E-04   -0.50238E-07    88   0.271E-03    0.608E-04
DAV:  14    -0.100151554391E+03   -0.22955E-04   -0.50027E-07    88   0.204E-03    0.463E-04
DAV:  15    -0.100151563591E+03   -0.91993E-05   -0.25773E-07    88   0.123E-03    0.391E-04
DAV:  16    -0.100151571435E+03   -0.78445E-05   -0.14154E-07    88   0.925E-04    0.244E-04
DAV:  17    -0.100151572229E+03   -0.79364E-06   -0.16637E-08    88   0.364E-04
   2 F= -.10015157E+03 E0= -.10015157E+03  d E =-.181698E+00
       N       E                     dE             d eps       ncg     rms          rms(c)
DAV:   1    -0.100157182061E+03   -0.56106E-02   -0.16791E-01    84   0.168E+00    0.173E-01
DAV:   2    -0.100157807013E+03   -0.62495E-03   -0.81759E-03   120   0.361E-01    0.957E-02
DAV:   3    -0.100157692160E+03    0.11485E-03   -0.32506E-04   120   0.708E-02    0.475E-02
DAV:   4    -0.100157658020E+03    0.34140E-04   -0.13115E-04   112   0.408E-02    0.118E-02
DAV:   5    -0.100157656092E+03    0.19284E-05   -0.13767E-05   110   0.156E-02    0.617E-03
DAV:   6    -0.100157665670E+03   -0.95780E-05   -0.47174E-06   104   0.764E-03    0.300E-03
DAV:   7    -0.100157684887E+03   -0.19217E-04   -0.18836E-06    88   0.528E-03    0.138E-03
DAV:   8    -0.100157691892E+03   -0.70049E-05   -0.75779E-07    88   0.335E-03    0.134E-03
DAV:   9    -0.100157698692E+03   -0.68008E-05   -0.30737E-07    88   0.183E-03    0.809E-04
DAV:  10    -0.100157709927E+03   -0.11235E-04   -0.95390E-07    96   0.218E-03    0.496E-04
DAV:  11    -0.100157711990E+03   -0.20622E-05   -0.65250E-08    88   0.793E-04    0.278E-04
DAV:  12    -0.100157715985E+03   -0.39954E-05   -0.22384E-07    88   0.116E-03    0.157E-04
DAV:  13    -0.100157716716E+03   -0.73104E-06   -0.33789E-08    88   0.549E-04
   3 F= -.10015772E+03 E0= -.10015772E+03  d E =-.187842E+00
       N       E                     dE             d eps       ncg     rms          rms(c)
DAV:   1    -0.100187561409E+03   -0.29845E-01   -0.64747E-01   100   0.361E+00    0.292E-01
DAV:   2    -0.100189235533E+03   -0.16741E-02   -0.26503E-02   112   0.561E-01    0.131E-01
DAV:   3    -0.100188939631E+03    0.29590E-03   -0.12887E-03   120   0.132E-01    0.699E-02
DAV:   4    -0.100188869546E+03    0.70085E-04   -0.35825E-04   112   0.641E-02    0.228E-02
DAV:   5    -0.100188865641E+03    0.39054E-05   -0.24595E-05   120   0.225E-02    0.126E-02
DAV:   6    -0.100188877072E+03   -0.11431E-04   -0.98639E-06   112   0.152E-02    0.422E-03
DAV:   7    -0.100188896118E+03   -0.19046E-04   -0.66125E-06   104   0.960E-03    0.251E-03
DAV:   8    -0.100188907238E+03   -0.11120E-04   -0.65554E-07    88   0.328E-03    0.166E-03
DAV:   9    -0.100188921701E+03   -0.14463E-04   -0.74729E-07    88   0.235E-03    0.621E-04
DAV:  10    -0.100188935344E+03   -0.13643E-04   -0.91364E-07    96   0.268E-03    0.655E-04
DAV:  11    -0.100188944621E+03   -0.92773E-05   -0.56624E-07    88   0.207E-03    0.461E-04
DAV:  12    -0.100188948219E+03   -0.35985E-05   -0.21336E-07    88   0.116E-03    0.332E-04
DAV:  13    -0.100188949687E+03   -0.14678E-05   -0.32415E-08    88   0.685E-04    0.146E-04
DAV:  14    -0.100188951962E+03   -0.22750E-05   -0.10169E-07    80   0.747E-04    0.146E-04
DAV:  15    -0.100188952226E+03   -0.26384E-06   -0.93581E-09    88   0.311E-04
   4 F= -.10018895E+03 E0= -.10018895E+03  d E =-.312355E-01
       N       E                     dE             d eps       ncg     rms          rms(c)
DAV:   1    -0.100194972319E+03   -0.60204E-02   -0.33940E-01   100   0.261E+00    0.209E-01
DAV:   2    -0.100195845742E+03   -0.87342E-03   -0.13823E-02   112   0.405E-01    0.947E-02
DAV:   3    -0.100195691210E+03    0.15453E-03   -0.67271E-04   120   0.952E-02    0.504E-02
DAV:   4    -0.100195653422E+03    0.37788E-04   -0.18399E-04   112   0.461E-02    0.165E-02
DAV:   5    -0.100195650250E+03    0.31720E-05   -0.12909E-05   120   0.163E-02    0.910E-03
DAV:   6    -0.100195655899E+03   -0.56490E-05   -0.50510E-06   104   0.109E-02    0.305E-03
DAV:   7    -0.100195666285E+03   -0.10385E-04   -0.33836E-06   104   0.683E-03    0.184E-03
DAV:   8    -0.100195672623E+03   -0.63382E-05   -0.33853E-07    88   0.235E-03    0.118E-03
DAV:   9    -0.100195681213E+03   -0.85906E-05   -0.39037E-07    88   0.169E-03    0.444E-04
DAV:  10    -0.100195689546E+03   -0.83325E-05   -0.47793E-07    88   0.194E-03    0.472E-04
DAV:  11    -0.100195695967E+03   -0.64213E-05   -0.41016E-07    88   0.162E-03    0.342E-04
DAV:  12    -0.100195697726E+03   -0.17591E-05   -0.85376E-08    88   0.808E-04    0.249E-04
DAV:  13    -0.100195698665E+03   -0.93836E-06   -0.21604E-08    86   0.534E-04
   5 F= -.10019570E+03 E0= -.10019570E+03  d E =-.379819E-01
       N       E                     dE             d eps       ncg     rms          rms(c)
DAV:   1    -0.100208449532E+03   -0.12752E-01   -0.44169E-01    84   0.295E+00    0.217E-01
DAV:   2    -0.100209694977E+03   -0.12454E-02   -0.20260E-02   104   0.508E-01    0.116E-01
DAV:   3    -0.100209502769E+03    0.19221E-03   -0.85551E-04   128   0.110E-01    0.627E-02
DAV:   4    -0.100209453033E+03    0.49736E-04   -0.20998E-04   112   0.521E-02    0.173E-02
DAV:   5    -0.100209442506E+03    0.10526E-04   -0.21125E-05   112   0.188E-02    0.913E-03
DAV:   6    -0.100209447530E+03   -0.50233E-05   -0.55442E-06   112   0.895E-03    0.409E-03
DAV:   7    -0.100209465189E+03   -0.17660E-04   -0.24482E-06   104   0.497E-03    0.183E-03
DAV:   8    -0.100209481237E+03   -0.16048E-04   -0.46482E-07    88   0.206E-03    0.992E-04
DAV:   9    -0.100209503434E+03   -0.22196E-04   -0.14240E-06    96   0.256E-03    0.657E-04
DAV:  10    -0.100209518161E+03   -0.14727E-04   -0.73062E-07    88   0.199E-03    0.307E-04
DAV:  11    -0.100209525806E+03   -0.76449E-05   -0.33392E-07    88   0.121E-03    0.278E-04
DAV:  12    -0.100209528561E+03   -0.27554E-05   -0.50000E-08    88   0.664E-04    0.132E-04
DAV:  13    -0.100209532389E+03   -0.38276E-05   -0.11852E-07    80   0.740E-04    0.795E-05
DAV:  14    -0.100209532975E+03   -0.58592E-06   -0.13037E-08    88   0.294E-04
   6 F= -.10020953E+03 E0= -.10020953E+03  d E =-.138343E-01
       N       E                     dE             d eps       ncg     rms          rms(c)
DAV:   1    -0.100210957611E+03   -0.14252E-02   -0.10930E-01    84   0.147E+00    0.108E-01
DAV:   2    -0.100211266610E+03   -0.30900E-03   -0.50404E-03   104   0.254E-01    0.579E-02
DAV:   3    -0.100211218556E+03    0.48054E-04   -0.21108E-04   120   0.545E-02    0.314E-02
DAV:   4    -0.100211204479E+03    0.14077E-04   -0.51703E-05   112   0.258E-02    0.859E-03
DAV:   5    -0.100211200650E+03    0.38290E-05   -0.51767E-06   112   0.928E-03    0.451E-03
DAV:   6    -0.100211201281E+03   -0.63097E-06   -0.12362E-06    88   0.448E-03
   7 F= -.10021120E+03 E0= -.10021120E+03  d E =-.155026E-01
       N       E                     dE             d eps       ncg     rms          rms(c)
DAV:   1    -0.100221962027E+03   -0.10761E-01   -0.50488E-01    84   0.330E+00    0.203E-01
DAV:   2    -0.100222157129E+03   -0.19510E-03   -0.82881E-03   112   0.362E-01    0.107E-01
DAV:   3    -0.100221921470E+03    0.23566E-03   -0.69599E-04   128   0.105E-01    0.466E-02
DAV:   4    -0.100221923085E+03   -0.16148E-05   -0.25330E-04   120   0.573E-02    0.154E-02
DAV:   5    -0.100221928707E+03   -0.56223E-05   -0.17862E-05   112   0.173E-02    0.814E-03
DAV:   6    -0.100221935665E+03   -0.69581E-05   -0.31509E-06    96   0.664E-03    0.294E-03
DAV:   7    -0.100221945301E+03   -0.96358E-05   -0.91685E-07    80   0.370E-03    0.992E-04
DAV:   8    -0.100221954182E+03   -0.88810E-05   -0.48575E-07    88   0.278E-03    0.878E-04
DAV:   9    -0.100221964684E+03   -0.10502E-04   -0.66600E-07    88   0.278E-03    0.533E-04
DAV:  10    -0.100221969823E+03   -0.51388E-05   -0.34471E-07    88   0.166E-03    0.299E-04
DAV:  11    -0.100221972390E+03   -0.25674E-05   -0.91778E-08    88   0.963E-04    0.186E-04
DAV:  12    -0.100221974808E+03   -0.24173E-05   -0.10575E-07    80   0.732E-04    0.105E-04
DAV:  13    -0.100221975782E+03   -0.97465E-06   -0.28385E-08    88   0.386E-04
   8 F= -.10022198E+03 E0= -.10022198E+03  d E =-.107745E-01
       N       E                     dE             d eps       ncg     rms          rms(c)
DAV:   1    -0.100224695442E+03   -0.27206E-02   -0.33339E-01    84   0.268E+00    0.164E-01
DAV:   2    -0.100224823593E+03   -0.12815E-03   -0.54902E-03   112   0.295E-01    0.865E-02
DAV:   3    -0.100224663461E+03    0.16013E-03   -0.45608E-04   120   0.848E-02    0.377E-02
DAV:   4    -0.100224660611E+03    0.28499E-05   -0.16592E-04   120   0.464E-02    0.125E-02
DAV:   5    -0.100224662699E+03   -0.20872E-05   -0.11691E-05   112   0.140E-02    0.658E-03
DAV:   6    -0.100224666028E+03   -0.33291E-05   -0.20939E-06    96   0.542E-03    0.237E-03
DAV:   7    -0.100224671537E+03   -0.55091E-05   -0.57848E-07    80   0.299E-03    0.800E-04
DAV:   8    -0.100224676835E+03   -0.52981E-05   -0.30051E-07    88   0.224E-03    0.704E-04
DAV:   9    -0.100224683585E+03   -0.67498E-05   -0.39869E-07    88   0.219E-03    0.414E-04
DAV:  10    -0.100224687123E+03   -0.35382E-05   -0.21801E-07    88   0.133E-03    0.240E-04
DAV:  11    -0.100224689009E+03   -0.18863E-05   -0.62422E-08    88   0.788E-04    0.149E-04
DAV:  12    -0.100224690692E+03   -0.16826E-05   -0.66661E-08    88   0.579E-04    0.849E-05
DAV:  13    -0.100224691392E+03   -0.70017E-06   -0.17780E-08    88   0.311E-04
   9 F= -.10022469E+03 E0= -.10022469E+03  d E =-.134901E-01
       N       E                     dE             d eps       ncg     rms          rms(c)
DAV:   1    -0.100229201672E+03   -0.45110E-02   -0.21079E-01    84   0.206E+00    0.135E-01
DAV:   2    -0.100229643180E+03   -0.44151E-03   -0.66517E-03   120   0.310E-01    0.756E-02
DAV:   3    -0.100229558106E+03    0.85074E-04   -0.27128E-04   120   0.652E-02    0.372E-02
DAV:   4    -0.100229543161E+03    0.14946E-04   -0.92830E-05   120   0.356E-02    0.993E-03
DAV:   5    -0.100229541256E+03    0.19045E-05   -0.92663E-06   120   0.140E-02    0.448E-03
DAV:   6    -0.100229542853E+03   -0.15970E-05   -0.31630E-06   112   0.699E-03    0.254E-03
DAV:   7    -0.100229547113E+03   -0.42602E-05   -0.41593E-07    88   0.313E-03    0.876E-04
DAV:   8    -0.100229551275E+03   -0.41619E-05   -0.26001E-07    88   0.235E-03    0.686E-04
DAV:   9    -0.100229558795E+03   -0.75201E-05   -0.44016E-07    80   0.237E-03    0.253E-04
DAV:  10    -0.100229562437E+03   -0.36421E-05   -0.25545E-07    88   0.160E-03    0.215E-04
DAV:  11    -0.100229564419E+03   -0.19818E-05   -0.52182E-08    88   0.836E-04    0.171E-04
DAV:  12    -0.100229566326E+03   -0.19070E-05   -0.54152E-08    88   0.575E-04    0.926E-05
DAV:  13    -0.100229567573E+03   -0.12471E-05   -0.35007E-08    88   0.420E-04    0.623E-05
DAV:  14    -0.100229568191E+03   -0.61768E-06   -0.11124E-08    88   0.256E-04
  10 F= -.10022957E+03 E0= -.10022957E+03  d E =-.487680E-02
       N       E                     dE             d eps       ncg     rms          rms(c)
DAV:   1    -0.100230421245E+03   -0.85367E-03   -0.12776E-01    84   0.160E+00    0.105E-01
DAV:   2    -0.100230685266E+03   -0.26402E-03   -0.40150E-03   120   0.240E-01    0.588E-02
DAV:   3    -0.100230632674E+03    0.52592E-04   -0.16448E-04   120   0.507E-02    0.289E-02
DAV:   4    -0.100230622844E+03    0.98299E-05   -0.55384E-05   120   0.275E-02    0.773E-03
DAV:   5    -0.100230621514E+03    0.13300E-05   -0.54759E-06   120   0.108E-02    0.349E-03
DAV:   6    -0.100230622518E+03   -0.10037E-05   -0.17389E-06    96   0.544E-03    0.185E-03
DAV:   7    -0.100230625312E+03   -0.27945E-05   -0.34173E-07    88   0.287E-03    0.662E-04
DAV:   8    -0.100230628158E+03   -0.28454E-05   -0.19776E-07    88   0.204E-03    0.534E-04
DAV:   9    -0.100230633473E+03   -0.53151E-05   -0.31843E-07    80   0.199E-03    0.226E-04
DAV:  10    -0.100230635435E+03   -0.19620E-05   -0.13686E-07    88   0.123E-03    0.202E-04
DAV:  11    -0.100230636406E+03   -0.97156E-06   -0.22511E-08    88   0.558E-04
  11 F= -.10023064E+03 E0= -.10023064E+03  d E =-.594501E-02
       N       E                     dE             d eps       ncg     rms          rms(c)
DAV:   1    -0.100232220137E+03   -0.15847E-02   -0.11775E-01    84   0.151E+00    0.104E-01
DAV:   2    -0.100232477710E+03   -0.25757E-03   -0.38158E-03   120   0.246E-01    0.629E-02
DAV:   3    -0.100232431600E+03    0.46110E-04   -0.15302E-04   112   0.524E-02    0.324E-02
DAV:   4    -0.100232427374E+03    0.42257E-05   -0.71480E-05   112   0.317E-02    0.805E-03
DAV:   5    -0.100232427461E+03   -0.86906E-07   -0.85328E-06   112   0.119E-02
  12 F= -.10023243E+03 E0= -.10023243E+03  d E =-.179105E-02
       N       E                     dE             d eps       ncg     rms          rms(c)
DAV:   1    -0.100232456701E+03   -0.29327E-04   -0.30741E-03    84   0.244E-01    0.175E-02
DAV:   2    -0.100232463233E+03   -0.65323E-05   -0.10506E-04   120   0.406E-02    0.102E-02
DAV:   3    -0.100232461937E+03    0.12966E-05   -0.38818E-06   112   0.836E-03    0.529E-03
DAV:   4    -0.100232462920E+03   -0.98294E-06   -0.16285E-06    72   0.510E-03
  13 F= -.10023246E+03 E0= -.10023246E+03  d E =-.182651E-02
       N       E                     dE             d eps       ncg     rms          rms(c)
DAV:   1    -0.100233691156E+03   -0.12292E-02   -0.98098E-02    84   0.138E+00    0.985E-02
DAV:   2    -0.100233871771E+03   -0.18061E-03   -0.31625E-03   120   0.220E-01    0.578E-02
DAV:   3    -0.100233832046E+03    0.39725E-04   -0.14385E-04   120   0.493E-02    0.302E-02
DAV:   4    -0.100233826625E+03    0.54214E-05   -0.47354E-05   112   0.280E-02    0.797E-03
DAV:   5    -0.100233827201E+03   -0.57692E-06   -0.57998E-06   112   0.105E-02
  14 F= -.10023383E+03 E0= -.10023383E+03  d E =-.136428E-02
       N       E                     dE             d eps       ncg     rms          rms(c)
DAV:   1    -0.100233849572E+03   -0.22947E-04   -0.26596E-03    84   0.227E-01    0.166E-02
DAV:   2    -0.100233854794E+03   -0.52216E-05   -0.92386E-05   120   0.375E-02    0.947E-03
DAV:   3    -0.100233854085E+03    0.70840E-06   -0.38447E-06   112   0.810E-03
  15 F= -.10023385E+03 E0= -.10023385E+03  d E =-.139117E-02
       N       E                     dE             d eps       ncg     rms          rms(c)
DAV:   1    -0.100234193044E+03   -0.33825E-03   -0.20649E-02    84   0.635E-01    0.505E-02
DAV:   2    -0.100234251990E+03   -0.58947E-04   -0.83241E-04   112   0.104E-01    0.254E-02
DAV:   3    -0.100234246534E+03    0.54561E-05   -0.30806E-05   120   0.216E-02    0.140E-02
DAV:   4    -0.100234247694E+03   -0.11604E-05   -0.91671E-06   112   0.125E-02    0.333E-03
DAV:   5    -0.100234249187E+03   -0.14921E-05   -0.14660E-06    88   0.571E-03    0.188E-03
DAV:   6    -0.100234250613E+03   -0.14263E-05   -0.34321E-07    88   0.265E-03    0.104E-03
DAV:   7    -0.100234252820E+03   -0.22070E-05   -0.18952E-07    88   0.177E-03    0.321E-04
DAV:   8    -0.100234254352E+03   -0.15323E-05   -0.78738E-08    88   0.105E-03    0.249E-04
DAV:   9    -0.100234256070E+03   -0.17176E-05   -0.67063E-08    88   0.793E-04    0.117E-04
DAV:  10    -0.100234256887E+03   -0.81766E-06   -0.31226E-08    88   0.524E-04
  16 F= -.10023426E+03 E0= -.10023426E+03  d E =-.402802E-03
