       N       E                     dE             d eps       ncg     rms          rms(c)
DAV:   1     0.248308290182E+03    0.24831E+03   -0.10151E+04   120   0.484E+02
DAV:   2    -0.210945617072E+02   -0.26940E+03   -0.25491E+03   156   0.919E+01
DAV:   3    -0.101451004573E+03   -0.80356E+02   -0.80126E+02   120   0.556E+01
DAV:   4    -0.105406682411E+03   -0.39557E+01   -0.39401E+01   120   0.176E+01
DAV:   5    -0.105483071075E+03   -0.76389E-01   -0.76309E-01   156   0.270E+00    0.151E+01
DAV:   6    -0.102036859682E+03    0.34462E+01   -0.16177E+00   108   0.440E+00    0.866E+00
DAV:   7    -0.100308952345E+03    0.17279E+01   -0.43072E+00   120   0.640E+00    0.130E+00
DAV:   8    -0.100252221642E+03    0.56731E-01   -0.35811E-01   132   0.228E+00    0.708E-01
DAV:   9    -0.100215894224E+03    0.36327E-01   -0.64828E-02   144   0.696E-01    0.390E-01
DAV:  10    -0.100214750687E+03    0.11435E-02   -0.41242E-03   132   0.220E-01    0.146E-01
DAV:  11    -0.100213691765E+03    0.10589E-02   -0.64251E-03   120   0.220E-01    0.113E-01
DAV:  12    -0.100220266588E+03   -0.65748E-02   -0.18165E-03   132   0.118E-01    0.514E-02
DAV:  13    -0.100223070389E+03   -0.28038E-02   -0.17557E-03   132   0.113E-01    0.504E-02
DAV:  14    -0.100226127038E+03   -0.30566E-02   -0.21941E-04   120   0.541E-02    0.211E-02
DAV:  15    -0.100230730709E+03   -0.46037E-02   -0.52742E-04   108   0.570E-02    0.140E-02
DAV:  16    -0.100232708157E+03   -0.19774E-02   -0.17958E-04   132   0.369E-02    0.951E-03
DAV:  17    -0.100233593245E+03   -0.88509E-03   -0.63892E-05   108   0.195E-02    0.660E-03
DAV:  18    -0.100233964536E+03   -0.37129E-03   -0.13811E-05   132   0.934E-03    0.177E-03
DAV:  19    -0.100234158379E+03   -0.19384E-03   -0.73108E-06   108   0.609E-03    0.189E-03
DAV:  20    -0.100234218438E+03   -0.60059E-04   -0.12047E-06   108   0.305E-03    0.655E-04
DAV:  21    -0.100234234454E+03   -0.16016E-04   -0.35564E-07   108   0.157E-03    0.522E-04
DAV:  22    -0.100234248285E+03   -0.13830E-04   -0.30110E-07   108   0.129E-03    0.248E-04
DAV:  23    -0.100234252780E+03   -0.44953E-05   -0.10260E-07   108   0.744E-04    0.119E-04
DAV:  24    -0.100234256440E+03   -0.36603E-05   -0.62626E-08   108   0.526E-04    0.594E-05
DAV:  25    -0.100234257213E+03   -0.77306E-06   -0.37570E-09   108   0.243E-04
   1 F= -.10023426E+03 E0= -.10023426E+03  d E =-.808603E-11
       N       E                     dE             d eps       ncg     rms          rms(c)
DAV:   1    -0.100229791884E+03    0.44646E-02   -0.84894E-02    96   0.823E-01    0.111E-01
DAV:   2    -0.100230300151E+03   -0.50827E-03   -0.52137E-03   144   0.230E-01    0.764E-02
DAV:   3    -0.100230287761E+03    0.12389E-04   -0.11759E-04   144   0.386E-02    0.517E-02
DAV:   4    -0.100230274488E+03    0.13274E-04   -0.37326E-05   132   0.230E-02    0.995E-03
DAV:   5    -0.100230270709E+03    0.37789E-05   -0.81312E-06   144   0.103E-02    0.383E-03
DAV:   6    -0.100230273267E+03   -0.25587E-05   -0.12322E-06   120   0.471E-03    0.222E-03
DAV:   7    -0.100230282582E+03   -0.93145E-05   -0.17192E-06   120   0.467E-03    0.104E-03
DAV:   8    -0.100230294022E+03   -0.11441E-04   -0.12013E-06   120   0.319E-03    0.937E-04
DAV:   9    -0.100230300362E+03   -0.63401E-05   -0.23084E-07   108   0.135E-03    0.672E-04
DAV:  10    -0.100230307928E+03   -0.75654E-05   -0.55580E-07   120   0.136E-03    0.244E-04
DAV:  11    -0.100230310714E+03   -0.27857E-05   -0.92369E-08   120   0.676E-04    0.162E-04
DAV:  12    -0.100230313959E+03   -0.32459E-05   -0.17703E-07   108   0.768E-04    0.802E-05
DAV:  13    -0.100230314862E+03   -0.90284E-06   -0.26666E-08   120   0.350E-04
   2 F= -.10023031E+03 E0= -.10023031E+03  d E =-.131168E-10
       N       E                     dE             d eps       ncg     rms          rms(c)
DAV:   1    -0.100228392331E+03    0.19216E-02   -0.33714E-01    96   0.165E+00    0.218E-01
DAV:   2    -0.100230447027E+03   -0.20547E-02   -0.21094E-02   144   0.456E-01    0.151E-01
DAV:   3    -0.100230405955E+03    0.41073E-04   -0.46327E-04   132   0.783E-02    0.949E-02
DAV:   4    -0.100230383803E+03    0.22152E-04   -0.17578E-04   132   0.500E-02    0.157E-02
DAV:   5    -0.100230374414E+03    0.93895E-05   -0.35940E-05   132   0.218E-02    0.908E-03
DAV:   6    -0.100230374896E+03   -0.48276E-06   -0.67190E-06   132   0.976E-03
   3 F= -.10023037E+03 E0= -.10023037E+03  d E =-.561532E-11
       N       E                     dE             d eps       ncg     rms          rms(c)
DAV:   1    -0.100228052548E+03    0.23219E-02   -0.17126E-01    96   0.116E+00    0.159E-01
DAV:   2    -0.100229284451E+03   -0.12319E-02   -0.12168E-02   132   0.356E-01    0.115E-01
DAV:   3    -0.100229272538E+03    0.11912E-04   -0.25387E-04   144   0.628E-02    0.669E-02
DAV:   4    -0.100229299385E+03   -0.26847E-04   -0.15767E-04   132   0.466E-02    0.108E-02
DAV:   5    -0.100229298149E+03    0.12363E-05   -0.40036E-05   144   0.220E-02    0.810E-03
DAV:   6    -0.100229298995E+03   -0.84687E-06   -0.61153E-06   132   0.739E-03
   4 F= -.10022930E+03 E0= -.10022930E+03  d E =-.106043E-10
       N       E                     dE             d eps       ncg     rms          rms(c)
DAV:   1    -0.100227265520E+03    0.20326E-02   -0.35940E-01    96   0.168E+00    0.288E-01
DAV:   2    -0.100229428337E+03   -0.21628E-02   -0.22037E-02   132   0.502E-01    0.171E-01
DAV:   3    -0.100229337472E+03    0.90864E-04   -0.61696E-04   132   0.103E-01    0.820E-02
DAV:   4    -0.100229366042E+03   -0.28569E-04   -0.38591E-04   132   0.677E-02    0.173E-02
DAV:   5    -0.100229352935E+03    0.13106E-04   -0.50606E-05   132   0.254E-02    0.105E-02
DAV:   6    -0.100229353944E+03   -0.10090E-05   -0.14254E-05   132   0.101E-02    0.482E-03
DAV:   7    -0.100229366736E+03   -0.12791E-04   -0.12131E-06   120   0.377E-03    0.217E-03
DAV:   8    -0.100229389234E+03   -0.22498E-04   -0.32365E-06   120   0.434E-03    0.125E-03
DAV:   9    -0.100229401092E+03   -0.11858E-04   -0.10165E-06   120   0.246E-03    0.131E-03
DAV:  10    -0.100229416903E+03   -0.15811E-04   -0.11058E-06   120   0.234E-03    0.325E-04
DAV:  11    -0.100229422132E+03   -0.52291E-05   -0.21035E-07   108   0.111E-03    0.453E-04
DAV:  12    -0.100229427600E+03   -0.54673E-05   -0.18451E-07   108   0.961E-04    0.139E-04
DAV:  13    -0.100229429846E+03   -0.22466E-05   -0.72074E-08   108   0.570E-04    0.119E-04
DAV:  14    -0.100229431603E+03   -0.17567E-05   -0.23134E-08   108   0.399E-04    0.430E-05
DAV:  15    -0.100229432125E+03   -0.52254E-06   -0.18504E-09   108   0.194E-04
   5 F= -.10022943E+03 E0= -.10022943E+03  d E =-.826837E-11
       N       E                     dE             d eps       ncg     rms          rms(c)
DAV:   1    -0.100229816587E+03   -0.38498E-03   -0.17418E-01    96   0.120E+00    0.176E-01
DAV:   2    -0.100231041024E+03   -0.12244E-02   -0.12532E-02   132   0.364E-01    0.118E-01
DAV:   3    -0.100230983944E+03    0.57080E-04   -0.28544E-04   144   0.698E-02    0.593E-02
DAV:   4    -0.100230986519E+03   -0.25751E-05   -0.18599E-04   132   0.480E-02    0.117E-02
DAV:   5    -0.100230981147E+03    0.53727E-05   -0.33745E-05   132   0.205E-02    0.790E-03
DAV:   6    -0.100230983591E+03   -0.24445E-05   -0.65637E-06   132   0.705E-03    0.429E-03
DAV:   7    -0.100230993964E+03   -0.10373E-04   -0.70662E-07   108   0.297E-03    0.196E-03
DAV:   8    -0.100231011396E+03   -0.17432E-04   -0.26049E-06   120   0.427E-03    0.127E-03
DAV:   9    -0.100231021461E+03   -0.10065E-04   -0.82435E-07   120   0.247E-03    0.114E-03
DAV:  10    -0.100231031750E+03   -0.10290E-04   -0.63067E-07   108   0.184E-03    0.331E-04
DAV:  11    -0.100231035861E+03   -0.41107E-05   -0.23656E-07   108   0.105E-03    0.263E-04
DAV:  12    -0.100231039795E+03   -0.39345E-05   -0.12096E-07   108   0.770E-04    0.132E-04
DAV:  13    -0.100231041800E+03   -0.20045E-05   -0.73274E-08   108   0.542E-04    0.109E-04
DAV:  14    -0.100231043027E+03   -0.12272E-05   -0.20712E-08   108   0.328E-04    0.567E-05
DAV:  15    -0.100231043497E+03   -0.46968E-06   -0.32692E-10   108   0.186E-04
   6 F= -.10023104E+03 E0= -.10023104E+03  d E =-.625277E-11
       N       E                     dE             d eps       ncg     rms          rms(c)
DAV:   1    -0.100228984445E+03    0.20586E-02   -0.32817E-01    96   0.162E+00    0.196E-01
DAV:   2    -0.100230812148E+03   -0.18277E-02   -0.18649E-02   132   0.425E-01    0.126E-01
DAV:   3    -0.100230807009E+03    0.51391E-05   -0.46669E-04   132   0.821E-02    0.632E-02
DAV:   4    -0.100230818115E+03   -0.11106E-04   -0.15021E-04   132   0.497E-02    0.130E-02
DAV:   5    -0.100230811724E+03    0.63914E-05   -0.35805E-05   144   0.225E-02    0.882E-03
DAV:   6    -0.100230812705E+03   -0.98145E-06   -0.66821E-06   132   0.805E-03
   7 F= -.10023081E+03 E0= -.10023081E+03  d E =-.163060E-10
       N       E                     dE             d eps       ncg     rms          rms(c)
DAV:   1    -0.100228271962E+03    0.25398E-02   -0.16727E-01    96   0.130E+00    0.157E-01
DAV:   2    -0.100229642015E+03   -0.13701E-02   -0.13925E-02   132   0.408E-01    0.112E-01
DAV:   3    -0.100229606784E+03    0.35231E-04   -0.31472E-04   144   0.724E-02    0.676E-02
DAV:   4    -0.100229624473E+03   -0.17689E-04   -0.17646E-04   120   0.569E-02    0.117E-02
DAV:   5    -0.100229624771E+03   -0.29787E-06   -0.62982E-05   144   0.290E-02    0.968E-03
DAV:   6    -0.100229623373E+03    0.13981E-05   -0.54697E-06   120   0.799E-03    0.684E-03
DAV:   7    -0.100229626435E+03   -0.30623E-05   -0.19679E-06   132   0.539E-03    0.283E-03
DAV:   8    -0.100229632100E+03   -0.56651E-05   -0.71531E-07    96   0.384E-03    0.764E-04
DAV:   9    -0.100229639371E+03   -0.72714E-05   -0.73237E-07   108   0.275E-03    0.118E-03
DAV:  10    -0.100229647843E+03   -0.84716E-05   -0.39937E-07    96   0.183E-03    0.374E-04
DAV:  11    -0.100229650724E+03   -0.28809E-05   -0.12056E-07   108   0.920E-04    0.258E-04
DAV:  12    -0.100229654508E+03   -0.37844E-05   -0.10954E-07    96   0.738E-04    0.103E-04
DAV:  13    -0.100229656410E+03   -0.19023E-05   -0.49526E-08   108   0.488E-04    0.146E-04
DAV:  14    -0.100229657819E+03   -0.14091E-05   -0.22443E-08    96   0.339E-04    0.817E-05
DAV:  15    -0.100229658366E+03   -0.54686E-06   -0.21080E-09   108   0.201E-04
   8 F= -.10022966E+03 E0= -.10022966E+03  d E =-.803014E-11
       N       E                     dE             d eps       ncg     rms          rms(c)
DAV:   1    -0.100227504709E+03    0.21531E-02   -0.34965E-01    96   0.182E+00    0.238E-01
DAV:   2    -0.100229909736E+03   -0.24050E-02   -0.24532E-02   132   0.564E-01    0.170E-01
DAV:   3    -0.100229807675E+03    0.10206E-03   -0.55165E-04   132   0.102E-01    0.902E-02
DAV:   4    -0.100229813035E+03   -0.53603E-05   -0.35279E-04   132   0.738E-02    0.166E-02
DAV:   5    -0.100229806421E+03    0.66142E-05   -0.77617E-05   132   0.325E-02    0.116E-02
DAV:   6    -0.100229811912E+03   -0.54916E-05   -0.16362E-05   132   0.119E-02    0.705E-03
DAV:   7    -0.100229832226E+03   -0.20313E-04   -0.20977E-06   132   0.514E-03    0.318E-03
DAV:   8    -0.100229862483E+03   -0.30257E-04   -0.31577E-06   132   0.483E-03    0.107E-03
DAV:   9    -0.100229883289E+03   -0.20806E-04   -0.22244E-06   132   0.371E-03    0.166E-03
DAV:  10    -0.100229905663E+03   -0.22374E-04   -0.19725E-06   132   0.323E-03    0.456E-04
DAV:  11    -0.100229911341E+03   -0.56786E-05   -0.23762E-07   108   0.127E-03    0.299E-04
DAV:  12    -0.100229917097E+03   -0.57555E-05   -0.21490E-07   108   0.986E-04    0.162E-04
DAV:  13    -0.100229919625E+03   -0.25282E-05   -0.87696E-08   108   0.582E-04    0.183E-04
DAV:  14    -0.100229921434E+03   -0.18091E-05   -0.31859E-08   108   0.415E-04    0.698E-05
DAV:  15    -0.100229921951E+03   -0.51720E-06   -0.30987E-09   108   0.211E-04
   9 F= -.10022992E+03 E0= -.10022992E+03  d E =-.100975E-10
       N       E                     dE             d eps       ncg     rms          rms(c)
DAV:   1    -0.100228825250E+03    0.10962E-02   -0.17452E-01    96   0.130E+00    0.185E-01
DAV:   2    -0.100230151114E+03   -0.13259E-02   -0.13462E-02   132   0.417E-01    0.127E-01
DAV:   3    -0.100230079208E+03    0.71907E-04   -0.30314E-04   132   0.766E-02    0.656E-02
DAV:   4    -0.100230081042E+03   -0.18344E-05   -0.21540E-04   132   0.563E-02    0.126E-02
DAV:   5    -0.100230074567E+03    0.64751E-05   -0.43527E-05   132   0.246E-02    0.842E-03
DAV:   6    -0.100230075808E+03   -0.12411E-05   -0.81188E-06   132   0.790E-03    0.459E-03
DAV:   7    -0.100230086664E+03   -0.10855E-04   -0.63761E-07   108   0.278E-03    0.224E-03
DAV:   8    -0.100230106889E+03   -0.20225E-04   -0.29901E-06   132   0.452E-03    0.137E-03
DAV:   9    -0.100230116815E+03   -0.99262E-05   -0.69733E-07   108   0.240E-03    0.130E-03
DAV:  10    -0.100230129646E+03   -0.12831E-04   -0.96888E-07   108   0.217E-03    0.374E-04
DAV:  11    -0.100230133449E+03   -0.38027E-05   -0.13976E-07   108   0.100E-03    0.239E-04
DAV:  12    -0.100230137285E+03   -0.38358E-05   -0.11228E-07    84   0.731E-04    0.177E-04
DAV:  13    -0.100230138785E+03   -0.15001E-05   -0.29573E-08   108   0.380E-04    0.160E-04
DAV:  14    -0.100230140340E+03   -0.15552E-05   -0.24391E-08    84   0.360E-04    0.604E-05
DAV:  15    -0.100230140590E+03   -0.25030E-06    0.19708E-09   108   0.160E-04
  10 F= -.10023014E+03 E0= -.10023014E+03  d E =-.839657E-11
       N       E                     dE             d eps       ncg     rms          rms(c)
DAV:   1    -0.100228392955E+03    0.17474E-02   -0.33830E-01    96   0.180E+00    0.223E-01
DAV:   2    -0.100230547582E+03   -0.21546E-02   -0.21925E-02   132   0.514E-01    0.151E-01
DAV:   3    -0.100230484141E+03    0.63441E-04   -0.47881E-04   132   0.898E-02    0.808E-02
DAV:   4    -0.100230487997E+03   -0.38556E-05   -0.25905E-04   132   0.643E-02    0.148E-02
DAV:   5    -0.100230479680E+03    0.83165E-05   -0.61205E-05   132   0.294E-02    0.111E-02
DAV:   6    -0.100230478504E+03    0.11760E-05   -0.11603E-05   144   0.108E-02    0.682E-03
DAV:   7    -0.100230487606E+03   -0.91016E-05   -0.21608E-06   132   0.565E-03    0.285E-03
DAV:   8    -0.100230503734E+03   -0.16129E-04   -0.16740E-06   132   0.472E-03    0.119E-03
DAV:   9    -0.100230520314E+03   -0.16579E-04   -0.12597E-06   120   0.319E-03    0.142E-03
DAV:  10    -0.100230537506E+03   -0.17192E-04   -0.83989E-07   108   0.236E-03    0.494E-04
DAV:  11    -0.100230545232E+03   -0.77261E-05   -0.33256E-07   108   0.133E-03    0.288E-04
DAV:  12    -0.100230552266E+03   -0.70340E-05   -0.19033E-07   108   0.927E-04    0.201E-04
DAV:  13    -0.100230554854E+03   -0.25886E-05   -0.48204E-08   108   0.491E-04    0.157E-04
DAV:  14    -0.100230557200E+03   -0.23453E-05   -0.34568E-08   108   0.398E-04    0.656E-05
DAV:  15    -0.100230557980E+03   -0.77996E-06   -0.36676E-09   108   0.226E-04
  11 F= -.10023056E+03 E0= -.10023056E+03  d E =-.824036E-11
       N       E                     dE             d eps       ncg     rms          rms(c)
DAV:   1    -0.100229425975E+03    0.11312E-02   -0.17098E-01    96   0.129E+00    0.159E-01
DAV:   2    -0.100230597740E+03   -0.11718E-02   -0.12040E-02   144   0.383E-01    0.115E-01
DAV:   3    -0.100230554836E+03    0.42904E-04   -0.24485E-04   132   0.640E-02    0.649E-02
DAV:   4    -0.100230534713E+03    0.20123E-04   -0.13323E-04   132   0.441E-02    0.104E-02
DAV:   5    -0.100230532811E+03    0.19020E-05   -0.23813E-05   132   0.183E-02    0.735E-03
DAV:   6    -0.100230538239E+03   -0.54277E-05   -0.64495E-06   132   0.863E-03    0.461E-03
DAV:   7    -0.100230555985E+03   -0.17746E-04   -0.23539E-06   132   0.558E-03    0.167E-03
DAV:   8    -0.100230575955E+03   -0.19969E-04   -0.16292E-06   120   0.428E-03    0.103E-03
DAV:   9    -0.100230594063E+03   -0.18108E-04   -0.17598E-06   108   0.330E-03    0.105E-03
DAV:  10    -0.100230608504E+03   -0.14441E-04   -0.13031E-06   108   0.248E-03    0.338E-04
DAV:  11    -0.100230611354E+03   -0.28496E-05   -0.82471E-08   108   0.823E-04    0.227E-04
DAV:  12    -0.100230615836E+03   -0.44826E-05   -0.23316E-07    84   0.991E-04    0.131E-04
DAV:  13    -0.100230617061E+03   -0.12245E-05   -0.42537E-08   108   0.462E-04    0.112E-04
DAV:  14    -0.100230618099E+03   -0.10387E-05   -0.16386E-08    96   0.339E-04    0.565E-05
DAV:  15    -0.100230618548E+03   -0.44880E-06   -0.34854E-09   108   0.212E-04
  12 F= -.10023062E+03 E0= -.10023062E+03  d E =-.818319E-11
       N       E                     dE             d eps       ncg     rms          rms(c)
DAV:   1    -0.100228592724E+03    0.20254E-02   -0.33650E-01    96   0.179E+00    0.205E-01
DAV:   2    -0.100230575133E+03   -0.19824E-02   -0.20322E-02   144   0.480E-01    0.139E-01
DAV:   3    -0.100230542541E+03    0.32592E-04   -0.46937E-04   132   0.840E-02    0.726E-02
DAV:   4    -0.100230536421E+03    0.61205E-05   -0.16432E-04   132   0.513E-02    0.130E-02
DAV:   5    -0.100230527264E+03    0.91571E-05   -0.34132E-05   144   0.228E-02    0.881E-03
DAV:   6    -0.100230528983E+03   -0.17191E-05   -0.70807E-06   120   0.888E-03    0.567E-03
DAV:   7    -0.100230541418E+03   -0.12435E-04   -0.18442E-06   132   0.632E-03    0.221E-03
DAV:   8    -0.100230559036E+03   -0.17618E-04   -0.18946E-06   132   0.589E-03    0.162E-03
DAV:   9    -0.100230575777E+03   -0.16741E-04   -0.10846E-06   108   0.365E-03    0.139E-03
DAV:  10    -0.100230590559E+03   -0.14782E-04   -0.61011E-07   108   0.195E-03    0.588E-04
DAV:  11    -0.100230601083E+03   -0.10524E-04   -0.47861E-07    96   0.149E-03    0.349E-04
DAV:  12    -0.100230606144E+03   -0.50609E-05   -0.11229E-07   108   0.820E-04    0.195E-04
DAV:  13    -0.100230612166E+03   -0.60219E-05   -0.19744E-07    84   0.855E-04    0.175E-04
DAV:  14    -0.100230613405E+03   -0.12395E-05   -0.15938E-08   120   0.353E-04    0.133E-04
DAV:  15    -0.100230615197E+03   -0.17914E-05   -0.20348E-08    96   0.337E-04    0.609E-05
DAV:  16    -0.100230615669E+03   -0.47277E-06    0.24082E-10   108   0.189E-04
  13 F= -.10023062E+03 E0= -.10023062E+03  d E =-.837173E-11
       N       E                     dE             d eps       ncg     rms          rms(c)
DAV:   1    -0.100228132126E+03    0.24831E-02   -0.16932E-01    96   0.130E+00    0.158E-01
DAV:   2    -0.100229488511E+03   -0.13564E-02   -0.13849E-02   144   0.407E-01    0.116E-01
DAV:   3    -0.100229442898E+03    0.45613E-04   -0.27829E-04   156   0.666E-02    0.714E-02
DAV:   4    -0.100229429103E+03    0.13795E-04   -0.17177E-04   132   0.530E-02    0.111E-02
DAV:   5    -0.100229426435E+03    0.26683E-05   -0.53190E-05   132   0.264E-02    0.833E-03
DAV:   6    -0.100229426125E+03    0.31003E-06   -0.55088E-06   144   0.827E-03
  14 F= -.10022943E+03 E0= -.10022943E+03  d E =-.895187E-11
       N       E                     dE             d eps       ncg     rms          rms(c)
DAV:   1    -0.100227315119E+03    0.21113E-02   -0.35216E-01    96   0.182E+00    0.243E-01
DAV:   2    -0.100229803294E+03   -0.24882E-02   -0.24961E-02   132   0.569E-01    0.174E-01
DAV:   3    -0.100229718715E+03    0.84579E-04   -0.56238E-04   120   0.104E-01    0.913E-02
DAV:   4    -0.100229743279E+03   -0.24564E-04   -0.38627E-04   132   0.761E-02    0.170E-02
DAV:   5    -0.100229733015E+03    0.10265E-04   -0.80588E-05   120   0.331E-02    0.116E-02
DAV:   6    -0.100229734263E+03   -0.12480E-05   -0.16531E-05   132   0.116E-02    0.697E-03
DAV:   7    -0.100229748920E+03   -0.14657E-04   -0.14593E-06    96   0.445E-03    0.332E-03
DAV:   8    -0.100229772709E+03   -0.23789E-04   -0.30245E-06   120   0.487E-03    0.113E-03
DAV:   9    -0.100229785854E+03   -0.13145E-04   -0.14889E-06   132   0.319E-03    0.162E-03
DAV:  10    -0.100229802890E+03   -0.17037E-04   -0.12333E-06   108   0.262E-03    0.533E-04
DAV:  11    -0.100229808726E+03   -0.58358E-05   -0.31362E-07   108   0.134E-03    0.304E-04
DAV:  12    -0.100229813490E+03   -0.47635E-05   -0.16983E-07    84   0.881E-04    0.146E-04
DAV:  13    -0.100229816320E+03   -0.28302E-05   -0.10923E-07    96   0.640E-04    0.183E-04
DAV:  14    -0.100229818073E+03   -0.17529E-05   -0.41131E-08    96   0.446E-04    0.922E-05
DAV:  15    -0.100229818630E+03   -0.55682E-06   -0.48587E-09    96   0.223E-04
  15 F= -.10022982E+03 E0= -.10022982E+03  d E =-.105807E-10
       N       E                     dE             d eps       ncg     rms          rms(c)
DAV:   1    -0.100229200851E+03    0.61722E-03   -0.17079E-01    96   0.128E+00    0.152E-01
DAV:   2    -0.100230233933E+03   -0.10331E-02   -0.10638E-02   120   0.359E-01    0.105E-01
DAV:   3    -0.100230208691E+03    0.25242E-04   -0.23060E-04   132   0.606E-02    0.541E-02
DAV:   4    -0.100230203241E+03    0.54501E-05   -0.97256E-05   120   0.382E-02    0.983E-03
DAV:   5    -0.100230197274E+03    0.59672E-05   -0.18712E-05   132   0.168E-02    0.587E-03
DAV:   6    -0.100230197361E+03   -0.87568E-07   -0.46156E-06   132   0.728E-03
  16 F= -.10023020E+03 E0= -.10023020E+03  d E =-.105307E-10
       N       E                     dE             d eps       ncg     rms          rms(c)
DAV:   1    -0.100227633785E+03    0.25635E-02   -0.34094E-01    96   0.179E+00    0.220E-01
DAV:   2    -0.100229917188E+03   -0.22834E-02   -0.22867E-02   144   0.525E-01    0.158E-01
DAV:   3    -0.100229877128E+03    0.40060E-04   -0.47934E-04   132   0.884E-02    0.897E-02
DAV:   4    -0.100229867141E+03    0.99869E-05   -0.24125E-04   108   0.608E-02    0.145E-02
DAV:   5    -0.100229861417E+03    0.57235E-05   -0.47913E-05   132   0.261E-02    0.105E-02
DAV:   6    -0.100229866370E+03   -0.49523E-05   -0.11069E-05   132   0.111E-02    0.667E-03
DAV:   7    -0.100229887402E+03   -0.21033E-04   -0.33391E-06   132   0.681E-03    0.242E-03
DAV:   8    -0.100229910551E+03   -0.23148E-04   -0.20332E-06   120   0.489E-03    0.124E-03
DAV:   9    -0.100229933980E+03   -0.23429E-04   -0.25370E-06   132   0.401E-03    0.130E-03
DAV:  10    -0.100229951545E+03   -0.17566E-04   -0.15094E-06    96   0.272E-03    0.468E-04
DAV:  11    -0.100229956913E+03   -0.53673E-05   -0.21217E-07   108   0.112E-03    0.297E-04
DAV:  12    -0.100229963500E+03   -0.65876E-05   -0.39114E-07    96   0.125E-03    0.160E-04
DAV:  13    -0.100229965108E+03   -0.16078E-05   -0.63629E-08   108   0.545E-04    0.161E-04
DAV:  14    -0.100229966327E+03   -0.12188E-05   -0.20906E-08   108   0.378E-04    0.960E-05
DAV:  15    -0.100229967067E+03   -0.73990E-06   -0.11299E-08    84   0.278E-04
  17 F= -.10022997E+03 E0= -.10022997E+03  d E =-.866163E-11
       N       E                     dE             d eps       ncg     rms          rms(c)
DAV:   1    -0.100230147609E+03   -0.18128E-03   -0.16803E-01    96   0.124E+00    0.142E-01
DAV:   2    -0.100231041395E+03   -0.89379E-03   -0.91169E-03   108   0.335E-01    0.924E-02
DAV:   3    -0.100231035288E+03    0.61070E-05   -0.24406E-04   144   0.629E-02    0.473E-02
DAV:   4    -0.100231043207E+03   -0.79189E-05   -0.88788E-05   120   0.400E-02    0.949E-03
DAV:   5    -0.100231040153E+03    0.30539E-05   -0.22536E-05   132   0.181E-02    0.736E-03
DAV:   6    -0.100231039833E+03    0.32041E-06   -0.43372E-06   132   0.665E-03
  18 F= -.10023104E+03 E0= -.10023104E+03  d E =-.963007E-11
       N       E                     dE             d eps       ncg     rms          rms(c)
DAV:   1    -0.100229019042E+03    0.20211E-02   -0.33602E-01    96   0.176E+00    0.198E-01
DAV:   2    -0.100230814705E+03   -0.17957E-02   -0.18267E-02   144   0.456E-01    0.124E-01
DAV:   3    -0.100230821510E+03   -0.68051E-05   -0.47245E-04   120   0.853E-02    0.615E-02
DAV:   4    -0.100230842568E+03   -0.21058E-04   -0.14718E-04   132   0.498E-02    0.131E-02
DAV:   5    -0.100230839156E+03    0.34121E-05   -0.30280E-05   132   0.212E-02    0.911E-03
DAV:   6    -0.100230841534E+03   -0.23779E-05   -0.66142E-06   132   0.854E-03    0.516E-03
DAV:   7    -0.100230849240E+03   -0.77066E-05   -0.10512E-06   108   0.473E-03    0.207E-03
DAV:   8    -0.100230860486E+03   -0.11246E-04   -0.14411E-06   132   0.457E-03    0.137E-03
DAV:   9    -0.100230873673E+03   -0.13187E-04   -0.77270E-07    84   0.305E-03    0.710E-04
DAV:  10    -0.100230882573E+03   -0.89001E-05   -0.53845E-07   108   0.195E-03    0.425E-04
DAV:  11    -0.100230887745E+03   -0.51719E-05   -0.14847E-07   108   0.111E-03    0.276E-04
DAV:  12    -0.100230892754E+03   -0.50086E-05   -0.14224E-07    84   0.863E-04    0.181E-04
DAV:  13    -0.100230894515E+03   -0.17616E-05   -0.29909E-08   108   0.426E-04    0.147E-04
DAV:  14    -0.100230896542E+03   -0.20271E-05   -0.36175E-08    84   0.404E-04    0.532E-05
DAV:  15    -0.100230897103E+03   -0.56038E-06   -0.29175E-09   108   0.206E-04
  19 F= -.10023090E+03 E0= -.10023090E+03  d E =-.882028E-11
       N       E                     dE             d eps       ncg     rms          rms(c)
DAV:   1    -0.100228541010E+03    0.23555E-02   -0.17010E-01    96   0.129E+00    0.150E-01
DAV:   2    -0.100229749119E+03   -0.12081E-02   -0.12413E-02   144   0.380E-01    0.106E-01
DAV:   3    -0.100229716507E+03    0.32612E-04   -0.25865E-04   132   0.634E-02    0.633E-02
DAV:   4    -0.100229703410E+03    0.13097E-04   -0.13008E-04   132   0.459E-02    0.961E-03
DAV:   5    -0.100229698739E+03    0.46709E-05   -0.35696E-05   144   0.217E-02    0.753E-03
DAV:   6    -0.100229697580E+03    0.11592E-05   -0.45132E-06   132   0.746E-03    0.527E-03
DAV:   7    -0.100229705277E+03   -0.76972E-05   -0.19831E-06   132   0.598E-03    0.201E-03
DAV:   8    -0.100229718133E+03   -0.12856E-04   -0.16138E-06   132   0.529E-03    0.128E-03
DAV:   9    -0.100229730708E+03   -0.12575E-04   -0.93049E-07   108   0.327E-03    0.123E-03
DAV:  10    -0.100229741158E+03   -0.10450E-04   -0.48121E-07    96   0.183E-03    0.473E-04
DAV:  11    -0.100229748470E+03   -0.73117E-05   -0.34086E-07   108   0.131E-03    0.261E-04
DAV:  12    -0.100229752236E+03   -0.37655E-05   -0.93983E-08   108   0.736E-04    0.166E-04
DAV:  13    -0.100229756419E+03   -0.41830E-05   -0.14056E-07    96   0.729E-04    0.125E-04
DAV:  14    -0.100229757463E+03   -0.10448E-05   -0.13449E-08   108   0.312E-04    0.946E-05
DAV:  15    -0.100229758607E+03   -0.11432E-05   -0.14492E-08    84   0.278E-04    0.468E-05
DAV:  16    -0.100229758909E+03   -0.30256E-06    0.28069E-09   108   0.141E-04
  20 F= -.10022976E+03 E0= -.10022976E+03  d E =-.739622E-11
       N       E                     dE             d eps       ncg     rms          rms(c)
DAV:   1    -0.100227752589E+03    0.20060E-02   -0.34895E-01    96   0.165E+00    0.224E-01
DAV:   2    -0.100230075283E+03   -0.23227E-02   -0.23653E-02   144   0.480E-01    0.164E-01
DAV:   3    -0.100229997160E+03    0.78123E-04   -0.49096E-04   132   0.819E-02    0.932E-02
DAV:   4    -0.100229966700E+03    0.30460E-04   -0.27064E-04   132   0.551E-02    0.146E-02
DAV:   5    -0.100229964586E+03    0.21142E-05   -0.50337E-05   132   0.230E-02    0.104E-02
DAV:   6    -0.100229977057E+03   -0.12471E-04   -0.15013E-05   120   0.111E-02    0.629E-03
DAV:   7    -0.100230009323E+03   -0.32266E-04   -0.51041E-06   132   0.686E-03    0.228E-03
DAV:   8    -0.100230045508E+03   -0.36185E-04   -0.33643E-06   132   0.496E-03    0.136E-03
DAV:   9    -0.100230078899E+03   -0.33391E-04   -0.38503E-06   120   0.420E-03    0.134E-03
DAV:  10    -0.100230100080E+03   -0.21182E-04   -0.18183E-06   108   0.279E-03    0.473E-04
DAV:  11    -0.100230107230E+03   -0.71493E-05   -0.31202E-07   108   0.122E-03    0.282E-04
DAV:  12    -0.100230112869E+03   -0.56399E-05   -0.27660E-07    84   0.102E-03    0.168E-04
DAV:  13    -0.100230115122E+03   -0.22525E-05   -0.68660E-08    96   0.565E-04    0.102E-04
DAV:  14    -0.100230116322E+03   -0.11999E-05   -0.14598E-08   108   0.328E-04    0.492E-05
DAV:  15    -0.100230116874E+03   -0.55210E-06   -0.11637E-09    84   0.196E-04
  21 F= -.10023012E+03 E0= -.10023012E+03  d E =-.995341E-11
       N       E                     dE             d eps       ncg     rms          rms(c)
DAV:   1    -0.100230134836E+03   -0.18514E-04   -0.17082E-01    96   0.116E+00    0.149E-01
DAV:   2    -0.100231185218E+03   -0.10504E-02   -0.10694E-02   120   0.330E-01    0.103E-01
DAV:   3    -0.100231159209E+03    0.26009E-04   -0.22864E-04   132   0.601E-02    0.543E-02
DAV:   4    -0.100231160023E+03   -0.81428E-06   -0.12259E-04   120   0.412E-02    0.102E-02
DAV:   5    -0.100231154941E+03    0.50822E-05   -0.27496E-05   132   0.191E-02    0.702E-03
DAV:   6    -0.100231154869E+03    0.71667E-07   -0.50812E-06   132   0.647E-03
  22 F= -.10023115E+03 E0= -.10023115E+03  d E =-.106696E-10
       N       E                     dE             d eps       ncg     rms          rms(c)
DAV:   1    -0.100229696745E+03    0.14582E-02   -0.33803E-01    96   0.162E+00    0.190E-01
DAV:   2    -0.100231199151E+03   -0.15024E-02   -0.15002E-02   108   0.390E-01    0.112E-01
DAV:   3    -0.100231235504E+03   -0.36353E-04   -0.43948E-04   132   0.817E-02    0.544E-02
DAV:   4    -0.100231267093E+03   -0.31588E-04   -0.12492E-04   108   0.486E-02    0.121E-02
DAV:   5    -0.100231267346E+03   -0.25311E-06   -0.32373E-05   132   0.211E-02    0.898E-03
DAV:   6    -0.100231268950E+03   -0.16044E-05   -0.56676E-06   132   0.736E-03    0.507E-03
DAV:   7    -0.100231272757E+03   -0.38071E-05   -0.61055E-07   108   0.327E-03    0.209E-03
DAV:   8    -0.100231278086E+03   -0.53285E-05   -0.74710E-07   108   0.341E-03    0.991E-04
DAV:   9    -0.100231286596E+03   -0.85098E-05   -0.59294E-07    84   0.312E-03    0.513E-04
DAV:  10    -0.100231291075E+03   -0.44792E-05   -0.37904E-07   108   0.203E-03    0.471E-04
DAV:  11    -0.100231292635E+03   -0.15606E-05   -0.56614E-08   108   0.961E-04    0.376E-04
DAV:  12    -0.100231295666E+03   -0.30311E-05   -0.63688E-08    84   0.728E-04    0.156E-04
DAV:  13    -0.100231297905E+03   -0.22382E-05   -0.70002E-08   108   0.573E-04    0.186E-04
DAV:  14    -0.100231299155E+03   -0.12505E-05   -0.19350E-08    96   0.413E-04    0.831E-05
DAV:  15    -0.100231299803E+03   -0.64788E-06   -0.78183E-09    84   0.267E-04
  23 F= -.10023130E+03 E0= -.10023130E+03  d E =-.951919E-11
       N       E                     dE             d eps       ncg     rms          rms(c)
DAV:   1    -0.100228625129E+03    0.26740E-02   -0.16975E-01    96   0.117E+00    0.146E-01
DAV:   2    -0.100229611308E+03   -0.98618E-03   -0.10036E-02   108   0.318E-01    0.960E-02
DAV:   3    -0.100229595464E+03    0.15844E-04   -0.23464E-04   144   0.607E-02    0.509E-02
DAV:   4    -0.100229602625E+03   -0.71613E-05   -0.10799E-04   120   0.426E-02    0.998E-03
DAV:   5    -0.100229599794E+03    0.28311E-05   -0.30998E-05   132   0.204E-02    0.768E-03
DAV:   6    -0.100229599240E+03    0.55450E-06   -0.49444E-06   120   0.674E-03
  24 F= -.10022960E+03 E0= -.10022960E+03  d E =-.134233E-10
       N       E                     dE             d eps       ncg     rms          rms(c)
DAV:   1    -0.100226726592E+03    0.28732E-02   -0.34875E-01    96   0.165E+00    0.242E-01
DAV:   2    -0.100229507648E+03   -0.27811E-02   -0.27926E-02   132   0.520E-01    0.179E-01
DAV:   3    -0.100229400037E+03    0.10761E-03   -0.58257E-04   120   0.962E-02    0.985E-02
DAV:   4    -0.100229400135E+03   -0.97657E-07   -0.42830E-04   108   0.737E-02    0.165E-02
DAV:   5    -0.100229389313E+03    0.10822E-04   -0.10492E-04   132   0.343E-02    0.123E-02
DAV:   6    -0.100229388735E+03    0.57789E-06   -0.16201E-05   120   0.103E-02    0.811E-03
DAV:   7    -0.100229406035E+03   -0.17301E-04   -0.24996E-06   120   0.499E-03    0.343E-03
DAV:   8    -0.100229431787E+03   -0.25751E-04   -0.35252E-06   108   0.516E-03    0.133E-03
DAV:   9    -0.100229451245E+03   -0.19458E-04   -0.22797E-06   120   0.340E-03    0.195E-03
DAV:  10    -0.100229467861E+03   -0.16616E-04   -0.12280E-06    96   0.258E-03    0.569E-04
DAV:  11    -0.100229473542E+03   -0.56806E-05   -0.27939E-07   108   0.124E-03    0.318E-04
DAV:  12    -0.100229480287E+03   -0.67448E-05   -0.38927E-07    84   0.116E-03    0.201E-04
DAV:  13    -0.100229481896E+03   -0.16096E-05   -0.62958E-08    96   0.490E-04    0.254E-04
DAV:  14    -0.100229483621E+03   -0.17249E-05   -0.38082E-08    96   0.445E-04    0.942E-05
DAV:  15    -0.100229484216E+03   -0.59462E-06   -0.97054E-09   108   0.276E-04
  25 F= -.10022948E+03 E0= -.10022948E+03  d E =-.720734E-11
       N       E                     dE             d eps       ncg     rms          rms(c)
DAV:   1    -0.100230361080E+03   -0.87746E-03   -0.18358E-01    96   0.126E+00    0.165E-01
DAV:   2    -0.100231618040E+03   -0.12570E-02   -0.13654E-02   120   0.361E-01    0.103E-01
DAV:   3    -0.100231558524E+03    0.59516E-04   -0.30237E-04   144   0.666E-02    0.584E-02
DAV:   4    -0.100231544860E+03    0.13664E-04   -0.14264E-04   120   0.466E-02    0.104E-02
DAV:   5    -0.100231541904E+03    0.29557E-05   -0.43800E-05   132   0.232E-02    0.833E-03
DAV:   6    -0.100231540234E+03    0.16697E-05   -0.42060E-06   120   0.670E-03    0.563E-03
DAV:   7    -0.100231544133E+03   -0.38990E-05   -0.17275E-06   132   0.479E-03    0.211E-03
DAV:   8    -0.100231552032E+03   -0.78988E-05   -0.73022E-07    96   0.358E-03    0.892E-04
DAV:   9    -0.100231562402E+03   -0.10370E-04   -0.78587E-07   108   0.266E-03    0.119E-03
DAV:  10    -0.100231572033E+03   -0.96312E-05   -0.44872E-07    84   0.182E-03    0.384E-04
DAV:  11    -0.100231576375E+03   -0.43414E-05   -0.15808E-07    96   0.978E-04    0.235E-04
DAV:  12    -0.100231580196E+03   -0.38212E-05   -0.99460E-08    84   0.668E-04    0.199E-04
DAV:  13    -0.100231581431E+03   -0.12347E-05   -0.15345E-08   108   0.324E-04    0.137E-04
DAV:  14    -0.100231582989E+03   -0.15585E-05   -0.25917E-08    84   0.350E-04    0.415E-05
DAV:  15    -0.100231583394E+03   -0.40520E-06    0.55891E-10    96   0.173E-04
  26 F= -.10023158E+03 E0= -.10023158E+03  d E =-.838720E-11
       N       E                     dE             d eps       ncg     rms          rms(c)
DAV:   1    -0.100230152100E+03    0.14309E-02   -0.40034E-01    96   0.168E+00    0.219E-01
DAV:   2    -0.100231364293E+03   -0.12122E-02   -0.14917E-02   132   0.348E-01    0.896E-02
DAV:   3    -0.100231293167E+03    0.71126E-04   -0.37095E-04   132   0.661E-02    0.456E-02
DAV:   4    -0.100231279977E+03    0.13189E-04   -0.89672E-05   132   0.362E-02    0.140E-02
DAV:   5    -0.100231277187E+03    0.27906E-05   -0.17312E-05   132   0.164E-02    0.752E-03
DAV:   6    -0.100231278389E+03   -0.12023E-05   -0.37870E-06   132   0.696E-03    0.392E-03
DAV:   7    -0.100231282092E+03   -0.37035E-05   -0.46073E-07   108   0.285E-03    0.116E-03
DAV:   8    -0.100231286149E+03   -0.40566E-05   -0.28237E-07   108   0.214E-03    0.727E-04
DAV:   9    -0.100231293725E+03   -0.75762E-05   -0.49573E-07    96   0.243E-03    0.311E-04
DAV:  10    -0.100231297600E+03   -0.38744E-05   -0.33736E-07   108   0.165E-03    0.308E-04
DAV:  11    -0.100231299131E+03   -0.15310E-05   -0.44510E-08   108   0.768E-04    0.233E-04
DAV:  12    -0.100231301121E+03   -0.19905E-05   -0.46600E-08   108   0.571E-04    0.959E-05
DAV:  13    -0.100231302388E+03   -0.12670E-05   -0.36229E-08    96   0.428E-04    0.126E-04
DAV:  14    -0.100231303102E+03   -0.71416E-06   -0.56270E-09   108   0.275E-04
  27 F= -.10023130E+03 E0= -.10023130E+03  d E =-.810690E-11
       N       E                     dE             d eps       ncg     rms          rms(c)
DAV:   1    -0.100230886147E+03    0.41624E-03   -0.20375E-01    96   0.123E+00    0.158E-01
DAV:   2    -0.100231501680E+03   -0.61553E-03   -0.75591E-03   120   0.258E-01    0.632E-02
DAV:   3    -0.100231466671E+03    0.35009E-04   -0.18835E-04   132   0.477E-02    0.327E-02
DAV:   4    -0.100231459319E+03    0.73519E-05   -0.43917E-05   132   0.260E-02    0.100E-02
DAV:   5    -0.100231457879E+03    0.14401E-05   -0.93431E-06   132   0.122E-02    0.561E-03
DAV:   6    -0.100231458194E+03   -0.31510E-06   -0.18382E-06   120   0.514E-03
  28 F= -.10023146E+03 E0= -.10023146E+03  d E =-.108298E-10
       N       E                     dE             d eps       ncg     rms          rms(c)
DAV:   1    -0.100230302138E+03    0.11557E-02   -0.41085E-01    96   0.176E+00    0.224E-01
DAV:   2    -0.100231449752E+03   -0.11476E-02   -0.14022E-02   144   0.363E-01    0.909E-02
DAV:   3    -0.100231383187E+03    0.66565E-04   -0.34905E-04   132   0.655E-02    0.478E-02
DAV:   4    -0.100231369512E+03    0.13674E-04   -0.87157E-05   132   0.369E-02    0.139E-02
DAV:   5    -0.100231365953E+03    0.35593E-05   -0.20318E-05   132   0.179E-02    0.794E-03
DAV:   6    -0.100231365908E+03    0.45164E-07   -0.40993E-06   132   0.733E-03
  29 F= -.10023137E+03 E0= -.10023137E+03  d E =-.998671E-11
       N       E                     dE             d eps       ncg     rms          rms(c)
DAV:   1    -0.100229592209E+03    0.17737E-02   -0.20189E-01    96   0.124E+00    0.156E-01
DAV:   2    -0.100230265586E+03   -0.67338E-03   -0.81269E-03   144   0.271E-01    0.723E-02
DAV:   3    -0.100230222386E+03    0.43200E-04   -0.17992E-04   108   0.476E-02    0.379E-02
DAV:   4    -0.100230212504E+03    0.98815E-05   -0.55782E-05   120   0.284E-02    0.947E-03
DAV:   5    -0.100230211428E+03    0.10768E-05   -0.10937E-05   120   0.128E-02    0.562E-03
DAV:   6    -0.100230214539E+03   -0.31111E-05   -0.24500E-06   132   0.525E-03    0.293E-03
DAV:   7    -0.100230221031E+03   -0.64927E-05   -0.57997E-07   108   0.248E-03    0.106E-03
DAV:   8    -0.100230227660E+03   -0.66288E-05   -0.34870E-07    96   0.174E-03    0.630E-04
DAV:   9    -0.100230236001E+03   -0.83408E-05   -0.60060E-07    96   0.170E-03    0.374E-04
DAV:  10    -0.100230242684E+03   -0.66827E-05   -0.56324E-07   120   0.148E-03    0.246E-04
DAV:  11    -0.100230244120E+03   -0.14362E-05   -0.26349E-08   108   0.583E-04    0.154E-04
DAV:  12    -0.100230246352E+03   -0.22321E-05   -0.73090E-08    96   0.583E-04    0.862E-05
DAV:  13    -0.100230247218E+03   -0.86635E-06   -0.19172E-08   108   0.313E-04
  30 F= -.10023025E+03 E0= -.10023025E+03  d E =-.928979E-11
       N       E                     dE             d eps       ncg     rms          rms(c)
DAV:   1    -0.100228980272E+03    0.12661E-02   -0.39075E-01    96   0.168E+00    0.210E-01
DAV:   2    -0.100230457999E+03   -0.14777E-02   -0.18174E-02   132   0.372E-01    0.128E-01
DAV:   3    -0.100230308452E+03    0.14955E-03   -0.32067E-04   132   0.667E-02    0.647E-02
DAV:   4    -0.100230263209E+03    0.45243E-04   -0.15933E-04   132   0.448E-02    0.122E-02
DAV:   5    -0.100230250684E+03    0.12525E-04   -0.25294E-05   132   0.185E-02    0.748E-03
DAV:   6    -0.100230253476E+03   -0.27919E-05   -0.75484E-06   132   0.757E-03    0.406E-03
DAV:   7    -0.100230268922E+03   -0.15447E-04   -0.18014E-06   132   0.404E-03    0.177E-03
DAV:   8    -0.100230291869E+03   -0.22946E-04   -0.13724E-06   132   0.290E-03    0.120E-03
DAV:   9    -0.100230313295E+03   -0.21427E-04   -0.10487E-06   108   0.210E-03    0.733E-04
DAV:  10    -0.100230331781E+03   -0.18486E-04   -0.98179E-07   120   0.181E-03    0.403E-04
DAV:  11    -0.100230338109E+03   -0.63281E-05   -0.99110E-08    96   0.806E-04    0.237E-04
DAV:  12    -0.100230345966E+03   -0.78571E-05   -0.26335E-07    84   0.986E-04    0.133E-04
DAV:  13    -0.100230347723E+03   -0.17564E-05   -0.22052E-08   108   0.403E-04    0.834E-05
DAV:  14    -0.100230349423E+03   -0.17006E-05   -0.15569E-08    84   0.320E-04    0.439E-05
DAV:  15    -0.100230349907E+03   -0.48421E-06    0.82149E-10   108   0.163E-04
  31 F= -.10023035E+03 E0= -.10023035E+03  d E =-.769130E-11
       N       E                     dE             d eps       ncg     rms          rms(c)
DAV:   1    -0.100229867163E+03    0.48226E-03   -0.19399E-01   108   0.128E+00    0.150E-01
DAV:   2    -0.100230926981E+03   -0.10598E-02   -0.12836E-02   108   0.308E-01    0.884E-02
DAV:   3    -0.100230857649E+03    0.69332E-04   -0.22162E-04   144   0.491E-02    0.493E-02
DAV:   4    -0.100230818575E+03    0.39074E-04   -0.66307E-05   120   0.293E-02    0.993E-03
DAV:   5    -0.100230809087E+03    0.94887E-05   -0.11910E-05   132   0.125E-02    0.501E-03
DAV:   6    -0.100230815033E+03   -0.59466E-05   -0.33753E-06   108   0.557E-03    0.293E-03
DAV:   7    -0.100230833493E+03   -0.18460E-04   -0.21364E-06   120   0.391E-03    0.122E-03
DAV:   8    -0.100230853138E+03   -0.19645E-04   -0.13696E-06   108   0.258E-03    0.926E-04
DAV:   9    -0.100230868711E+03   -0.15572E-04   -0.92403E-07   108   0.179E-03    0.434E-04
DAV:  10    -0.100230879818E+03   -0.11107E-04   -0.82146E-07   108   0.156E-03    0.303E-04
DAV:  11    -0.100230883634E+03   -0.38163E-05   -0.88284E-08   108   0.709E-04    0.145E-04
DAV:  12    -0.100230887155E+03   -0.35211E-05   -0.18453E-07    84   0.765E-04    0.993E-05
DAV:  13    -0.100230888179E+03   -0.10238E-05   -0.15710E-08   108   0.316E-04    0.579E-05
DAV:  14    -0.100230888967E+03   -0.78814E-06   -0.97129E-09    84   0.261E-04
  32 F= -.10023089E+03 E0= -.10023089E+03  d E =-.664229E-11
       N       E                     dE             d eps       ncg     rms          rms(c)
DAV:   1    -0.100228605960E+03    0.22822E-02   -0.39377E-01    96   0.168E+00    0.191E-01
DAV:   2    -0.100230141199E+03   -0.15352E-02   -0.18825E-02   120   0.380E-01    0.118E-01
DAV:   3    -0.100230013788E+03    0.12741E-03   -0.30124E-04   132   0.626E-02    0.608E-02
DAV:   4    -0.100229962273E+03    0.51514E-04   -0.13629E-04   132   0.436E-02    0.111E-02
DAV:   5    -0.100229951496E+03    0.10777E-04   -0.29946E-05   132   0.198E-02    0.705E-03
DAV:   6    -0.100229955081E+03   -0.35848E-05   -0.70238E-06   132   0.740E-03    0.418E-03
DAV:   7    -0.100229970537E+03   -0.15456E-04   -0.14150E-06   132   0.362E-03    0.178E-03
DAV:   8    -0.100229992760E+03   -0.22223E-04   -0.14292E-06   120   0.300E-03    0.118E-03
DAV:   9    -0.100230015099E+03   -0.22339E-04   -0.12036E-06   108   0.231E-03    0.713E-04
DAV:  10    -0.100230032730E+03   -0.17631E-04   -0.98192E-07   120   0.187E-03    0.391E-04
DAV:  11    -0.100230038618E+03   -0.58884E-05   -0.86349E-08   108   0.812E-04    0.233E-04
DAV:  12    -0.100230046048E+03   -0.74295E-05   -0.23958E-07    96   0.942E-04    0.135E-04
DAV:  13    -0.100230048192E+03   -0.21442E-05   -0.28809E-08   108   0.421E-04    0.764E-05
DAV:  14    -0.100230049688E+03   -0.14956E-05   -0.11782E-08    84   0.286E-04    0.512E-05
DAV:  15    -0.100230050380E+03   -0.69267E-06   -0.28622E-10    96   0.175E-04
  33 F= -.10023005E+03 E0= -.10023005E+03  d E =-.151326E-10
       N       E                     dE             d eps       ncg     rms          rms(c)
DAV:   1    -0.100230896176E+03   -0.84649E-03   -0.19891E-01    96   0.119E+00    0.133E-01
DAV:   2    -0.100231652706E+03   -0.75653E-03   -0.92034E-03   108   0.277E-01    0.763E-02
DAV:   3    -0.100231601780E+03    0.50926E-04   -0.16330E-04   144   0.465E-02    0.393E-02
DAV:   4    -0.100231579059E+03    0.22721E-04   -0.60398E-05   108   0.302E-02    0.757E-03
DAV:   5    -0.100231575352E+03    0.37065E-05   -0.12432E-05   132   0.133E-02    0.505E-03
DAV:   6    -0.100231578597E+03   -0.32445E-05   -0.32177E-06   132   0.564E-03    0.260E-03
DAV:   7    -0.100231587137E+03   -0.85397E-05   -0.84854E-07    96   0.302E-03    0.119E-03
DAV:   8    -0.100231598594E+03   -0.11457E-04   -0.76590E-07   120   0.222E-03    0.700E-04
DAV:   9    -0.100231610090E+03   -0.11496E-04   -0.84036E-07    96   0.201E-03    0.475E-04
DAV:  10    -0.100231619483E+03   -0.93925E-05   -0.78900E-07   108   0.173E-03    0.281E-04
DAV:  11    -0.100231621889E+03   -0.24058E-05   -0.49579E-08   108   0.673E-04    0.158E-04
DAV:  12    -0.100231624763E+03   -0.28742E-05   -0.13117E-07    84   0.732E-04    0.790E-05
DAV:  13    -0.100231625437E+03   -0.67463E-06   -0.11767E-08   108   0.301E-04
  34 F= -.10023163E+03 E0= -.10023163E+03  d E =-.231965E-10
       N       E                     dE             d eps       ncg     rms          rms(c)
DAV:   1    -0.100230427602E+03    0.11972E-02   -0.40672E-01    96   0.170E+00    0.168E-01
DAV:   2    -0.100231579056E+03   -0.11515E-02   -0.13772E-02    96   0.344E-01    0.799E-02
DAV:   3    -0.100231535246E+03    0.43810E-04   -0.30330E-04   144   0.617E-02    0.404E-02
DAV:   4    -0.100231518508E+03    0.16738E-04   -0.71121E-05   132   0.374E-02    0.983E-03
DAV:   5    -0.100231515802E+03    0.27061E-05   -0.22196E-05   144   0.182E-02    0.659E-03
DAV:   6    -0.100231517003E+03   -0.12010E-05   -0.39795E-06   132   0.679E-03    0.400E-03
DAV:   7    -0.100231520697E+03   -0.36941E-05   -0.37971E-07   108   0.268E-03    0.170E-03
DAV:   8    -0.100231526333E+03   -0.56356E-05   -0.52151E-07   108   0.287E-03    0.830E-04
DAV:   9    -0.100231535922E+03   -0.95889E-05   -0.81843E-07    84   0.310E-03    0.459E-04
DAV:  10    -0.100231540930E+03   -0.50077E-05   -0.47186E-07   108   0.193E-03    0.506E-04
DAV:  11    -0.100231542374E+03   -0.14445E-05   -0.36942E-08   108   0.782E-04    0.386E-04
DAV:  12    -0.100231545810E+03   -0.34359E-05   -0.94440E-08    96   0.867E-04    0.175E-04
DAV:  13    -0.100231547538E+03   -0.17277E-05   -0.57368E-08    96   0.546E-04    0.243E-04
DAV:  14    -0.100231548646E+03   -0.11082E-05   -0.13033E-08    84   0.356E-04    0.598E-05
DAV:  15    -0.100231549271E+03   -0.62513E-06   -0.71034E-09   108   0.243E-04
  35 F= -.10023155E+03 E0= -.10023155E+03  d E =-.172574E-10
       N       E                     dE             d eps       ncg     rms          rms(c)
DAV:   1    -0.100230604226E+03    0.94442E-03   -0.20335E-01    96   0.121E+00    0.127E-01
DAV:   2    -0.100231204916E+03   -0.60069E-03   -0.72055E-03    96   0.250E-01    0.582E-02
DAV:   3    -0.100231181483E+03    0.23433E-04   -0.15563E-04   144   0.438E-02    0.300E-02
DAV:   4    -0.100231172786E+03    0.86973E-05   -0.36412E-05   120   0.263E-02    0.740E-03
DAV:   5    -0.100231171187E+03    0.15990E-05   -0.10858E-05   144   0.129E-02    0.475E-03
DAV:   6    -0.100231171704E+03   -0.51757E-06   -0.19130E-06    96   0.504E-03
  36 F= -.10023117E+03 E0= -.10023117E+03  d E =-.617667E-11
       N       E                     dE             d eps       ncg     rms          rms(c)
DAV:   1    -0.100229973188E+03    0.11980E-02   -0.40512E-01    96   0.169E+00    0.213E-01
DAV:   2    -0.100231256168E+03   -0.12830E-02   -0.15443E-02   132   0.371E-01    0.930E-02
DAV:   3    -0.100231193988E+03    0.62180E-04   -0.28987E-04   120   0.601E-02    0.483E-02
DAV:   4    -0.100231173973E+03    0.20015E-04   -0.93242E-05   120   0.381E-02    0.116E-02
DAV:   5    -0.100231168378E+03    0.55959E-05   -0.21316E-05   132   0.174E-02    0.664E-03
DAV:   6    -0.100231169407E+03   -0.10293E-05   -0.38066E-06   132   0.650E-03    0.347E-03
DAV:   7    -0.100231175219E+03   -0.58123E-05   -0.63576E-07   108   0.309E-03    0.132E-03
DAV:   8    -0.100231182592E+03   -0.73726E-05   -0.53999E-07   108   0.241E-03    0.753E-04
DAV:   9    -0.100231193318E+03   -0.10726E-04   -0.83979E-07   108   0.244E-03    0.434E-04
DAV:  10    -0.100231199712E+03   -0.63941E-05   -0.41422E-07    96   0.166E-03    0.292E-04
DAV:  11    -0.100231201905E+03   -0.21923E-05   -0.79326E-08   108   0.789E-04    0.226E-04
DAV:  12    -0.100231205067E+03   -0.31625E-05   -0.11934E-07    84   0.763E-04    0.117E-04
DAV:  13    -0.100231206026E+03   -0.95945E-06   -0.27787E-08    96   0.381E-04
  37 F= -.10023121E+03 E0= -.10023121E+03  d E =-.182945E-10
       N       E                     dE             d eps       ncg     rms          rms(c)
DAV:   1    -0.100230166154E+03    0.10389E-02   -0.20081E-01    96   0.132E+00    0.149E-01
DAV:   2    -0.100231123098E+03   -0.95694E-03   -0.11359E-02    96   0.314E-01    0.699E-02
DAV:   3    -0.100231082108E+03    0.40989E-04   -0.24082E-04   156   0.552E-02    0.384E-02
DAV:   4    -0.100231064664E+03    0.17444E-04   -0.61282E-05   108   0.315E-02    0.949E-03
DAV:   5    -0.100231061074E+03    0.35902E-05   -0.16613E-05   132   0.156E-02    0.601E-03
DAV:   6    -0.100231061704E+03   -0.63028E-06   -0.28392E-06   132   0.606E-03
  38 F= -.10023106E+03 E0= -.10023106E+03  d E =-.196730E-10
       N       E                     dE             d eps       ncg     rms          rms(c)
DAV:   1    -0.100229781687E+03    0.12794E-02   -0.40813E-01    96   0.179E+00    0.190E-01
DAV:   2    -0.100231305561E+03   -0.15239E-02   -0.17809E-02   120   0.400E-01    0.999E-02
DAV:   3    -0.100231244551E+03    0.61010E-04   -0.35667E-04   132   0.675E-02    0.536E-02
DAV:   4    -0.100231218692E+03    0.25859E-04   -0.12107E-04   120   0.432E-02    0.113E-02
DAV:   5    -0.100231212482E+03    0.62093E-05   -0.28300E-05   132   0.199E-02    0.783E-03
DAV:   6    -0.100231213523E+03   -0.10410E-05   -0.47548E-06   132   0.719E-03    0.454E-03
DAV:   7    -0.100231220078E+03   -0.65550E-05   -0.10035E-06   120   0.361E-03    0.162E-03
DAV:   8    -0.100231228066E+03   -0.79874E-05   -0.60563E-07    96   0.268E-03    0.897E-04
DAV:   9    -0.100231240125E+03   -0.12059E-04   -0.10225E-06   108   0.260E-03    0.559E-04
DAV:  10    -0.100231249120E+03   -0.89951E-05   -0.76094E-07    96   0.203E-03    0.397E-04
DAV:  11    -0.100231251667E+03   -0.25465E-05   -0.63346E-08   108   0.868E-04    0.252E-04
DAV:  12    -0.100231255241E+03   -0.35745E-05   -0.14031E-07    84   0.837E-04    0.136E-04
DAV:  13    -0.100231256641E+03   -0.13992E-05   -0.39884E-08   108   0.441E-04    0.118E-04
DAV:  14    -0.100231257702E+03   -0.10611E-05   -0.13465E-08   108   0.302E-04    0.430E-05
DAV:  15    -0.100231258147E+03   -0.44533E-06   -0.12741E-09   108   0.185E-04
  39 F= -.10023126E+03 E0= -.10023126E+03  d E =-.743262E-11
       N       E                     dE             d eps       ncg     rms          rms(c)
DAV:   1    -0.100230031683E+03    0.12260E-02   -0.20377E-01    96   0.125E+00    0.145E-01
DAV:   2    -0.100230685715E+03   -0.65403E-03   -0.78613E-03   120   0.265E-01    0.606E-02
DAV:   3    -0.100230657783E+03    0.27932E-04   -0.17743E-04   144   0.469E-02    0.314E-02
DAV:   4    -0.100230648971E+03    0.88115E-05   -0.42238E-05   132   0.261E-02    0.857E-03
DAV:   5    -0.100230646634E+03    0.23371E-05   -0.97495E-06   132   0.122E-02    0.508E-03
DAV:   6    -0.100230646631E+03    0.28299E-08   -0.20176E-06   132   0.509E-03
  40 F= -.10023065E+03 E0= -.10023065E+03  d E =-.188753E-10
       N       E                     dE             d eps       ncg     rms          rms(c)
DAV:   1    -0.100229046536E+03    0.16001E-02   -0.39498E-01    96   0.180E+00    0.211E-01
DAV:   2    -0.100230572301E+03   -0.15258E-02   -0.18421E-02   120   0.412E-01    0.117E-01
DAV:   3    -0.100230460712E+03    0.11159E-03   -0.33562E-04   120   0.682E-02    0.603E-02
DAV:   4    -0.100230424759E+03    0.35953E-04   -0.15312E-04   132   0.455E-02    0.125E-02
DAV:   5    -0.100230414945E+03    0.98145E-05   -0.25086E-05   132   0.187E-02    0.764E-03
DAV:   6    -0.100230414812E+03    0.13221E-06   -0.65656E-06   132   0.790E-03
  41 F= -.10023041E+03 E0= -.10023041E+03  d E =-.713167E-11
       N       E                     dE             d eps       ncg     rms          rms(c)
DAV:   1    -0.100230675053E+03   -0.26011E-03   -0.20264E-01    96   0.129E+00    0.156E-01
DAV:   2    -0.100231384993E+03   -0.70994E-03   -0.83256E-03   144   0.286E-01    0.712E-02
DAV:   3    -0.100231361282E+03    0.23711E-04   -0.16598E-04   132   0.459E-02    0.375E-02
DAV:   4    -0.100231369395E+03   -0.81120E-05   -0.56619E-05   108   0.289E-02    0.914E-03
DAV:   5    -0.100231371647E+03   -0.22527E-05   -0.11135E-05   132   0.128E-02    0.537E-03
DAV:   6    -0.100231373242E+03   -0.15951E-05   -0.21543E-06   132   0.522E-03    0.276E-03
DAV:   7    -0.100231375543E+03   -0.23004E-05   -0.40422E-07   108   0.257E-03    0.939E-04
DAV:   8    -0.100231377543E+03   -0.20005E-05   -0.18796E-07   108   0.169E-03    0.508E-04
DAV:   9    -0.100231380544E+03   -0.30009E-05   -0.18346E-07    84   0.145E-03    0.261E-04
DAV:  10    -0.100231382710E+03   -0.21654E-05   -0.14002E-07   108   0.104E-03    0.164E-04
DAV:  11    -0.100231383932E+03   -0.12220E-05   -0.34294E-08    96   0.561E-04    0.138E-04
DAV:  12    -0.100231385148E+03   -0.12169E-05   -0.29713E-08   108   0.417E-04    0.575E-05
DAV:  13    -0.100231385759E+03   -0.61017E-06   -0.11171E-08   108   0.261E-04
  42 F= -.10023139E+03 E0= -.10023139E+03  d E =-.593469E-11
       N       E                     dE             d eps       ncg     rms          rms(c)
DAV:   1    -0.100230380727E+03    0.10044E-02   -0.41159E-01    96   0.182E+00    0.213E-01
DAV:   2    -0.100231596375E+03   -0.12156E-02   -0.14810E-02   144   0.368E-01    0.861E-02
DAV:   3    -0.100231535447E+03    0.60928E-04   -0.34475E-04   132   0.643E-02    0.440E-02
DAV:   4    -0.100231520736E+03    0.14711E-04   -0.81707E-05   132   0.363E-02    0.129E-02
DAV:   5    -0.100231517671E+03    0.30655E-05   -0.18870E-05   144   0.172E-02    0.723E-03
DAV:   6    -0.100231518802E+03   -0.11313E-05   -0.37758E-06   132   0.701E-03    0.379E-03
DAV:   7    -0.100231522474E+03   -0.36724E-05   -0.34663E-07   108   0.264E-03    0.145E-03
DAV:   8    -0.100231527427E+03   -0.49527E-05   -0.32028E-07   108   0.237E-03    0.706E-04
DAV:   9    -0.100231535812E+03   -0.83849E-05   -0.58647E-07   108   0.270E-03    0.374E-04
DAV:  10    -0.100231540373E+03   -0.45615E-05   -0.38807E-07   108   0.178E-03    0.355E-04
DAV:  11    -0.100231542081E+03   -0.17077E-05   -0.45076E-08   108   0.800E-04    0.278E-04
DAV:  12    -0.100231544293E+03   -0.22118E-05   -0.52915E-08   108   0.641E-04    0.113E-04
DAV:  13    -0.100231545505E+03   -0.12121E-05   -0.30639E-08   108   0.418E-04    0.151E-04
DAV:  14    -0.100231546346E+03   -0.84068E-06   -0.95523E-09   108   0.304E-04
  43 F= -.10023155E+03 E0= -.10023155E+03  d E =-.125210E-10
       N       E                     dE             d eps       ncg     rms          rms(c)
DAV:   1    -0.100230155181E+03    0.13903E-02   -0.20179E-01    96   0.130E+00    0.156E-01
DAV:   2    -0.100231229722E+03   -0.10745E-02   -0.12519E-02   144   0.302E-01    0.667E-02
DAV:   3    -0.100231205980E+03    0.23742E-04   -0.25029E-04   132   0.500E-02    0.370E-02
DAV:   4    -0.100231195732E+03    0.10248E-04   -0.46066E-05   132   0.244E-02    0.102E-02
DAV:   5    -0.100231192388E+03    0.33439E-05   -0.71006E-06   144   0.108E-02    0.547E-03
DAV:   6    -0.100231192770E+03   -0.38160E-06   -0.21614E-06   120   0.599E-03
  44 F= -.10023119E+03 E0= -.10023119E+03  d E =-.189485E-10
       N       E                     dE             d eps       ncg     rms          rms(c)
DAV:   1    -0.100229928079E+03    0.12643E-02   -0.41011E-01    96   0.179E+00    0.191E-01
DAV:   2    -0.100231414102E+03   -0.14860E-02   -0.17390E-02   120   0.393E-01    0.957E-02
DAV:   3    -0.100231357918E+03    0.56184E-04   -0.36079E-04   132   0.673E-02    0.512E-02
DAV:   4    -0.100231334423E+03    0.23494E-04   -0.11100E-04   120   0.419E-02    0.115E-02
DAV:   5    -0.100231328470E+03    0.59530E-05   -0.27052E-05   132   0.196E-02    0.781E-03
DAV:   6    -0.100231329101E+03   -0.63121E-06   -0.44101E-06   132   0.712E-03
  45 F= -.10023133E+03 E0= -.10023133E+03  d E =-.849285E-11
       N       E                     dE             d eps       ncg     rms          rms(c)
DAV:   1    -0.100229906366E+03    0.14221E-02   -0.20005E-01    96   0.127E+00    0.137E-01
DAV:   2    -0.100230715236E+03   -0.80887E-03   -0.95618E-03   132   0.289E-01    0.845E-02
DAV:   3    -0.100230667455E+03    0.47781E-04   -0.16073E-04   108   0.472E-02    0.435E-02
DAV:   4    -0.100230656166E+03    0.11289E-04   -0.77937E-05   120   0.328E-02    0.804E-03
DAV:   5    -0.100230650178E+03    0.59885E-05   -0.13645E-05   132   0.138E-02    0.529E-03
DAV:   6    -0.100230648859E+03    0.13191E-05   -0.34250E-06   132   0.553E-03    0.279E-03
DAV:   7    -0.100230651453E+03   -0.25945E-05   -0.61055E-07   108   0.273E-03    0.110E-03
DAV:   8    -0.100230656346E+03   -0.48927E-05   -0.48715E-07    84   0.205E-03    0.751E-04
DAV:   9    -0.100230663139E+03   -0.67935E-05   -0.38407E-07   108   0.149E-03    0.468E-04
DAV:  10    -0.100230669629E+03   -0.64894E-05   -0.36702E-07    96   0.121E-03    0.301E-04
DAV:  11    -0.100230671568E+03   -0.19392E-05   -0.38666E-08   108   0.563E-04    0.183E-04
DAV:  12    -0.100230674911E+03   -0.33435E-05   -0.10060E-07    84   0.662E-04    0.879E-05
DAV:  13    -0.100230676011E+03   -0.10995E-05   -0.20317E-08   108   0.343E-04    0.683E-05
DAV:  14    -0.100230676991E+03   -0.97990E-06   -0.79423E-09    84   0.255E-04
  46 F= -.10023068E+03 E0= -.10023068E+03  d E =-.695121E-11
       N       E                     dE             d eps       ncg     rms          rms(c)
DAV:   1    -0.100229251236E+03    0.14248E-02   -0.39778E-01    96   0.182E+00    0.221E-01
DAV:   2    -0.100230802693E+03   -0.15515E-02   -0.18740E-02   132   0.415E-01    0.114E-01
DAV:   3    -0.100230687193E+03    0.11550E-03   -0.33000E-04   132   0.664E-02    0.610E-02
DAV:   4    -0.100230641648E+03    0.45545E-04   -0.13938E-04   108   0.447E-02    0.124E-02
DAV:   5    -0.100230634519E+03    0.71288E-05   -0.26571E-05   144   0.192E-02    0.751E-03
DAV:   6    -0.100230640961E+03   -0.64421E-05   -0.61001E-06   132   0.788E-03    0.400E-03
DAV:   7    -0.100230657815E+03   -0.16854E-04   -0.20105E-06   132   0.442E-03    0.167E-03
DAV:   8    -0.100230676408E+03   -0.18593E-04   -0.12611E-06   108   0.288E-03    0.101E-03
DAV:   9    -0.100230695132E+03   -0.18725E-04   -0.14799E-06   108   0.259E-03    0.704E-04
DAV:  10    -0.100230711344E+03   -0.16212E-04   -0.15513E-06   120   0.231E-03    0.373E-04
DAV:  11    -0.100230714980E+03   -0.36353E-05   -0.76931E-08   108   0.755E-04    0.248E-04
DAV:  12    -0.100230720195E+03   -0.52153E-05   -0.22929E-07    84   0.954E-04    0.124E-04
DAV:  13    -0.100230721947E+03   -0.17523E-05   -0.56138E-08   108   0.481E-04    0.939E-05
DAV:  14    -0.100230723002E+03   -0.10546E-05   -0.70687E-09    84   0.275E-04    0.416E-05
DAV:  15    -0.100230723491E+03   -0.48948E-06   -0.21800E-09   108   0.193E-04
  47 F= -.10023072E+03 E0= -.10023072E+03  d E =-.115528E-10
       N       E                     dE             d eps       ncg     rms          rms(c)
DAV:   1    -0.100230408879E+03    0.31412E-03   -0.19766E-01    96   0.129E+00    0.149E-01
DAV:   2    -0.100231170650E+03   -0.76177E-03   -0.92605E-03   120   0.294E-01    0.838E-02
DAV:   3    -0.100231106761E+03    0.63889E-04   -0.16052E-04   132   0.474E-02    0.430E-02
DAV:   4    -0.100231083354E+03    0.23407E-04   -0.74810E-05   120   0.322E-02    0.860E-03
DAV:   5    -0.100231077509E+03    0.58447E-05   -0.12876E-05   132   0.135E-02    0.529E-03
DAV:   6    -0.100231078272E+03   -0.76284E-06   -0.32845E-06   120   0.552E-03
  48 F= -.10023108E+03 E0= -.10023108E+03  d E =-.677077E-11
       N       E                     dE             d eps       ncg     rms          rms(c)
DAV:   1    -0.100229960396E+03    0.11171E-02   -0.40625E-01    96   0.180E+00    0.212E-01
DAV:   2    -0.100231358489E+03   -0.13981E-02   -0.16592E-02   144   0.400E-01    0.959E-02
DAV:   3    -0.100231301426E+03    0.57063E-04   -0.33869E-04   132   0.657E-02    0.494E-02
DAV:   4    -0.100231297571E+03    0.38550E-05   -0.10502E-04   108   0.402E-02    0.125E-02
DAV:   5    -0.100231292589E+03    0.49825E-05   -0.21983E-05   132   0.180E-02    0.731E-03
DAV:   6    -0.100231291474E+03    0.11144E-05   -0.44201E-06   132   0.736E-03    0.365E-03
DAV:   7    -0.100231294424E+03   -0.29500E-05   -0.62903E-07   108   0.327E-03    0.140E-03
DAV:   8    -0.100231298688E+03   -0.42635E-05   -0.34598E-07   108   0.230E-03    0.699E-04
DAV:   9    -0.100231305647E+03   -0.69591E-05   -0.46338E-07    84   0.220E-03    0.415E-04
DAV:  10    -0.100231311241E+03   -0.55939E-05   -0.43009E-07   108   0.173E-03    0.256E-04
DAV:  11    -0.100231313542E+03   -0.23015E-05   -0.85160E-08    96   0.908E-04    0.213E-04
DAV:  12    -0.100231315517E+03   -0.19746E-05   -0.50596E-08    84   0.570E-04    0.100E-04
DAV:  13    -0.100231316849E+03   -0.13327E-05   -0.37825E-08   108   0.418E-04    0.857E-05
DAV:  14    -0.100231317662E+03   -0.81291E-06   -0.12902E-08    96   0.276E-04
  49 F= -.10023132E+03 E0= -.10023132E+03  d E =-.151005E-10
       N       E                     dE             d eps       ncg     rms          rms(c)
DAV:   1    -0.100230218631E+03    0.10982E-02   -0.20034E-01   108   0.132E+00    0.149E-01
DAV:   2    -0.100231325618E+03   -0.11070E-02   -0.12994E-02   120   0.324E-01    0.694E-02
DAV:   3    -0.100231303888E+03    0.21730E-04   -0.25569E-04   144   0.531E-02    0.391E-02
DAV:   4    -0.100231295457E+03    0.84311E-05   -0.55547E-05   120   0.301E-02    0.978E-03
DAV:   5    -0.100231293285E+03    0.21723E-05   -0.13752E-05   132   0.142E-02    0.585E-03
DAV:   6    -0.100231294398E+03   -0.11132E-05   -0.20939E-06   120   0.562E-03    0.293E-03
DAV:   7    -0.100231298557E+03   -0.41591E-05   -0.81854E-07   108   0.347E-03    0.110E-03
DAV:   8    -0.100231304256E+03   -0.56996E-05   -0.41119E-07   108   0.231E-03    0.611E-04
DAV:   9    -0.100231311041E+03   -0.67846E-05   -0.39827E-07   108   0.183E-03    0.370E-04
DAV:  10    -0.100231316140E+03   -0.50986E-05   -0.32761E-07   108   0.140E-03    0.192E-04
DAV:  11    -0.100231319022E+03   -0.28823E-05   -0.11907E-07   108   0.858E-04    0.174E-04
DAV:  12    -0.100231320309E+03   -0.12871E-05   -0.30159E-08   108   0.475E-04    0.823E-05
DAV:  13    -0.100231321117E+03   -0.80800E-06   -0.14294E-08   108   0.312E-04
  50 F= -.10023132E+03 E0= -.10023132E+03  d E =-.181860E-10
       N       E                     dE             d eps       ncg     rms          rms(c)
DAV:   1    -0.100229736425E+03    0.15839E-02   -0.40772E-01   120   0.180E+00    0.173E-01
DAV:   2    -0.100231264093E+03   -0.15277E-02   -0.18307E-02   108   0.396E-01    0.914E-02
DAV:   3    -0.100231235333E+03    0.28759E-04   -0.33958E-04   144   0.637E-02    0.490E-02
DAV:   4    -0.100231212819E+03    0.22514E-04   -0.77111E-05   120   0.419E-02    0.925E-03
DAV:   5    -0.100231209286E+03    0.35332E-05   -0.32895E-05   132   0.213E-02    0.764E-03
DAV:   6    -0.100231210193E+03   -0.90705E-06   -0.40044E-06   120   0.635E-03
  51 F= -.10023121E+03 E0= -.10023121E+03  d E =-.112786E-10
       N       E                     dE             d eps       ncg     rms          rms(c)
DAV:   1    -0.100230017210E+03    0.11921E-02   -0.20253E-01    96   0.129E+00    0.134E-01
DAV:   2    -0.100230857744E+03   -0.84053E-03   -0.10022E-02   132   0.309E-01    0.814E-02
DAV:   3    -0.100230838361E+03    0.19382E-04   -0.14064E-04   120   0.396E-02    0.434E-02
DAV:   4    -0.100230812275E+03    0.26086E-04   -0.53773E-05   108   0.262E-02    0.740E-03
DAV:   5    -0.100230806930E+03    0.53452E-05   -0.86481E-06   132   0.113E-02    0.459E-03
DAV:   6    -0.100230810782E+03   -0.38520E-05   -0.43182E-06   120   0.701E-03    0.219E-03
DAV:   7    -0.100230820197E+03   -0.94146E-05   -0.17666E-06   120   0.438E-03    0.145E-03
DAV:   8    -0.100230833362E+03   -0.13165E-04   -0.87187E-07    96   0.248E-03    0.692E-04
DAV:   9    -0.100230846036E+03   -0.12674E-04   -0.11220E-06   120   0.237E-03    0.529E-04
DAV:  10    -0.100230856607E+03   -0.10571E-04   -0.99009E-07    96   0.201E-03    0.199E-04
DAV:  11    -0.100230859618E+03   -0.30119E-05   -0.12140E-07   108   0.866E-04    0.216E-04
DAV:  12    -0.100230861715E+03   -0.20962E-05   -0.77875E-08    96   0.584E-04    0.859E-05
DAV:  13    -0.100230862651E+03   -0.93618E-06   -0.22243E-08   108   0.334E-04
  52 F= -.10023086E+03 E0= -.10023086E+03  d E =-.624719E-11
       N       E                     dE             d eps       ncg     rms          rms(c)
DAV:   1    -0.100228759671E+03    0.21020E-02   -0.40165E-01    96   0.182E+00    0.188E-01
DAV:   2    -0.100230292089E+03   -0.15324E-02   -0.19030E-02    96   0.432E-01    0.110E-01
DAV:   3    -0.100230214284E+03    0.77805E-04   -0.29191E-04   144   0.570E-02    0.581E-02
DAV:   4    -0.100230154126E+03    0.60159E-04   -0.88330E-05   132   0.355E-02    0.101E-02
DAV:   5    -0.100230142692E+03    0.11433E-04   -0.15944E-05   132   0.163E-02    0.644E-03
DAV:   6    -0.100230146541E+03   -0.38484E-05   -0.83248E-06   132   0.103E-02    0.321E-03
DAV:   7    -0.100230161721E+03   -0.15180E-04   -0.33980E-06   132   0.640E-03    0.221E-03
DAV:   8    -0.100230185244E+03   -0.23523E-04   -0.12633E-06   120   0.336E-03    0.110E-03
DAV:   9    -0.100230209732E+03   -0.24488E-04   -0.17121E-06    96   0.316E-03    0.896E-04
DAV:  10    -0.100230232767E+03   -0.23035E-04   -0.13320E-06   120   0.245E-03    0.339E-04
DAV:  11    -0.100230240400E+03   -0.76331E-05   -0.16709E-07   108   0.106E-03    0.353E-04
DAV:  12    -0.100230246517E+03   -0.61165E-05   -0.11595E-07    84   0.725E-04    0.147E-04
DAV:  13    -0.100230249593E+03   -0.30761E-05   -0.46015E-08   108   0.448E-04    0.753E-05
DAV:  14    -0.100230251321E+03   -0.17276E-05   -0.11558E-08   108   0.299E-04    0.491E-05
DAV:  15    -0.100230252023E+03   -0.70284E-06   -0.12839E-09   108   0.184E-04
  53 F= -.10023025E+03 E0= -.10023025E+03  d E =-.180998E-10
       N       E                     dE             d eps       ncg     rms          rms(c)
DAV:   1    -0.100228973797E+03    0.12775E-02   -0.20228E-01   120   0.124E+00    0.142E-01
DAV:   2    -0.100229844283E+03   -0.87049E-03   -0.10687E-02   108   0.327E-01    0.896E-02
DAV:   3    -0.100229788257E+03    0.56026E-04   -0.15568E-04   132   0.441E-02    0.485E-02
DAV:   4    -0.100229756198E+03    0.32059E-04   -0.68476E-05   132   0.320E-02    0.768E-03
DAV:   5    -0.100229751500E+03    0.46974E-05   -0.16164E-05   132   0.146E-02    0.537E-03
DAV:   6    -0.100229756390E+03   -0.48892E-05   -0.53864E-06   132   0.640E-03    0.314E-03
DAV:   7    -0.100229768397E+03   -0.12007E-04   -0.73683E-07   108   0.282E-03    0.162E-03
DAV:   8    -0.100229790855E+03   -0.22458E-04   -0.26491E-06   108   0.355E-03    0.100E-03
DAV:   9    -0.100229803090E+03   -0.12235E-04   -0.72849E-07   108   0.212E-03    0.756E-04
DAV:  10    -0.100229815654E+03   -0.12564E-04   -0.10593E-06   108   0.197E-03    0.320E-04
DAV:  11    -0.100229820975E+03   -0.53207E-05   -0.20898E-07    96   0.111E-03    0.283E-04
DAV:  12    -0.100229823583E+03   -0.26086E-05   -0.75753E-08   108   0.633E-04    0.198E-04
DAV:  13    -0.100229825218E+03   -0.16342E-05   -0.38496E-08    84   0.449E-04    0.900E-05
DAV:  14    -0.100229825989E+03   -0.77146E-06   -0.46424E-09   108   0.265E-04
  54 F= -.10022983E+03 E0= -.10022983E+03  d E =-.130438E-10
       N       E                     dE             d eps       ncg     rms          rms(c)
DAV:   1    -0.100228503856E+03    0.13214E-02   -0.40797E-01   120   0.181E+00    0.206E-01
DAV:   2    -0.100230117248E+03   -0.16134E-02   -0.20246E-02   120   0.441E-01    0.127E-01
DAV:   3    -0.100230005831E+03    0.11142E-03   -0.29303E-04   132   0.602E-02    0.682E-02
DAV:   4    -0.100229942382E+03    0.63449E-04   -0.13606E-04   132   0.441E-02    0.109E-02
DAV:   5    -0.100229940920E+03    0.14618E-05   -0.28737E-05   132   0.196E-02    0.755E-03
DAV:   6    -0.100229957480E+03   -0.16560E-04   -0.12644E-05   132   0.960E-03    0.408E-03
DAV:   7    -0.100229984194E+03   -0.26714E-04   -0.22431E-06   132   0.464E-03    0.228E-03
DAV:   8    -0.100230030892E+03   -0.46697E-04   -0.58716E-06   108   0.510E-03    0.126E-03
DAV:   9    -0.100230052679E+03   -0.21787E-04   -0.16100E-06   120   0.275E-03    0.923E-04
DAV:  10    -0.100230075801E+03   -0.23122E-04   -0.20809E-06    96   0.274E-03    0.385E-04
DAV:  11    -0.100230084060E+03   -0.82590E-05   -0.38044E-07    96   0.130E-03    0.321E-04
DAV:  12    -0.100230090032E+03   -0.59718E-05   -0.33077E-07    84   0.109E-03    0.141E-04
DAV:  13    -0.100230091481E+03   -0.14496E-05   -0.33949E-08   108   0.445E-04    0.785E-05
DAV:  14    -0.100230092717E+03   -0.12358E-05   -0.16133E-08    84   0.334E-04    0.533E-05
DAV:  15    -0.100230093138E+03   -0.42086E-06    0.24793E-10   108   0.178E-04
  55 F= -.10023009E+03 E0= -.10023009E+03  d E =-.596350E-11
       N       E                     dE             d eps       ncg     rms          rms(c)
DAV:   1    -0.100229995445E+03    0.97272E-04   -0.19867E-01    96   0.129E+00    0.144E-01
DAV:   2    -0.100231214938E+03   -0.12195E-02   -0.14770E-02   120   0.342E-01    0.819E-02
DAV:   3    -0.100231189417E+03    0.25521E-04   -0.23202E-04   144   0.467E-02    0.481E-02
DAV:   4    -0.100231165064E+03    0.24353E-04   -0.56385E-05   120   0.288E-02    0.842E-03
DAV:   5    -0.100231157881E+03    0.71831E-05   -0.13272E-05   132   0.132E-02    0.511E-03
DAV:   6    -0.100231160020E+03   -0.21396E-05   -0.37357E-06   108   0.624E-03    0.279E-03
DAV:   7    -0.100231169949E+03   -0.99290E-05   -0.18257E-06   120   0.420E-03    0.136E-03
DAV:   8    -0.100231186773E+03   -0.16823E-04   -0.95417E-07    84   0.262E-03    0.759E-04
DAV:   9    -0.100231199723E+03   -0.12950E-04   -0.92141E-07   108   0.203E-03    0.623E-04
DAV:  10    -0.100231212247E+03   -0.12525E-04   -0.71819E-07    96   0.180E-03    0.293E-04
DAV:  11    -0.100231216274E+03   -0.40268E-05   -0.18694E-07   108   0.870E-04    0.299E-04
DAV:  12    -0.100231220155E+03   -0.38813E-05   -0.10303E-07    84   0.765E-04    0.101E-04
DAV:  13    -0.100231221567E+03   -0.14114E-05   -0.34254E-08   108   0.443E-04    0.111E-04
DAV:  14    -0.100231222444E+03   -0.87694E-06   -0.57953E-09    84   0.259E-04
  56 F= -.10023122E+03 E0= -.10023122E+03  d E =-.160588E-10
       N       E                     dE             d eps       ncg     rms          rms(c)
DAV:   1    -0.100229527240E+03    0.16943E-02   -0.40745E-01   120   0.180E+00    0.176E-01
DAV:   2    -0.100231099576E+03   -0.15723E-02   -0.18900E-02    96   0.406E-01    0.962E-02
DAV:   3    -0.100231062608E+03    0.36969E-04   -0.33307E-04   144   0.628E-02    0.519E-02
DAV:   4    -0.100231034176E+03    0.28432E-04   -0.82094E-05   132   0.419E-02    0.941E-03
DAV:   5    -0.100231029099E+03    0.50761E-05   -0.32565E-05   132   0.212E-02    0.755E-03
DAV:   6    -0.100231029984E+03   -0.88433E-06   -0.47797E-06   132   0.686E-03
  57 F= -.10023103E+03 E0= -.10023103E+03  d E =-.128792E-10
       N       E                     dE             d eps       ncg     rms          rms(c)
DAV:   1    -0.100229489266E+03    0.15398E-02   -0.20342E-01    96   0.123E+00    0.117E-01
DAV:   2    -0.100230178231E+03   -0.68896E-03   -0.81288E-03   132   0.257E-01    0.578E-02
DAV:   3    -0.100230182123E+03   -0.38923E-05   -0.14757E-04   120   0.431E-02    0.303E-02
DAV:   4    -0.100230188821E+03   -0.66978E-05   -0.31574E-05   120   0.281E-02    0.615E-03
DAV:   5    -0.100230193853E+03   -0.50324E-05   -0.13823E-05   132   0.138E-02    0.525E-03
DAV:   6    -0.100230196600E+03   -0.27463E-05   -0.12535E-06   108   0.364E-03    0.400E-03
DAV:   7    -0.100230203200E+03   -0.66007E-05   -0.48964E-07   108   0.241E-03    0.141E-03
DAV:   8    -0.100230209578E+03   -0.63779E-05   -0.52249E-07   108   0.241E-03    0.964E-04
DAV:   9    -0.100230219848E+03   -0.10270E-04   -0.69954E-07    84   0.282E-03    0.657E-04
DAV:  10    -0.100230222191E+03   -0.23428E-05   -0.20387E-07   108   0.142E-03    0.616E-04
DAV:  11    -0.100230224035E+03   -0.18434E-05   -0.30127E-08   108   0.604E-04    0.338E-04
DAV:  12    -0.100230226990E+03   -0.29559E-05   -0.74053E-08    96   0.624E-04    0.159E-04
DAV:  13    -0.100230229025E+03   -0.20341E-05   -0.46074E-08    96   0.481E-04    0.212E-04
DAV:  14    -0.100230229715E+03   -0.69054E-06   -0.36952E-09   108   0.239E-04
  58 F= -.10023023E+03 E0= -.10023023E+03  d E =-.152869E-10
       N       E                     dE             d eps       ncg     rms          rms(c)
DAV:   1    -0.100229135716E+03    0.10933E-02   -0.40342E-01   120   0.177E+00    0.191E-01
DAV:   2    -0.100230812113E+03   -0.16764E-02   -0.20479E-02   108   0.443E-01    0.116E-01
DAV:   3    -0.100230728216E+03    0.83897E-04   -0.29560E-04   132   0.597E-02    0.639E-02
DAV:   4    -0.100230667580E+03    0.60636E-04   -0.11179E-04   132   0.425E-02    0.105E-02
DAV:   5    -0.100230664299E+03    0.32809E-05   -0.28102E-05   132   0.199E-02    0.771E-03
DAV:   6    -0.100230675520E+03   -0.11222E-04   -0.85747E-06   132   0.877E-03    0.442E-03
DAV:   7    -0.100230698583E+03   -0.23063E-04   -0.25398E-06   132   0.522E-03    0.221E-03
DAV:   8    -0.100230733806E+03   -0.35223E-04   -0.37994E-06   120   0.492E-03    0.125E-03
DAV:   9    -0.100230755611E+03   -0.21805E-04   -0.20409E-06   120   0.340E-03    0.107E-03
DAV:  10    -0.100230773565E+03   -0.17954E-04   -0.14371E-06    96   0.259E-03    0.387E-04
DAV:  11    -0.100230781332E+03   -0.77673E-05   -0.36787E-07   108   0.134E-03    0.352E-04
DAV:  12    -0.100230786598E+03   -0.52655E-05   -0.28066E-07    96   0.102E-03    0.181E-04
DAV:  13    -0.100230788605E+03   -0.20069E-05   -0.58774E-08   108   0.501E-04    0.903E-05
DAV:  14    -0.100230789710E+03   -0.11056E-05   -0.10319E-08   108   0.297E-04    0.582E-05
DAV:  15    -0.100230790179E+03   -0.46844E-06   -0.17021E-09   108   0.192E-04
  59 F= -.10023079E+03 E0= -.10023079E+03  d E =-.677725E-11
       N       E                     dE             d eps       ncg     rms          rms(c)
DAV:   1    -0.100229152797E+03    0.16369E-02   -0.20150E-01    96   0.130E+00    0.133E-01
DAV:   2    -0.100229916636E+03   -0.76384E-03   -0.95515E-03   108   0.308E-01    0.763E-02
DAV:   3    -0.100229878126E+03    0.38510E-04   -0.13477E-04   132   0.381E-02    0.403E-02
DAV:   4    -0.100229843262E+03    0.34864E-04   -0.36657E-05   132   0.230E-02    0.697E-03
DAV:   5    -0.100229835976E+03    0.72861E-05   -0.68942E-06   132   0.109E-02    0.408E-03
DAV:   6    -0.100229838353E+03   -0.23767E-05   -0.38373E-06   120   0.749E-03    0.210E-03
DAV:   7    -0.100229847820E+03   -0.94676E-05   -0.20393E-06   132   0.493E-03    0.158E-03
DAV:   8    -0.100229861278E+03   -0.13457E-04   -0.56293E-07   108   0.221E-03    0.741E-04
DAV:   9    -0.100229875572E+03   -0.14295E-04   -0.10029E-06   108   0.223E-03    0.603E-04
DAV:  10    -0.100229887091E+03   -0.11519E-04   -0.45569E-07    96   0.156E-03    0.248E-04
DAV:  11    -0.100229893543E+03   -0.64522E-05   -0.24260E-07   108   0.101E-03    0.257E-04
DAV:  12    -0.100229897324E+03   -0.37805E-05   -0.57265E-08    96   0.537E-04    0.109E-04
DAV:  13    -0.100229899450E+03   -0.21261E-05   -0.26794E-08   108   0.369E-04    0.603E-05
DAV:  14    -0.100229900618E+03   -0.11674E-05   -0.95883E-09    96   0.251E-04    0.368E-05
DAV:  15    -0.100229901099E+03   -0.48100E-06    0.22386E-09   108   0.146E-04
  60 F= -.10022990E+03 E0= -.10022990E+03  d E =-.162413E-10
       N       E                     dE             d eps       ncg     rms          rms(c)
DAV:   1    -0.100228885251E+03    0.10154E-02   -0.40746E-01    96   0.183E+00    0.198E-01
DAV:   2    -0.100230415841E+03   -0.15306E-02   -0.19391E-02   108   0.428E-01    0.121E-01
DAV:   3    -0.100230306635E+03    0.10921E-03   -0.26904E-04   132   0.569E-02    0.630E-02
DAV:   4    -0.100230231459E+03    0.75175E-04   -0.10740E-04   132   0.387E-02    0.107E-02
DAV:   5    -0.100230232444E+03   -0.98469E-06   -0.19690E-05   132   0.170E-02    0.687E-03
DAV:   6    -0.100230255626E+03   -0.23181E-04   -0.12370E-05   120   0.105E-02    0.350E-03
DAV:   7    -0.100230285370E+03   -0.29744E-04   -0.36305E-06   132   0.605E-03    0.234E-03
DAV:   8    -0.100230330496E+03   -0.45127E-04   -0.47364E-06   108   0.485E-03    0.108E-03
DAV:   9    -0.100230358032E+03   -0.27536E-04   -0.26810E-06   108   0.347E-03    0.914E-04
DAV:  10    -0.100230380904E+03   -0.22872E-04   -0.22397E-06    96   0.286E-03    0.371E-04
DAV:  11    -0.100230387878E+03   -0.69738E-05   -0.32350E-07   108   0.124E-03    0.291E-04
DAV:  12    -0.100230393011E+03   -0.51329E-05   -0.25041E-07    84   0.969E-04    0.145E-04
DAV:  13    -0.100230394592E+03   -0.15812E-05   -0.40009E-08   108   0.462E-04    0.749E-05
DAV:  14    -0.100230395668E+03   -0.10754E-05   -0.12832E-08    96   0.328E-04    0.568E-05
DAV:  15    -0.100230396006E+03   -0.33835E-06    0.18152E-09   108   0.170E-04
  61 F= -.10023040E+03 E0= -.10023040E+03  d E =-.510483E-11
       N       E                     dE             d eps       ncg     rms          rms(c)
DAV:   1    -0.100233148458E+03   -0.27528E-02   -0.23327E-01    96   0.162E+00    0.131E-01
DAV:   2    -0.100233579885E+03   -0.43143E-03   -0.63877E-03   120   0.250E-01    0.783E-02
DAV:   3    -0.100233519904E+03    0.59980E-04   -0.16138E-04   132   0.435E-02    0.344E-02
DAV:   4    -0.100233502258E+03    0.17646E-04   -0.60195E-05   132   0.267E-02    0.759E-03
DAV:   5    -0.100233498463E+03    0.37955E-05   -0.82336E-06   132   0.107E-02    0.491E-03
DAV:   6    -0.100233499999E+03   -0.15362E-05   -0.35318E-06   132   0.586E-03    0.197E-03
DAV:   7    -0.100233504870E+03   -0.48710E-05   -0.51082E-07   108   0.287E-03    0.120E-03
DAV:   8    -0.100233514364E+03   -0.94934E-05   -0.65799E-07    96   0.237E-03    0.677E-04
DAV:   9    -0.100233523212E+03   -0.88483E-05   -0.54417E-07   108   0.185E-03    0.398E-04
DAV:  10    -0.100233530437E+03   -0.72250E-05   -0.31422E-07    84   0.126E-03    0.271E-04
DAV:  11    -0.100233534769E+03   -0.43321E-05   -0.95083E-08    96   0.706E-04    0.148E-04
DAV:  12    -0.100233537732E+03   -0.29633E-05   -0.68482E-08    84   0.552E-04    0.983E-05
DAV:  13    -0.100233538684E+03   -0.95164E-06   -0.72713E-09   108   0.267E-04
  62 F= -.10023354E+03 E0= -.10023354E+03  d E =-.722702E-11
       N       E                     dE             d eps       ncg     rms          rms(c)
DAV:   1    -0.100233591700E+03   -0.53968E-04   -0.52920E-01    96   0.251E+00    0.175E-01
DAV:   2    -0.100233457559E+03    0.13414E-03   -0.27550E-03   120   0.177E-01    0.978E-02
DAV:   3    -0.100233313919E+03    0.14364E-03   -0.41882E-04   132   0.618E-02    0.196E-02
DAV:   4    -0.100233316654E+03   -0.27351E-05   -0.71444E-05   132   0.267E-02    0.948E-03
DAV:   5    -0.100233317661E+03   -0.10071E-05   -0.34241E-06   132   0.676E-03    0.570E-03
DAV:   6    -0.100233321694E+03   -0.40327E-05   -0.25384E-06   120   0.532E-03    0.129E-03
DAV:   7    -0.100233324898E+03   -0.32045E-05   -0.67114E-07   108   0.287E-03    0.106E-03
DAV:   8    -0.100233328362E+03   -0.34639E-05   -0.16143E-07    84   0.142E-03    0.602E-04
DAV:   9    -0.100233333216E+03   -0.48533E-05   -0.30848E-07   108   0.163E-03    0.351E-04
DAV:  10    -0.100233335444E+03   -0.22283E-05   -0.12115E-07    96   0.942E-04    0.208E-04
DAV:  11    -0.100233337414E+03   -0.19702E-05   -0.78633E-08   108   0.670E-04    0.171E-04
DAV:  12    -0.100233338369E+03   -0.95506E-06   -0.26894E-08    96   0.410E-04
  63 F= -.10023334E+03 E0= -.10023334E+03  d E =-.102582E-10
       N       E                     dE             d eps       ncg     rms          rms(c)
DAV:   1    -0.100232268779E+03    0.10686E-02   -0.27415E-01    96   0.181E+00    0.149E-01
DAV:   2    -0.100232237797E+03    0.30982E-04   -0.23657E-03   108   0.158E-01    0.797E-02
DAV:   3    -0.100232137107E+03    0.10069E-03   -0.25682E-04   132   0.450E-02    0.237E-02
DAV:   4    -0.100232130345E+03    0.67620E-05   -0.55587E-05   132   0.209E-02    0.830E-03
DAV:   5    -0.100232129051E+03    0.12940E-05   -0.34151E-06   120   0.733E-03    0.387E-03
[...]
DAV:   3    -0.100233899461E+03    0.92804E-04   -0.36362E-04   120   0.593E-02    0.109E-02
DAV:   4    -0.100233906025E+03   -0.65644E-05   -0.56146E-05   132   0.245E-02    0.671E-03
DAV:   5    -0.100233906863E+03   -0.83710E-06   -0.17906E-06   108   0.481E-03
 131 F= -.10023391E+03 E0= -.10023391E+03  d E =-.117376E-10
       N       E                     dE             d eps       ncg     rms          rms(c)
DAV:   1    -0.100233351961E+03    0.55406E-03   -0.26204E-01    96   0.150E+00    0.110E-01
DAV:   2    -0.100233305604E+03    0.46357E-04   -0.11073E-03   120   0.103E-01    0.640E-02
DAV:   3    -0.100233258936E+03    0.46668E-04   -0.17546E-04   120   0.407E-02    0.856E-03
DAV:   4    -0.100233261876E+03   -0.29402E-05   -0.27115E-05   132   0.169E-02    0.509E-03
DAV:   5    -0.100233262306E+03   -0.43007E-06   -0.95441E-07   108   0.351E-03
 132 F= -.10023326E+03 E0= -.10023326E+03  d E =-.118109E-10
       N       E                     dE             d eps       ncg     rms          rms(c)
DAV:   1    -0.100233915769E+03   -0.65389E-03   -0.52904E-01    96   0.206E+00    0.169E-01
DAV:   2    -0.100233839134E+03    0.76636E-04   -0.27261E-03    96   0.153E-01    0.954E-02
DAV:   3    -0.100233725365E+03    0.11377E-03   -0.36892E-04   120   0.544E-02    0.195E-02
DAV:   4    -0.100233727194E+03   -0.18293E-05   -0.57943E-05   132   0.231E-02    0.860E-03
DAV:   5    -0.100233726632E+03    0.56189E-06   -0.33708E-06   108   0.615E-03
 133 F= -.10023373E+03 E0= -.10023373E+03  d E =-.786669E-11
       N       E                     dE             d eps       ncg     rms          rms(c)
DAV:   1    -0.100233477169E+03    0.25002E-03   -0.27124E-01    96   0.183E+00    0.144E-01
DAV:   2    -0.100233418817E+03    0.58353E-04   -0.18000E-03   120   0.141E-01    0.783E-02
DAV:   3    -0.100233345479E+03    0.73338E-04   -0.18269E-04   132   0.400E-02    0.234E-02
DAV:   4    -0.100233345995E+03   -0.51636E-06   -0.48475E-05   120   0.200E-02    0.658E-03
DAV:   5    -0.100233345374E+03    0.62097E-06   -0.32602E-06   132   0.638E-03
 134 F= -.10023335E+03 E0= -.10023335E+03  d E =-.983534E-11
       N       E                     dE             d eps       ncg     rms          rms(c)
DAV:   1    -0.100233814823E+03   -0.46883E-03   -0.55442E-01    96   0.239E+00    0.235E-01
DAV:   2    -0.100233467625E+03    0.34720E-03   -0.31243E-03   120   0.178E-01    0.121E-01
DAV:   3    -0.100233251185E+03    0.21644E-03   -0.46368E-04   120   0.583E-02    0.391E-02
DAV:   4    -0.100233243607E+03    0.75782E-05   -0.11088E-04   132   0.296E-02    0.114E-02
DAV:   5    -0.100233244178E+03   -0.57123E-06   -0.81495E-06   108   0.107E-02
 135 F= -.10023324E+03 E0= -.10023324E+03  d E =-.105025E-10
       N       E                     dE             d eps       ncg     rms          rms(c)
DAV:   1    -0.100232658641E+03    0.58497E-03   -0.29040E-01    96   0.174E+00    0.211E-01
DAV:   2    -0.100232383999E+03    0.27464E-03   -0.21781E-03   120   0.154E-01    0.103E-01
DAV:   3    -0.100232243755E+03    0.14024E-03   -0.39068E-04   120   0.568E-02    0.355E-02
DAV:   4    -0.100232244013E+03   -0.25846E-06   -0.10398E-04   144   0.293E-02    0.128E-02
DAV:   5    -0.100232242633E+03    0.13800E-05   -0.48765E-06   108   0.858E-03    0.514E-03
DAV:   6    -0.100232242934E+03   -0.30030E-06   -0.24431E-06   132   0.509E-03
 136 F= -.10023224E+03 E0= -.10023224E+03  d E =-.798944E-11
       N       E                     dE             d eps       ncg     rms          rms(c)
DAV:   1    -0.100233080774E+03   -0.83814E-03   -0.57462E-01   108   0.245E+00    0.274E-01
DAV:   2    -0.100232501524E+03    0.57925E-03   -0.41707E-03   120   0.215E-01    0.137E-01
DAV:   3    -0.100232205464E+03    0.29606E-03   -0.79334E-04   120   0.796E-02    0.447E-02
DAV:   4    -0.100232203584E+03    0.18807E-05   -0.17091E-04   132   0.384E-02    0.175E-02
DAV:   5    -0.100232203014E+03    0.56942E-06   -0.79650E-06   132   0.992E-03
 137 F= -.10023220E+03 E0= -.10023220E+03  d E =-.106915E-10
       N       E                     dE             d eps       ncg     rms          rms(c)
DAV:   1    -0.100233674186E+03   -0.14706E-02   -0.28866E-01    96   0.172E+00    0.210E-01
DAV:   2    -0.100233422806E+03    0.25138E-03   -0.23241E-03   120   0.157E-01    0.101E-01
DAV:   3    -0.100233277492E+03    0.14531E-03   -0.38175E-04   120   0.573E-02    0.360E-02
DAV:   4    -0.100233276867E+03    0.62561E-06   -0.10993E-04   120   0.301E-02    0.121E-02
DAV:   5    -0.100233275996E+03    0.87097E-06   -0.54016E-06   132   0.865E-03
 138 F= -.10023328E+03 E0= -.10023328E+03  d E =-.110508E-10
       N       E                     dE             d eps       ncg     rms          rms(c)
DAV:   1    -0.100233983773E+03   -0.70691E-03   -0.54704E-01    96   0.240E+00    0.231E-01
DAV:   2    -0.100233655193E+03    0.32858E-03   -0.32148E-03   108   0.181E-01    0.121E-01
DAV:   3    -0.100233448231E+03    0.20696E-03   -0.48519E-04   120   0.640E-02    0.366E-02
DAV:   4    -0.100233448599E+03   -0.36800E-06   -0.10404E-04   144   0.305E-02    0.117E-02
DAV:   5    -0.100233448619E+03   -0.20420E-07   -0.66874E-06   120   0.973E-03
 139 F= -.10023345E+03 E0= -.10023345E+03  d E =-.774841E-11
       N       E                     dE             d eps       ncg     rms          rms(c)
DAV:   1    -0.100233302475E+03    0.14612E-03   -0.27658E-01    96   0.171E+00    0.168E-01
DAV:   2    -0.100233176094E+03    0.12638E-03   -0.16962E-03   120   0.126E-01    0.879E-02
DAV:   3    -0.100233083294E+03    0.92800E-04   -0.26080E-04   120   0.415E-02    0.266E-02
DAV:   4    -0.100233078588E+03    0.47054E-05   -0.35703E-05   120   0.167E-02    0.999E-03
DAV:   5    -0.100233076918E+03    0.16701E-05   -0.28172E-06   120   0.663E-03    0.478E-03
DAV:   6    -0.100233076979E+03   -0.60590E-07   -0.19219E-06   120   0.484E-03
 140 F= -.10023308E+03 E0= -.10023308E+03  d E =-.899382E-11
       N       E                     dE             d eps       ncg     rms          rms(c)
DAV:   1    -0.100233591433E+03   -0.51451E-03   -0.55816E-01    96   0.240E+00    0.247E-01
DAV:   2    -0.100233209469E+03    0.38196E-03   -0.33634E-03   120   0.185E-01    0.124E-01
DAV:   3    -0.100232985618E+03    0.22385E-03   -0.49736E-04   120   0.604E-02    0.425E-02
DAV:   4    -0.100232974292E+03    0.11326E-04   -0.12841E-04   132   0.318E-02    0.127E-02
DAV:   5    -0.100232974536E+03   -0.24403E-06   -0.93705E-06   132   0.117E-02
 141 F= -.10023297E+03 E0= -.10023297E+03  d E =-.110380E-10
       N       E                     dE             d eps       ncg     rms          rms(c)
DAV:   1    -0.100232180823E+03    0.79347E-03   -0.27383E-01   108   0.169E+00    0.139E-01
DAV:   2    -0.100232050068E+03    0.13075E-03   -0.14998E-03   120   0.121E-01    0.791E-02
DAV:   3    -0.100231961189E+03    0.88880E-04   -0.28604E-04   120   0.492E-02    0.158E-02
DAV:   4    -0.100231966538E+03   -0.53497E-05   -0.47782E-05   132   0.214E-02    0.811E-03
DAV:   5    -0.100231967329E+03   -0.79111E-06   -0.12879E-06    96   0.416E-03
 142 F= -.10023197E+03 E0= -.10023197E+03  d E =-.882117E-11
       N       E                     dE             d eps       ncg     rms          rms(c)
DAV:   1    -0.100232722911E+03   -0.75637E-03   -0.58136E-01    96   0.242E+00    0.294E-01
DAV:   2    -0.100232187841E+03    0.53507E-03   -0.46354E-03   120   0.224E-01    0.142E-01
DAV:   3    -0.100231876215E+03    0.31163E-03   -0.79973E-04   120   0.826E-02    0.506E-02
DAV:   4    -0.100231870339E+03    0.58766E-05   -0.22334E-04   120   0.429E-02    0.169E-02
DAV:   5    -0.100231868160E+03    0.21785E-05   -0.10859E-05   132   0.119E-02    0.868E-03
DAV:   6    -0.100231868295E+03   -0.13483E-06   -0.43560E-06   120   0.710E-03
 143 F= -.10023187E+03 E0= -.10023187E+03  d E =-.915125E-11
       N       E                     dE             d eps       ncg     rms          rms(c)
DAV:   1    -0.100234184587E+03   -0.23164E-02   -0.28202E-01    96   0.171E+00    0.169E-01
DAV:   2    -0.100233947269E+03    0.23732E-03   -0.17273E-03   120   0.137E-01    0.894E-02
DAV:   3    -0.100233832785E+03    0.11448E-03   -0.34193E-04   120   0.542E-02    0.247E-02
DAV:   4    -0.100233837207E+03   -0.44220E-05   -0.66684E-05   132   0.247E-02    0.107E-02
DAV:   5    -0.100233837530E+03   -0.32341E-06   -0.26563E-06   132   0.596E-03
 144 F= -.10023384E+03 E0= -.10023384E+03  d E =-.117449E-10
       N       E                     dE             d eps       ncg     rms          rms(c)
DAV:   1    -0.100234478310E+03   -0.64110E-03   -0.54182E-01    96   0.239E+00    0.202E-01
DAV:   2    -0.100234192914E+03    0.28540E-03   -0.27420E-03   108   0.165E-01    0.113E-01
DAV:   3    -0.100234013980E+03    0.17893E-03   -0.46552E-04   120   0.642E-02    0.233E-02
DAV:   4    -0.100234020530E+03   -0.65495E-05   -0.76807E-05   132   0.269E-02    0.844E-03
DAV:   5    -0.100234020919E+03   -0.38884E-06   -0.34368E-06   132   0.669E-03
 145 F= -.10023402E+03 E0= -.10023402E+03  d E =-.768684E-11
       N       E                     dE             d eps       ncg     rms          rms(c)
DAV:   1    -0.100233469700E+03    0.55083E-03   -0.27685E-01    96   0.199E+00    0.157E-01
DAV:   2    -0.100233336276E+03    0.13342E-03   -0.20069E-03   120   0.165E-01    0.860E-02
DAV:   3    -0.100233235414E+03    0.10086E-03   -0.28833E-04   120   0.579E-02    0.246E-02
DAV:   4    -0.100233240651E+03   -0.52369E-05   -0.78629E-05   132   0.292E-02    0.106E-02
DAV:   5    -0.100233240291E+03    0.36015E-06   -0.24961E-06   132   0.665E-03
 146 F= -.10023324E+03 E0= -.10023324E+03  d E =-.889840E-11
       N       E                     dE             d eps       ncg     rms          rms(c)
DAV:   1    -0.100233483896E+03   -0.24324E-03   -0.56089E-01    96   0.264E+00    0.239E-01
DAV:   2    -0.100233062585E+03    0.42131E-03   -0.39109E-03   120   0.221E-01    0.126E-01
DAV:   3    -0.100232813977E+03    0.24861E-03   -0.68578E-04   120   0.842E-02    0.369E-02
DAV:   4    -0.100232818224E+03   -0.42465E-05   -0.15471E-04   132   0.406E-02    0.170E-02
DAV:   5    -0.100232817526E+03    0.69783E-06   -0.57905E-06   120   0.943E-03
 147 F= -.10023282E+03 E0= -.10023282E+03  d E =-.102301E-10
       N       E                     dE             d eps       ncg     rms          rms(c)
DAV:   1    -0.100231882581E+03    0.93564E-03   -0.27251E-01    96   0.182E+00    0.142E-01
DAV:   2    -0.100231749936E+03    0.13264E-03   -0.14358E-03   108   0.130E-01    0.781E-02
DAV:   3    -0.100231660637E+03    0.89299E-04   -0.22116E-04   120   0.451E-02    0.188E-02
DAV:   4    -0.100231662521E+03   -0.18835E-05   -0.38713E-05   132   0.201E-02    0.628E-03
DAV:   5    -0.100231663624E+03   -0.11033E-05   -0.18261E-06   132   0.513E-03    0.404E-03
DAV:   6    -0.100231665842E+03   -0.22180E-05   -0.85694E-07   108   0.326E-03    0.924E-04
DAV:   7    -0.100231667510E+03   -0.16683E-05   -0.24754E-07   108   0.184E-03    0.578E-04
DAV:   8    -0.100231669802E+03   -0.22921E-05   -0.10181E-07    96   0.131E-03    0.300E-04
DAV:   9    -0.100231672350E+03   -0.25479E-05   -0.17196E-07    96   0.131E-03    0.228E-04
DAV:  10    -0.100231674214E+03   -0.18636E-05   -0.10316E-07    96   0.864E-04    0.143E-04
DAV:  11    -0.100231674807E+03   -0.59377E-06   -0.13832E-08   108   0.364E-04
 148 F= -.10023167E+03 E0= -.10023167E+03  d E =-.825615E-11
       N       E                     dE             d eps       ncg     rms          rms(c)
DAV:   1    -0.100232941535E+03   -0.12673E-02   -0.57718E-01    96   0.270E+00    0.297E-01
DAV:   2    -0.100232479850E+03    0.46169E-03   -0.45578E-03   108   0.240E-01    0.140E-01
DAV:   3    -0.100232195109E+03    0.28474E-03   -0.67388E-04   132   0.786E-02    0.513E-02
DAV:   4    -0.100232175026E+03    0.20083E-04   -0.18486E-04   120   0.403E-02    0.159E-02
DAV:   5    -0.100232171926E+03    0.30994E-05   -0.99944E-06   132   0.138E-02    0.643E-03
DAV:   6    -0.100232173863E+03   -0.19365E-05   -0.49833E-06   132   0.782E-03    0.281E-03
DAV:   7    -0.100232176646E+03   -0.27835E-05   -0.92837E-07   120   0.358E-03    0.126E-03
DAV:   8    -0.100232180974E+03   -0.43274E-05   -0.26670E-07    96   0.193E-03    0.601E-04
DAV:   9    -0.100232184465E+03   -0.34917E-05   -0.24991E-07   108   0.170E-03    0.725E-04
DAV:  10    -0.100232190856E+03   -0.63907E-05   -0.38564E-07    96   0.163E-03    0.429E-04
DAV:  11    -0.100232192394E+03   -0.15379E-05   -0.72196E-08   120   0.821E-04    0.311E-04
DAV:  12    -0.100232193222E+03   -0.82763E-06   -0.72848E-09   108   0.392E-04
 149 F= -.10023219E+03 E0= -.10023219E+03  d E =-.889827E-11
       N       E                     dE             d eps       ncg     rms          rms(c)
DAV:   1    -0.100234271581E+03   -0.20792E-02   -0.27889E-01    96   0.184E+00    0.172E-01
DAV:   2    -0.100234069762E+03    0.20182E-03   -0.18238E-03   120   0.153E-01    0.891E-02
DAV:   3    -0.100233958420E+03    0.11134E-03   -0.28953E-04   132   0.525E-02    0.263E-02
DAV:   4    -0.100233959344E+03   -0.92402E-06   -0.59764E-05   144   0.242E-02    0.947E-03
DAV:   5    -0.100233960094E+03   -0.75039E-06   -0.33334E-06   132   0.738E-03
 150 F= -.10023396E+03 E0= -.10023396E+03  d E =-.111470E-10
       N       E                     dE             d eps       ncg     rms          rms(c)
DAV:   1    -0.100234343370E+03   -0.38403E-03   -0.54261E-01    96   0.259E+00    0.200E-01
DAV:   2    -0.100234060486E+03    0.28288E-03   -0.28608E-03   120   0.187E-01    0.112E-01
DAV:   3    -0.100233885535E+03    0.17495E-03   -0.46423E-04   120   0.683E-02    0.225E-02
DAV:   4    -0.100233892796E+03   -0.72614E-05   -0.74854E-05   132   0.282E-02    0.910E-03
DAV:   5    -0.100233894130E+03   -0.13341E-05   -0.30541E-06   132   0.645E-03    0.619E-03
DAV:   6    -0.100233897644E+03   -0.35133E-05   -0.17396E-06   120   0.441E-03    0.114E-03
DAV:   7    -0.100233899832E+03   -0.21882E-05   -0.34629E-07   108   0.216E-03    0.896E-04
DAV:   8    -0.100233903006E+03   -0.31743E-05   -0.14823E-07    96   0.164E-03    0.411E-04
DAV:   9    -0.100233906405E+03   -0.33988E-05   -0.20302E-07    96   0.163E-03    0.384E-04
DAV:  10    -0.100233908648E+03   -0.22427E-05   -0.11563E-07    96   0.980E-04    0.196E-04
DAV:  11    -0.100233909767E+03   -0.11197E-05   -0.32346E-08   108   0.472E-04    0.147E-04
DAV:  12    -0.100233910507E+03   -0.74028E-06   -0.13540E-08    96   0.337E-04
 151 F= -.10023391E+03 E0= -.10023391E+03  d E =-.794025E-11
       N       E                     dE             d eps       ncg     rms          rms(c)
DAV:   1    -0.100231745446E+03    0.21643E-02   -0.28064E-01    96   0.197E+00    0.181E-01
DAV:   2    -0.100231533057E+03    0.21239E-03   -0.23187E-03   108   0.179E-01    0.901E-02
DAV:   3    -0.100231400079E+03    0.13298E-03   -0.33552E-04   132   0.618E-02    0.314E-02
DAV:   4    -0.100231402699E+03   -0.26201E-05   -0.10498E-04   120   0.329E-02    0.102E-02
DAV:   5    -0.100231403701E+03   -0.10022E-05   -0.57235E-06   132   0.900E-03    0.580E-03
DAV:   6    -0.100231405404E+03   -0.17028E-05   -0.17283E-06   132   0.454E-03    0.128E-03
DAV:   7    -0.100231406537E+03   -0.11332E-05   -0.28308E-07   108   0.215E-03    0.650E-04
DAV:   8    -0.100231408314E+03   -0.17768E-05   -0.75240E-08    84   0.101E-03    0.259E-04
DAV:   9    -0.100231409594E+03   -0.12799E-05   -0.43934E-08   108   0.698E-04    0.201E-04
DAV:  10    -0.100231411414E+03   -0.18202E-05   -0.72194E-08    84   0.686E-04    0.955E-05
DAV:  11    -0.100231412016E+03   -0.60120E-06   -0.17703E-08    96   0.389E-04
 152 F= -.10023141E+03 E0= -.10023141E+03  d E =-.852376E-11
       N       E                     dE             d eps       ncg     rms          rms(c)
DAV:   1    -0.100232769595E+03   -0.13582E-02   -0.58416E-01   108   0.280E+00    0.299E-01
DAV:   2    -0.100232227841E+03    0.54175E-03   -0.48692E-03   108   0.257E-01    0.146E-01
DAV:   3    -0.100231894744E+03    0.33310E-03   -0.87029E-04   132   0.954E-02    0.504E-02
DAV:   4    -0.100231888861E+03    0.58825E-05   -0.23843E-04   120   0.494E-02    0.196E-02
DAV:   5    -0.100231887035E+03    0.18260E-05   -0.10667E-05   132   0.130E-02    0.885E-03
DAV:   6    -0.100231888447E+03   -0.14118E-05   -0.53474E-06   120   0.899E-03    0.195E-03
DAV:   7    -0.100231891112E+03   -0.26647E-05   -0.15936E-06   132   0.443E-03    0.136E-03
DAV:   8    -0.100231894642E+03   -0.35301E-05   -0.15528E-07    96   0.112E-03    0.583E-04
DAV:   9    -0.100231898194E+03   -0.35525E-05   -0.18450E-07    96   0.124E-03    0.516E-04
DAV:  10    -0.100231902198E+03   -0.40041E-05   -0.21330E-07    96   0.138E-03    0.724E-04
DAV:  11    -0.100231904565E+03   -0.23666E-05   -0.10183E-07    96   0.852E-04    0.282E-04
DAV:  12    -0.100231905413E+03   -0.84787E-06   -0.91666E-09   108   0.443E-04
 153 F= -.10023191E+03 E0= -.10023191E+03  d E =-.842202E-11
       N       E                     dE             d eps       ncg     rms          rms(c)
DAV:   1    -0.100234118588E+03   -0.22140E-02   -0.28587E-01    96   0.196E+00    0.195E-01
DAV:   2    -0.100233897206E+03    0.22138E-03   -0.21767E-03   108   0.169E-01    0.964E-02
DAV:   3    -0.100233755273E+03    0.14193E-03   -0.31817E-04   132   0.549E-02    0.345E-02
DAV:   4    -0.100233748267E+03    0.70061E-05   -0.86816E-05   132   0.286E-02    0.116E-02
DAV:   5    -0.100233749954E+03   -0.16869E-05   -0.53864E-06   132   0.982E-03    0.494E-03
DAV:   6    -0.100233753499E+03   -0.35453E-05   -0.23067E-06   132   0.529E-03    0.182E-03
DAV:   7    -0.100233756694E+03   -0.31948E-05   -0.35556E-07   108   0.229E-03    0.790E-04
DAV:   8    -0.100233761486E+03   -0.47922E-05   -0.25273E-07    96   0.168E-03    0.473E-04
DAV:   9    -0.100233763869E+03   -0.23832E-05   -0.14382E-07   108   0.114E-03    0.472E-04
DAV:  10    -0.100233767816E+03   -0.39469E-05   -0.22445E-07    84   0.113E-03    0.198E-04
DAV:  11    -0.100233768787E+03   -0.97060E-06   -0.55766E-08    96   0.592E-04
 154 F= -.10023377E+03 E0= -.10023377E+03  d E =-.808563E-11
       N       E                     dE             d eps       ncg     rms          rms(c)
DAV:   1    -0.100234425381E+03   -0.65756E-03   -0.55013E-01    96   0.271E+00    0.203E-01
DAV:   2    -0.100234149455E+03    0.27593E-03   -0.28015E-03   108   0.181E-01    0.113E-01
DAV:   3    -0.100233955788E+03    0.19367E-03   -0.46462E-04   120   0.648E-02    0.271E-02
DAV:   4    -0.100233958621E+03   -0.28336E-05   -0.81214E-05   132   0.287E-02    0.899E-03
DAV:   5    -0.100233957906E+03    0.71534E-06   -0.34528E-06   132   0.726E-03
 155 F= -.10023396E+03 E0= -.10023396E+03  d E =-.107171E-10
       N       E                     dE             d eps       ncg     rms          rms(c)
DAV:   1    -0.100233630224E+03    0.32840E-03   -0.27646E-01    96   0.191E+00    0.147E-01
DAV:   2    -0.100233486887E+03    0.14334E-03   -0.15736E-03   120   0.136E-01    0.822E-02
DAV:   3    -0.100233401514E+03    0.85374E-04   -0.26495E-04   120   0.523E-02    0.187E-02
DAV:   4    -0.100233407776E+03   -0.62621E-05   -0.51769E-05   132   0.233E-02    0.746E-03
DAV:   5    -0.100233408552E+03   -0.77628E-06   -0.15105E-06   108   0.515E-03
 156 F= -.10023341E+03 E0= -.10023341E+03  d E =-.109355E-10
       N       E                     dE             d eps       ncg     rms          rms(c)
DAV:   1    -0.100233837868E+03   -0.43009E-03   -0.55332E-01    96   0.272E+00    0.229E-01
DAV:   2    -0.100233555185E+03    0.28268E-03   -0.35271E-03   132   0.209E-01    0.121E-01
DAV:   3    -0.100233340760E+03    0.21443E-03   -0.48896E-04   120   0.685E-02    0.370E-02
DAV:   4    -0.100233340938E+03   -0.17784E-06   -0.10640E-04   132   0.323E-02    0.116E-02
DAV:   5    -0.100233341644E+03   -0.70615E-06   -0.68337E-06   132   0.102E-02
 157 F= -.10023334E+03 E0= -.10023334E+03  d E =-.849627E-11
