       N       E                     dE             d eps       ncg     rms          rms(c)
DAV:   1     0.206992795947E+03    0.20699E+03   -0.10470E+04   116   0.546E+02
DAV:   2    -0.229039903620E+02   -0.22990E+03   -0.21510E+03   136   0.103E+02
DAV:   3    -0.998029789790E+02   -0.76899E+02   -0.76704E+02   112   0.563E+01
DAV:   4    -0.104273666943E+03   -0.44707E+01   -0.44531E+01   112   0.186E+01
DAV:   5    -0.104343262485E+03   -0.69596E-01   -0.69490E-01   120   0.246E+00    0.143E+01
DAV:   6    -0.101230292955E+03    0.31130E+01   -0.15202E+00   104   0.442E+00    0.832E+00
DAV:   7    -0.995891694880E+02    0.16411E+01   -0.39462E+00   104   0.654E+00    0.122E+00
DAV:   8    -0.995340744250E+02    0.55095E-01   -0.25196E-01   104   0.209E+00    0.596E-01
DAV:   9    -0.994973485808E+02    0.36726E-01   -0.70720E-02   120   0.746E-01    0.347E-01
DAV:  10    -0.994988332322E+02   -0.14847E-02   -0.32052E-03   112   0.207E-01    0.137E-01
DAV:  11    -0.994986159422E+02    0.21729E-03   -0.69667E-03   104   0.240E-01    0.108E-01
DAV:  12    -0.995022856127E+02   -0.36697E-02   -0.88389E-04   102   0.852E-02    0.679E-02
DAV:  13    -0.995077683986E+02   -0.54828E-02   -0.17700E-03   112   0.111E-01    0.377E-02
DAV:  14    -0.995112019823E+02   -0.34336E-02   -0.30693E-04   112   0.502E-02    0.199E-02
DAV:  15    -0.995158466221E+02   -0.46446E-02   -0.59513E-04   110   0.643E-02    0.170E-02
DAV:  16    -0.995170388730E+02   -0.11923E-02   -0.74324E-05   112   0.246E-02    0.781E-03
DAV:  17    -0.995180454653E+02   -0.10066E-02   -0.98139E-05   112   0.246E-02    0.375E-03
DAV:  18    -0.995182264675E+02   -0.18100E-03   -0.65691E-06   120   0.839E-03    0.246E-03
DAV:  19    -0.995184150214E+02   -0.18855E-03   -0.74875E-06    96   0.642E-03    0.153E-03
DAV:  20    -0.995184505998E+02   -0.35578E-04   -0.60303E-07    88   0.255E-03    0.559E-04
DAV:  21    -0.995184799391E+02   -0.29339E-04   -0.90948E-07    80   0.239E-03    0.461E-04
DAV:  22    -0.995184838155E+02   -0.38764E-05   -0.11558E-07    88   0.948E-04    0.215E-04
DAV:  23    -0.995184883058E+02   -0.44903E-05   -0.82525E-08    78   0.710E-04    0.222E-04
DAV:  24    -0.995184900374E+02   -0.17316E-05   -0.36490E-08    88   0.492E-04    0.887E-05
DAV:  25    -0.995184909372E+02   -0.89977E-06   -0.11332E-08    88   0.312E-04
   1 F= -.99518491E+02 E0= -.99518491E+02  d E =-.995185E+02
       N       E                     dE             d eps       ncg     rms          rms(c)
DAV:   1    -0.995562458891E+02   -0.37756E-01   -0.38144E+00    84   0.731E+00    0.894E-01
DAV:   2    -0.995788080842E+02   -0.22562E-01   -0.24260E-01   120   0.182E+00    0.497E-01
DAV:   3    -0.995766372276E+02    0.21709E-02   -0.60540E-03   120   0.317E-01    0.270E-01
DAV:   4    -0.995759026036E+02    0.73462E-03   -0.32234E-03   112   0.198E-01    0.423E-02
DAV:   5    -0.995758152146E+02    0.87389E-04   -0.40888E-04   112   0.771E-02    0.285E-02
DAV:   6    -0.995758690778E+02   -0.53863E-04   -0.78592E-05   112   0.290E-02    0.206E-02
DAV:   7    -0.995761346541E+02   -0.26558E-03   -0.43773E-05   110   0.218E-02    0.786E-03
DAV:   8    -0.995762483200E+02   -0.11367E-03   -0.19311E-05   120   0.165E-02    0.602E-03
DAV:   9    -0.995763926598E+02   -0.14434E-03   -0.93062E-06   112   0.935E-03    0.438E-03
DAV:  10    -0.995765394263E+02   -0.14677E-03   -0.10091E-05   112   0.796E-03    0.150E-03
DAV:  11    -0.995766067242E+02   -0.67298E-04   -0.37676E-06   104   0.468E-03    0.163E-03
DAV:  12    -0.995766481569E+02   -0.41433E-04   -0.16328E-06    96   0.364E-03    0.606E-04
DAV:  13    -0.995766698934E+02   -0.21737E-04   -0.82584E-07    88   0.223E-03    0.540E-04
DAV:  14    -0.995766747454E+02   -0.48520E-05   -0.10443E-07    88   0.916E-04    0.336E-04
DAV:  15    -0.995766795876E+02   -0.48422E-05   -0.86808E-08    88   0.834E-04    0.214E-04
DAV:  16    -0.995766811663E+02   -0.15787E-05   -0.26227E-08    88   0.483E-04    0.254E-04
DAV:  17    -0.995766816712E+02   -0.50491E-06   -0.45824E-09    80   0.278E-04
   2 F= -.99576682E+02 E0= -.99576682E+02  d E =-.581907E-01
       N       E                     dE             d eps       ncg     rms          rms(c)
DAV:   1    -0.995963214995E+02   -0.19640E-01   -0.42938E-01    84   0.250E+00    0.275E-01
DAV:   2    -0.995990325945E+02   -0.27111E-02   -0.29234E-02   120   0.631E-01    0.175E-01
DAV:   3    -0.995987580055E+02    0.27459E-03   -0.77166E-04   120   0.112E-01    0.943E-02
DAV:   4    -0.995986557325E+02    0.10227E-03   -0.40188E-04   112   0.697E-02    0.144E-02
DAV:   5    -0.995986442251E+02    0.11507E-04   -0.51830E-05   112   0.273E-02    0.101E-02
DAV:   6    -0.995986592315E+02   -0.15006E-04   -0.10617E-05   112   0.102E-02    0.665E-03
DAV:   7    -0.995987118306E+02   -0.52599E-04   -0.76353E-06   112   0.844E-03    0.293E-03
DAV:   8    -0.995987325332E+02   -0.20703E-04   -0.30678E-06   104   0.618E-03    0.281E-03
DAV:   9    -0.995987529064E+02   -0.20373E-04   -0.97602E-07    88   0.329E-03    0.181E-03
DAV:  10    -0.995987794989E+02   -0.26592E-04   -0.23644E-06   104   0.369E-03    0.568E-04
DAV:  11    -0.995987925142E+02   -0.13015E-04   -0.89590E-07    88   0.215E-03    0.807E-04
DAV:  12    -0.995987973668E+02   -0.48526E-05   -0.22730E-07    88   0.134E-03    0.240E-04
DAV:  13    -0.995988009355E+02   -0.35687E-05   -0.17550E-07    88   0.941E-04    0.178E-04
DAV:  14    -0.995988016659E+02   -0.73043E-06   -0.19202E-08    88   0.382E-04
   3 F= -.99598802E+02 E0= -.99598802E+02  d E =-.803107E-01
       N       E                     dE             d eps       ncg     rms          rms(c)
DAV:   1    -0.996031250691E+02   -0.43241E-02   -0.77498E-02    84   0.128E+00    0.699E-02
DAV:   2    -0.996032141087E+02   -0.89040E-04   -0.15324E-03   120   0.155E-01    0.396E-02
DAV:   3    -0.996031918703E+02    0.22238E-04   -0.48482E-05   128   0.256E-02    0.197E-02
DAV:   4    -0.996031796212E+02    0.12249E-04   -0.20894E-05   112   0.145E-02    0.309E-03
DAV:   5    -0.996031800894E+02   -0.46823E-06   -0.16231E-06    88   0.490E-03
   4 F= -.99603180E+02 E0= -.99603180E+02  d E =-.437842E-02
       N       E                     dE             d eps       ncg     rms          rms(c)
DAV:   1    -0.996053845021E+02   -0.22049E-02   -0.24134E-01    84   0.226E+00    0.124E-01
DAV:   2    -0.996056639999E+02   -0.27950E-03   -0.48409E-03   120   0.275E-01    0.697E-02
DAV:   3    -0.996055957112E+02    0.68289E-04   -0.15187E-04   128   0.455E-02    0.349E-02
DAV:   4    -0.996055676770E+02    0.28034E-04   -0.65492E-05   112   0.257E-02    0.557E-03
DAV:   5    -0.996055742648E+02   -0.65878E-05   -0.57707E-06   104   0.873E-03    0.357E-03
DAV:   6    -0.996055876213E+02   -0.13356E-04   -0.11214E-06    80   0.337E-03    0.116E-03
DAV:   7    -0.996055969687E+02   -0.93474E-05   -0.42194E-07    88   0.190E-03    0.868E-04
DAV:   8    -0.996056161404E+02   -0.19172E-04   -0.17479E-06    96   0.303E-03    0.525E-04
DAV:   9    -0.996056197418E+02   -0.36015E-05   -0.13489E-07    88   0.109E-03    0.279E-04
DAV:  10    -0.996056266322E+02   -0.68904E-05   -0.44123E-07    88   0.139E-03    0.206E-04
DAV:  11    -0.996056275288E+02   -0.89661E-06   -0.35413E-08    88   0.503E-04
   5 F= -.99605628E+02 E0= -.99605628E+02  d E =-.682586E-02
       N       E                     dE             d eps       ncg     rms          rms(c)
DAV:   1    -0.996076641794E+02   -0.20375E-02   -0.23552E-02    84   0.690E-01    0.367E-02
DAV:   2    -0.996076771926E+02   -0.13013E-04   -0.30365E-04   112   0.692E-02    0.206E-02
DAV:   3    -0.996076740995E+02    0.30931E-05   -0.14964E-05   128   0.146E-02    0.910E-03
DAV:   4    -0.996076749106E+02   -0.81108E-06   -0.40225E-06   112   0.700E-03
   6 F= -.99607675E+02 E0= -.99607675E+02  d E =-.204738E-02
       N       E                     dE             d eps       ncg     rms          rms(c)
DAV:   1    -0.996125817643E+02   -0.49077E-02   -0.21206E-01    84   0.207E+00    0.110E-01
DAV:   2    -0.996126957653E+02   -0.11400E-03   -0.27435E-03   112   0.208E-01    0.620E-02
DAV:   3    -0.996126630035E+02    0.32762E-04   -0.13426E-04   128   0.437E-02    0.274E-02
DAV:   4    -0.996126663791E+02   -0.33757E-05   -0.36391E-05   104   0.211E-02    0.445E-03
DAV:   5    -0.996126669264E+02   -0.54726E-06   -0.21465E-06    96   0.616E-03
   7 F= -.99612667E+02 E0= -.99612667E+02  d E =-.703940E-02
       N       E                     dE             d eps       ncg     rms          rms(c)
DAV:   1    -0.996171837129E+02   -0.45173E-02   -0.84833E-01    84   0.414E+00    0.221E-01
DAV:   2    -0.996176367003E+02   -0.45299E-03   -0.10996E-02   112   0.416E-01    0.124E-01
DAV:   3    -0.996174987656E+02    0.13793E-03   -0.53884E-04   128   0.879E-02    0.547E-02
DAV:   4    -0.996175096655E+02   -0.10900E-04   -0.14870E-04   104   0.427E-02    0.905E-03
DAV:   5    -0.996175119020E+02   -0.22365E-05   -0.93497E-06   112   0.126E-02    0.449E-03
DAV:   6    -0.996175139865E+02   -0.20845E-05   -0.20971E-06   104   0.534E-03    0.131E-03
DAV:   7    -0.996175160896E+02   -0.21031E-05   -0.34534E-07    88   0.237E-03    0.536E-04
DAV:   8    -0.996175184071E+02   -0.23175E-05   -0.10698E-07    88   0.109E-03    0.349E-04
DAV:   9    -0.996175214582E+02   -0.30510E-05   -0.11483E-07    88   0.786E-04    0.153E-04
DAV:  10    -0.996175232054E+02   -0.17472E-05   -0.50138E-08    88   0.484E-04    0.149E-04
DAV:  11    -0.996175250371E+02   -0.18317E-05   -0.64975E-08    88   0.519E-04    0.478E-05
DAV:  12    -0.996175255831E+02   -0.54608E-06   -0.11293E-08    88   0.268E-04
   8 F= -.99617526E+02 E0= -.99617526E+02  d E =-.118981E-01
       N       E                     dE             d eps       ncg     rms          rms(c)
DAV:   1    -0.996176601315E+02   -0.13509E-03   -0.37051E-02    84   0.866E-01    0.461E-02
DAV:   2    -0.996176788724E+02   -0.18741E-04   -0.47470E-04   112   0.868E-02    0.260E-02
DAV:   3    -0.996176734382E+02    0.54342E-05   -0.23909E-05   128   0.185E-02    0.113E-02
DAV:   4    -0.996176744789E+02   -0.10407E-05   -0.62769E-06   104   0.881E-03    0.189E-03
DAV:   5    -0.996176747154E+02   -0.23652E-06   -0.34904E-07    80   0.256E-03
   9 F= -.99617675E+02 E0= -.99617675E+02  d E =-.120472E-01
       N       E                     dE             d eps       ncg     rms          rms(c)
DAV:   1    -0.996187485789E+02   -0.10741E-02   -0.13378E-02    84   0.491E-01    0.450E-02
DAV:   2    -0.996188291007E+02   -0.80522E-04   -0.97332E-04   120   0.110E-01    0.236E-02
DAV:   3    -0.996188231373E+02    0.59634E-05   -0.23079E-05   120   0.181E-02    0.130E-02
DAV:   4    -0.996188203134E+02    0.28239E-05   -0.58474E-06   110   0.891E-03    0.341E-03
DAV:   5    -0.996188194307E+02    0.88273E-06   -0.63710E-07    88   0.317E-03
  10 F= -.99618819E+02 E0= -.99618819E+02  d E =-.114472E-02
       N       E                     dE             d eps       ncg     rms          rms(c)
DAV:   1    -0.996190765624E+02   -0.25625E-03   -0.14304E-02    84   0.508E-01    0.464E-02
DAV:   2    -0.996191620624E+02   -0.85500E-04   -0.10420E-03   120   0.114E-01    0.244E-02
DAV:   3    -0.996191551143E+02    0.69481E-05   -0.24643E-05   120   0.187E-02    0.134E-02
DAV:   4    -0.996191519043E+02    0.32100E-05   -0.62537E-06   112   0.923E-03    0.357E-03
DAV:   5    -0.996191516215E+02    0.28277E-06   -0.72421E-07    88   0.335E-03
  11 F= -.99619152E+02 E0= -.99619152E+02  d E =-.147691E-02
       N       E                     dE             d eps       ncg     rms          rms(c)
DAV:   1    -0.996197652251E+02   -0.61332E-03   -0.11021E-02    84   0.483E-01    0.347E-02
DAV:   2    -0.996197737858E+02   -0.85607E-05   -0.28708E-04   112   0.660E-02    0.204E-02
DAV:   3    -0.996197653913E+02    0.83944E-05   -0.17465E-05   120   0.152E-02    0.826E-03
DAV:   4    -0.996197655176E+02   -0.12630E-06   -0.56645E-06   112   0.786E-03
  12 F= -.99619766E+02 E0= -.99619766E+02  d E =-.613896E-03
       N       E                     dE             d eps       ncg     rms          rms(c)
DAV:   1    -0.996202700278E+02   -0.50464E-03   -0.46481E-02    84   0.992E-01    0.714E-02
DAV:   2    -0.996203066361E+02   -0.36608E-04   -0.12152E-03   112   0.135E-01    0.420E-02
DAV:   3    -0.996202696373E+02    0.36999E-04   -0.73190E-05   120   0.311E-02    0.171E-02
DAV:   4    -0.996202669076E+02    0.27297E-05   -0.24101E-05   112   0.161E-02    0.662E-03
DAV:   5    -0.996202687471E+02   -0.18395E-05   -0.12635E-06    88   0.465E-03    0.260E-03
DAV:   6    -0.996202704960E+02   -0.17489E-05   -0.11100E-06    88   0.353E-03    0.560E-04
DAV:   7    -0.996202711382E+02   -0.64222E-06   -0.16200E-07    80   0.174E-03
  13 F= -.99620271E+02 E0= -.99620271E+02  d E =-.111952E-02
