       N       E                     dE             d eps       ncg     rms          rms(c)
DAV:   1     0.247008604318E+03    0.24701E+03   -0.10163E+04   120   0.484E+02
DAV:   2    -0.215017188750E+02   -0.26851E+03   -0.25388E+03   156   0.916E+01
DAV:   3    -0.101320344976E+03   -0.79819E+02   -0.79595E+02   120   0.554E+01
DAV:   4    -0.105208220614E+03   -0.38879E+01   -0.38747E+01   120   0.175E+01
DAV:   5    -0.105278521189E+03   -0.70301E-01   -0.70145E-01   144   0.262E+00    0.150E+01
DAV:   6    -0.101888642117E+03    0.33899E+01   -0.15451E+00   120   0.432E+00    0.862E+00
DAV:   7    -0.100176791392E+03    0.17119E+01   -0.42841E+00   120   0.636E+00    0.131E+00
DAV:   8    -0.100121322809E+03    0.55469E-01   -0.35549E-01   132   0.228E+00    0.705E-01
DAV:   9    -0.100084952596E+03    0.36370E-01   -0.64240E-02   144   0.694E-01    0.393E-01
DAV:  10    -0.100083839455E+03    0.11131E-02   -0.42865E-03   132   0.221E-01    0.147E-01
DAV:  11    -0.100082733326E+03    0.11061E-02   -0.65431E-03   120   0.224E-01    0.116E-01
DAV:  12    -0.100088867902E+03   -0.61346E-02   -0.18266E-03   120   0.116E-01    0.575E-02
DAV:  13    -0.100092355328E+03   -0.34874E-02   -0.19296E-03   132   0.122E-01    0.543E-02
DAV:  14    -0.100094854378E+03   -0.24990E-02   -0.20925E-04   132   0.544E-02    0.238E-02
DAV:  15    -0.100099748851E+03   -0.48945E-02   -0.58712E-04   108   0.614E-02    0.146E-02
DAV:  16    -0.100101539068E+03   -0.17902E-02   -0.15192E-04   132   0.361E-02    0.964E-03
DAV:  17    -0.100102555262E+03   -0.10162E-02   -0.74404E-05   132   0.204E-02    0.614E-03
DAV:  18    -0.100102975716E+03   -0.42045E-03   -0.16992E-05   120   0.992E-03    0.170E-03
DAV:  19    -0.100103192459E+03   -0.21674E-03   -0.87854E-06   108   0.658E-03    0.176E-03
DAV:  20    -0.100103258495E+03   -0.66036E-04   -0.11994E-06   108   0.294E-03    0.845E-04
DAV:  21    -0.100103279485E+03   -0.20990E-04   -0.50464E-07    84   0.185E-03    0.573E-04
DAV:  22    -0.100103295715E+03   -0.16229E-04   -0.36538E-07   108   0.148E-03    0.241E-04
DAV:  23    -0.100103298907E+03   -0.31928E-05   -0.75198E-08   108   0.633E-04    0.143E-04
DAV:  24    -0.100103302998E+03   -0.40906E-05   -0.61259E-08   108   0.536E-04    0.977E-05
DAV:  25    -0.100103303887E+03   -0.88891E-06   -0.95037E-09    84   0.294E-04
   1 F= -.10010330E+03 E0= -.10010330E+03  d E =-.429881E-11
       N       E                     dE             d eps       ncg     rms          rms(c)
DAV:   1    -0.100100152147E+03    0.31509E-02   -0.83473E-02    96   0.794E-01    0.115E-01
DAV:   2    -0.100100503555E+03   -0.35141E-03   -0.38354E-03   120   0.198E-01    0.539E-02
DAV:   3    -0.100100494422E+03    0.91329E-05   -0.12609E-04   132   0.414E-02    0.273E-02
DAV:   4    -0.100100497690E+03   -0.32678E-05   -0.31307E-05   120   0.206E-02    0.786E-03
DAV:   5    -0.100100496946E+03    0.74407E-06   -0.59323E-06   132   0.923E-03
   2 F= -.10010050E+03 E0= -.10010050E+03  d E =-.903495E-10
       N       E                     dE             d eps       ncg     rms          rms(c)
DAV:   1    -0.100098636955E+03    0.18607E-02   -0.33274E-01    96   0.160E+00    0.240E-01
DAV:   2    -0.100100027721E+03   -0.13908E-02   -0.15145E-02   120   0.396E-01    0.107E-01
DAV:   3    -0.100099998937E+03    0.28783E-04   -0.48612E-04   132   0.812E-02    0.564E-02
DAV:   4    -0.100100015490E+03   -0.16552E-04   -0.12572E-04   120   0.411E-02    0.159E-02
DAV:   5    -0.100100011493E+03    0.39969E-05   -0.24799E-05   132   0.187E-02    0.830E-03
DAV:   6    -0.100100011565E+03   -0.72146E-07   -0.49539E-06   144   0.726E-03
   3 F= -.10010001E+03 E0= -.10010001E+03  d E =-.508568E-11
       N       E                     dE             d eps       ncg     rms          rms(c)
DAV:   1    -0.100099599678E+03    0.41181E-03   -0.16788E-01    96   0.114E+00    0.155E-01
DAV:   2    -0.100100317908E+03   -0.71823E-03   -0.77322E-03   132   0.279E-01    0.748E-02
DAV:   3    -0.100100308487E+03    0.94214E-05   -0.24538E-04   132   0.581E-02    0.381E-02
DAV:   4    -0.100100320685E+03   -0.12198E-04   -0.60377E-05   120   0.282E-02    0.111E-02
DAV:   5    -0.100100320333E+03    0.35242E-06   -0.97533E-06   132   0.123E-02
   4 F= -.10010032E+03 E0= -.10010032E+03  d E =-.453145E-11
       N       E                     dE             d eps       ncg     rms          rms(c)
DAV:   1    -0.100098826771E+03    0.14939E-02   -0.33326E-01    96   0.162E+00    0.192E-01
DAV:   2    -0.100100366821E+03   -0.15400E-02   -0.16130E-02   120   0.403E-01    0.107E-01
DAV:   3    -0.100100350001E+03    0.16820E-04   -0.46112E-04   120   0.825E-02    0.527E-02
DAV:   4    -0.100100368531E+03   -0.18530E-04   -0.12756E-04   132   0.423E-02    0.145E-02
DAV:   5    -0.100100363814E+03    0.47163E-05   -0.21725E-05   144   0.183E-02    0.780E-03
DAV:   6    -0.100100363563E+03    0.25128E-06   -0.65860E-06   132   0.845E-03
   5 F= -.10010036E+03 E0= -.10010036E+03  d E =-.520952E-11
       N       E                     dE             d eps       ncg     rms          rms(c)
DAV:   1    -0.100098312491E+03    0.20513E-02   -0.16701E-01    96   0.116E+00    0.147E-01
DAV:   2    -0.100099243720E+03   -0.93123E-03   -0.97413E-03   120   0.314E-01    0.901E-02
DAV:   3    -0.100099217845E+03    0.25875E-04   -0.29145E-04   144   0.653E-02    0.473E-02
DAV:   4    -0.100099226493E+03   -0.86473E-05   -0.10395E-04   120   0.365E-02    0.106E-02
DAV:   5    -0.100099225092E+03    0.14008E-05   -0.20127E-05   132   0.161E-02    0.715E-03
DAV:   6    -0.100099226652E+03   -0.15598E-05   -0.41208E-06   132   0.633E-03    0.412E-03
DAV:   7    -0.100099231982E+03   -0.53300E-05   -0.70365E-07   108   0.296E-03    0.152E-03
DAV:   8    -0.100099237943E+03   -0.59612E-05   -0.45951E-07   120   0.198E-03    0.599E-04
DAV:   9    -0.100099244427E+03   -0.64839E-05   -0.34825E-07   108   0.157E-03    0.560E-04
DAV:  10    -0.100099250940E+03   -0.65133E-05   -0.52245E-07   120   0.146E-03    0.238E-04
DAV:  11    -0.100099253228E+03   -0.22876E-05   -0.72215E-08   108   0.728E-04    0.166E-04
DAV:  12    -0.100099255067E+03   -0.18387E-05   -0.52020E-08   108   0.497E-04    0.920E-05
DAV:  13    -0.100099256224E+03   -0.11575E-05   -0.24100E-08   108   0.342E-04    0.785E-05
DAV:  14    -0.100099256942E+03   -0.71825E-06   -0.77926E-09    96   0.239E-04
   6 F= -.10009926E+03 E0= -.10009926E+03  d E =-.564270E-11
       N       E                     dE             d eps       ncg     rms          rms(c)
DAV:   1    -0.100096375515E+03    0.28807E-02   -0.33937E-01    96   0.160E+00    0.260E-01
DAV:   2    -0.100098682236E+03   -0.23067E-02   -0.24904E-02   120   0.480E-01    0.167E-01
DAV:   3    -0.100098526767E+03    0.15547E-03   -0.69926E-04   132   0.101E-01    0.881E-02
DAV:   4    -0.100098521430E+03    0.53372E-05   -0.39541E-04   132   0.656E-02    0.158E-02
DAV:   5    -0.100098512273E+03    0.91574E-05   -0.61577E-05   120   0.265E-02    0.112E-02
DAV:   6    -0.100098512878E+03   -0.60574E-06   -0.10330E-05   132   0.827E-03    0.761E-03
DAV:   7    -0.100098525978E+03   -0.13100E-04   -0.11315E-06   120   0.333E-03    0.319E-03
DAV:   8    -0.100098544534E+03   -0.18556E-04   -0.18527E-06   120   0.414E-03    0.138E-03
DAV:   9    -0.100098559759E+03   -0.15226E-04   -0.11373E-06   132   0.240E-03    0.153E-03
DAV:  10    -0.100098583284E+03   -0.23525E-04   -0.14224E-06   132   0.244E-03    0.862E-04
DAV:  11    -0.100098586866E+03   -0.35819E-05   -0.76608E-08   108   0.861E-04    0.504E-04
DAV:  12    -0.100098596373E+03   -0.95069E-05   -0.29953E-07   108   0.115E-03    0.324E-04
DAV:  13    -0.100098599046E+03   -0.26726E-05   -0.77954E-08   108   0.583E-04    0.264E-04
DAV:  14    -0.100098601254E+03   -0.22076E-05   -0.19928E-08    96   0.402E-04    0.855E-05
DAV:  15    -0.100098602322E+03   -0.10686E-05   -0.12673E-08   108   0.285E-04    0.783E-05
DAV:  16    -0.100098602904E+03   -0.58134E-06    0.26869E-09    96   0.160E-04
   7 F= -.10009860E+03 E0= -.10009860E+03  d E =-.783967E-10
       N       E                     dE             d eps       ncg     rms          rms(c)
DAV:   1    -0.100098093812E+03    0.50851E-03   -0.19292E-01    96   0.129E+00    0.189E-01
DAV:   2    -0.100099481998E+03   -0.13882E-02   -0.14332E-02   132   0.399E-01    0.120E-01
DAV:   3    -0.100099401074E+03    0.80925E-04   -0.36948E-04   144   0.779E-02    0.651E-02
DAV:   4    -0.100099398918E+03    0.21559E-05   -0.21376E-04   132   0.530E-02    0.119E-02
DAV:   5    -0.100099393948E+03    0.49702E-05   -0.41582E-05   132   0.222E-02    0.916E-03
DAV:   6    -0.100099394708E+03   -0.76078E-06   -0.41722E-06   132   0.621E-03
   8 F= -.10009939E+03 E0= -.10009939E+03  d E =-.786817E-10
       N       E                     dE             d eps       ncg     rms          rms(c)
DAV:   1    -0.100097152011E+03    0.22419E-02   -0.33636E-01    96   0.168E+00    0.255E-01
DAV:   2    -0.100099156601E+03   -0.20046E-02   -0.20539E-02   120   0.457E-01    0.154E-01
DAV:   3    -0.100099094460E+03    0.62141E-04   -0.50992E-04   120   0.830E-02    0.849E-02
DAV:   4    -0.100099089811E+03    0.46491E-05   -0.22832E-04   120   0.548E-02    0.147E-02
DAV:   5    -0.100099080381E+03    0.94299E-05   -0.44713E-05   132   0.242E-02    0.109E-02
DAV:   6    -0.100099079883E+03    0.49762E-06   -0.79712E-06   132   0.908E-03
   9 F= -.10009908E+03 E0= -.10009908E+03  d E =-.664884E-11
       N       E                     dE             d eps       ncg     rms          rms(c)
DAV:   1    -0.100097303891E+03    0.17765E-02   -0.17114E-01    96   0.117E+00    0.185E-01
DAV:   2    -0.100098433586E+03   -0.11297E-02   -0.11281E-02   132   0.352E-01    0.115E-01
DAV:   3    -0.100098414234E+03    0.19352E-04   -0.26715E-04   132   0.659E-02    0.632E-02
DAV:   4    -0.100098434071E+03   -0.19837E-04   -0.16168E-04   120   0.475E-02    0.115E-02
DAV:   5    -0.100098429626E+03    0.44444E-05   -0.34194E-05   132   0.213E-02    0.835E-03
DAV:   6    -0.100098430229E+03   -0.60250E-06   -0.59113E-06   132   0.706E-03
  10 F= -.10009843E+03 E0= -.10009843E+03  d E =-.924309E-10
       N       E                     dE             d eps       ncg     rms          rms(c)
DAV:   1    -0.100095853418E+03    0.25762E-02   -0.35198E-01    96   0.170E+00    0.258E-01
DAV:   2    -0.100098505607E+03   -0.26522E-02   -0.26760E-02   132   0.544E-01    0.183E-01
DAV:   3    -0.100098369696E+03    0.13591E-03   -0.64086E-04   132   0.109E-01    0.893E-02
DAV:   4    -0.100098399454E+03   -0.29758E-04   -0.47661E-04   132   0.782E-02    0.177E-02
DAV:   5    -0.100098382064E+03    0.17390E-04   -0.76553E-05   132   0.316E-02    0.113E-02
DAV:   6    -0.100098383307E+03   -0.12432E-05   -0.14356E-05   132   0.101E-02    0.603E-03
DAV:   7    -0.100098396845E+03   -0.13537E-04   -0.13134E-06   132   0.342E-03    0.281E-03
DAV:   8    -0.100098416187E+03   -0.19342E-04   -0.35676E-06   132   0.534E-03    0.176E-03
DAV:   9    -0.100098431968E+03   -0.15781E-04   -0.14204E-06   132   0.320E-03    0.136E-03
DAV:  10    -0.100098445051E+03   -0.13083E-04   -0.90268E-07    96   0.216E-03    0.552E-04
DAV:  11    -0.100098450040E+03   -0.49886E-05   -0.26709E-07   108   0.121E-03    0.282E-04
DAV:  12    -0.100098456637E+03   -0.65978E-05   -0.29605E-07    96   0.110E-03    0.231E-04
DAV:  13    -0.100098458571E+03   -0.19334E-05   -0.66234E-08   108   0.541E-04    0.198E-04
DAV:  14    -0.100098460324E+03   -0.17535E-05   -0.27508E-08   108   0.384E-04    0.782E-05
DAV:  15    -0.100098461100E+03   -0.77612E-06   -0.92267E-09   108   0.268E-04
  11 F= -.10009846E+03 E0= -.10009846E+03  d E =-.428952E-11
       N       E                     dE             d eps       ncg     rms          rms(c)
DAV:   1    -0.100098778876E+03   -0.31855E-03   -0.17303E-01    96   0.119E+00    0.173E-01
DAV:   2    -0.100099972593E+03   -0.11937E-02   -0.12239E-02   144   0.356E-01    0.120E-01
DAV:   3    -0.100099913019E+03    0.59574E-04   -0.30531E-04   132   0.720E-02    0.591E-02
DAV:   4    -0.100099917878E+03   -0.48587E-05   -0.19057E-04   132   0.505E-02    0.119E-02
DAV:   5    -0.100099912211E+03    0.56670E-05   -0.32195E-05   132   0.206E-02    0.824E-03
DAV:   6    -0.100099914392E+03   -0.21810E-05   -0.70600E-06   132   0.736E-03    0.455E-03
DAV:   7    -0.100099924273E+03   -0.98812E-05   -0.70423E-07   108   0.304E-03    0.202E-03
DAV:   8    -0.100099939838E+03   -0.15566E-04   -0.23667E-06   108   0.425E-03    0.124E-03
DAV:   9    -0.100099950775E+03   -0.10937E-04   -0.91373E-07   120   0.260E-03    0.109E-03
DAV:  10    -0.100099960995E+03   -0.10220E-04   -0.66333E-07    96   0.187E-03    0.368E-04
DAV:  11    -0.100099964738E+03   -0.37430E-05   -0.20375E-07   108   0.995E-04    0.255E-04
DAV:  12    -0.100099968979E+03   -0.42409E-05   -0.15320E-07    96   0.830E-04    0.147E-04
DAV:  13    -0.100099970787E+03   -0.18087E-05   -0.69378E-08   108   0.528E-04    0.131E-04
DAV:  14    -0.100099971992E+03   -0.12049E-05   -0.20816E-08   108   0.333E-04    0.687E-05
DAV:  15    -0.100099972474E+03   -0.48151E-06   -0.14917E-09   108   0.199E-04
  12 F= -.10009997E+03 E0= -.10009997E+03  d E =-.425269E-11
       N       E                     dE             d eps       ncg     rms          rms(c)
DAV:   1    -0.100098386176E+03    0.15858E-02   -0.32921E-01    96   0.153E+00    0.219E-01
DAV:   2    -0.100100114209E+03   -0.17280E-02   -0.17741E-02   144   0.401E-01    0.127E-01
DAV:   3    -0.100100098749E+03    0.15460E-04   -0.49882E-04   132   0.805E-02    0.708E-02
DAV:   4    -0.100100108231E+03   -0.94821E-05   -0.14979E-04   132   0.497E-02    0.131E-02
DAV:   5    -0.100100102201E+03    0.60301E-05   -0.40453E-05   132   0.240E-02    0.925E-03
DAV:   6    -0.100100101954E+03    0.24617E-06   -0.63730E-06   132   0.829E-03
  13 F= -.10010010E+03 E0= -.10010010E+03  d E =-.449190E-11
       N       E                     dE             d eps       ncg     rms          rms(c)
DAV:   1    -0.100098784766E+03    0.13174E-02   -0.16660E-01    96   0.124E+00    0.149E-01
DAV:   2    -0.100099857669E+03   -0.10729E-02   -0.10528E-02   144   0.342E-01    0.899E-02
DAV:   3    -0.100099865940E+03   -0.82714E-05   -0.24861E-04   144   0.612E-02    0.513E-02
DAV:   4    -0.100099893926E+03   -0.27986E-04   -0.93567E-05   120   0.387E-02    0.898E-03
DAV:   5    -0.100099895443E+03   -0.15175E-05   -0.24909E-05   132   0.183E-02    0.686E-03
DAV:   6    -0.100099897584E+03   -0.21405E-05   -0.33175E-06   120   0.590E-03    0.469E-03
DAV:   7    -0.100099903088E+03   -0.55042E-05   -0.62365E-07   108   0.335E-03    0.172E-03
DAV:   8    -0.100099908332E+03   -0.52440E-05   -0.68927E-07    96   0.310E-03    0.671E-04
DAV:   9    -0.100099913475E+03   -0.51434E-05   -0.42847E-07   108   0.217E-03    0.654E-04
DAV:  10    -0.100099917513E+03   -0.40374E-05   -0.21812E-07    96   0.130E-03    0.337E-04
DAV:  11    -0.100099919189E+03   -0.16767E-05   -0.65841E-08   108   0.708E-04    0.245E-04
DAV:  12    -0.100099921314E+03   -0.21248E-05   -0.79496E-08    96   0.652E-04    0.863E-05
DAV:  13    -0.100099922045E+03   -0.73051E-06   -0.20110E-08   108   0.348E-04
  14 F= -.10009992E+03 E0= -.10009992E+03  d E =-.878699E-10
       N       E                     dE             d eps       ncg     rms          rms(c)
DAV:   1    -0.100098167962E+03    0.17534E-02   -0.33459E-01    96   0.172E+00    0.200E-01
DAV:   2    -0.100100027621E+03   -0.18597E-02   -0.18871E-02   132   0.457E-01    0.127E-01
DAV:   3    -0.100100014991E+03    0.12630E-04   -0.46652E-04   132   0.859E-02    0.650E-02
DAV:   4    -0.100100029884E+03   -0.14893E-04   -0.17877E-04   132   0.557E-02    0.132E-02
DAV:   5    -0.100100024843E+03    0.50406E-05   -0.46437E-05   132   0.255E-02    0.101E-02
DAV:   6    -0.100100024805E+03    0.37592E-07   -0.72951E-06   132   0.856E-03
  15 F= -.10010002E+03 E0= -.10010002E+03  d E =-.776120E-11
       N       E                     dE             d eps       ncg     rms          rms(c)
DAV:   1    -0.100098121385E+03    0.19035E-02   -0.17147E-01    96   0.128E+00    0.155E-01
DAV:   2    -0.100099233383E+03   -0.11120E-02   -0.11076E-02   132   0.369E-01    0.113E-01
DAV:   3    -0.100099221386E+03    0.11997E-04   -0.23141E-04   132   0.625E-02    0.617E-02
DAV:   4    -0.100099223882E+03   -0.24957E-05   -0.12970E-04   120   0.425E-02    0.102E-02
DAV:   5    -0.100099219145E+03    0.47367E-05   -0.23999E-05   144   0.181E-02    0.735E-03
DAV:   6    -0.100099219850E+03   -0.70476E-06   -0.57352E-06   132   0.751E-03
  16 F= -.10009922E+03 E0= -.10009922E+03  d E =-.639003E-11
       N       E                     dE             d eps       ncg     rms          rms(c)
DAV:   1    -0.100097173434E+03    0.20457E-02   -0.33965E-01    96   0.181E+00    0.217E-01
DAV:   2    -0.100099314455E+03   -0.21410E-02   -0.21594E-02   144   0.503E-01    0.153E-01
DAV:   3    -0.100099280037E+03    0.34418E-04   -0.47780E-04   120   0.861E-02    0.810E-02
DAV:   4    -0.100099279884E+03    0.15284E-06   -0.23059E-04   132   0.570E-02    0.146E-02
DAV:   5    -0.100099267631E+03    0.12253E-04   -0.41559E-05   144   0.247E-02    0.904E-03
DAV:   6    -0.100099262539E+03    0.50923E-05   -0.10174E-05   132   0.106E-02    0.532E-03
DAV:   7    -0.100099268285E+03   -0.57467E-05   -0.24277E-06   132   0.613E-03    0.221E-03
DAV:   8    -0.100099278732E+03   -0.10446E-04   -0.13479E-06   120   0.487E-03    0.123E-03
DAV:   9    -0.100099292252E+03   -0.13521E-04   -0.14615E-06   120   0.327E-03    0.120E-03
DAV:  10    -0.100099306293E+03   -0.14040E-04   -0.63244E-07    96   0.205E-03    0.396E-04
DAV:  11    -0.100099312113E+03   -0.58205E-05   -0.23623E-07   108   0.106E-03    0.316E-04
DAV:  12    -0.100099320255E+03   -0.81417E-05   -0.25792E-07    96   0.105E-03    0.134E-04
DAV:  13    -0.100099322763E+03   -0.25079E-05   -0.61020E-08   108   0.541E-04    0.113E-04
DAV:  14    -0.100099324980E+03   -0.22171E-05   -0.27132E-08    96   0.371E-04    0.570E-05
DAV:  15    -0.100099325924E+03   -0.94405E-06   -0.75688E-09   108   0.240E-04
  17 F= -.10009933E+03 E0= -.10009933E+03  d E =-.704672E-10
       N       E                     dE             d eps       ncg     rms          rms(c)
DAV:   1    -0.100096936914E+03    0.23881E-02   -0.17443E-01    96   0.124E+00    0.167E-01
DAV:   2    -0.100098288905E+03   -0.13520E-02   -0.13706E-02   132   0.402E-01    0.125E-01
DAV:   3    -0.100098221113E+03    0.67792E-04   -0.26948E-04   144   0.697E-02    0.716E-02
DAV:   4    -0.100098216733E+03    0.43803E-05   -0.22744E-04   132   0.600E-02    0.123E-02
DAV:   5    -0.100098213160E+03    0.35729E-05   -0.65251E-05   132   0.293E-02    0.917E-03
DAV:   6    -0.100098213017E+03    0.14340E-06   -0.92170E-06   132   0.891E-03
  18 F= -.10009821E+03 E0= -.10009821E+03  d E =-.673750E-11
       N       E                     dE             d eps       ncg     rms          rms(c)
DAV:   1    -0.100096351758E+03    0.18614E-02   -0.35377E-01    96   0.182E+00    0.250E-01
DAV:   2    -0.100098856616E+03   -0.25049E-02   -0.25190E-02   132   0.555E-01    0.177E-01
DAV:   3    -0.100098763228E+03    0.93388E-04   -0.59093E-04   144   0.103E-01    0.937E-02
DAV:   4    -0.100098778190E+03   -0.14962E-04   -0.37481E-04   120   0.736E-02    0.169E-02
DAV:   5    -0.100098770669E+03    0.75203E-05   -0.77989E-05   132   0.324E-02    0.114E-02
DAV:   6    -0.100098775969E+03   -0.52995E-05   -0.13088E-05   132   0.998E-03    0.668E-03
DAV:   7    -0.100098796873E+03   -0.20904E-04   -0.16748E-06   120   0.429E-03    0.295E-03
DAV:   8    -0.100098824416E+03   -0.27543E-04   -0.41957E-06   120   0.590E-03    0.163E-03
DAV:   9    -0.100098841577E+03   -0.17161E-04   -0.21633E-06   120   0.373E-03    0.189E-03
DAV:  10    -0.100098856784E+03   -0.15207E-04   -0.11820E-06   108   0.279E-03    0.585E-04
DAV:  11    -0.100098862217E+03   -0.54329E-05   -0.33034E-07   108   0.152E-03    0.362E-04
DAV:  12    -0.100098867838E+03   -0.56204E-05   -0.27841E-07    96   0.112E-03    0.220E-04
DAV:  13    -0.100098869668E+03   -0.18300E-05   -0.68003E-08   108   0.547E-04    0.203E-04
DAV:  14    -0.100098871384E+03   -0.17161E-05   -0.38503E-08   108   0.459E-04    0.830E-05
DAV:  15    -0.100098871876E+03   -0.49261E-06   -0.75093E-09   108   0.256E-04
  19 F= -.10009887E+03 E0= -.10009887E+03  d E =-.848135E-10
       N       E                     dE             d eps       ncg     rms          rms(c)
DAV:   1    -0.100098384200E+03    0.48718E-03   -0.16983E-01    96   0.128E+00    0.158E-01
DAV:   2    -0.100099759546E+03   -0.13753E-02   -0.13852E-02   144   0.400E-01    0.114E-01
DAV:   3    -0.100099720279E+03    0.39267E-04   -0.27307E-04   144   0.669E-02    0.682E-02
DAV:   4    -0.100099714614E+03    0.56649E-05   -0.19062E-04   132   0.554E-02    0.110E-02
DAV:   5    -0.100099710427E+03    0.41868E-05   -0.57803E-05   132   0.278E-02    0.894E-03
DAV:   6    -0.100099709794E+03    0.63258E-06   -0.56740E-06   132   0.727E-03
  20 F= -.10009971E+03 E0= -.10009971E+03  d E =-.910610E-10
       N       E                     dE             d eps       ncg     rms          rms(c)
DAV:   1    -0.100097897658E+03    0.18128E-02   -0.33534E-01    96   0.174E+00    0.205E-01
DAV:   2    -0.100099854014E+03   -0.19564E-02   -0.19647E-02   132   0.468E-01    0.133E-01
DAV:   3    -0.100099845823E+03    0.81910E-05   -0.47360E-04   132   0.871E-02    0.680E-02
DAV:   4    -0.100099873039E+03   -0.27215E-04   -0.20497E-04   132   0.576E-02    0.139E-02
DAV:   5    -0.100099868220E+03    0.48183E-05   -0.48376E-05   132   0.262E-02    0.102E-02
DAV:   6    -0.100099868073E+03    0.14703E-06   -0.79038E-06   132   0.889E-03
  21 F= -.10009987E+03 E0= -.10009987E+03  d E =-.730063E-11
       N       E                     dE             d eps       ncg     rms          rms(c)
DAV:   1    -0.100098444350E+03    0.14239E-02   -0.16877E-01    96   0.118E+00    0.135E-01
DAV:   2    -0.100099233256E+03   -0.78891E-03   -0.78604E-03   132   0.280E-01    0.774E-02
DAV:   3    -0.100099255029E+03   -0.21774E-04   -0.22452E-04   132   0.562E-02    0.391E-02
DAV:   4    -0.100099276172E+03   -0.21143E-04   -0.55343E-05   132   0.320E-02    0.817E-03
DAV:   5    -0.100099278660E+03   -0.24874E-05   -0.15926E-05   132   0.145E-02    0.572E-03
DAV:   6    -0.100099281103E+03   -0.24434E-05   -0.25301E-06   132   0.494E-03    0.333E-03
DAV:   7    -0.100099285314E+03   -0.42111E-05   -0.29660E-07   108   0.218E-03    0.141E-03
DAV:   8    -0.100099290413E+03   -0.50990E-05   -0.46950E-07   108   0.240E-03    0.710E-04
DAV:   9    -0.100099296226E+03   -0.58127E-05   -0.30935E-07    96   0.194E-03    0.398E-04
DAV:  10    -0.100099299587E+03   -0.33613E-05   -0.17433E-07   108   0.127E-03    0.320E-04
DAV:  11    -0.100099301279E+03   -0.16921E-05   -0.31588E-08   108   0.654E-04    0.206E-04
DAV:  12    -0.100099303796E+03   -0.25165E-05   -0.62994E-08   108   0.583E-04    0.117E-04
DAV:  13    -0.100099304549E+03   -0.75290E-06   -0.82752E-09   108   0.274E-04
  22 F= -.10009930E+03 E0= -.10009930E+03  d E =-.703935E-10
       N       E                     dE             d eps       ncg     rms          rms(c)
DAV:   1    -0.100096862068E+03    0.24417E-02   -0.34298E-01    96   0.176E+00    0.222E-01
DAV:   2    -0.100099150036E+03   -0.22880E-02   -0.23212E-02   132   0.524E-01    0.158E-01
DAV:   3    -0.100099076694E+03    0.73342E-04   -0.50279E-04   144   0.906E-02    0.908E-02
DAV:   4    -0.100099067749E+03    0.89448E-05   -0.27893E-04   132   0.676E-02    0.150E-02
DAV:   5    -0.100099064460E+03    0.32893E-05   -0.77472E-05   132   0.322E-02    0.113E-02
DAV:   6    -0.100099068809E+03   -0.43490E-05   -0.13163E-05   132   0.114E-02    0.709E-03
DAV:   7    -0.100099087775E+03   -0.18966E-04   -0.36612E-06   132   0.657E-03    0.301E-03
DAV:   8    -0.100099113980E+03   -0.26205E-04   -0.23018E-06   120   0.452E-03    0.108E-03
DAV:   9    -0.100099136966E+03   -0.22986E-04   -0.24057E-06   108   0.384E-03    0.149E-03
DAV:  10    -0.100099156969E+03   -0.20003E-04   -0.18236E-06   120   0.309E-03    0.540E-04
DAV:  11    -0.100099163821E+03   -0.68521E-05   -0.33902E-07   108   0.141E-03    0.262E-04
DAV:  12    -0.100099168674E+03   -0.48524E-05   -0.21124E-07   108   0.958E-04    0.180E-04
DAV:  13    -0.100099170974E+03   -0.23002E-05   -0.71336E-08   108   0.572E-04    0.140E-04
DAV:  14    -0.100099172399E+03   -0.14248E-05   -0.27564E-08    96   0.389E-04    0.637E-05
DAV:  15    -0.100099172938E+03   -0.53946E-06   -0.33056E-09   108   0.209E-04
  23 F= -.10009917E+03 E0= -.10009917E+03  d E =-.697688E-11
       N       E                     dE             d eps       ncg     rms          rms(c)
DAV:   1    -0.100097423096E+03    0.17493E-02   -0.16953E-01    96   0.129E+00    0.151E-01
DAV:   2    -0.100098499729E+03   -0.10766E-02   -0.11080E-02   144   0.361E-01    0.108E-01
DAV:   3    -0.100098470703E+03    0.29027E-04   -0.24412E-04   132   0.601E-02    0.611E-02
DAV:   4    -0.100098456842E+03    0.13861E-04   -0.10328E-04   132   0.400E-02    0.957E-03
DAV:   5    -0.100098451706E+03    0.51361E-05   -0.21649E-05   132   0.177E-02    0.631E-03
DAV:   6    -0.100098451374E+03    0.33220E-06   -0.42333E-06   132   0.741E-03
  24 F= -.10009845E+03 E0= -.10009845E+03  d E =-.529636E-11
       N       E                     dE             d eps       ncg     rms          rms(c)
DAV:   1    -0.100096774458E+03    0.16772E-02   -0.35163E-01    96   0.181E+00    0.236E-01
DAV:   2    -0.100098985286E+03   -0.22108E-02   -0.22197E-02   144   0.528E-01    0.166E-01
DAV:   3    -0.100098941632E+03    0.43654E-04   -0.53979E-04   144   0.963E-02    0.860E-02
DAV:   4    -0.100098932411E+03    0.92214E-05   -0.28517E-04   132   0.628E-02    0.159E-02
DAV:   5    -0.100098923361E+03    0.90498E-05   -0.48668E-05   132   0.261E-02    0.106E-02
DAV:   6    -0.100098928788E+03   -0.54274E-05   -0.15134E-05   132   0.114E-02    0.585E-03
DAV:   7    -0.100098949898E+03   -0.21109E-04   -0.24931E-06   132   0.559E-03    0.245E-03
DAV:   8    -0.100098977839E+03   -0.27941E-04   -0.27521E-06   108   0.475E-03    0.108E-03
DAV:   9    -0.100099000664E+03   -0.22825E-04   -0.27076E-06   120   0.402E-03    0.139E-03
DAV:  10    -0.100099019881E+03   -0.19216E-04   -0.17031E-06   120   0.303E-03    0.397E-04
DAV:  11    -0.100099025611E+03   -0.57307E-05   -0.27779E-07   108   0.129E-03    0.298E-04
DAV:  12    -0.100099030738E+03   -0.51272E-05   -0.24650E-07   108   0.101E-03    0.219E-04
DAV:  13    -0.100099032409E+03   -0.16702E-05   -0.49298E-08   108   0.504E-04    0.141E-04
DAV:  14    -0.100099033843E+03   -0.14346E-05   -0.29026E-08    96   0.428E-04    0.503E-05
DAV:  15    -0.100099034366E+03   -0.52264E-06   -0.44987E-09   108   0.234E-04
  25 F= -.10009903E+03 E0= -.10009903E+03  d E =-.937478E-10
       N       E                     dE             d eps       ncg     rms          rms(c)
DAV:   1    -0.100097643639E+03    0.13902E-02   -0.18453E-01    96   0.136E+00    0.164E-01
DAV:   2    -0.100099058804E+03   -0.14152E-02   -0.15564E-02   144   0.417E-01    0.111E-01
DAV:   3    -0.100099006011E+03    0.52793E-04   -0.27104E-04   156   0.629E-02    0.668E-02
DAV:   4    -0.100098981968E+03    0.24043E-04   -0.14363E-04   132   0.476E-02    0.103E-02
DAV:   5    -0.100098974361E+03    0.76071E-05   -0.38372E-05   132   0.227E-02    0.729E-03
DAV:   6    -0.100098972154E+03    0.22072E-05   -0.50232E-06   132   0.748E-03    0.493E-03
DAV:   7    -0.100098980573E+03   -0.84185E-05   -0.23890E-06   120   0.558E-03    0.177E-03
DAV:   8    -0.100098996559E+03   -0.15986E-04   -0.15353E-06   120   0.445E-03    0.144E-03
DAV:   9    -0.100099010130E+03   -0.13571E-04   -0.68493E-07   108   0.269E-03    0.116E-03
DAV:  10    -0.100099023422E+03   -0.13292E-04   -0.70087E-07   108   0.189E-03    0.326E-04
DAV:  11    -0.100099028592E+03   -0.51696E-05   -0.16297E-07   108   0.909E-04    0.319E-04
DAV:  12    -0.100099033820E+03   -0.52277E-05   -0.99251E-08   108   0.774E-04    0.123E-04
DAV:  13    -0.100099036177E+03   -0.23573E-05   -0.51781E-08   108   0.490E-04    0.942E-05
DAV:  14    -0.100099038002E+03   -0.18251E-05   -0.17743E-08    96   0.370E-04    0.101E-04
DAV:  15    -0.100099038613E+03   -0.61105E-06   -0.36506E-09   108   0.235E-04
  26 F= -.10009904E+03 E0= -.10009904E+03  d E =-.499316E-11
       N       E                     dE             d eps       ncg     rms          rms(c)
DAV:   1    -0.100097876591E+03    0.11614E-02   -0.40717E-01   108   0.184E+00    0.215E-01
DAV:   2    -0.100099396675E+03   -0.15201E-02   -0.18778E-02   120   0.438E-01    0.124E-01
DAV:   3    -0.100099292079E+03    0.10460E-03   -0.32766E-04   132   0.636E-02    0.653E-02
DAV:   4    -0.100099236254E+03    0.55825E-04   -0.12630E-04   132   0.435E-02    0.112E-02
DAV:   5    -0.100099231907E+03    0.43469E-05   -0.31496E-05   132   0.206E-02    0.735E-03
DAV:   6    -0.100099243984E+03   -0.12078E-04   -0.10305E-05   132   0.900E-03    0.452E-03
DAV:   7    -0.100099266735E+03   -0.22750E-04   -0.14503E-06   108   0.381E-03    0.232E-03
DAV:   8    -0.100099302901E+03   -0.36166E-04   -0.39094E-06   108   0.443E-03    0.124E-03
DAV:   9    -0.100099324694E+03   -0.21793E-04   -0.16467E-06   120   0.296E-03    0.903E-04
DAV:  10    -0.100099344998E+03   -0.20304E-04   -0.17925E-06   108   0.272E-03    0.400E-04
DAV:  11    -0.100099351864E+03   -0.68659E-05   -0.23981E-07   108   0.123E-03    0.320E-04
DAV:  12    -0.100099358421E+03   -0.65576E-05   -0.32792E-07    96   0.118E-03    0.202E-04
DAV:  13    -0.100099359916E+03   -0.14948E-05   -0.54997E-08   108   0.515E-04    0.171E-04
DAV:  14    -0.100099361311E+03   -0.13943E-05   -0.17329E-08    96   0.372E-04    0.513E-05
DAV:  15    -0.100099361883E+03   -0.57249E-06   -0.48723E-09   108   0.235E-04
  27 F= -.10009936E+03 E0= -.10009936E+03  d E =-.871849E-10
       N       E                     dE             d eps       ncg     rms          rms(c)
DAV:   1    -0.100099046369E+03    0.31494E-03   -0.20297E-01   108   0.126E+00    0.149E-01
DAV:   2    -0.100099920737E+03   -0.87437E-03   -0.10607E-02   120   0.332E-01    0.938E-02
DAV:   3    -0.100099856439E+03    0.64298E-04   -0.13972E-04   132   0.425E-02    0.518E-02
DAV:   4    -0.100099820324E+03    0.36115E-04   -0.80747E-05   132   0.333E-02    0.781E-03
DAV:   5    -0.100099814873E+03    0.54510E-05   -0.19891E-05   132   0.157E-02    0.540E-03
DAV:   6    -0.100099819745E+03   -0.48724E-05   -0.60699E-06   132   0.640E-03    0.312E-03
DAV:   7    -0.100099832782E+03   -0.13036E-04   -0.65375E-07   108   0.248E-03    0.159E-03
DAV:   8    -0.100099855636E+03   -0.22854E-04   -0.25903E-06   120   0.340E-03    0.941E-04
DAV:   9    -0.100099870431E+03   -0.14795E-04   -0.99014E-07   120   0.218E-03    0.758E-04
DAV:  10    -0.100099882670E+03   -0.12239E-04   -0.77079E-07    96   0.185E-03    0.271E-04
DAV:  11    -0.100099886685E+03   -0.40147E-05   -0.17259E-07   108   0.875E-04    0.229E-04
DAV:  12    -0.100099891162E+03   -0.44776E-05   -0.17403E-07    96   0.838E-04    0.113E-04
DAV:  13    -0.100099892077E+03   -0.91507E-06   -0.21697E-08   108   0.356E-04
  28 F= -.10009989E+03 E0= -.10009989E+03  d E =-.737317E-11
       N       E                     dE             d eps       ncg     rms          rms(c)
DAV:   1    -0.100097832017E+03    0.20591E-02   -0.40483E-01   108   0.183E+00    0.212E-01
DAV:   2    -0.100099523943E+03   -0.16919E-02   -0.20258E-02   120   0.442E-01    0.115E-01
DAV:   3    -0.100099442269E+03    0.81674E-04   -0.34060E-04   132   0.630E-02    0.619E-02
DAV:   4    -0.100099398451E+03    0.43817E-04   -0.11910E-04   132   0.425E-02    0.118E-02
DAV:   5    -0.100099387687E+03    0.10764E-04   -0.27455E-05   132   0.195E-02    0.736E-03
DAV:   6    -0.100099388877E+03   -0.11896E-05   -0.79847E-06   132   0.894E-03    0.393E-03
DAV:   7    -0.100099400216E+03   -0.11339E-04   -0.19825E-06   132   0.491E-03    0.202E-03
DAV:   8    -0.100099420183E+03   -0.19967E-04   -0.15373E-06   108   0.379E-03    0.112E-03
DAV:   9    -0.100099435177E+03   -0.14994E-04   -0.81759E-07   108   0.248E-03    0.909E-04
DAV:  10    -0.100099452493E+03   -0.17316E-04   -0.10020E-06   108   0.210E-03    0.319E-04
DAV:  11    -0.100099459821E+03   -0.73285E-05   -0.19245E-07   108   0.107E-03    0.303E-04
DAV:  12    -0.100099465704E+03   -0.58825E-05   -0.13476E-07    96   0.782E-04    0.160E-04
DAV:  13    -0.100099468850E+03   -0.31466E-05   -0.63389E-08   108   0.510E-04    0.863E-05
DAV:  14    -0.100099470434E+03   -0.15834E-05   -0.11578E-08    96   0.297E-04    0.515E-05
DAV:  15    -0.100099471140E+03   -0.70598E-06   -0.25705E-09   108   0.190E-04
  29 F= -.10009947E+03 E0= -.10009947E+03  d E =-.739652E-10
       N       E                     dE             d eps       ncg     rms          rms(c)
DAV:   1    -0.100099350134E+03    0.12030E-03   -0.20353E-01    96   0.129E+00    0.146E-01
DAV:   2    -0.100100151046E+03   -0.80091E-03   -0.98980E-03   120   0.307E-01    0.848E-02
DAV:   3    -0.100100093773E+03    0.57273E-04   -0.14716E-04   132   0.404E-02    0.457E-02
DAV:   4    -0.100100050624E+03    0.43149E-04   -0.51986E-05   132   0.254E-02    0.780E-03
DAV:   5    -0.100100047248E+03    0.33766E-05   -0.82577E-06   132   0.112E-02    0.446E-03
DAV:   6    -0.100100058479E+03   -0.11232E-04   -0.53203E-06   108   0.773E-03    0.223E-03
DAV:   7    -0.100100076078E+03   -0.17598E-04   -0.26446E-06   132   0.497E-03    0.163E-03
DAV:   8    -0.100100096478E+03   -0.20400E-04   -0.13604E-06   108   0.281E-03    0.790E-04
DAV:   9    -0.100100114574E+03   -0.18096E-04   -0.16850E-06   108   0.271E-03    0.601E-04
DAV:  10    -0.100100127568E+03   -0.12994E-04   -0.11635E-06   120   0.211E-03    0.236E-04
DAV:  11    -0.100100132006E+03   -0.44381E-05   -0.19519E-07   108   0.985E-04    0.196E-04
DAV:  12    -0.100100134548E+03   -0.25419E-05   -0.96884E-08   108   0.604E-04    0.995E-05
DAV:  13    -0.100100135813E+03   -0.12654E-05   -0.33312E-08    96   0.371E-04    0.517E-05
DAV:  14    -0.100100136491E+03   -0.67730E-06   -0.62030E-09   108   0.242E-04
  30 F= -.10010014E+03 E0= -.10010014E+03  d E =-.802875E-10
       N       E                     dE             d eps       ncg     rms          rms(c)
DAV:   1    -0.100098373713E+03    0.17621E-02   -0.40848E-01    96   0.176E+00    0.186E-01
DAV:   2    -0.100099957401E+03   -0.15837E-02   -0.19155E-02   132   0.435E-01    0.101E-01
DAV:   3    -0.100099899840E+03    0.57561E-04   -0.33902E-04   120   0.614E-02    0.542E-02
DAV:   4    -0.100099854362E+03    0.45478E-04   -0.82107E-05   132   0.370E-02    0.102E-02
DAV:   5    -0.100099844112E+03    0.10250E-04   -0.20262E-05   132   0.181E-02    0.675E-03
DAV:   6    -0.100099846874E+03   -0.27620E-05   -0.60870E-06   132   0.887E-03    0.391E-03
DAV:   7    -0.100099858724E+03   -0.11850E-04   -0.19845E-06   120   0.587E-03    0.176E-03
DAV:   8    -0.100099876100E+03   -0.17376E-04   -0.12965E-06   108   0.420E-03    0.125E-03
DAV:   9    -0.100099899400E+03   -0.23300E-04   -0.16100E-06   108   0.340E-03    0.651E-04
DAV:  10    -0.100099913833E+03   -0.14434E-04   -0.68480E-07    96   0.210E-03    0.451E-04
DAV:  11    -0.100099922707E+03   -0.88734E-05   -0.31606E-07   108   0.124E-03    0.254E-04
DAV:  12    -0.100099926717E+03   -0.40106E-05   -0.87225E-08   108   0.671E-04    0.133E-04
DAV:  13    -0.100099929501E+03   -0.27837E-05   -0.46830E-08    96   0.500E-04    0.695E-05
DAV:  14    -0.100099930720E+03   -0.12189E-05   -0.12206E-08   108   0.274E-04    0.589E-05
DAV:  15    -0.100099931576E+03   -0.85613E-06   -0.33064E-09    96   0.216E-04
  31 F= -.10009993E+03 E0= -.10009993E+03  d E =-.688114E-11
       N       E                     dE             d eps       ncg     rms          rms(c)
DAV:   1    -0.100097759991E+03    0.21707E-02   -0.19949E-01    96   0.132E+00    0.147E-01
DAV:   2    -0.100098966580E+03   -0.12066E-02   -0.14583E-02   132   0.355E-01    0.853E-02
DAV:   3    -0.100098933721E+03    0.32859E-04   -0.25308E-04   144   0.494E-02    0.499E-02
DAV:   4    -0.100098900751E+03    0.32970E-04   -0.56744E-05   132   0.297E-02    0.946E-03
DAV:   5    -0.100098892889E+03    0.78617E-05   -0.14212E-05   132   0.143E-02    0.513E-03
DAV:   6    -0.100098897368E+03   -0.44786E-05   -0.43122E-06   132   0.722E-03    0.286E-03
DAV:   7    -0.100098910847E+03   -0.13480E-04   -0.17683E-06   108   0.459E-03    0.133E-03
DAV:   8    -0.100098928357E+03   -0.17510E-04   -0.11213E-06   108   0.321E-03    0.869E-04
DAV:   9    -0.100098945708E+03   -0.17351E-04   -0.11840E-06   108   0.266E-03    0.567E-04
DAV:  10    -0.100098958830E+03   -0.13121E-04   -0.92460E-07   108   0.205E-03    0.348E-04
DAV:  11    -0.100098963603E+03   -0.47730E-05   -0.13118E-07   108   0.914E-04    0.199E-04
DAV:  12    -0.100098967053E+03   -0.34504E-05   -0.13381E-07    96   0.758E-04    0.110E-04
DAV:  13    -0.100098968063E+03   -0.10099E-05   -0.14974E-08   108   0.336E-04    0.665E-05
DAV:  14    -0.100098968892E+03   -0.82888E-06   -0.65921E-09    96   0.256E-04
  32 F= -.10009897E+03 E0= -.10009897E+03  d E =-.532941E-11
       N       E                     dE             d eps       ncg     rms          rms(c)
DAV:   1    -0.100097712531E+03    0.12555E-02   -0.40739E-01   108   0.184E+00    0.215E-01
DAV:   2    -0.100099263895E+03   -0.15514E-02   -0.19164E-02   120   0.443E-01    0.126E-01
DAV:   3    -0.100099153620E+03    0.11027E-03   -0.31986E-04   132   0.633E-02    0.669E-02
DAV:   4    -0.100099097848E+03    0.55773E-04   -0.13296E-04   132   0.441E-02    0.111E-02
DAV:   5    -0.100099092763E+03    0.50846E-05   -0.33056E-05   132   0.209E-02    0.733E-03
DAV:   6    -0.100099104946E+03   -0.12183E-04   -0.10746E-05   132   0.901E-03    0.451E-03
DAV:   7    -0.100099128273E+03   -0.23327E-04   -0.14011E-06   108   0.363E-03    0.231E-03
DAV:   8    -0.100099165067E+03   -0.36795E-04   -0.40021E-06   108   0.437E-03    0.126E-03
DAV:   9    -0.100099187479E+03   -0.22412E-04   -0.16262E-06   120   0.289E-03    0.885E-04
DAV:  10    -0.100099208861E+03   -0.21382E-04   -0.19038E-06   108   0.275E-03    0.407E-04
DAV:  11    -0.100099215847E+03   -0.69861E-05   -0.22525E-07   108   0.120E-03    0.311E-04
DAV:  12    -0.100099222683E+03   -0.68362E-05   -0.33591E-07    96   0.119E-03    0.209E-04
DAV:  13    -0.100099224176E+03   -0.14928E-05   -0.51768E-08   108   0.510E-04    0.170E-04
DAV:  14    -0.100099225708E+03   -0.15319E-05   -0.19993E-08    96   0.385E-04    0.526E-05
DAV:  15    -0.100099226268E+03   -0.56020E-06   -0.40676E-09   108   0.229E-04
  33 F= -.10009923E+03 E0= -.10009923E+03  d E =-.842971E-10
       N       E                     dE             d eps       ncg     rms          rms(c)
DAV:   1    -0.100098482273E+03    0.74343E-03   -0.20268E-01   108   0.132E+00    0.152E-01
DAV:   2    -0.100099214944E+03   -0.73267E-03   -0.90125E-03   120   0.300E-01    0.772E-02
DAV:   3    -0.100099173743E+03    0.41201E-04   -0.16348E-04   132   0.430E-02    0.399E-02
DAV:   4    -0.100099146536E+03    0.27207E-04   -0.41573E-05   132   0.252E-02    0.810E-03
DAV:   5    -0.100099139509E+03    0.70275E-05   -0.91047E-06   132   0.121E-02    0.476E-03
DAV:   6    -0.100099140872E+03   -0.13633E-05   -0.35207E-06   132   0.643E-03    0.258E-03
DAV:   7    -0.100099147975E+03   -0.71031E-05   -0.86426E-07   108   0.399E-03    0.129E-03
DAV:   8    -0.100099159642E+03   -0.11667E-04   -0.10029E-06   108   0.320E-03    0.900E-04
DAV:   9    -0.100099173175E+03   -0.13532E-04   -0.84552E-07   108   0.240E-03    0.472E-04
DAV:  10    -0.100099181028E+03   -0.78533E-05   -0.25234E-07    96   0.126E-03    0.300E-04
DAV:  11    -0.100099187498E+03   -0.64698E-05   -0.17951E-07   108   0.857E-04    0.146E-04
DAV:  12    -0.100099191206E+03   -0.37081E-05   -0.86690E-08    96   0.578E-04    0.986E-05
DAV:  13    -0.100099193111E+03   -0.19054E-05   -0.19573E-08   108   0.335E-04    0.482E-05
DAV:  14    -0.100099194133E+03   -0.10218E-05   -0.93454E-09    96   0.236E-04    0.344E-05
DAV:  15    -0.100099194644E+03   -0.51080E-06    0.11731E-09   108   0.154E-04
  34 F= -.10009919E+03 E0= -.10009919E+03  d E =-.862929E-10
       N       E                     dE             d eps       ncg     rms          rms(c)
DAV:   1    -0.100098180071E+03    0.10141E-02   -0.40581E-01    96   0.182E+00    0.216E-01
DAV:   2    -0.100099791363E+03   -0.16113E-02   -0.19629E-02   132   0.450E-01    0.119E-01
DAV:   3    -0.100099689008E+03    0.10235E-03   -0.30232E-04   132   0.594E-02    0.649E-02
DAV:   4    -0.100099614761E+03    0.74248E-04   -0.10802E-04   132   0.383E-02    0.115E-02
DAV:   5    -0.100099609891E+03    0.48696E-05   -0.20393E-05   132   0.173E-02    0.683E-03
DAV:   6    -0.100099626507E+03   -0.16616E-04   -0.91372E-06   132   0.101E-02    0.349E-03
DAV:   7    -0.100099655207E+03   -0.28701E-04   -0.43995E-06   120   0.667E-03    0.219E-03
DAV:   8    -0.100099692047E+03   -0.36840E-04   -0.32666E-06   120   0.464E-03    0.111E-03
DAV:   9    -0.100099716417E+03   -0.24370E-04   -0.22024E-06   108   0.346E-03    0.883E-04
DAV:  10    -0.100099737775E+03   -0.21358E-04   -0.18968E-06   120   0.279E-03    0.363E-04
DAV:  11    -0.100099744591E+03   -0.68166E-05   -0.29009E-07   108   0.122E-03    0.272E-04
DAV:  12    -0.100099750443E+03   -0.58519E-05   -0.29599E-07   108   0.107E-03    0.141E-04
DAV:  13    -0.100099752116E+03   -0.16734E-05   -0.55946E-08   108   0.512E-04    0.878E-05
DAV:  14    -0.100099753219E+03   -0.11026E-05   -0.13608E-08   108   0.331E-04    0.464E-05
DAV:  15    -0.100099753616E+03   -0.39674E-06   -0.52381E-10   108   0.184E-04
  35 F= -.10009975E+03 E0= -.10009975E+03  d E =-.549736E-11
       N       E                     dE             d eps       ncg     rms          rms(c)
DAV:   1    -0.100099552369E+03    0.20085E-03   -0.20295E-01    96   0.127E+00    0.145E-01
DAV:   2    -0.100100364292E+03   -0.81192E-03   -0.96379E-03   120   0.295E-01    0.711E-02
DAV:   3    -0.100100337391E+03    0.26901E-04   -0.17695E-04   132   0.458E-02    0.380E-02
DAV:   4    -0.100100324512E+03    0.12879E-04   -0.48567E-05   144   0.300E-02    0.829E-03
DAV:   5    -0.100100321142E+03    0.33704E-05   -0.15138E-05   132   0.145E-02    0.537E-03
DAV:   6    -0.100100321499E+03   -0.35716E-06   -0.26432E-06   132   0.521E-03
  36 F= -.10010032E+03 E0= -.10010032E+03  d E =-.823189E-10
       N       E                     dE             d eps       ncg     rms          rms(c)
DAV:   1    -0.100098761389E+03    0.15598E-02   -0.40917E-01    96   0.175E+00    0.186E-01
DAV:   2    -0.100100337387E+03   -0.15760E-02   -0.18721E-02   132   0.413E-01    0.928E-02
DAV:   3    -0.100100307013E+03    0.30374E-04   -0.35864E-04   132   0.647E-02    0.492E-02
DAV:   4    -0.100100291152E+03    0.15861E-04   -0.78575E-05   132   0.389E-02    0.106E-02
DAV:   5    -0.100100287759E+03    0.33937E-05   -0.25504E-05   132   0.194E-02    0.731E-03
DAV:   6    -0.100100290304E+03   -0.25454E-05   -0.44551E-06   132   0.722E-03    0.462E-03
DAV:   7    -0.100100297667E+03   -0.73632E-05   -0.89996E-07   108   0.431E-03    0.171E-03
DAV:   8    -0.100100307629E+03   -0.99614E-05   -0.12175E-06   120   0.387E-03    0.121E-03
DAV:   9    -0.100100323750E+03   -0.16122E-04   -0.11302E-06   108   0.333E-03    0.555E-04
DAV:  10    -0.100100330547E+03   -0.67967E-05   -0.36511E-07   108   0.185E-03    0.533E-04
DAV:  11    -0.100100336123E+03   -0.55760E-05   -0.14129E-07    96   0.103E-03    0.267E-04
DAV:  12    -0.100100340876E+03   -0.47525E-05   -0.15653E-07    96   0.830E-04    0.221E-04
DAV:  13    -0.100100342836E+03   -0.19605E-05   -0.29370E-08   108   0.431E-04    0.104E-04
DAV:  14    -0.100100344356E+03   -0.15195E-05   -0.31222E-08    96   0.362E-04    0.576E-05
DAV:  15    -0.100100345095E+03   -0.73958E-06   -0.25558E-09   108   0.207E-04
  37 F= -.10010035E+03 E0= -.10010035E+03  d E =-.839032E-11
       N       E                     dE             d eps       ncg     rms          rms(c)
DAV:   1    -0.100098544131E+03    0.18002E-02   -0.19574E-01    96   0.135E+00    0.150E-01
DAV:   2    -0.100099650374E+03   -0.11062E-02   -0.13171E-02   132   0.327E-01    0.789E-02
DAV:   3    -0.100099608413E+03    0.41961E-04   -0.25324E-04   144   0.536E-02    0.433E-02
DAV:   4    -0.100099580423E+03    0.27990E-04   -0.55864E-05   132   0.303E-02    0.984E-03
DAV:   5    -0.100099572105E+03    0.83181E-05   -0.15235E-05   132   0.151E-02    0.568E-03
DAV:   6    -0.100099574627E+03   -0.25229E-05   -0.29632E-06   132   0.608E-03    0.351E-03
DAV:   7    -0.100099584667E+03   -0.10039E-04   -0.11399E-06   120   0.382E-03    0.123E-03
DAV:   8    -0.100099595830E+03   -0.11164E-04   -0.84157E-07   120   0.293E-03    0.947E-04
DAV:   9    -0.100099612221E+03   -0.16391E-04   -0.13272E-06   120   0.280E-03    0.404E-04
DAV:  10    -0.100099618851E+03   -0.66296E-05   -0.37341E-07   108   0.160E-03    0.352E-04
DAV:  11    -0.100099623429E+03   -0.45774E-05   -0.18181E-07   108   0.957E-04    0.188E-04
DAV:  12    -0.100099626602E+03   -0.31731E-05   -0.12669E-07    96   0.720E-04    0.124E-04
DAV:  13    -0.100099628088E+03   -0.14861E-05   -0.38330E-08   108   0.424E-04    0.730E-05
DAV:  14    -0.100099628882E+03   -0.79396E-06   -0.12798E-08    96   0.268E-04
  38 F= -.10009963E+03 E0= -.10009963E+03  d E =-.452267E-11
       N       E                     dE             d eps       ncg     rms          rms(c)
DAV:   1    -0.100097992957E+03    0.16351E-02   -0.38770E-01    96   0.164E+00    0.215E-01
DAV:   2    -0.100099486215E+03   -0.14933E-02   -0.18301E-02   144   0.372E-01    0.122E-01
DAV:   3    -0.100099351234E+03    0.13498E-03   -0.34258E-04   132   0.675E-02    0.617E-02
DAV:   4    -0.100099309592E+03    0.41643E-04   -0.14356E-04   132   0.424E-02    0.126E-02
DAV:   5    -0.100099298198E+03    0.11394E-04   -0.21106E-05   132   0.172E-02    0.729E-03
DAV:   6    -0.100099301385E+03   -0.31867E-05   -0.68260E-06   132   0.744E-03    0.375E-03
DAV:   7    -0.100099315242E+03   -0.13858E-04   -0.15481E-06   132   0.378E-03    0.165E-03
DAV:   8    -0.100099334833E+03   -0.19591E-04   -0.10621E-06   108   0.259E-03    0.105E-03
DAV:   9    -0.100099354118E+03   -0.19285E-04   -0.98085E-07   120   0.203E-03    0.649E-04
DAV:  10    -0.100099371133E+03   -0.17015E-04   -0.94544E-07   120   0.178E-03    0.377E-04
DAV:  11    -0.100099377089E+03   -0.59555E-05   -0.95155E-08   108   0.797E-04    0.193E-04
DAV:  12    -0.100099383227E+03   -0.61386E-05   -0.18558E-07    96   0.834E-04    0.125E-04
DAV:  13    -0.100099385072E+03   -0.18450E-05   -0.19459E-08   108   0.368E-04    0.738E-05
DAV:  14    -0.100099386444E+03   -0.13712E-05   -0.93354E-09    96   0.271E-04    0.418E-05
DAV:  15    -0.100099386883E+03   -0.43964E-06    0.23115E-09   108   0.139E-04
  39 F= -.10009939E+03 E0= -.10009939E+03  d E =-.875342E-10
       N       E                     dE             d eps       ncg     rms          rms(c)
DAV:   1    -0.100099761489E+03   -0.37505E-03   -0.19706E-01    96   0.118E+00    0.161E-01
DAV:   2    -0.100100521854E+03   -0.76037E-03   -0.92463E-03   132   0.274E-01    0.802E-02
DAV:   3    -0.100100462690E+03    0.59164E-04   -0.18254E-04   132   0.484E-02    0.424E-02
DAV:   4    -0.100100440501E+03    0.22190E-04   -0.66487E-05   132   0.301E-02    0.891E-03
DAV:   5    -0.100100435695E+03    0.48054E-05   -0.12076E-05   132   0.132E-02    0.537E-03
DAV:   6    -0.100100438375E+03   -0.26801E-05   -0.29848E-06   132   0.547E-03    0.276E-03
DAV:   7    -0.100100446469E+03   -0.80936E-05   -0.73867E-07   120   0.273E-03    0.115E-03
DAV:   8    -0.100100456378E+03   -0.99091E-05   -0.65237E-07   120   0.210E-03    0.686E-04
DAV:   9    -0.100100465793E+03   -0.94146E-05   -0.59310E-07   120   0.172E-03    0.452E-04
DAV:  10    -0.100100474400E+03   -0.86078E-05   -0.70374E-07   120   0.159E-03    0.236E-04
DAV:  11    -0.100100476386E+03   -0.19858E-05   -0.41871E-08   108   0.610E-04    0.161E-04
DAV:  12    -0.100100479075E+03   -0.26891E-05   -0.95860E-08   108   0.644E-04    0.807E-05
DAV:  13    -0.100100480056E+03   -0.98048E-06   -0.25216E-08   108   0.344E-04
  40 F= -.10010048E+03 E0= -.10010048E+03  d E =-.440392E-11
       N       E                     dE             d eps       ncg     rms          rms(c)
DAV:   1    -0.100099448993E+03    0.10301E-02   -0.40804E-01   108   0.166E+00    0.220E-01
DAV:   2    -0.100100562149E+03   -0.11132E-02   -0.13767E-02   132   0.342E-01    0.906E-02
DAV:   3    -0.100100490584E+03    0.71565E-04   -0.34450E-04   132   0.647E-02    0.470E-02
DAV:   4    -0.100100473902E+03    0.16683E-04   -0.87777E-05   132   0.374E-02    0.139E-02
DAV:   5    -0.100100471345E+03    0.25564E-05   -0.21297E-05   132   0.183E-02    0.812E-03
DAV:   6    -0.100100472009E+03   -0.66415E-06   -0.40632E-06   132   0.727E-03
  41 F= -.10010047E+03 E0= -.10010047E+03  d E =-.490094E-11
       N       E                     dE             d eps       ncg     rms          rms(c)
DAV:   1    -0.100099849643E+03    0.62170E-03   -0.20380E-01    96   0.118E+00    0.156E-01
DAV:   2    -0.100100440506E+03   -0.59086E-03   -0.71869E-03   132   0.240E-01    0.647E-02
DAV:   3    -0.100100412149E+03    0.28357E-04   -0.18415E-04   132   0.463E-02    0.333E-02
DAV:   4    -0.100100411879E+03    0.26960E-06   -0.46185E-05   120   0.260E-02    0.958E-03
DAV:   5    -0.100100412541E+03   -0.66150E-06   -0.92728E-06   132   0.119E-02
  42 F= -.10010041E+03 E0= -.10010041E+03  d E =-.451751E-11
       N       E                     dE             d eps       ncg     rms          rms(c)
DAV:   1    -0.100098933628E+03    0.14783E-02   -0.40065E-01    96   0.164E+00    0.219E-01
DAV:   2    -0.100100269825E+03   -0.13362E-02   -0.16187E-02   144   0.352E-01    0.969E-02
DAV:   3    -0.100100201183E+03    0.68642E-04   -0.38260E-04   144   0.665E-02    0.496E-02
DAV:   4    -0.100100184958E+03    0.16225E-04   -0.10076E-04   120   0.376E-02    0.128E-02
DAV:   5    -0.100100177591E+03    0.73675E-05   -0.19437E-05   132   0.170E-02    0.694E-03
DAV:   6    -0.100100177775E+03   -0.18463E-06   -0.41648E-06   132   0.664E-03
  43 F= -.10010018E+03 E0= -.10010018E+03  d E =-.500430E-11
       N       E                     dE             d eps       ncg     rms          rms(c)
DAV:   1    -0.100098956499E+03    0.12211E-02   -0.19958E-01    96   0.130E+00    0.162E-01
DAV:   2    -0.100100034678E+03   -0.10782E-02   -0.12683E-02   144   0.318E-01    0.729E-02
DAV:   3    -0.100099995303E+03    0.39374E-04   -0.27534E-04   144   0.571E-02    0.401E-02
DAV:   4    -0.100099987498E+03    0.78050E-05   -0.69724E-05   132   0.324E-02    0.109E-02
DAV:   5    -0.100099985801E+03    0.16975E-05   -0.16083E-05   120   0.155E-02    0.633E-03
DAV:   6    -0.100099986074E+03   -0.27294E-06   -0.25050E-06   132   0.582E-03
  44 F= -.10009999E+03 E0= -.10009999E+03  d E =-.565129E-10
       N       E                     dE             d eps       ncg     rms          rms(c)
DAV:   1    -0.100098740831E+03    0.12450E-02   -0.41061E-01    96   0.179E+00    0.215E-01
DAV:   2    -0.100100216842E+03   -0.14760E-02   -0.17438E-02   144   0.417E-01    0.100E-01
DAV:   3    -0.100100145997E+03    0.70844E-04   -0.30485E-04   132   0.629E-02    0.532E-02
DAV:   4    -0.100100117007E+03    0.28990E-04   -0.12031E-04   120   0.429E-02    0.117E-02
DAV:   5    -0.100100109033E+03    0.79739E-05   -0.26042E-05   132   0.195E-02    0.718E-03
DAV:   6    -0.100100109143E+03   -0.10963E-06   -0.48347E-06   132   0.743E-03
  45 F= -.10010011E+03 E0= -.10010011E+03  d E =-.145506E-10
       N       E                     dE             d eps       ncg     rms          rms(c)
DAV:   1    -0.100099263065E+03    0.84597E-03   -0.20770E-01   120   0.127E+00    0.135E-01
DAV:   2    -0.100099915778E+03   -0.65271E-03   -0.77047E-03   132   0.261E-01    0.593E-02
DAV:   3    -0.100099895381E+03    0.20397E-04   -0.15434E-04   132   0.426E-02    0.305E-02
DAV:   4    -0.100099895460E+03   -0.79405E-07   -0.38535E-05   132   0.250E-02    0.833E-03
DAV:   5    -0.100099898070E+03   -0.26101E-05   -0.93269E-06   132   0.119E-02    0.445E-03
DAV:   6    -0.100099901670E+03   -0.35994E-05   -0.21115E-06   120   0.503E-03    0.241E-03
DAV:   7    -0.100099906454E+03   -0.47843E-05   -0.33970E-07   108   0.208E-03    0.930E-04
DAV:   8    -0.100099911373E+03   -0.49194E-05   -0.28010E-07   108   0.163E-03    0.500E-04
DAV:   9    -0.100099918562E+03   -0.71889E-05   -0.63723E-07   108   0.206E-03    0.264E-04
DAV:  10    -0.100099921756E+03   -0.31942E-05   -0.19162E-07   108   0.119E-03    0.212E-04
DAV:  11    -0.100099923053E+03   -0.12967E-05   -0.33721E-08   108   0.530E-04    0.164E-04
DAV:  12    -0.100099925060E+03   -0.20066E-05   -0.64740E-08    96   0.591E-04    0.740E-05
DAV:  13    -0.100099925575E+03   -0.51491E-06   -0.89044E-09   108   0.273E-04
  46 F= -.10009993E+03 E0= -.10009993E+03  d E =-.722294E-10
       N       E                     dE             d eps       ncg     rms          rms(c)
DAV:   1    -0.100097921949E+03    0.20031E-02   -0.39960E-01    96   0.178E+00    0.191E-01
DAV:   2    -0.100099503655E+03   -0.15817E-02   -0.19242E-02   120   0.422E-01    0.114E-01
DAV:   3    -0.100099395823E+03    0.10783E-03   -0.31892E-04   144   0.652E-02    0.599E-02
DAV:   4    -0.100099346066E+03    0.49757E-04   -0.12881E-04   132   0.439E-02    0.109E-02
DAV:   5    -0.100099335793E+03    0.10273E-04   -0.27442E-05   132   0.195E-02    0.694E-03
DAV:   6    -0.100099338762E+03   -0.29687E-05   -0.72505E-06   132   0.827E-03    0.386E-03
DAV:   7    -0.100099352163E+03   -0.13401E-04   -0.14139E-06   132   0.394E-03    0.179E-03
DAV:   8    -0.100099372068E+03   -0.19906E-04   -0.13310E-06   120   0.316E-03    0.108E-03
DAV:   9    -0.100099388635E+03   -0.16567E-04   -0.81644E-07   120   0.209E-03    0.847E-04
DAV:  10    -0.100099408030E+03   -0.19395E-04   -0.11594E-06   108   0.207E-03    0.366E-04
DAV:  11    -0.100099412670E+03   -0.46402E-05   -0.81251E-08   108   0.792E-04    0.298E-04
DAV:  12    -0.100099420594E+03   -0.79239E-05   -0.22427E-07    96   0.103E-03    0.150E-04
DAV:  13    -0.100099422697E+03   -0.21031E-05   -0.46336E-08   108   0.497E-04    0.111E-04
DAV:  14    -0.100099424386E+03   -0.16892E-05   -0.11715E-08    96   0.340E-04    0.510E-05
DAV:  15    -0.100099425183E+03   -0.79697E-06   -0.49217E-09   108   0.224E-04
  47 F= -.10009943E+03 E0= -.10009943E+03  d E =-.890881E-11
       N       E                     dE             d eps       ncg     rms          rms(c)
DAV:   1    -0.100099934929E+03   -0.51054E-03   -0.20324E-01    96   0.126E+00    0.128E-01
DAV:   2    -0.100100639097E+03   -0.70417E-03   -0.84339E-03   144   0.282E-01    0.680E-02
DAV:   3    -0.100100601681E+03    0.37416E-04   -0.14405E-04   132   0.433E-02    0.353E-02
DAV:   4    -0.100100583726E+03    0.17954E-04   -0.47211E-05   132   0.282E-02    0.757E-03
DAV:   5    -0.100100580379E+03    0.33474E-05   -0.11037E-05   132   0.128E-02    0.486E-03
DAV:   6    -0.100100582134E+03   -0.17545E-05   -0.26307E-06   132   0.563E-03    0.257E-03
DAV:   7    -0.100100587445E+03   -0.53119E-05   -0.58686E-07   108   0.280E-03    0.117E-03
DAV:   8    -0.100100594895E+03   -0.74501E-05   -0.52225E-07    96   0.216E-03    0.623E-04
DAV:   9    -0.100100603518E+03   -0.86228E-05   -0.59974E-07   108   0.194E-03    0.419E-04
DAV:  10    -0.100100610398E+03   -0.68797E-05   -0.51562E-07    96   0.156E-03    0.217E-04
DAV:  11    -0.100100613078E+03   -0.26798E-05   -0.89683E-08   108   0.792E-04    0.151E-04
DAV:  12    -0.100100615234E+03   -0.21565E-05   -0.70991E-08    96   0.599E-04    0.877E-05
DAV:  13    -0.100100615980E+03   -0.74547E-06   -0.14937E-08   108   0.307E-04
  48 F= -.10010062E+03 E0= -.10010062E+03  d E =-.442717E-11
       N       E                     dE             d eps       ncg     rms          rms(c)
DAV:   1    -0.100099530396E+03    0.10848E-02   -0.41408E-01    96   0.176E+00    0.174E-01
DAV:   2    -0.100100692413E+03   -0.11620E-02   -0.13944E-02   144   0.350E-01    0.794E-02
DAV:   3    -0.100100645737E+03    0.46676E-04   -0.27513E-04   132   0.590E-02    0.395E-02
DAV:   4    -0.100100630793E+03    0.14944E-04   -0.69716E-05   132   0.364E-02    0.104E-02
DAV:   5    -0.100100628510E+03    0.22831E-05   -0.19965E-05   132   0.172E-02    0.636E-03
DAV:   6    -0.100100630490E+03   -0.19794E-05   -0.36527E-06   132   0.649E-03    0.367E-03
DAV:   7    -0.100100635038E+03   -0.45484E-05   -0.39285E-07   108   0.261E-03    0.138E-03
DAV:   8    -0.100100640919E+03   -0.58809E-05   -0.42891E-07   108   0.245E-03    0.761E-04
DAV:   9    -0.100100651493E+03   -0.10574E-04   -0.89342E-07    96   0.305E-03    0.341E-04
DAV:  10    -0.100100655684E+03   -0.41914E-05   -0.38971E-07   108   0.175E-03    0.424E-04
DAV:  11    -0.100100657074E+03   -0.13897E-05   -0.27218E-08   108   0.637E-04    0.325E-04
DAV:  12    -0.100100659996E+03   -0.29221E-05   -0.81216E-08   108   0.751E-04    0.125E-04
DAV:  13    -0.100100661349E+03   -0.13533E-05   -0.45845E-08   108   0.482E-04    0.172E-04
DAV:  14    -0.100100662039E+03   -0.69008E-06   -0.35399E-09   108   0.260E-04
  49 F= -.10010066E+03 E0= -.10010066E+03  d E =-.893945E-11
       N       E                     dE             d eps       ncg     rms          rms(c)
DAV:   1    -0.100099268415E+03    0.13929E-02   -0.20363E-01   120   0.128E+00    0.144E-01
DAV:   2    -0.100100183460E+03   -0.91505E-03   -0.10763E-02   132   0.289E-01    0.640E-02
DAV:   3    -0.100100159573E+03    0.23887E-04   -0.20585E-04   144   0.459E-02    0.347E-02
DAV:   4    -0.100100148264E+03    0.11309E-04   -0.42974E-05   132   0.244E-02    0.907E-03
DAV:   5    -0.100100144888E+03    0.33758E-05   -0.79879E-06   132   0.113E-02    0.489E-03
DAV:   6    -0.100100145227E+03   -0.33921E-06   -0.22211E-06   120   0.571E-03
  50 F= -.10010015E+03 E0= -.10010015E+03  d E =-.609034E-10
       N       E                     dE             d eps       ncg     rms          rms(c)
DAV:   1    -0.100098881705E+03    0.12632E-02   -0.41278E-01    96   0.179E+00    0.212E-01
DAV:   2    -0.100100314056E+03   -0.14324E-02   -0.16910E-02   144   0.409E-01    0.953E-02
DAV:   3    -0.100100251950E+03    0.62106E-04   -0.30985E-04   132   0.626E-02    0.504E-02
DAV:   4    -0.100100228908E+03    0.23042E-04   -0.10856E-04   132   0.415E-02    0.117E-02
DAV:   5    -0.100100221743E+03    0.71643E-05   -0.25066E-05   132   0.192E-02    0.700E-03
DAV:   6    -0.100100222126E+03   -0.38294E-06   -0.45102E-06   132   0.736E-03
  51 F= -.10010022E+03 E0= -.10010022E+03  d E =-.156180E-10
       N       E                     dE             d eps       ncg     rms          rms(c)
DAV:   1    -0.100098856233E+03    0.13655E-02   -0.19802E-01    96   0.129E+00    0.150E-01
DAV:   2    -0.100099636182E+03   -0.77995E-03   -0.93769E-03   144   0.301E-01    0.849E-02
DAV:   3    -0.100099587497E+03    0.48685E-04   -0.15881E-04   132   0.471E-02    0.430E-02
DAV:   4    -0.100099574440E+03    0.13057E-04   -0.77633E-05   120   0.327E-02    0.889E-03
DAV:   5    -0.100099568641E+03    0.57989E-05   -0.12328E-05   132   0.133E-02    0.529E-03
DAV:   6    -0.100099567480E+03    0.11605E-05   -0.34296E-06   132   0.561E-03    0.271E-03
DAV:   7    -0.100099570326E+03   -0.28455E-05   -0.66773E-07   108   0.283E-03    0.114E-03
DAV:   8    -0.100099575827E+03   -0.55012E-05   -0.44814E-07    96   0.187E-03    0.666E-04
DAV:   9    -0.100099582932E+03   -0.71053E-05   -0.42517E-07   108   0.149E-03    0.493E-04
DAV:  10    -0.100099590060E+03   -0.71278E-05   -0.40772E-07   108   0.127E-03    0.239E-04
DAV:  11    -0.100099592530E+03   -0.24696E-05   -0.57654E-08   108   0.605E-04    0.154E-04
DAV:  12    -0.100099595723E+03   -0.31935E-05   -0.95569E-08    96   0.647E-04    0.823E-05
DAV:  13    -0.100099596502E+03   -0.77896E-06   -0.12520E-08   108   0.300E-04
  52 F= -.10009960E+03 E0= -.10009960E+03  d E =-.974276E-11
       N       E                     dE             d eps       ncg     rms          rms(c)
DAV:   1    -0.100098519841E+03    0.10759E-02   -0.39999E-01    96   0.178E+00    0.190E-01
DAV:   2    -0.100100042304E+03   -0.15225E-02   -0.18444E-02   132   0.416E-01    0.111E-01
DAV:   3    -0.100099940865E+03    0.10144E-03   -0.30224E-04   132   0.627E-02    0.581E-02
DAV:   4    -0.100099894059E+03    0.46806E-04   -0.11692E-04   120   0.423E-02    0.111E-02
DAV:   5    -0.100099887341E+03    0.67183E-05   -0.23558E-05   132   0.182E-02    0.684E-03
DAV:   6    -0.100099895744E+03   -0.84037E-05   -0.69358E-06   120   0.831E-03    0.365E-03
DAV:   7    -0.100099913269E+03   -0.17525E-04   -0.19984E-06   132   0.432E-03    0.178E-03
DAV:   8    -0.100099934195E+03   -0.20927E-04   -0.15517E-06   108   0.298E-03    0.970E-04
DAV:   9    -0.100099952397E+03   -0.18202E-04   -0.14157E-06   132   0.252E-03    0.775E-04
DAV:  10    -0.100099970709E+03   -0.18312E-04   -0.18748E-06   120   0.253E-03    0.348E-04
DAV:  11    -0.100099974110E+03   -0.34006E-05   -0.75485E-08   108   0.766E-04    0.275E-04
DAV:  12    -0.100099979299E+03   -0.51890E-05   -0.20003E-07    96   0.946E-04    0.129E-04
DAV:  13    -0.100099981110E+03   -0.18116E-05   -0.72058E-08   108   0.523E-04    0.103E-04
DAV:  14    -0.100099982035E+03   -0.92448E-06   -0.38724E-09   108   0.276E-04
  53 F= -.10009998E+03 E0= -.10009998E+03  d E =-.757813E-10
       N       E                     dE             d eps       ncg     rms          rms(c)
DAV:   1    -0.100099505652E+03    0.47546E-03   -0.19946E-01    96   0.126E+00    0.136E-01
DAV:   2    -0.100100321428E+03   -0.81578E-03   -0.99078E-03   120   0.303E-01    0.816E-02
DAV:   3    -0.100100264700E+03    0.56728E-04   -0.15531E-04   132   0.453E-02    0.433E-02
DAV:   4    -0.100100237118E+03    0.27582E-04   -0.67201E-05   132   0.317E-02    0.797E-03
DAV:   5    -0.100100230804E+03    0.63139E-05   -0.14580E-05   132   0.142E-02    0.512E-03
DAV:   6    -0.100100232051E+03   -0.12465E-05   -0.35096E-06   132   0.578E-03    0.288E-03
DAV:   7    -0.100100239367E+03   -0.73167E-05   -0.69448E-07   108   0.292E-03    0.124E-03
DAV:   8    -0.100100250845E+03   -0.11477E-04   -0.86661E-07   108   0.249E-03    0.866E-04
DAV:   9    -0.100100262289E+03   -0.11444E-04   -0.52686E-07   108   0.177E-03    0.533E-04
DAV:  10    -0.100100271793E+03   -0.95039E-05   -0.52627E-07    96   0.139E-03    0.273E-04
DAV:  11    -0.100100275638E+03   -0.38449E-05   -0.83730E-08   108   0.691E-04    0.180E-04
DAV:  12    -0.100100279819E+03   -0.41811E-05   -0.99111E-08    96   0.663E-04    0.937E-05
DAV:  13    -0.100100281236E+03   -0.14169E-05   -0.21641E-08   108   0.342E-04    0.647E-05
DAV:  14    -0.100100282398E+03   -0.11617E-05   -0.80919E-09    96   0.252E-04    0.297E-05
DAV:  15    -0.100100282901E+03   -0.50352E-06    0.27354E-10    96   0.161E-04
  54 F= -.10010028E+03 E0= -.10010028E+03  d E =-.501058E-11
       N       E                     dE             d eps       ncg     rms          rms(c)
DAV:   1    -0.100099228316E+03    0.10541E-02   -0.41115E-01    96   0.179E+00    0.181E-01
DAV:   2    -0.100100538064E+03   -0.13097E-02   -0.15742E-02   144   0.380E-01    0.901E-02
DAV:   3    -0.100100473907E+03    0.64157E-04   -0.28824E-04   132   0.603E-02    0.460E-02
DAV:   4    -0.100100448211E+03    0.25695E-04   -0.85890E-05   132   0.388E-02    0.107E-02
DAV:   5    -0.100100443819E+03    0.43928E-05   -0.21289E-05   132   0.177E-02    0.650E-03
DAV:   6    -0.100100447544E+03   -0.37249E-05   -0.46522E-06   132   0.732E-03    0.357E-03
DAV:   7    -0.100100455962E+03   -0.84189E-05   -0.75709E-07   108   0.328E-03    0.157E-03
DAV:   8    -0.100100466857E+03   -0.10895E-04   -0.75903E-07   120   0.260E-03    0.842E-04
DAV:   9    -0.100100481929E+03   -0.15072E-04   -0.11402E-06   120   0.276E-03    0.495E-04
DAV:  10    -0.100100491302E+03   -0.93726E-05   -0.63876E-07   108   0.195E-03    0.287E-04
DAV:  11    -0.100100495690E+03   -0.43882E-05   -0.19424E-07   108   0.107E-03    0.188E-04
DAV:  12    -0.100100499014E+03   -0.33240E-05   -0.13064E-07   108   0.754E-04    0.106E-04
DAV:  13    -0.100100500052E+03   -0.10373E-05   -0.23513E-08   108   0.367E-04    0.739E-05
DAV:  14    -0.100100500936E+03   -0.88398E-06   -0.12544E-08    96   0.270E-04
  55 F= -.10010050E+03 E0= -.10010050E+03  d E =-.677161E-11
       N       E                     dE             d eps       ncg     rms          rms(c)
DAV:   1    -0.100098075712E+03    0.24243E-02   -0.19739E-01    96   0.131E+00    0.144E-01
DAV:   2    -0.100099179107E+03   -0.11034E-02   -0.13528E-02   144   0.331E-01    0.764E-02
DAV:   3    -0.100099148317E+03    0.30791E-04   -0.25094E-04   144   0.503E-02    0.429E-02
DAV:   4    -0.100099123276E+03    0.25041E-04   -0.48047E-05   120   0.280E-02    0.937E-03
DAV:   5    -0.100099114837E+03    0.84392E-05   -0.12137E-05   132   0.134E-02    0.511E-03
DAV:   6    -0.100099115591E+03   -0.75383E-06   -0.30184E-06   132   0.631E-03
  56 F= -.10009912E+03 E0= -.10009912E+03  d E =-.123086E-10
       N       E                     dE             d eps       ncg     rms          rms(c)
DAV:   1    -0.100097941180E+03    0.11737E-02   -0.40109E-01   108   0.165E+00    0.196E-01
DAV:   2    -0.100099554968E+03   -0.16138E-02   -0.19702E-02   132   0.394E-01    0.117E-01
DAV:   3    -0.100099489995E+03    0.64973E-04   -0.28761E-04   120   0.544E-02    0.618E-02
DAV:   4    -0.100099412900E+03    0.77095E-04   -0.84205E-05   120   0.317E-02    0.108E-02
DAV:   5    -0.100099400191E+03    0.12709E-04   -0.13674E-05   132   0.141E-02    0.583E-03
DAV:   6    -0.100099414391E+03   -0.14200E-04   -0.92875E-06   132   0.945E-03    0.296E-03
DAV:   7    -0.100099438847E+03   -0.24455E-04   -0.37064E-06   132   0.567E-03    0.207E-03
DAV:   8    -0.100099469191E+03   -0.30344E-04   -0.24455E-06   108   0.350E-03    0.948E-04
DAV:   9    -0.100099492542E+03   -0.23351E-04   -0.21779E-06   120   0.301E-03    0.769E-04
DAV:  10    -0.100099512994E+03   -0.20453E-04   -0.20197E-06   108   0.257E-03    0.279E-04
DAV:  11    -0.100099518746E+03   -0.57518E-05   -0.23904E-07   108   0.106E-03    0.259E-04
DAV:  12    -0.100099522811E+03   -0.40647E-05   -0.16357E-07    96   0.762E-04    0.898E-05
DAV:  13    -0.100099524104E+03   -0.12932E-05   -0.29377E-08   108   0.363E-04    0.582E-05
DAV:  14    -0.100099525115E+03   -0.10111E-05   -0.11253E-08    96   0.286E-04    0.365E-05
DAV:  15    -0.100099525414E+03   -0.29827E-06    0.22305E-09    96   0.140E-04
  57 F= -.10009953E+03 E0= -.10009953E+03  d E =-.490631E-10
       N       E                     dE             d eps       ncg     rms          rms(c)
DAV:   1    -0.100099800015E+03   -0.27490E-03   -0.20274E-01   108   0.116E+00    0.130E-01
DAV:   2    -0.100100603621E+03   -0.80361E-03   -0.98098E-03   120   0.279E-01    0.741E-02
DAV:   3    -0.100100573408E+03    0.30213E-04   -0.16695E-04   144   0.428E-02    0.391E-02
DAV:   4    -0.100100550760E+03    0.22648E-04   -0.36240E-05   120   0.267E-02    0.730E-03
DAV:   5    -0.100100544883E+03    0.58771E-05   -0.12684E-05   132   0.136E-02    0.494E-03
DAV:   6    -0.100100545895E+03   -0.10113E-05   -0.29909E-06   120   0.541E-03    0.298E-03
DAV:   7    -0.100100551562E+03   -0.56678E-05   -0.65681E-07   108   0.327E-03    0.139E-03
DAV:   8    -0.100100562511E+03   -0.10948E-04   -0.11880E-06   108   0.331E-03    0.106E-03
DAV:   9    -0.100100574974E+03   -0.12463E-04   -0.74139E-07    96   0.245E-03    0.515E-04
DAV:  10    -0.100100581517E+03   -0.65424E-05   -0.32659E-07   108   0.141E-03    0.382E-04
DAV:  11    -0.100100587617E+03   -0.61009E-05   -0.15718E-07    96   0.919E-04    0.164E-04
DAV:  12    -0.100100589924E+03   -0.23068E-05   -0.54734E-08   108   0.495E-04    0.164E-04
DAV:  13    -0.100100591739E+03   -0.18149E-05   -0.20921E-08    96   0.338E-04    0.661E-05
DAV:  14    -0.100100592730E+03   -0.99068E-06   -0.92363E-09   108   0.257E-04
  58 F= -.10010059E+03 E0= -.10010059E+03  d E =-.788731E-11
       N       E                     dE             d eps       ncg     rms          rms(c)
DAV:   1    -0.100099337803E+03    0.12539E-02   -0.41557E-01   120   0.165E+00    0.165E-01
DAV:   2    -0.100100571062E+03   -0.12333E-02   -0.14804E-02   132   0.350E-01    0.825E-02
DAV:   3    -0.100100548061E+03    0.23001E-04   -0.27688E-04   132   0.613E-02    0.427E-02
DAV:   4    -0.100100533475E+03    0.14585E-04   -0.65327E-05   132   0.418E-02    0.882E-03
DAV:   5    -0.100100532144E+03    0.13314E-05   -0.31571E-05   132   0.210E-02    0.752E-03
DAV:   6    -0.100100533334E+03   -0.11899E-05   -0.32939E-06   132   0.575E-03    0.573E-03
DAV:   7    -0.100100537600E+03   -0.42662E-05   -0.70621E-07   108   0.325E-03    0.223E-03
DAV:   8    -0.100100543818E+03   -0.62174E-05   -0.10505E-06   108   0.369E-03    0.146E-03
DAV:   9    -0.100100556086E+03   -0.12269E-04   -0.11475E-06   108   0.416E-03    0.103E-03
DAV:  10    -0.100100560572E+03   -0.44853E-05   -0.54461E-07   108   0.225E-03    0.109E-03
DAV:  11    -0.100100562170E+03   -0.15986E-05   -0.45157E-08   108   0.864E-04    0.751E-04
DAV:  12    -0.100100565906E+03   -0.37358E-05   -0.11212E-07   108   0.962E-04    0.204E-04
DAV:  13    -0.100100568208E+03   -0.23018E-05   -0.72696E-08   108   0.666E-04    0.248E-04
DAV:  14    -0.100100569784E+03   -0.15759E-05   -0.31913E-08   108   0.415E-04    0.176E-04
DAV:  15    -0.100100570299E+03   -0.51507E-06   -0.26098E-09   108   0.213E-04
  59 F= -.10010057E+03 E0= -.10010057E+03  d E =-.751187E-11
       N       E                     dE             d eps       ncg     rms          rms(c)
DAV:   1    -0.100098007762E+03    0.25620E-02   -0.20508E-01   108   0.118E+00    0.129E-01
DAV:   2    -0.100098828199E+03   -0.82044E-03   -0.98244E-03   132   0.287E-01    0.704E-02
DAV:   3    -0.100098805167E+03    0.23032E-04   -0.16206E-04   144   0.437E-02    0.391E-02
DAV:   4    -0.100098791004E+03    0.14163E-04   -0.39637E-05   132   0.302E-02    0.701E-03
DAV:   5    -0.100098787540E+03    0.34637E-05   -0.17373E-05   132   0.156E-02    0.542E-03
DAV:   6    -0.100098787670E+03   -0.12948E-06   -0.26357E-06   132   0.517E-03
  60 F= -.10009879E+03 E0= -.10009879E+03  d E =-.579231E-11
       N       E                     dE             d eps       ncg     rms          rms(c)
DAV:   1    -0.100097435925E+03    0.13516E-02   -0.40352E-01   120   0.161E+00    0.200E-01
DAV:   2    -0.100099264239E+03   -0.18283E-02   -0.21820E-02   144   0.422E-01    0.131E-01
DAV:   3    -0.100099167699E+03    0.96540E-04   -0.27794E-04   132   0.556E-02    0.738E-02
DAV:   4    -0.100099105015E+03    0.62684E-04   -0.15848E-04   120   0.443E-02    0.110E-02
DAV:   5    -0.100099094162E+03    0.10853E-04   -0.29962E-05   132   0.194E-02    0.733E-03
DAV:   6    -0.100099101424E+03   -0.72618E-05   -0.11883E-05   120   0.882E-03    0.391E-03
DAV:   7    -0.100099121786E+03   -0.20362E-04   -0.25979E-06   132   0.453E-03    0.209E-03
DAV:   8    -0.100099155276E+03   -0.33490E-04   -0.38381E-06   108   0.412E-03    0.112E-03
DAV:   9    -0.100099176217E+03   -0.20941E-04   -0.17415E-06   120   0.271E-03    0.840E-04
DAV:  10    -0.100099196827E+03   -0.20610E-04   -0.20131E-06    96   0.266E-03    0.463E-04
DAV:  11    -0.100099203216E+03   -0.63890E-05   -0.29341E-07   108   0.118E-03    0.315E-04
DAV:  12    -0.100099207536E+03   -0.43192E-05   -0.21269E-07    84   0.935E-04    0.158E-04
DAV:  13    -0.100099209048E+03   -0.15122E-05   -0.38451E-08    96   0.471E-04    0.985E-05
DAV:  14    -0.100099209957E+03   -0.90942E-06   -0.83533E-09   108   0.287E-04
  61 F= -.10009921E+03 E0= -.10009921E+03  d E =-.444007E-11
       N       E                     dE             d eps       ncg     rms          rms(c)
DAV:   1    -0.100102020401E+03   -0.28114E-02   -0.23827E-01   120   0.171E+00    0.155E-01
DAV:   2    -0.100102480875E+03   -0.46047E-03   -0.75076E-03   132   0.280E-01    0.904E-02
DAV:   3    -0.100102398745E+03    0.82129E-04   -0.20403E-04   132   0.516E-02    0.434E-02
DAV:   4    -0.100102384637E+03    0.14109E-04   -0.99993E-05   132   0.342E-02    0.855E-03
DAV:   5    -0.100102381172E+03    0.34647E-05   -0.12221E-05   132   0.129E-02    0.637E-03
DAV:   6    -0.100102382715E+03   -0.15433E-05   -0.31015E-06   120   0.528E-03    0.252E-03
DAV:   7    -0.100102387853E+03   -0.51376E-05   -0.69062E-07   108   0.289E-03    0.110E-03
DAV:   8    -0.100102395914E+03   -0.80610E-05   -0.60919E-07   108   0.202E-03    0.943E-04
DAV:   9    -0.100102404828E+03   -0.89141E-05   -0.45368E-07    96   0.164E-03    0.352E-04
DAV:  10    -0.100102410819E+03   -0.59907E-05   -0.32040E-07   108   0.116E-03    0.422E-04
DAV:  11    -0.100102414097E+03   -0.32781E-05   -0.71663E-08   108   0.763E-04    0.159E-04
DAV:  12    -0.100102416236E+03   -0.21398E-05   -0.46781E-08    96   0.512E-04    0.130E-04
DAV:  13    -0.100102417706E+03   -0.14699E-05   -0.19300E-08   108   0.345E-04    0.585E-05
DAV:  14    -0.100102418456E+03   -0.75011E-06   -0.38366E-09    96   0.205E-04
  62 F= -.10010242E+03 E0= -.10010242E+03  d E =-.479340E-11
       N       E                     dE             d eps       ncg     rms          rms(c)
DAV:   1    -0.100102819006E+03   -0.40130E-03   -0.55002E-01    96   0.263E+00    0.232E-01
DAV:   2    -0.100102503688E+03    0.31532E-03   -0.36017E-03   120   0.204E-01    0.122E-01
DAV:   3    -0.100102280308E+03    0.22338E-03   -0.49770E-04   132   0.695E-02    0.384E-02
DAV:   4    -0.100102280026E+03    0.28186E-06   -0.12675E-04   132   0.347E-02    0.131E-02
DAV:   5    -0.100102281395E+03   -0.13693E-05   -0.77301E-06   132   0.109E-02    0.689E-03
DAV:   6    -0.100102284829E+03   -0.34339E-05   -0.35585E-06   132   0.628E-03    0.168E-03
DAV:   7    -0.100102287117E+03   -0.22877E-05   -0.45132E-07   108   0.270E-03    0.951E-04
DAV:   8    -0.100102290741E+03   -0.36239E-05   -0.17275E-07   108   0.143E-03    0.345E-04
DAV:   9    -0.100102293233E+03   -0.24919E-05   -0.10676E-07   108   0.104E-03    0.318E-04
DAV:  10    -0.100102296481E+03   -0.32481E-05   -0.15555E-07   108   0.102E-03    0.118E-04
DAV:  11    -0.100102297791E+03   -0.13101E-05   -0.58841E-08   108   0.633E-04    0.104E-04
DAV:  12    -0.100102298586E+03   -0.79482E-06   -0.10421E-08   108   0.343E-04
  63 F= -.10010230E+03 E0= -.10010230E+03  d E =-.837232E-10
       N       E                     dE             d eps       ncg     rms          rms(c)
DAV:   1    -0.100101876912E+03    0.42088E-03   -0.29011E-01    96   0.187E+00    0.213E-01
DAV:   2    -0.100101634771E+03    0.24214E-03   -0.24263E-03   120   0.172E-01    0.103E-01
DAV:   3    -0.100101483408E+03    0.15136E-03   -0.37462E-04   132   0.595E-02    0.369E-02
DAV:   4    -0.100101474123E+03    0.92857E-05   -0.10447E-04   120   0.309E-02    0.137E-02
DAV:   5    -0.100101472349E+03    0.17735E-05   -0.53210E-06   132   0.954E-03    0.552E-03
DAV:   6    -0.100101473294E+03   -0.94516E-06   -0.23930E-06   132   0.570E-03
  64 F= -.10010147E+03 E0= -.10010147E+03  d E =-.484809E-11
       N       E                     dE             d eps       ncg     rms          rms(c)
DAV:   1    -0.100101784563E+03   -0.31221E-03   -0.56769E-01    96   0.265E+00    0.277E-01
DAV:   2    -0.100101329527E+03    0.45504E-03   -0.41820E-03   120   0.229E-01    0.135E-01
DAV:   3    -0.100101062671E+03    0.26686E-03   -0.63300E-04   120   0.745E-02    0.478E-02
DAV:   4    -0.100101047024E+03    0.15647E-04   -0.16155E-04   120   0.383E-02    0.166E-02
DAV:   5    -0.100101046050E+03    0.97451E-06   -0.97864E-06   132   0.132E-02
  65 F= -.10010105E+03 E0= -.10010105E+03  d E =-.509437E-11
       N       E                     dE             d eps       ncg     rms          rms(c)
DAV:   1    -0.100102997698E+03   -0.19507E-02   -0.28924E-01    96   0.184E+00    0.204E-01
DAV:   2    -0.100102727878E+03    0.26982E-03   -0.22621E-03   132   0.171E-01    0.100E-01
DAV:   3    -0.100102588343E+03    0.13954E-03   -0.40558E-04   132   0.629E-02    0.345E-02
DAV:   4    -0.100102589478E+03   -0.11346E-05   -0.10272E-04   132   0.315E-02    0.128E-02
DAV:   5    -0.100102588782E+03    0.69587E-06   -0.49490E-06   132   0.879E-03
  66 F= -.10010259E+03 E0= -.10010259E+03  d E =-.788370E-10
       N       E                     dE             d eps       ncg     rms          rms(c)
DAV:   1    -0.100102855592E+03   -0.26611E-03   -0.55693E-01    96   0.253E+00    0.224E-01
DAV:   2    -0.100102466525E+03    0.38907E-03   -0.35172E-03   120   0.205E-01    0.121E-01
DAV:   3    -0.100102236333E+03    0.23019E-03   -0.66903E-04   120   0.824E-02    0.321E-02
DAV:   4    -0.100102242785E+03   -0.64518E-05   -0.12939E-04   132   0.381E-02    0.148E-02
DAV:   5    -0.100102242048E+03    0.73720E-06   -0.42581E-06   132   0.800E-03
  67 F= -.10010224E+03 E0= -.10010224E+03  d E =-.599055E-11
       N       E                     dE             d eps       ncg     rms          rms(c)
DAV:   1    -0.100103026492E+03   -0.78371E-03   -0.27681E-01    96   0.193E+00    0.150E-01
DAV:   2    -0.100102955695E+03    0.70797E-04   -0.18609E-03   132   0.151E-01    0.854E-02
DAV:   3    -0.100102869707E+03    0.85988E-04   -0.19137E-04   144   0.441E-02    0.193E-02
DAV:   4    -0.100102870803E+03   -0.10957E-05   -0.35366E-05   132   0.189E-02    0.624E-03
DAV:   5    -0.100102870810E+03   -0.69158E-08   -0.11288E-06   108   0.435E-03
  68 F= -.10010287E+03 E0= -.10010287E+03  d E =-.549878E-11
       N       E                     dE             d eps       ncg     rms          rms(c)
DAV:   1    -0.100103534049E+03   -0.66325E-03   -0.55156E-01    96   0.263E+00    0.202E-01
DAV:   2    -0.100103235125E+03    0.29892E-03   -0.27497E-03   132   0.181E-01    0.113E-01
DAV:   3    -0.100103057323E+03    0.17780E-03   -0.52390E-04   132   0.714E-02    0.233E-02
DAV:   4    -0.100103065386E+03   -0.80634E-05   -0.84310E-05   132   0.301E-02    0.900E-03
DAV:   5    -0.100103065616E+03   -0.22962E-06   -0.31867E-06   132   0.681E-03
  69 F= -.10010307E+03 E0= -.10010307E+03  d E =-.809205E-10
       N       E                     dE             d eps       ncg     rms          rms(c)
DAV:   1    -0.100103093553E+03   -0.28167E-04   -0.27601E-01    96   0.186E+00    0.143E-01
DAV:   2    -0.100102944031E+03    0.14952E-03   -0.13897E-03   132   0.122E-01    0.803E-02
DAV:   3    -0.100102854850E+03    0.89181E-04   -0.25283E-04   132   0.474E-02    0.173E-02
DAV:   4    -0.100102856926E+03   -0.20757E-05   -0.40522E-05   132   0.207E-02    0.637E-03
DAV:   5    -0.100102856614E+03    0.31210E-06   -0.15092E-06   120   0.474E-03
  70 F= -.10010286E+03 E0= -.10010286E+03  d E =-.472953E-11
       N       E                     dE             d eps       ncg     rms          rms(c)
DAV:   1    -0.100103318126E+03   -0.46120E-03   -0.55064E-01    96   0.251E+00    0.207E-01
DAV:   2    -0.100103031806E+03    0.28632E-03   -0.28956E-03   120   0.182E-01    0.114E-01
DAV:   3    -0.100102841132E+03    0.19067E-03   -0.46108E-04   132   0.638E-02    0.270E-02
DAV:   4    -0.100102842261E+03   -0.11284E-05   -0.77893E-05   132   0.283E-02    0.911E-03
DAV:   5    -0.100102842267E+03   -0.62068E-08   -0.37896E-06   132   0.742E-03
  71 F= -.10010284E+03 E0= -.10010284E+03  d E =-.479232E-11
       N       E                     dE             d eps       ncg     rms          rms(c)
DAV:   1    -0.100100637573E+03    0.22047E-02   -0.27956E-01    96   0.186E+00    0.165E-01
[...]
DAV:   1    -0.100101174832E+03   -0.30345E-03   -0.53857E-01    96   0.191E+00    0.204E-01
DAV:   2    -0.100101074965E+03    0.99867E-04   -0.46756E-03   108   0.176E-01    0.111E-01
DAV:   3    -0.100100872660E+03    0.20231E-03   -0.52637E-04   120   0.564E-02    0.301E-02
DAV:   4    -0.100100856435E+03    0.16225E-04   -0.70957E-05   132   0.228E-02    0.106E-02
DAV:   5    -0.100100855580E+03    0.85464E-06   -0.61121E-06   132   0.895E-03
 129 F= -.10010086E+03 E0= -.10010086E+03  d E =-.882609E-10
       N       E                     dE             d eps       ncg     rms          rms(c)
DAV:   1    -0.100103138205E+03   -0.22818E-02   -0.26786E-01    96   0.133E+00    0.132E-01
DAV:   2    -0.100103096269E+03    0.41935E-04   -0.16108E-03   108   0.116E-01    0.728E-02
DAV:   3    -0.100103038851E+03    0.57418E-04   -0.23378E-04   132   0.402E-02    0.168E-02
DAV:   4    -0.100103041410E+03   -0.25587E-05   -0.33123E-05   132   0.168E-02    0.720E-03
DAV:   5    -0.100103041131E+03    0.27951E-06   -0.19620E-06   120   0.505E-03
 130 F= -.10010304E+03 E0= -.10010304E+03  d E =-.439850E-11
       N       E                     dE             d eps       ncg     rms          rms(c)
DAV:   1    -0.100103176313E+03   -0.13490E-03   -0.52397E-01    96   0.190E+00    0.155E-01
DAV:   2    -0.100103063948E+03    0.11236E-03   -0.18496E-03   108   0.131E-01    0.900E-02
DAV:   3    -0.100102975032E+03    0.88916E-04   -0.34336E-04   120   0.578E-02    0.109E-02
DAV:   4    -0.100102979787E+03   -0.47546E-05   -0.51915E-05   132   0.233E-02    0.868E-03
DAV:   5    -0.100102979967E+03   -0.18009E-06   -0.14947E-06   132   0.401E-03
 131 F= -.10010298E+03 E0= -.10010298E+03  d E =-.445121E-11
       N       E                     dE             d eps       ncg     rms          rms(c)
DAV:   1    -0.100102565501E+03    0.41429E-03   -0.26159E-01    96   0.134E+00    0.109E-01
DAV:   2    -0.100102509927E+03    0.55574E-04   -0.97702E-04   108   0.955E-02    0.634E-02
DAV:   3    -0.100102463497E+03    0.46430E-04   -0.16925E-04   120   0.399E-02    0.832E-03
DAV:   4    -0.100102465776E+03   -0.22795E-05   -0.25605E-05   132   0.164E-02    0.629E-03
DAV:   5    -0.100102466002E+03   -0.22535E-06   -0.67799E-07    96   0.297E-03
 132 F= -.10010247E+03 E0= -.10010247E+03  d E =-.434454E-11
       N       E                     dE             d eps       ncg     rms          rms(c)
DAV:   1    -0.100102915572E+03   -0.44980E-03   -0.52720E-01    96   0.187E+00    0.167E-01
DAV:   2    -0.100102813399E+03    0.10217E-03   -0.24299E-03   120   0.142E-01    0.947E-02
DAV:   3    -0.100102703453E+03    0.10995E-03   -0.37760E-04   120   0.536E-02    0.167E-02
DAV:   4    -0.100102706190E+03   -0.27372E-05   -0.54323E-05   144   0.223E-02    0.876E-03
DAV:   5    -0.100102705796E+03    0.39382E-06   -0.24495E-06   132   0.526E-03
 133 F= -.10010271E+03 E0= -.10010271E+03  d E =-.459103E-11
       N       E                     dE             d eps       ncg     rms          rms(c)
DAV:   1    -0.100102570091E+03    0.13610E-03   -0.27055E-01    96   0.178E+00    0.142E-01
DAV:   2    -0.100102501921E+03    0.68171E-04   -0.17446E-03   120   0.137E-01    0.776E-02
DAV:   3    -0.100102431618E+03    0.70303E-04   -0.18641E-04   120   0.396E-02    0.212E-02
DAV:   4    -0.100102431812E+03   -0.19455E-06   -0.39685E-05   132   0.184E-02    0.691E-03
DAV:   5    -0.100102431100E+03    0.71234E-06   -0.23528E-06   120   0.561E-03
 134 F= -.10010243E+03 E0= -.10010243E+03  d E =-.508662E-11
       N       E                     dE             d eps       ncg     rms          rms(c)
DAV:   1    -0.100102763660E+03   -0.33185E-03   -0.55251E-01    96   0.251E+00    0.232E-01
DAV:   2    -0.100102400047E+03    0.36361E-03   -0.30133E-03   132   0.177E-01    0.121E-01
DAV:   3    -0.100102185187E+03    0.21486E-03   -0.50355E-04   132   0.611E-02    0.355E-02
DAV:   4    -0.100102180635E+03    0.45516E-05   -0.92306E-05   132   0.284E-02    0.120E-02
DAV:   5    -0.100102180796E+03   -0.16106E-06   -0.54401E-06   132   0.909E-03
 135 F= -.10010218E+03 E0= -.10010218E+03  d E =-.923880E-10
       N       E                     dE             d eps       ncg     rms          rms(c)
DAV:   1    -0.100101721247E+03    0.45939E-03   -0.28979E-01   108   0.177E+00    0.212E-01
DAV:   2    -0.100101460852E+03    0.26040E-03   -0.23305E-03   120   0.158E-01    0.102E-01
DAV:   3    -0.100101320023E+03    0.14083E-03   -0.39169E-04   132   0.574E-02    0.362E-02
DAV:   4    -0.100101319384E+03    0.63986E-06   -0.10486E-04   120   0.303E-02    0.141E-02
DAV:   5    -0.100101317969E+03    0.14145E-05   -0.51323E-06   132   0.869E-03    0.610E-03
DAV:   6    -0.100101318056E+03   -0.87402E-07   -0.24436E-06   120   0.536E-03
 136 F= -.10010132E+03 E0= -.10010132E+03  d E =-.445518E-11
       N       E                     dE             d eps       ncg     rms          rms(c)
DAV:   1    -0.100102073763E+03   -0.75579E-03   -0.57309E-01   108   0.245E+00    0.271E-01
DAV:   2    -0.100101503626E+03    0.57014E-03   -0.42544E-03   120   0.224E-01    0.137E-01
DAV:   3    -0.100101205546E+03    0.29808E-03   -0.81295E-04   132   0.858E-02    0.438E-02
DAV:   4    -0.100101207952E+03   -0.24062E-05   -0.20042E-04   132   0.432E-02    0.199E-02
DAV:   5    -0.100101206995E+03    0.95697E-06   -0.74272E-06   132   0.106E-02
 137 F= -.10010121E+03 E0= -.10010121E+03  d E =-.479065E-11
       N       E                     dE             d eps       ncg     rms          rms(c)
DAV:   1    -0.100102999021E+03   -0.17911E-02   -0.28847E-01   108   0.182E+00    0.202E-01
DAV:   2    -0.100102723397E+03    0.27562E-03   -0.22240E-03   132   0.162E-01    0.100E-01
DAV:   3    -0.100102583619E+03    0.13978E-03   -0.39614E-04   132   0.591E-02    0.325E-02
DAV:   4    -0.100102585715E+03   -0.20967E-05   -0.10070E-04   132   0.300E-02    0.133E-02
DAV:   5    -0.100102584594E+03    0.11213E-05   -0.43796E-06   132   0.841E-03    0.511E-03
DAV:   6    -0.100102584942E+03   -0.34822E-06   -0.23883E-06   132   0.517E-03
 138 F= -.10010258E+03 E0= -.10010258E+03  d E =-.939790E-10
       N       E                     dE             d eps       ncg     rms          rms(c)
DAV:   1    -0.100102891863E+03   -0.30727E-03   -0.54924E-01    96   0.248E+00    0.226E-01
DAV:   2    -0.100102547567E+03    0.34430E-03   -0.31203E-03   132   0.189E-01    0.120E-01
DAV:   3    -0.100102346225E+03    0.20134E-03   -0.51299E-04   132   0.651E-02    0.324E-02
DAV:   4    -0.100102348833E+03   -0.26076E-05   -0.88781E-05   132   0.287E-02    0.120E-02
DAV:   5    -0.100102349176E+03   -0.34274E-06   -0.48711E-06   132   0.850E-03
 139 F= -.10010235E+03 E0= -.10010235E+03  d E =-.540468E-11
       N       E                     dE             d eps       ncg     rms          rms(c)
DAV:   1    -0.100102375332E+03   -0.26499E-04   -0.27662E-01    96   0.179E+00    0.168E-01
DAV:   2    -0.100102258391E+03    0.11694E-03   -0.18652E-03   120   0.137E-01    0.874E-02
DAV:   3    -0.100102166772E+03    0.91620E-04   -0.25458E-04   120   0.416E-02    0.269E-02
DAV:   4    -0.100102163327E+03    0.34449E-05   -0.36427E-05   120   0.169E-02    0.972E-03
DAV:   5    -0.100102161728E+03    0.15986E-05   -0.26909E-06   132   0.690E-03    0.407E-03
DAV:   6    -0.100102161888E+03   -0.16007E-06   -0.18744E-06   120   0.460E-03
 140 F= -.10010216E+03 E0= -.10010216E+03  d E =-.477412E-11
       N       E                     dE             d eps       ncg     rms          rms(c)
DAV:   1    -0.100102522177E+03   -0.36045E-03   -0.55641E-01    96   0.252E+00    0.244E-01
DAV:   2    -0.100102125762E+03    0.39642E-03   -0.32490E-03   120   0.184E-01    0.125E-01
DAV:   3    -0.100101901124E+03    0.22464E-03   -0.54730E-04   132   0.638E-02    0.387E-02
DAV:   4    -0.100101893266E+03    0.78580E-05   -0.10967E-04   132   0.308E-02    0.134E-02
DAV:   5    -0.100101893002E+03    0.26383E-06   -0.62551E-06   132   0.101E-02
 141 F= -.10010189E+03 E0= -.10010189E+03  d E =-.927363E-10
       N       E                     dE             d eps       ncg     rms          rms(c)
DAV:   1    -0.100101160083E+03    0.73318E-03   -0.27217E-01    96   0.172E+00    0.138E-01
DAV:   2    -0.100101025301E+03    0.13478E-03   -0.14401E-03   132   0.124E-01    0.785E-02
DAV:   3    -0.100100939265E+03    0.86036E-04   -0.25939E-04   120   0.484E-02    0.162E-02
DAV:   4    -0.100100943949E+03   -0.46837E-05   -0.44758E-05   132   0.213E-02    0.810E-03
DAV:   5    -0.100100944731E+03   -0.78202E-06   -0.11885E-06   120   0.422E-03
 142 F= -.10010094E+03 E0= -.10010094E+03  d E =-.484117E-11
       N       E                     dE             d eps       ncg     rms          rms(c)
DAV:   1    -0.100101940881E+03   -0.99693E-03   -0.57964E-01   108   0.261E+00    0.285E-01
DAV:   2    -0.100101377586E+03    0.56330E-03   -0.45320E-03   120   0.232E-01    0.142E-01
DAV:   3    -0.100101069465E+03    0.30812E-03   -0.82966E-04   132   0.861E-02    0.464E-02
DAV:   4    -0.100101070450E+03   -0.98493E-06   -0.21379E-04   132   0.434E-02    0.189E-02
DAV:   5    -0.100101067955E+03    0.24947E-05   -0.85935E-06   132   0.113E-02    0.799E-03
DAV:   6    -0.100101068195E+03   -0.24037E-06   -0.48077E-06   132   0.744E-03
 143 F= -.10010107E+03 E0= -.10010107E+03  d E =-.425763E-11
       N       E                     dE             d eps       ncg     rms          rms(c)
DAV:   1    -0.100103398836E+03   -0.23309E-02   -0.28151E-01    96   0.172E+00    0.167E-01
DAV:   2    -0.100103176327E+03    0.22251E-03   -0.18191E-03   120   0.146E-01    0.896E-02
DAV:   3    -0.100103060014E+03    0.11631E-03   -0.34067E-04   132   0.570E-02    0.247E-02
DAV:   4    -0.100103065544E+03   -0.55302E-05   -0.76836E-05   132   0.273E-02    0.119E-02
DAV:   5    -0.100103065631E+03   -0.87351E-07   -0.26982E-06   132   0.641E-03
 144 F= -.10010307E+03 E0= -.10010307E+03  d E =-.440723E-11
       N       E                     dE             d eps       ncg     rms          rms(c)
DAV:   1    -0.100103358516E+03   -0.29297E-03   -0.54302E-01    96   0.249E+00    0.200E-01
DAV:   2    -0.100103066537E+03    0.29198E-03   -0.26540E-03   120   0.167E-01    0.112E-01
DAV:   3    -0.100102895209E+03    0.17133E-03   -0.47077E-04   144   0.624E-02    0.220E-02
DAV:   4    -0.100102901198E+03   -0.59896E-05   -0.68991E-05   132   0.254E-02    0.887E-03
DAV:   5    -0.100102901705E+03   -0.50652E-06   -0.28141E-06   132   0.592E-03
 145 F= -.10010290E+03 E0= -.10010290E+03  d E =-.529948E-11
       N       E                     dE             d eps       ncg     rms          rms(c)
DAV:   1    -0.100102386340E+03    0.51486E-03   -0.27057E-01    96   0.200E+00    0.134E-01
DAV:   2    -0.100102327111E+03    0.59228E-04   -0.18706E-03   132   0.159E-01    0.761E-02
DAV:   3    -0.100102251289E+03    0.75823E-04   -0.23510E-04   120   0.508E-02    0.178E-02
DAV:   4    -0.100102255209E+03   -0.39203E-05   -0.52848E-05   132   0.234E-02    0.756E-03
DAV:   5    -0.100102255088E+03    0.12072E-06   -0.15549E-06   108   0.515E-03
 146 F= -.10010226E+03 E0= -.10010226E+03  d E =-.468803E-11
       N       E                     dE             d eps       ncg     rms          rms(c)
DAV:   1    -0.100102493102E+03   -0.23789E-03   -0.53592E-01   108   0.254E+00    0.178E-01
DAV:   2    -0.100102350126E+03    0.14298E-03   -0.31480E-03   120   0.191E-01    0.100E-01
DAV:   3    -0.100102195323E+03    0.15480E-03   -0.45039E-04   120   0.675E-02    0.218E-02
DAV:   4    -0.100102199526E+03   -0.42036E-05   -0.10553E-04   132   0.327E-02    0.109E-02
DAV:   5    -0.100102198590E+03    0.93621E-06   -0.26652E-06   132   0.604E-03
 147 F= -.10010220E+03 E0= -.10010220E+03  d E =-.915692E-10
       N       E                     dE             d eps       ncg     rms          rms(c)
DAV:   1    -0.100101048131E+03    0.11514E-02   -0.26422E-01    96   0.178E+00    0.112E-01
DAV:   2    -0.100100981773E+03    0.66359E-04   -0.10189E-03   120   0.108E-01    0.640E-02
DAV:   3    -0.100100923420E+03    0.58352E-04   -0.17183E-04   132   0.395E-02    0.103E-02
DAV:   4    -0.100100926216E+03   -0.27958E-05   -0.25844E-05   132   0.168E-02    0.564E-03
DAV:   5    -0.100100927753E+03   -0.15371E-05   -0.10754E-06   108   0.366E-03    0.348E-03
DAV:   6    -0.100100931071E+03   -0.33181E-05   -0.90847E-07   120   0.316E-03    0.701E-04
DAV:   7    -0.100100933071E+03   -0.19996E-05   -0.20590E-07   108   0.160E-03    0.578E-04
DAV:   8    -0.100100936587E+03   -0.35158E-05   -0.21717E-07    96   0.153E-03    0.286E-04
DAV:   9    -0.100100938489E+03   -0.19022E-05   -0.12085E-07   108   0.979E-04    0.232E-04
DAV:  10    -0.100100940762E+03   -0.22734E-05   -0.84519E-08    96   0.677E-04    0.108E-04
DAV:  11    -0.100100941608E+03   -0.84549E-06   -0.23552E-08   108   0.359E-04
 148 F= -.10010094E+03 E0= -.10010094E+03  d E =-.930008E-10
       N       E                     dE             d eps       ncg     rms          rms(c)
DAV:   1    -0.100101527867E+03   -0.58710E-03   -0.54443E-01   108   0.259E+00    0.204E-01
DAV:   2    -0.100101410833E+03    0.11703E-03   -0.40109E-03   120   0.218E-01    0.111E-01
DAV:   3    -0.100101218871E+03    0.19196E-03   -0.51779E-04   132   0.635E-02    0.301E-02
DAV:   4    -0.100101208654E+03    0.10217E-04   -0.93584E-05   120   0.281E-02    0.111E-02
DAV:   5    -0.100101205830E+03    0.28243E-05   -0.68633E-06   132   0.102E-02    0.499E-03
DAV:   6    -0.100101208516E+03   -0.26862E-05   -0.46475E-06   120   0.740E-03    0.200E-03
DAV:   7    -0.100101213253E+03   -0.47374E-05   -0.11990E-06   120   0.379E-03    0.137E-03
DAV:   8    -0.100101218793E+03   -0.55395E-05   -0.33026E-07    96   0.201E-03    0.730E-04
DAV:   9    -0.100101224664E+03   -0.58711E-05   -0.33289E-07   108   0.152E-03    0.365E-04
DAV:  10    -0.100101230745E+03   -0.60817E-05   -0.33470E-07    96   0.128E-03    0.243E-04
DAV:  11    -0.100101233618E+03   -0.28729E-05   -0.69504E-08   108   0.685E-04    0.139E-04
DAV:  12    -0.100101235857E+03   -0.22386E-05   -0.34619E-08    96   0.428E-04    0.984E-05
DAV:  13    -0.100101236959E+03   -0.11021E-05   -0.12369E-08   108   0.296E-04    0.440E-05
DAV:  14    -0.100101237790E+03   -0.83063E-06   -0.43384E-09    84   0.209E-04
 149 F= -.10010124E+03 E0= -.10010124E+03  d E =-.432574E-11
       N       E                     dE             d eps       ncg     rms          rms(c)
DAV:   1    -0.100103124021E+03   -0.18871E-02   -0.26608E-01   108   0.182E+00    0.128E-01
DAV:   2    -0.100103040035E+03    0.83986E-04   -0.14573E-03   120   0.133E-01    0.713E-02
DAV:   3    -0.100102966638E+03    0.73397E-04   -0.21654E-04   132   0.437E-02    0.155E-02
DAV:   4    -0.100102967217E+03   -0.57922E-06   -0.36710E-05   132   0.192E-02    0.719E-03
DAV:   5    -0.100102967735E+03   -0.51727E-06   -0.18548E-06   132   0.484E-03
 150 F= -.10010297E+03 E0= -.10010297E+03  d E =-.550585E-11
       N       E                     dE             d eps       ncg     rms          rms(c)
DAV:   1    -0.100103282221E+03   -0.31500E-03   -0.52785E-01    96   0.253E+00    0.159E-01
DAV:   2    -0.100103151857E+03    0.13036E-03   -0.20369E-03   120   0.155E-01    0.920E-02
DAV:   3    -0.100103041022E+03    0.11084E-03   -0.38029E-04   132   0.599E-02    0.118E-02
DAV:   4    -0.100103047789E+03   -0.67679E-05   -0.57401E-05   132   0.247E-02    0.725E-03
DAV:   5    -0.100103049087E+03   -0.12978E-05   -0.17264E-06   108   0.474E-03    0.479E-03
DAV:   6    -0.100103053109E+03   -0.40219E-05   -0.18849E-06   120   0.445E-03    0.872E-04
DAV:   7    -0.100103055654E+03   -0.25445E-05   -0.44395E-07   108   0.222E-03    0.812E-04
DAV:   8    -0.100103058975E+03   -0.33214E-05   -0.18219E-07   108   0.156E-03    0.440E-04
DAV:   9    -0.100103062602E+03   -0.36270E-05   -0.21993E-07   108   0.150E-03    0.247E-04
DAV:  10    -0.100103065398E+03   -0.27956E-05   -0.15137E-07    96   0.993E-04    0.148E-04
DAV:  11    -0.100103066470E+03   -0.10726E-05   -0.30383E-08   108   0.448E-04    0.925E-05
DAV:  12    -0.100103067178E+03   -0.70804E-06   -0.11068E-08    96   0.289E-04
 151 F= -.10010307E+03 E0= -.10010307E+03  d E =-.773793E-10
       N       E                     dE             d eps       ncg     rms          rms(c)
DAV:   1    -0.100100999369E+03    0.20671E-02   -0.26741E-01    96   0.194E+00    0.130E-01
DAV:   2    -0.100100942679E+03    0.56690E-04   -0.19229E-03   120   0.159E-01    0.713E-02
DAV:   3    -0.100100863295E+03    0.79384E-04   -0.22749E-04   132   0.499E-02    0.182E-02
DAV:   4    -0.100100865084E+03   -0.17891E-05   -0.58549E-05   132   0.238E-02    0.739E-03
DAV:   5    -0.100100865367E+03   -0.28388E-06   -0.23479E-06   132   0.549E-03
 152 F= -.10010087E+03 E0= -.10010087E+03  d E =-.438557E-11
       N       E                     dE             d eps       ncg     rms          rms(c)
DAV:   1    -0.100101092398E+03   -0.22731E-03   -0.54655E-01    96   0.263E+00    0.207E-01
DAV:   2    -0.100100984499E+03    0.10790E-03   -0.45415E-03   132   0.238E-01    0.114E-01
DAV:   3    -0.100100774466E+03    0.21003E-03   -0.59590E-04   120   0.768E-02    0.303E-02
DAV:   4    -0.100100775209E+03   -0.74275E-06   -0.15448E-04   132   0.379E-02    0.128E-02
DAV:   5    -0.100100772757E+03    0.24522E-05   -0.52451E-06   120   0.912E-03    0.715E-03
DAV:   6    -0.100100773361E+03   -0.60475E-06   -0.49357E-06   132   0.856E-03
 153 F= -.10010077E+03 E0= -.10010077E+03  d E =-.492442E-11
       N       E                     dE             d eps       ncg     rms          rms(c)
DAV:   1    -0.100103069940E+03   -0.22972E-02   -0.26915E-01    96   0.187E+00    0.139E-01
DAV:   2    -0.100103014071E+03    0.55869E-04   -0.18973E-03   120   0.152E-01    0.762E-02
DAV:   3    -0.100102937967E+03    0.76104E-04   -0.24483E-04   120   0.446E-02    0.198E-02
DAV:   4    -0.100102936989E+03    0.97720E-06   -0.40633E-05   132   0.192E-02    0.839E-03
DAV:   5    -0.100102936089E+03    0.90059E-06   -0.27217E-06   120   0.626E-03
 154 F= -.10010294E+03 E0= -.10010294E+03  d E =-.504449E-11
       N       E                     dE             d eps       ncg     rms          rms(c)
DAV:   1    -0.100103191371E+03   -0.25438E-03   -0.53182E-01    96   0.255E+00    0.161E-01
DAV:   2    -0.100103080531E+03    0.11084E-03   -0.20745E-03   120   0.156E-01    0.922E-02
DAV:   3    -0.100102972904E+03    0.10763E-03   -0.35999E-04   120   0.575E-02    0.142E-02
DAV:   4    -0.100102976120E+03   -0.32150E-05   -0.52357E-05   132   0.236E-02    0.760E-03
DAV:   5    -0.100102975482E+03    0.63708E-06   -0.18062E-06   120   0.491E-03
 155 F= -.10010298E+03 E0= -.10010298E+03  d E =-.439115E-11
       N       E                     dE             d eps       ncg     rms          rms(c)
DAV:   1    -0.100102548742E+03    0.42738E-03   -0.26420E-01    96   0.183E+00    0.116E-01
DAV:   2    -0.100102483907E+03    0.64836E-04   -0.11245E-03   132   0.119E-01    0.666E-02
DAV:   3    -0.100102434191E+03    0.49715E-04   -0.18667E-04   132   0.456E-02    0.922E-03
DAV:   4    -0.100102438118E+03   -0.39263E-05   -0.34184E-05   132   0.194E-02    0.604E-03
DAV:   5    -0.100102438484E+03   -0.36587E-06   -0.75587E-07   108   0.336E-03
 156 F= -.10010244E+03 E0= -.10010244E+03  d E =-.498200E-11
       N       E                     dE             d eps       ncg     rms          rms(c)
DAV:   1    -0.100102857557E+03   -0.41944E-03   -0.52748E-01    96   0.263E+00    0.172E-01
DAV:   2    -0.100102761628E+03    0.95929E-04   -0.27530E-03   120   0.186E-01    0.974E-02
DAV:   3    -0.100102629994E+03    0.13163E-03   -0.37797E-04   120   0.600E-02    0.195E-02
DAV:   4    -0.100102631415E+03   -0.14208E-05   -0.63647E-05   132   0.254E-02    0.923E-03
DAV:   5    -0.100102631493E+03   -0.78153E-07   -0.30002E-06   120   0.617E-03
 157 F= -.10010263E+03 E0= -.10010263E+03  d E =-.446389E-11
