       N       E                     dE             d eps       ncg     rms          rms(c)
DAV:   1     0.203863102883E+03    0.20386E+03   -0.10484E+04   116   0.546E+02
DAV:   2    -0.252840927683E+02   -0.22915E+03   -0.21465E+03   136   0.103E+02
DAV:   3    -0.101407001503E+03   -0.76123E+02   -0.75946E+02   112   0.560E+01
DAV:   4    -0.105831043530E+03   -0.44240E+01   -0.44065E+01   104   0.188E+01
DAV:   5    -0.105908898036E+03   -0.77855E-01   -0.77780E-01   136   0.278E+00    0.148E+01
DAV:   6    -0.102709390372E+03    0.31995E+01   -0.16056E+00   112   0.458E+00    0.857E+00
DAV:   7    -0.101034406202E+03    0.16750E+01   -0.40514E+00   104   0.671E+00    0.121E+00
DAV:   8    -0.100982036159E+03    0.52370E-01   -0.26543E-01   104   0.218E+00    0.611E-01
DAV:   9    -0.100946092309E+03    0.35944E-01   -0.79054E-02   120   0.793E-01    0.325E-01
DAV:  10    -0.100946321139E+03   -0.22883E-03   -0.28953E-03   112   0.222E-01    0.160E-01
DAV:  11    -0.100946424805E+03   -0.10367E-03   -0.63456E-03   104   0.238E-01    0.785E-02
DAV:  12    -0.100950650005E+03   -0.42252E-02   -0.11428E-03   104   0.994E-02    0.555E-02
DAV:  13    -0.100955308498E+03   -0.46585E-02   -0.18485E-03   104   0.108E-01    0.335E-02
DAV:  14    -0.100959692414E+03   -0.43839E-02   -0.38048E-04   112   0.568E-02    0.150E-02
DAV:  15    -0.100963982175E+03   -0.42898E-02   -0.52084E-04   112   0.595E-02    0.141E-02
DAV:  16    -0.100964807081E+03   -0.82491E-03   -0.38565E-05   112   0.185E-02    0.611E-03
DAV:  17    -0.100965896079E+03   -0.10890E-02   -0.91205E-05   104   0.228E-02    0.299E-03
DAV:  18    -0.100966151899E+03   -0.25582E-03   -0.79354E-06   104   0.778E-03    0.173E-03
DAV:  19    -0.100966325775E+03   -0.17388E-03   -0.63524E-06    96   0.616E-03    0.151E-03
DAV:  20    -0.100966381347E+03   -0.55572E-04   -0.10498E-06    88   0.338E-03    0.543E-04
DAV:  21    -0.100966408544E+03   -0.27198E-04   -0.89650E-07    80   0.238E-03    0.547E-04
DAV:  22    -0.100966415711E+03   -0.71666E-05   -0.18631E-07    88   0.138E-03    0.191E-04
DAV:  23    -0.100966419143E+03   -0.34317E-05   -0.79172E-08    80   0.756E-04    0.168E-04
DAV:  24    -0.100966421553E+03   -0.24099E-05   -0.33727E-08    80   0.508E-04    0.772E-05
DAV:  25    -0.100966422112E+03   -0.55944E-06   -0.11751E-08    88   0.289E-04
   1 F= -.10096642E+03 E0= -.10096642E+03  d E =-.100966E+03
       N       E                     dE             d eps       ncg     rms          rms(c)
DAV:   1    -0.101127420633E+03   -0.16100E+00   -0.65713E+00    84   0.107E+01    0.116E+00
DAV:   2    -0.101154267346E+03   -0.26847E-01   -0.33145E-01   120   0.230E+00    0.577E-01
DAV:   3    -0.101149773290E+03    0.44941E-02   -0.12781E-02   120   0.465E-01    0.290E-01
DAV:   4    -0.101148877377E+03    0.89591E-03   -0.66893E-03   112   0.296E-01    0.691E-02
DAV:   5    -0.101148696163E+03    0.18121E-03   -0.63909E-04   120   0.111E-01    0.425E-02
DAV:   6    -0.101148713412E+03   -0.17250E-04   -0.14508E-04   112   0.454E-02    0.244E-02
DAV:   7    -0.101148849891E+03   -0.13648E-03   -0.50355E-05   112   0.328E-02    0.749E-03
DAV:   8    -0.101148934888E+03   -0.84997E-04   -0.24700E-05   112   0.208E-02    0.872E-03
DAV:   9    -0.101149006859E+03   -0.71971E-04   -0.47546E-06   112   0.824E-03    0.672E-03
DAV:  10    -0.101149183984E+03   -0.17713E-03   -0.15471E-05   104   0.943E-03    0.359E-03
DAV:  11    -0.101149220946E+03   -0.36962E-04   -0.11016E-06    96   0.356E-03    0.249E-03
DAV:  12    -0.101149303647E+03   -0.82701E-04   -0.52777E-06   104   0.648E-03    0.189E-03
DAV:  13    -0.101149320720E+03   -0.17073E-04   -0.70000E-07    88   0.339E-03    0.692E-04
DAV:  14    -0.101149341353E+03   -0.20633E-04   -0.40764E-07    88   0.197E-03    0.668E-04
DAV:  15    -0.101149357410E+03   -0.16057E-04   -0.44613E-07    88   0.159E-03    0.524E-04
DAV:  16    -0.101149364073E+03   -0.66628E-05   -0.96831E-08    88   0.803E-04    0.150E-04
DAV:  17    -0.101149366233E+03   -0.21601E-05   -0.36177E-08    88   0.502E-04    0.276E-04
DAV:  18    -0.101149368008E+03   -0.17747E-05   -0.28177E-08    80   0.511E-04    0.132E-04
DAV:  19    -0.101149368327E+03   -0.31884E-06   -0.63912E-09    88   0.231E-04
   2 F= -.10114937E+03 E0= -.10114937E+03  d E =-.182946E+00
       N       E                     dE             d eps       ncg     rms          rms(c)
DAV:   1    -0.101150458677E+03   -0.10907E-02   -0.35189E-02    84   0.788E-01    0.803E-02
DAV:   2    -0.101150593316E+03   -0.13464E-03   -0.17742E-03   120   0.168E-01    0.438E-02
DAV:   3    -0.101150564093E+03    0.29223E-04   -0.73881E-05   120   0.354E-02    0.213E-02
DAV:   4    -0.101150554992E+03    0.91008E-05   -0.36373E-05   112   0.219E-02    0.573E-03
DAV:   5    -0.101150553374E+03    0.16181E-05   -0.32318E-06   112   0.801E-03    0.316E-03
DAV:   6    -0.101150554672E+03   -0.12981E-05   -0.87713E-07    80   0.366E-03    0.159E-03
DAV:   7    -0.101150557984E+03   -0.33120E-05   -0.39529E-07    78   0.276E-03    0.501E-04
DAV:   8    -0.101150560061E+03   -0.20768E-05   -0.21635E-07    88   0.176E-03    0.669E-04
DAV:   9    -0.101150562061E+03   -0.19997E-05   -0.80628E-08    88   0.960E-04    0.318E-04
DAV:  10    -0.101150565375E+03   -0.33139E-05   -0.25338E-07    80   0.111E-03    0.264E-04
DAV:  11    -0.101150566047E+03   -0.67220E-06   -0.26743E-08    88   0.472E-04
   3 F= -.10115057E+03 E0= -.10115057E+03  d E =-.184144E+00
       N       E                     dE             d eps       ncg     rms          rms(c)
DAV:   1    -0.101183400740E+03   -0.32835E-01   -0.96930E-01    86   0.418E+00    0.416E-01
DAV:   2    -0.101188039731E+03   -0.46390E-02   -0.54786E-02   120   0.860E-01    0.190E-01
DAV:   3    -0.101187661747E+03    0.37798E-03   -0.22812E-03   120   0.190E-01    0.103E-01
DAV:   4    -0.101187603785E+03    0.57962E-04   -0.62567E-04   112   0.955E-02    0.336E-02
DAV:   5    -0.101187593120E+03    0.10664E-04   -0.71476E-05   120   0.372E-02    0.186E-02
DAV:   6    -0.101187598277E+03   -0.51565E-05   -0.14950E-05   112   0.165E-02    0.999E-03
DAV:   7    -0.101187621928E+03   -0.23651E-04   -0.83990E-06   104   0.122E-02    0.245E-03
DAV:   8    -0.101187632593E+03   -0.10665E-04   -0.23280E-06   104   0.635E-03    0.278E-03
DAV:   9    -0.101187640041E+03   -0.74484E-05   -0.26765E-07    88   0.191E-03    0.164E-03
DAV:  10    -0.101187665029E+03   -0.24987E-04   -0.25528E-06    96   0.444E-03    0.121E-03
DAV:  11    -0.101187670188E+03   -0.51595E-05   -0.35326E-07    88   0.203E-03    0.854E-04
DAV:  12    -0.101187676849E+03   -0.66604E-05   -0.29962E-07    80   0.152E-03    0.275E-04
DAV:  13    -0.101187680935E+03   -0.40865E-05   -0.18728E-07    88   0.106E-03    0.283E-04
DAV:  14    -0.101187683267E+03   -0.23317E-05   -0.64728E-08    88   0.776E-04    0.179E-04
DAV:  15    -0.101187684543E+03   -0.12756E-05   -0.54659E-08    88   0.572E-04    0.135E-04
DAV:  16    -0.101187684877E+03   -0.33465E-06   -0.65372E-09    88   0.257E-04
   4 F= -.10118768E+03 E0= -.10118768E+03  d E =-.371188E-01
       N       E                     dE             d eps       ncg     rms          rms(c)
DAV:   1    -0.101188513660E+03   -0.82912E-03   -0.35203E-02    86   0.797E-01    0.772E-02
DAV:   2    -0.101188681865E+03   -0.16820E-03   -0.20052E-03   120   0.164E-01    0.365E-02
DAV:   3    -0.101188668620E+03    0.13245E-04   -0.85670E-05   120   0.368E-02    0.196E-02
DAV:   4    -0.101188666419E+03    0.22013E-05   -0.22884E-05   104   0.182E-02    0.677E-03
DAV:   5    -0.101188664793E+03    0.16263E-05   -0.25098E-06   112   0.701E-03    0.352E-03
DAV:   6    -0.101188664573E+03    0.21914E-06   -0.53456E-07    96   0.325E-03
   5 F= -.10118866E+03 E0= -.10118866E+03  d E =-.380985E-01
       N       E                     dE             d eps       ncg     rms          rms(c)
DAV:   1    -0.101198477080E+03   -0.98123E-02   -0.24512E-01    84   0.228E+00    0.162E-01
DAV:   2    -0.101198950933E+03   -0.47385E-03   -0.79377E-03   120   0.343E-01    0.865E-02
DAV:   3    -0.101198865300E+03    0.85632E-04   -0.34146E-04   120   0.714E-02    0.466E-02
DAV:   4    -0.101198842216E+03    0.23085E-04   -0.11582E-04   112   0.360E-02    0.117E-02
DAV:   5    -0.101198839317E+03    0.28984E-05   -0.97309E-06   112   0.129E-02    0.762E-03
DAV:   6    -0.101198842878E+03   -0.35609E-05   -0.31653E-06    96   0.785E-03    0.265E-03
DAV:   7    -0.101198851881E+03   -0.90031E-05   -0.20314E-06    88   0.501E-03    0.150E-03
DAV:   8    -0.101198860588E+03   -0.87073E-05   -0.38160E-07    88   0.216E-03    0.821E-04
DAV:   9    -0.101198871993E+03   -0.11404E-04   -0.64409E-07    80   0.188E-03    0.458E-04
DAV:  10    -0.101198879401E+03   -0.74080E-05   -0.39761E-07    88   0.144E-03    0.316E-04
DAV:  11    -0.101198885867E+03   -0.64665E-05   -0.35685E-07    88   0.131E-03    0.174E-04
DAV:  12    -0.101198887643E+03   -0.17757E-05   -0.53912E-08    88   0.648E-04    0.107E-04
DAV:  13    -0.101198889450E+03   -0.18070E-05   -0.59470E-08    80   0.569E-04    0.873E-05
DAV:  14    -0.101198889961E+03   -0.51083E-06   -0.14142E-08    88   0.294E-04
   6 F= -.10119889E+03 E0= -.10119889E+03  d E =-.102254E-01
       N       E                     dE             d eps       ncg     rms          rms(c)
DAV:   1    -0.101201089284E+03   -0.21998E-02   -0.15432E-01    84   0.181E+00    0.129E-01
DAV:   2    -0.101201394092E+03   -0.30481E-03   -0.50393E-03   120   0.274E-01    0.689E-02
DAV:   3    -0.101201340361E+03    0.53732E-04   -0.21405E-04   120   0.567E-02    0.372E-02
DAV:   4    -0.101201324545E+03    0.15815E-04   -0.73262E-05   112   0.287E-02    0.929E-03
DAV:   5    -0.101201321810E+03    0.27350E-05   -0.62020E-06   112   0.103E-02    0.604E-03
DAV:   6    -0.101201323228E+03   -0.14173E-05   -0.19727E-06    96   0.621E-03    0.210E-03
DAV:   7    -0.101201328639E+03   -0.54118E-05   -0.12144E-06    80   0.397E-03    0.110E-03
DAV:   8    -0.101201334660E+03   -0.60204E-05   -0.30116E-07    80   0.191E-03    0.649E-04
DAV:   9    -0.101201342183E+03   -0.75235E-05   -0.39279E-07    80   0.153E-03    0.332E-04
DAV:  10    -0.101201347788E+03   -0.56048E-05   -0.29765E-07    88   0.126E-03    0.225E-04
DAV:  11    -0.101201352009E+03   -0.42205E-05   -0.21280E-07    80   0.105E-03    0.157E-04
DAV:  12    -0.101201353054E+03   -0.10453E-05   -0.27343E-08    88   0.506E-04    0.809E-05
DAV:  13    -0.101201354299E+03   -0.12447E-05   -0.38606E-08    80   0.461E-04    0.636E-05
DAV:  14    -0.101201354630E+03   -0.33184E-06   -0.73389E-09    88   0.227E-04
   7 F= -.10120135E+03 E0= -.10120135E+03  d E =-.126901E-01
       N       E                     dE             d eps       ncg     rms          rms(c)
DAV:   1    -0.101208701521E+03   -0.73472E-02   -0.27136E-01    84   0.242E+00    0.151E-01
DAV:   2    -0.101208895431E+03   -0.19391E-03   -0.49016E-03   120   0.288E-01    0.811E-02
DAV:   3    -0.101208795276E+03    0.10015E-03   -0.34755E-04   128   0.780E-02    0.375E-02
DAV:   4    -0.101208799770E+03   -0.44939E-05   -0.14715E-04   120   0.452E-02    0.114E-02
DAV:   5    -0.101208800942E+03   -0.11719E-05   -0.12432E-05   112   0.146E-02    0.734E-03
DAV:   6    -0.101208801751E+03   -0.80913E-06   -0.13291E-06    88   0.452E-03
   8 F= -.10120880E+03 E0= -.10120880E+03  d E =-.744712E-02
       N       E                     dE             d eps       ncg     rms          rms(c)
DAV:   1    -0.101211128441E+03   -0.23275E-02   -0.26046E-01    84   0.237E+00    0.148E-01
DAV:   2    -0.101211313596E+03   -0.18515E-03   -0.47345E-03   120   0.283E-01    0.797E-02
DAV:   3    -0.101211217166E+03    0.96430E-04   -0.33238E-04   128   0.766E-02    0.369E-02
DAV:   4    -0.101211222454E+03   -0.52879E-05   -0.14275E-04   120   0.446E-02    0.111E-02
DAV:   5    -0.101211224905E+03   -0.24511E-05   -0.12561E-05   112   0.147E-02    0.721E-03
DAV:   6    -0.101211227451E+03   -0.25465E-05   -0.13143E-06    88   0.448E-03    0.241E-03
DAV:   7    -0.101211230579E+03   -0.31277E-05   -0.64064E-07    88   0.321E-03    0.674E-04
DAV:   8    -0.101211234598E+03   -0.40188E-05   -0.30829E-07    88   0.216E-03    0.731E-04
DAV:   9    -0.101211237977E+03   -0.33791E-05   -0.15502E-07    88   0.155E-03    0.253E-04
DAV:  10    -0.101211241683E+03   -0.37059E-05   -0.20824E-07    88   0.127E-03    0.232E-04
DAV:  11    -0.101211242804E+03   -0.11208E-05   -0.43605E-08    88   0.713E-04    0.109E-04
DAV:  12    -0.101211243804E+03   -0.10005E-05   -0.28929E-08    88   0.462E-04    0.726E-05
DAV:  13    -0.101211244398E+03   -0.59348E-06   -0.12456E-08    88   0.290E-04
   9 F= -.10121124E+03 E0= -.10121124E+03  d E =-.988977E-02
       N       E                     dE             d eps       ncg     rms          rms(c)
DAV:   1    -0.101216077881E+03   -0.48341E-02   -0.20669E-01    84   0.208E+00    0.124E-01
DAV:   2    -0.101216303619E+03   -0.22574E-03   -0.44081E-03   120   0.265E-01    0.682E-02
DAV:   3    -0.101216228936E+03    0.74683E-04   -0.24582E-04   128   0.624E-02    0.329E-02
DAV:   4    -0.101216217812E+03    0.11123E-04   -0.78694E-05   120   0.336E-02    0.840E-03
DAV:   5    -0.101216215355E+03    0.24569E-05   -0.89285E-06   120   0.132E-02    0.522E-03
DAV:   6    -0.101216215955E+03   -0.59999E-06   -0.19544E-06    96   0.611E-03
  10 F= -.10121622E+03 E0= -.10121622E+03  d E =-.497156E-02
       N       E                     dE             d eps       ncg     rms          rms(c)
DAV:   1    -0.101217985168E+03   -0.17698E-02   -0.41881E-01    84   0.296E+00    0.177E-01
DAV:   2    -0.101218444548E+03   -0.45938E-03   -0.89933E-03   120   0.379E-01    0.973E-02
DAV:   3    -0.101218288941E+03    0.15561E-03   -0.50067E-04   128   0.893E-02    0.472E-02
DAV:   4    -0.101218266559E+03    0.22382E-04   -0.15963E-04   120   0.482E-02    0.120E-02
DAV:   5    -0.101218265506E+03    0.10535E-05   -0.19005E-05   120   0.194E-02    0.757E-03
DAV:   6    -0.101218270538E+03   -0.50317E-05   -0.45604E-06   112   0.900E-03    0.420E-03
DAV:   7    -0.101218282638E+03   -0.12101E-04   -0.68797E-07    88   0.457E-03    0.114E-03
DAV:   8    -0.101218292628E+03   -0.99895E-05   -0.74342E-07    88   0.391E-03    0.117E-03
DAV:   9    -0.101218313550E+03   -0.20922E-04   -0.17704E-06    88   0.477E-03    0.738E-04
DAV:  10    -0.101218317810E+03   -0.42598E-05   -0.45606E-07    88   0.260E-03    0.580E-04
DAV:  11    -0.101218319431E+03   -0.16212E-05   -0.62753E-08    88   0.102E-03    0.397E-04
DAV:  12    -0.101218324641E+03   -0.52104E-05   -0.15548E-07    80   0.112E-03    0.151E-04
DAV:  13    -0.101218328379E+03   -0.37375E-05   -0.16651E-07    88   0.958E-04    0.205E-04
DAV:  14    -0.101218329968E+03   -0.15895E-05   -0.38665E-08    88   0.521E-04    0.119E-04
DAV:  15    -0.101218330454E+03   -0.48624E-06   -0.96243E-09    88   0.273E-04
  11 F= -.10121833E+03 E0= -.10121833E+03  d E =-.708606E-02
       N       E                     dE             d eps       ncg     rms          rms(c)
DAV:   1    -0.101220948163E+03   -0.26182E-02   -0.34134E-01    84   0.265E+00    0.162E-01
DAV:   2    -0.101221484435E+03   -0.53627E-03   -0.85957E-03   120   0.371E-01    0.950E-02
DAV:   3    -0.101221358759E+03    0.12568E-03   -0.40370E-04   128   0.848E-02    0.451E-02
DAV:   4    -0.101221354798E+03    0.39608E-05   -0.16818E-04   120   0.484E-02    0.122E-02
DAV:   5    -0.101221353825E+03    0.97246E-06   -0.15464E-05   112   0.170E-02    0.620E-03
DAV:   6    -0.101221354795E+03   -0.96983E-06   -0.34500E-06   112   0.710E-03
  12 F= -.10122135E+03 E0= -.10122135E+03  d E =-.302434E-02
       N       E                     dE             d eps       ncg     rms          rms(c)
DAV:   1    -0.101221389450E+03   -0.35625E-04   -0.61406E-03    84   0.356E-01    0.218E-02
DAV:   2    -0.101221399200E+03   -0.97500E-05   -0.15732E-04   120   0.503E-02    0.129E-02
DAV:   3    -0.101221397465E+03    0.17351E-05   -0.72723E-06   128   0.115E-02    0.619E-03
DAV:   4    -0.101221399265E+03   -0.17998E-05   -0.29648E-06    96   0.674E-03    0.161E-03
DAV:   5    -0.101221401415E+03   -0.21497E-05   -0.35688E-07    88   0.279E-03    0.833E-04
DAV:   6    -0.101221403494E+03   -0.20790E-05   -0.14689E-07    88   0.160E-03    0.443E-04
DAV:   7    -0.101221406407E+03   -0.29135E-05   -0.11856E-07    88   0.117E-03    0.205E-04
DAV:   8    -0.101221408236E+03   -0.18292E-05   -0.70598E-08    88   0.812E-04    0.193E-04
DAV:   9    -0.101221409992E+03   -0.17559E-05   -0.72268E-08    88   0.671E-04    0.743E-05
DAV:  10    -0.101221410549E+03   -0.55703E-06   -0.22938E-08    88   0.393E-04
  13 F= -.10122141E+03 E0= -.10122141E+03  d E =-.308009E-02
       N       E                     dE             d eps       ncg     rms          rms(c)
DAV:   1    -0.101223159892E+03   -0.17499E-02   -0.13339E-01    84   0.162E+00    0.119E-01
DAV:   2    -0.101223445864E+03   -0.28597E-03   -0.44582E-03   120   0.246E-01    0.633E-02
DAV:   3    -0.101223389483E+03    0.56380E-04   -0.18103E-04   120   0.520E-02    0.335E-02
DAV:   4    -0.101223377086E+03    0.12397E-04   -0.64686E-05   112   0.288E-02    0.877E-03
DAV:   5    -0.101223376901E+03    0.18526E-06   -0.57232E-06   112   0.104E-02
  14 F= -.10122338E+03 E0= -.10122338E+03  d E =-.196635E-02
       N       E                     dE             d eps       ncg     rms          rms(c)
DAV:   1    -0.101223394484E+03   -0.17397E-04   -0.17892E-03    88   0.188E-01    0.142E-02
DAV:   2    -0.101223398923E+03   -0.44390E-05   -0.65516E-05   120   0.297E-02    0.730E-03
DAV:   3    -0.101223398751E+03    0.17118E-06   -0.22395E-06    88   0.605E-03
  15 F= -.10122340E+03 E0= -.10122340E+03  d E =-.198820E-02
       N       E                     dE             d eps       ncg     rms          rms(c)
DAV:   1    -0.101223793342E+03   -0.39442E-03   -0.32355E-02    84   0.793E-01    0.648E-02
DAV:   2    -0.101223899100E+03   -0.10576E-03   -0.14590E-03   120   0.144E-01    0.351E-02
DAV:   3    -0.101223885137E+03    0.13963E-04   -0.56252E-05   120   0.305E-02    0.189E-02
DAV:   4    -0.101223883394E+03    0.17432E-05   -0.20272E-05   112   0.178E-02    0.468E-03
DAV:   5    -0.101223884029E+03   -0.63549E-06   -0.26663E-06   112   0.794E-03
  16 F= -.10122388E+03 E0= -.10122388E+03  d E =-.485278E-03
       N       E                     dE             d eps       ncg     rms          rms(c)
DAV:   1    -0.101223886559E+03   -0.31651E-05   -0.10380E-04    88   0.449E-02    0.360E-03
DAV:   2    -0.101223887914E+03   -0.13549E-05   -0.36079E-06   112   0.731E-03    0.232E-03
DAV:   3    -0.101223889158E+03   -0.12441E-05   -0.21334E-07    88   0.206E-03    0.115E-03
DAV:   4    -0.101223890927E+03   -0.17691E-05   -0.16515E-07    80   0.158E-03    0.292E-04
DAV:   5    -0.101223892442E+03   -0.15148E-05   -0.59337E-08    88   0.943E-04    0.190E-04
DAV:   6    -0.101223893843E+03   -0.14009E-05   -0.51228E-08    80   0.670E-04    0.117E-04
DAV:   7    -0.101223894910E+03   -0.10672E-05   -0.37394E-08    80   0.522E-04    0.752E-05
DAV:   8    -0.101223895585E+03   -0.67493E-06   -0.23341E-08    88   0.389E-04
  17 F= -.10122390E+03 E0= -.10122390E+03  d E =-.496833E-03
       N       E                     dE             d eps       ncg     rms          rms(c)
DAV:   1    -0.101224031864E+03   -0.13695E-03   -0.96519E-03    84   0.436E-01    0.345E-02
DAV:   2    -0.101224063106E+03   -0.31242E-04   -0.44119E-04   120   0.796E-02    0.182E-02
DAV:   3    -0.101224059765E+03    0.33413E-05   -0.15966E-05   120   0.163E-02    0.102E-02
DAV:   4    -0.101224058234E+03    0.15307E-05   -0.40684E-06   104   0.864E-03    0.244E-03
DAV:   5    -0.101224057782E+03    0.45214E-06   -0.76570E-07    88   0.405E-03
  18 F= -.10122406E+03 E0= -.10122406E+03  d E =-.162198E-03
