       N       E                     dE             d eps       ncg     rms          rms(c)
DAV:   1     0.247185781749E+03    0.24719E+03   -0.10157E+04   120   0.484E+02
DAV:   2    -0.217826062451E+02   -0.26897E+03   -0.25507E+03   156   0.920E+01
DAV:   3    -0.101174552904E+03   -0.79392E+02   -0.79166E+02   120   0.555E+01
DAV:   4    -0.105001208439E+03   -0.38267E+01   -0.38128E+01   120   0.174E+01
DAV:   5    -0.105071756763E+03   -0.70548E-01   -0.70470E-01   156   0.262E+00    0.149E+01
DAV:   6    -0.101733500471E+03    0.33383E+01   -0.15617E+00   108   0.431E+00    0.853E+00
DAV:   7    -0.100044056823E+03    0.16894E+01   -0.40657E+00   120   0.621E+00    0.129E+00
DAV:   8    -0.999852411434E+02    0.58816E-01   -0.33533E-01   132   0.220E+00    0.670E-01
DAV:   9    -0.999515368765E+02    0.33704E-01   -0.61308E-02   144   0.671E-01    0.359E-01
DAV:  10    -0.999506429497E+02    0.89393E-03   -0.37660E-03   132   0.205E-01    0.139E-01
DAV:  11    -0.999498252525E+02    0.81770E-03   -0.61334E-03   120   0.210E-01    0.107E-01
DAV:  12    -0.999556894351E+02   -0.58642E-02   -0.16804E-03   132   0.108E-01    0.502E-02
DAV:  13    -0.999591392560E+02   -0.34498E-02   -0.16349E-03   120   0.106E-01    0.458E-02
DAV:  14    -0.999620459519E+02   -0.29067E-02   -0.19113E-04   144   0.481E-02    0.200E-02
DAV:  15    -0.999666469535E+02   -0.46010E-02   -0.49616E-04    96   0.550E-02    0.131E-02
DAV:  16    -0.999683385644E+02   -0.16916E-02   -0.11805E-04   132   0.305E-02    0.751E-03
DAV:  17    -0.999694631821E+02   -0.11246E-02   -0.92818E-05   108   0.211E-02    0.618E-03
DAV:  18    -0.999697933428E+02   -0.33016E-03   -0.11087E-05   132   0.834E-03    0.208E-03
DAV:  19    -0.999699874076E+02   -0.19406E-03   -0.77734E-06   108   0.626E-03    0.211E-03
DAV:  20    -0.999700440975E+02   -0.56690E-04   -0.10100E-06    96   0.309E-03    0.645E-04
DAV:  21    -0.999700667682E+02   -0.22671E-04   -0.50520E-07    96   0.182E-03    0.515E-04
DAV:  22    -0.999700834793E+02   -0.16711E-04   -0.36029E-07    96   0.142E-03    0.205E-04
DAV:  23    -0.999700867398E+02   -0.32604E-05   -0.80109E-08    96   0.626E-04    0.148E-04
DAV:  24    -0.999700909575E+02   -0.42177E-05   -0.65284E-08    84   0.548E-04    0.979E-05
DAV:  25    -0.999700916848E+02   -0.72733E-06   -0.84268E-09   108   0.282E-04
   1 F= -.99970092E+02 E0= -.99970092E+02  d E =-.125080E-10
       N       E                     dE             d eps       ncg     rms          rms(c)
DAV:   1    -0.999666223082E+02    0.34686E-02   -0.83586E-02    96   0.846E-01    0.119E-01
DAV:   2    -0.999669864534E+02   -0.36415E-03   -0.39549E-03   120   0.208E-01    0.536E-02
DAV:   3    -0.999669766334E+02    0.98199E-05   -0.12864E-04   132   0.418E-02    0.280E-02
DAV:   4    -0.999669796176E+02   -0.29842E-05   -0.31640E-05   108   0.209E-02    0.778E-03
DAV:   5    -0.999669790479E+02    0.56976E-06   -0.62849E-06   132   0.967E-03
   2 F= -.99966979E+02 E0= -.99966979E+02  d E =-.144993E-10
       N       E                     dE             d eps       ncg     rms          rms(c)
DAV:   1    -0.999656267305E+02    0.13529E-02   -0.33663E-01    96   0.168E+00    0.248E-01
DAV:   2    -0.999671023302E+02   -0.14756E-02   -0.15976E-02   120   0.422E-01    0.107E-01
DAV:   3    -0.999670727771E+02    0.29553E-04   -0.51406E-04   132   0.838E-02    0.577E-02
DAV:   4    -0.999670880129E+02   -0.15236E-04   -0.12611E-04   108   0.425E-02    0.157E-02
DAV:   5    -0.999670846212E+02    0.33918E-05   -0.26619E-05   132   0.198E-02    0.884E-03
DAV:   6    -0.999670842864E+02    0.33478E-06   -0.52135E-06   132   0.778E-03
   3 F= -.99967084E+02 E0= -.99967084E+02  d E =-.144131E-10
       N       E                     dE             d eps       ncg     rms          rms(c)
DAV:   1    -0.999667254595E+02    0.35916E-03   -0.16974E-01    96   0.120E+00    0.159E-01
DAV:   2    -0.999674160895E+02   -0.69063E-03   -0.74524E-03   132   0.285E-01    0.744E-02
DAV:   3    -0.999674077383E+02    0.83512E-05   -0.24088E-04   108   0.579E-02    0.386E-02
DAV:   4    -0.999674196496E+02   -0.11911E-04   -0.57753E-05   120   0.283E-02    0.108E-02
DAV:   5    -0.999674194605E+02    0.18913E-06   -0.10437E-05   120   0.126E-02    0.582E-03
DAV:   6    -0.999674199860E+02   -0.52554E-06   -0.27795E-06   132   0.560E-03
   4 F= -.99967420E+02 E0= -.99967420E+02  d E =-.120834E-10
       N       E                     dE             d eps       ncg     rms          rms(c)
DAV:   1    -0.999652972300E+02    0.21222E-02   -0.33360E-01    96   0.167E+00    0.193E-01
DAV:   2    -0.999668394878E+02   -0.15423E-02   -0.16151E-02   132   0.420E-01    0.106E-01
DAV:   3    -0.999668238124E+02    0.15675E-04   -0.48228E-04   120   0.840E-02    0.527E-02
DAV:   4    -0.999668407768E+02   -0.16964E-04   -0.11949E-04   132   0.418E-02    0.142E-02
DAV:   5    -0.999668358744E+02    0.49024E-05   -0.21809E-05   132   0.183E-02    0.717E-03
DAV:   6    -0.999668360572E+02   -0.18280E-06   -0.63193E-06   132   0.839E-03
   5 F= -.99966836E+02 E0= -.99966836E+02  d E =-.171044E-10
       N       E                     dE             d eps       ncg     rms          rms(c)
DAV:   1    -0.999647108384E+02    0.21250E-02   -0.16694E-01    96   0.121E+00    0.147E-01
DAV:   2    -0.999656533285E+02   -0.94249E-03   -0.98262E-03   108   0.335E-01    0.912E-02
DAV:   3    -0.999656289750E+02    0.24354E-04   -0.28838E-04   144   0.672E-02    0.504E-02
DAV:   4    -0.999656366190E+02   -0.76440E-05   -0.97769E-05   120   0.383E-02    0.105E-02
DAV:   5    -0.999656356869E+02    0.93205E-06   -0.21994E-05   132   0.173E-02    0.750E-03
DAV:   6    -0.999656370370E+02   -0.13501E-05   -0.36467E-06   120   0.637E-03    0.461E-03
DAV:   7    -0.999656423755E+02   -0.53385E-05   -0.79473E-07    96   0.318E-03    0.176E-03
DAV:   8    -0.999656485770E+02   -0.62016E-05   -0.45515E-07    96   0.214E-03    0.579E-04
DAV:   9    -0.999656549532E+02   -0.63761E-05   -0.39057E-07    84   0.167E-03    0.607E-04
DAV:  10    -0.999656619674E+02   -0.70142E-05   -0.56099E-07    96   0.161E-03    0.258E-04
DAV:  11    -0.999656636240E+02   -0.16566E-05   -0.74688E-08   108   0.745E-04    0.210E-04
DAV:  12    -0.999656652441E+02   -0.16201E-05   -0.44402E-08    84   0.519E-04    0.122E-04
DAV:  13    -0.999656665973E+02   -0.13533E-05   -0.44230E-08    96   0.436E-04    0.780E-05
DAV:  14    -0.999656673465E+02   -0.74916E-06   -0.12156E-08    84   0.263E-04
   6 F= -.99965667E+02 E0= -.99965667E+02  d E =-.142634E-10
       N       E                     dE             d eps       ncg     rms          rms(c)
DAV:   1    -0.999635054076E+02    0.21612E-02   -0.33810E-01    96   0.175E+00    0.264E-01
DAV:   2    -0.999658615160E+02   -0.23561E-02   -0.25309E-02   120   0.526E-01    0.169E-01
DAV:   3    -0.999656992611E+02    0.16225E-03   -0.65575E-04   132   0.106E-01    0.921E-02
DAV:   4    -0.999656898356E+02    0.94255E-05   -0.42161E-04   120   0.752E-02    0.167E-02
DAV:   5    -0.999656828383E+02    0.69972E-05   -0.79059E-05   132   0.322E-02    0.127E-02
DAV:   6    -0.999656826378E+02    0.20048E-06   -0.10365E-05   132   0.920E-03    0.902E-03
DAV:   7    -0.999656943110E+02   -0.11673E-04   -0.12424E-06   120   0.375E-03    0.364E-03
DAV:   8    -0.999657128310E+02   -0.18520E-04   -0.20146E-06   120   0.499E-03    0.140E-03
DAV:   9    -0.999657274835E+02   -0.14652E-04   -0.11918E-06   120   0.270E-03    0.159E-03
DAV:  10    -0.999657505330E+02   -0.23050E-04   -0.12563E-06    96   0.242E-03    0.850E-04
DAV:  11    -0.999657553847E+02   -0.48517E-05   -0.15122E-07   108   0.106E-03    0.533E-04
DAV:  12    -0.999657644885E+02   -0.91038E-05   -0.27561E-07    84   0.113E-03    0.358E-04
DAV:  13    -0.999657678375E+02   -0.33491E-05   -0.10013E-07   108   0.644E-04    0.246E-04
DAV:  14    -0.999657701185E+02   -0.22809E-05   -0.22283E-08    84   0.410E-04    0.104E-04
DAV:  15    -0.999657712701E+02   -0.11516E-05   -0.12422E-08   108   0.284E-04    0.928E-05
DAV:  16    -0.999657719495E+02   -0.67944E-06    0.15483E-09    84   0.190E-04
   7 F= -.99965772E+02 E0= -.99965772E+02  d E =-.105115E-10
       N       E                     dE             d eps       ncg     rms          rms(c)
DAV:   1    -0.999649334064E+02    0.83786E-03   -0.19167E-01    96   0.136E+00    0.188E-01
DAV:   2    -0.999663420820E+02   -0.14087E-02   -0.14497E-02   120   0.426E-01    0.120E-01
DAV:   3    -0.999662598195E+02    0.82263E-04   -0.37347E-04   144   0.843E-02    0.659E-02
DAV:   4    -0.999662562983E+02    0.35211E-05   -0.22582E-04   132   0.600E-02    0.117E-02
DAV:   5    -0.999662518601E+02    0.44382E-05   -0.50760E-05   132   0.260E-02    0.996E-03
DAV:   6    -0.999662524088E+02   -0.54869E-06   -0.45909E-06   132   0.670E-03
   8 F= -.99966252E+02 E0= -.99966252E+02  d E =-.126875E-10
       N       E                     dE             d eps       ncg     rms          rms(c)
DAV:   1    -0.999638186678E+02    0.24332E-02   -0.33902E-01    96   0.182E+00    0.258E-01
DAV:   2    -0.999658876620E+02   -0.20690E-02   -0.21193E-02   132   0.502E-01    0.153E-01
DAV:   3    -0.999658193620E+02    0.68300E-04   -0.51945E-04   108   0.890E-02    0.824E-02
DAV:   4    -0.999658147246E+02    0.46374E-05   -0.23949E-04   120   0.589E-02    0.150E-02
DAV:   5    -0.999658058558E+02    0.88688E-05   -0.47643E-05   132   0.259E-02    0.110E-02
DAV:   6    -0.999658051965E+02    0.65928E-06   -0.79692E-06   132   0.984E-03
   9 F= -.99965805E+02 E0= -.99965805E+02  d E =-.165762E-10
       N       E                     dE             d eps       ncg     rms          rms(c)
DAV:   1    -0.999640881463E+02    0.17177E-02   -0.17299E-01    96   0.129E+00    0.184E-01
DAV:   2    -0.999651792902E+02   -0.10911E-02   -0.10896E-02   132   0.373E-01    0.114E-01
DAV:   3    -0.999651600216E+02    0.19269E-04   -0.26523E-04   132   0.682E-02    0.627E-02
DAV:   4    -0.999651799166E+02   -0.19895E-04   -0.16300E-04   120   0.490E-02    0.115E-02
DAV:   5    -0.999651756251E+02    0.42915E-05   -0.35572E-05   132   0.223E-02    0.846E-03
DAV:   6    -0.999651762972E+02   -0.67205E-06   -0.70817E-06   108   0.793E-03
  10 F= -.99965176E+02 E0= -.99965176E+02  d E =-.178227E-10
       N       E                     dE             d eps       ncg     rms          rms(c)
DAV:   1    -0.999626483895E+02    0.25272E-02   -0.35333E-01    96   0.180E+00    0.257E-01
DAV:   2    -0.999653451674E+02   -0.26968E-02   -0.27052E-02   132   0.564E-01    0.184E-01
DAV:   3    -0.999652004364E+02    0.14473E-03   -0.63142E-04   120   0.107E-01    0.934E-02
DAV:   4    -0.999652286769E+02   -0.28241E-04   -0.50413E-04   120   0.828E-02    0.183E-02
DAV:   5    -0.999652131133E+02    0.15564E-04   -0.10186E-04   132   0.368E-02    0.124E-02
DAV:   6    -0.999652117538E+02    0.13595E-05   -0.17584E-05   132   0.111E-02    0.674E-03
DAV:   7    -0.999652236113E+02   -0.11857E-04   -0.15360E-06   132   0.406E-03    0.310E-03
DAV:   8    -0.999652432103E+02   -0.19599E-04   -0.31473E-06   108   0.502E-03    0.146E-03
DAV:   9    -0.999652590264E+02   -0.15816E-04   -0.13782E-06   132   0.297E-03    0.150E-03
DAV:  10    -0.999652735502E+02   -0.14524E-04   -0.10585E-06    96   0.229E-03    0.433E-04
DAV:  11    -0.999652791954E+02   -0.56452E-05   -0.27337E-07    96   0.117E-03    0.244E-04
DAV:  12    -0.999652857332E+02   -0.65377E-05   -0.32394E-07    84   0.108E-03    0.212E-04
DAV:  13    -0.999652873462E+02   -0.16130E-05   -0.45174E-08   108   0.445E-04    0.190E-04
DAV:  14    -0.999652892239E+02   -0.18777E-05   -0.35121E-08    84   0.393E-04    0.622E-05
DAV:  15    -0.999652898349E+02   -0.61107E-06   -0.46601E-09    96   0.231E-04
  11 F= -.99965290E+02 E0= -.99965290E+02  d E =-.968523E-11
       N       E                     dE             d eps       ncg     rms          rms(c)
DAV:   1    -0.999657548122E+02   -0.46559E-03   -0.17184E-01    96   0.127E+00    0.167E-01
DAV:   2    -0.999670282467E+02   -0.12734E-02   -0.12951E-02   108   0.395E-01    0.123E-01
DAV:   3    -0.999669621607E+02    0.66086E-04   -0.28617E-04   156   0.715E-02    0.676E-02
DAV:   4    -0.999669626418E+02   -0.48106E-06   -0.21119E-04   120   0.566E-02    0.118E-02
DAV:   5    -0.999669578771E+02    0.47647E-05   -0.53420E-05   132   0.268E-02    0.923E-03
DAV:   6    -0.999669579863E+02   -0.10923E-06   -0.99308E-06   120   0.940E-03
  12 F= -.99966958E+02 E0= -.99966958E+02  d E =-.147147E-10
       N       E                     dE             d eps       ncg     rms          rms(c)
DAV:   1    -0.999648330057E+02    0.21249E-02   -0.32991E-01    96   0.171E+00    0.216E-01
DAV:   2    -0.999665934829E+02   -0.17605E-02   -0.17824E-02   132   0.457E-01    0.129E-01
DAV:   3    -0.999665920426E+02    0.14404E-05   -0.47546E-04   132   0.847E-02    0.699E-02
DAV:   4    -0.999666207812E+02   -0.28739E-04   -0.16159E-04   108   0.532E-02    0.131E-02
DAV:   5    -0.999666171277E+02    0.36534E-05   -0.43696E-05   132   0.252E-02    0.935E-03
DAV:   6    -0.999666168599E+02    0.26778E-06   -0.66306E-06   132   0.871E-03
  13 F= -.99966617E+02 E0= -.99966617E+02  d E =-.175096E-10
       N       E                     dE             d eps       ncg     rms          rms(c)
DAV:   1    -0.999656856281E+02    0.93150E-03   -0.16645E-01    96   0.126E+00    0.166E-01
DAV:   2    -0.999667673847E+02   -0.10818E-02   -0.11026E-02   144   0.356E-01    0.935E-02
DAV:   3    -0.999667436513E+02    0.23733E-04   -0.31568E-04   132   0.690E-02    0.519E-02
DAV:   4    -0.999667669012E+02   -0.23250E-04   -0.12128E-04   108   0.417E-02    0.119E-02
DAV:   5    -0.999667680312E+02   -0.11300E-05   -0.22256E-05   132   0.175E-02    0.773E-03
DAV:   6    -0.999667688888E+02   -0.85760E-06   -0.30609E-06   120   0.600E-03
  14 F= -.99966769E+02 E0= -.99966769E+02  d E =-.128056E-10
       N       E                     dE             d eps       ncg     rms          rms(c)
DAV:   1    -0.999646734265E+02    0.20946E-02   -0.33757E-01    96   0.171E+00    0.256E-01
DAV:   2    -0.999664246691E+02   -0.17512E-02   -0.18785E-02   120   0.474E-01    0.132E-01
DAV:   3    -0.999663507097E+02    0.73959E-04   -0.55956E-04   120   0.944E-02    0.706E-02
DAV:   4    -0.999663608069E+02   -0.10097E-04   -0.23273E-04   120   0.573E-02    0.171E-02
DAV:   5    -0.999663542992E+02    0.65077E-05   -0.40357E-05   132   0.237E-02    0.103E-02
DAV:   6    -0.999663543062E+02   -0.70131E-08   -0.69489E-06   132   0.861E-03
  15 F= -.99966354E+02 E0= -.99966354E+02  d E =-.176084E-10
       N       E                     dE             d eps       ncg     rms          rms(c)
DAV:   1    -0.999653175707E+02    0.10367E-02   -0.16876E-01    96   0.121E+00    0.161E-01
DAV:   2    -0.999660469760E+02   -0.72941E-03   -0.78279E-03   120   0.296E-01    0.771E-02
DAV:   3    -0.999660366122E+02    0.10364E-04   -0.24838E-04   120   0.594E-02    0.405E-02
DAV:   4    -0.999660513699E+02   -0.14758E-04   -0.61663E-05   108   0.298E-02    0.109E-02
DAV:   5    -0.999660535552E+02   -0.21853E-05   -0.11545E-05   120   0.132E-02    0.602E-03
DAV:   6    -0.999660561004E+02   -0.25452E-05   -0.28617E-06   108   0.571E-03    0.338E-03
DAV:   7    -0.999660599986E+02   -0.38982E-05   -0.35661E-07   108   0.214E-03    0.120E-03
DAV:   8    -0.999660641039E+02   -0.41053E-05   -0.29503E-07    84   0.185E-03    0.542E-04
DAV:   9    -0.999660682555E+02   -0.41516E-05   -0.22451E-07    96   0.151E-03    0.412E-04
DAV:  10    -0.999660723132E+02   -0.40577E-05   -0.28450E-07    84   0.137E-03    0.257E-04
DAV:  11    -0.999660733630E+02   -0.10498E-05   -0.43680E-08   108   0.707E-04    0.191E-04
DAV:  12    -0.999660746709E+02   -0.13079E-05   -0.32076E-08    84   0.476E-04    0.992E-05
DAV:  13    -0.999660756247E+02   -0.95377E-06   -0.22589E-08    96   0.338E-04
  16 F= -.99966076E+02 E0= -.99966076E+02  d E =-.140321E-10
       N       E                     dE             d eps       ncg     rms          rms(c)
DAV:   1    -0.999640242797E+02    0.20504E-02   -0.33185E-01    96   0.173E+00    0.239E-01
DAV:   2    -0.999663074992E+02   -0.22832E-02   -0.24138E-02   120   0.516E-01    0.155E-01
DAV:   3    -0.999661657165E+02    0.14178E-03   -0.59944E-04   132   0.101E-01    0.837E-02
DAV:   4    -0.999661612641E+02    0.44524E-05   -0.35844E-04   132   0.704E-02    0.162E-02
DAV:   5    -0.999661539739E+02    0.72902E-05   -0.73174E-05   132   0.311E-02    0.121E-02
DAV:   6    -0.999661540343E+02   -0.60429E-07   -0.98840E-06   132   0.924E-03
  17 F= -.99966154E+02 E0= -.99966154E+02  d E =-.129794E-10
       N       E                     dE             d eps       ncg     rms          rms(c)
DAV:   1    -0.999665055441E+02   -0.35157E-03   -0.16732E-01    96   0.121E+00    0.147E-01
DAV:   2    -0.999674299564E+02   -0.92441E-03   -0.95317E-03   132   0.328E-01    0.919E-02
DAV:   3    -0.999674163016E+02    0.13655E-04   -0.26938E-04   144   0.658E-02    0.489E-02
DAV:   4    -0.999674459181E+02   -0.29616E-04   -0.10653E-04   108   0.393E-02    0.111E-02
DAV:   5    -0.999674496106E+02   -0.36926E-05   -0.20643E-05   132   0.170E-02    0.741E-03
DAV:   6    -0.999674516041E+02   -0.19934E-05   -0.36668E-06   132   0.630E-03    0.465E-03
DAV:   7    -0.999674546016E+02   -0.29976E-05   -0.51286E-07    96   0.273E-03    0.167E-03
DAV:   8    -0.999674571273E+02   -0.25256E-05   -0.20592E-07   108   0.180E-03    0.490E-04
DAV:   9    -0.999674597532E+02   -0.26259E-05   -0.16505E-07    84   0.147E-03    0.453E-04
DAV:  10    -0.999674623031E+02   -0.25498E-05   -0.16135E-07    96   0.125E-03    0.237E-04
DAV:  11    -0.999674631474E+02   -0.84432E-06   -0.41049E-08   108   0.691E-04
  18 F= -.99967463E+02 E0= -.99967463E+02  d E =-.107527E-10
       N       E                     dE             d eps       ncg     rms          rms(c)
DAV:   1    -0.999654104673E+02    0.20518E-02   -0.33491E-01    96   0.166E+00    0.203E-01
DAV:   2    -0.999668555169E+02   -0.14450E-02   -0.15372E-02   132   0.412E-01    0.104E-01
DAV:   3    -0.999668436537E+02    0.11863E-04   -0.49797E-04   144   0.824E-02    0.555E-02
DAV:   4    -0.999668570947E+02   -0.13441E-04   -0.93103E-05   132   0.389E-02    0.148E-02
DAV:   5    -0.999668547139E+02    0.23808E-05   -0.21049E-05   132   0.181E-02    0.717E-03
DAV:   6    -0.999668563249E+02   -0.16109E-05   -0.52813E-06   132   0.769E-03    0.412E-03
DAV:   7    -0.999668609492E+02   -0.46243E-05   -0.50004E-07   108   0.261E-03    0.154E-03
DAV:   8    -0.999668662237E+02   -0.52746E-05   -0.35755E-07   108   0.237E-03    0.751E-04
DAV:   9    -0.999668724276E+02   -0.62038E-05   -0.35932E-07   108   0.218E-03    0.521E-04
DAV:  10    -0.999668787553E+02   -0.63277E-05   -0.46520E-07    96   0.200E-03    0.373E-04
DAV:  11    -0.999668804664E+02   -0.17111E-05   -0.94902E-08   108   0.109E-03    0.280E-04
DAV:  12    -0.999668818342E+02   -0.13678E-05   -0.27159E-08    96   0.499E-04    0.158E-04
DAV:  13    -0.999668835963E+02   -0.17621E-05   -0.44750E-08    84   0.454E-04    0.838E-05
DAV:  14    -0.999668846256E+02   -0.10293E-05   -0.22098E-08    96   0.326E-04    0.108E-04
DAV:  15    -0.999668851226E+02   -0.49691E-06   -0.13347E-09    84   0.196E-04
  19 F= -.99966885E+02 E0= -.99966885E+02  d E =-.139261E-10
       N       E                     dE             d eps       ncg     rms          rms(c)
DAV:   1    -0.999655469540E+02    0.13377E-02   -0.18773E-01    96   0.130E+00    0.177E-01
DAV:   2    -0.999667180176E+02   -0.11711E-02   -0.11812E-02   108   0.368E-01    0.896E-02
DAV:   3    -0.999666890016E+02    0.29016E-04   -0.33674E-04   144   0.722E-02    0.482E-02
DAV:   4    -0.999667039822E+02   -0.14981E-04   -0.12220E-04   108   0.402E-02    0.120E-02
DAV:   5    -0.999667020480E+02    0.19342E-05   -0.20737E-05   132   0.171E-02    0.811E-03
DAV:   6    -0.999667018606E+02    0.18737E-06   -0.32373E-06   132   0.600E-03
  20 F= -.99966702E+02 E0= -.99966702E+02  d E =-.186366E-10
       N       E                     dE             d eps       ncg     rms          rms(c)
DAV:   1    -0.999649106639E+02    0.17914E-02   -0.33726E-01    96   0.176E+00    0.243E-01
DAV:   2    -0.999667064205E+02   -0.17958E-02   -0.18487E-02   108   0.465E-01    0.131E-01
DAV:   3    -0.999666718032E+02    0.34617E-04   -0.51550E-04   132   0.896E-02    0.695E-02
DAV:   4    -0.999666921553E+02   -0.20352E-04   -0.21682E-04   120   0.597E-02    0.153E-02
DAV:   5    -0.999666869211E+02    0.52342E-05   -0.54584E-05   132   0.276E-02    0.117E-02
DAV:   6    -0.999666854054E+02    0.15157E-05   -0.81028E-06   132   0.936E-03    0.695E-03
DAV:   7    -0.999666888760E+02   -0.34706E-05   -0.15602E-06   132   0.492E-03    0.279E-03
DAV:   8    -0.999666952236E+02   -0.63476E-05   -0.79982E-07   108   0.384E-03    0.905E-04
DAV:   9    -0.999667022999E+02   -0.70763E-05   -0.61369E-07    84   0.255E-03    0.102E-03
DAV:  10    -0.999667114680E+02   -0.91681E-05   -0.50841E-07    96   0.216E-03    0.384E-04
DAV:  11    -0.999667145437E+02   -0.30757E-05   -0.16136E-07   108   0.120E-03    0.292E-04
DAV:  12    -0.999667179456E+02   -0.34018E-05   -0.70361E-08    84   0.685E-04    0.177E-04
DAV:  13    -0.999667208274E+02   -0.28818E-05   -0.10129E-07    96   0.642E-04    0.128E-04
DAV:  14    -0.999667221287E+02   -0.13013E-05   -0.23512E-08   108   0.335E-04    0.753E-05
DAV:  15    -0.999667228783E+02   -0.74962E-06   -0.61331E-09    84   0.229E-04
  21 F= -.99966723E+02 E0= -.99966723E+02  d E =-.100899E-10
       N       E                     dE             d eps       ncg     rms          rms(c)
DAV:   1    -0.999653982304E+02    0.13239E-02   -0.17105E-01    96   0.130E+00    0.179E-01
DAV:   2    -0.999664181517E+02   -0.10199E-02   -0.10546E-02   108   0.369E-01    0.113E-01
DAV:   3    -0.999663746368E+02    0.43515E-04   -0.25435E-04   132   0.658E-02    0.621E-02
DAV:   4    -0.999663614283E+02    0.13208E-04   -0.13744E-04   120   0.448E-02    0.108E-02
DAV:   5    -0.999663583448E+02    0.30834E-05   -0.25062E-05   132   0.190E-02    0.805E-03
DAV:   6    -0.999663623990E+02   -0.40542E-05   -0.68456E-06   132   0.870E-03    0.474E-03
DAV:   7    -0.999663762576E+02   -0.13859E-04   -0.19288E-06   132   0.497E-03    0.175E-03
DAV:   8    -0.999663922083E+02   -0.15951E-04   -0.12125E-06   120   0.348E-03    0.892E-04
DAV:   9    -0.999664090553E+02   -0.16847E-04   -0.16706E-06   108   0.316E-03    0.959E-04
DAV:  10    -0.999664213729E+02   -0.12318E-04   -0.10437E-06   108   0.229E-03    0.372E-04
DAV:  11    -0.999664255466E+02   -0.41737E-05   -0.16749E-07   108   0.970E-04    0.193E-04
DAV:  12    -0.999664290996E+02   -0.35530E-05   -0.18727E-07    84   0.847E-04    0.161E-04
DAV:  13    -0.999664301059E+02   -0.10063E-05   -0.20493E-08   108   0.352E-04    0.701E-05
DAV:  14    -0.999664308600E+02   -0.75407E-06   -0.12436E-08    84   0.295E-04
  22 F= -.99966431E+02 E0= -.99966431E+02  d E =-.128871E-10
       N       E                     dE             d eps       ncg     rms          rms(c)
DAV:   1    -0.999637117923E+02    0.27183E-02   -0.33565E-01    96   0.182E+00    0.222E-01
DAV:   2    -0.999657698289E+02   -0.20580E-02   -0.21115E-02   132   0.505E-01    0.154E-01
DAV:   3    -0.999657002955E+02    0.69533E-04   -0.47664E-04   132   0.890E-02    0.773E-02
DAV:   4    -0.999656878558E+02    0.12440E-04   -0.23301E-04   132   0.570E-02    0.143E-02
DAV:   5    -0.999656766041E+02    0.11252E-04   -0.35950E-05   132   0.236E-02    0.910E-03
DAV:   6    -0.999656768112E+02   -0.20707E-06   -0.11341E-05   132   0.112E-02    0.536E-03
DAV:   7    -0.999656908179E+02   -0.14007E-04   -0.28994E-06   132   0.667E-03    0.219E-03
DAV:   8    -0.999657105017E+02   -0.19684E-04   -0.18775E-06   120   0.540E-03    0.150E-03
DAV:   9    -0.999657318747E+02   -0.21373E-04   -0.16484E-06   120   0.348E-03    0.130E-03
DAV:  10    -0.999657499507E+02   -0.18076E-04   -0.70610E-07    96   0.200E-03    0.423E-04
DAV:  11    -0.999657584289E+02   -0.84782E-05   -0.31619E-07   108   0.114E-03    0.349E-04
DAV:  12    -0.999657681843E+02   -0.97554E-05   -0.27603E-07    84   0.106E-03    0.161E-04
DAV:  13    -0.999657711307E+02   -0.29464E-05   -0.60114E-08   108   0.535E-04    0.134E-04
DAV:  14    -0.999657736209E+02   -0.24902E-05   -0.24860E-08    84   0.380E-04    0.632E-05
DAV:  15    -0.999657746722E+02   -0.10512E-05   -0.88896E-09    96   0.255E-04    0.519E-05
DAV:  16    -0.999657752820E+02   -0.60980E-06    0.50619E-10    84   0.169E-04
  23 F= -.99965775E+02 E0= -.99965775E+02  d E =-.112742E-10
       N       E                     dE             d eps       ncg     rms          rms(c)
DAV:   1    -0.999639559236E+02    0.18187E-02   -0.17515E-01    96   0.127E+00    0.169E-01
DAV:   2    -0.999651836957E+02   -0.12278E-02   -0.12571E-02   108   0.391E-01    0.124E-01
DAV:   3    -0.999651192251E+02    0.64471E-04   -0.28917E-04   144   0.733E-02    0.637E-02
DAV:   4    -0.999651221509E+02   -0.29259E-05   -0.21943E-04   132   0.556E-02    0.122E-02
DAV:   5    -0.999651156396E+02    0.65114E-05   -0.46305E-05   132   0.249E-02    0.904E-03
DAV:   6    -0.999651170662E+02   -0.14266E-05   -0.10825E-05   132   0.906E-03    0.579E-03
DAV:   7    -0.999651262894E+02   -0.92233E-05   -0.94038E-07   120   0.357E-03    0.273E-03
DAV:   8    -0.999651418976E+02   -0.15608E-04   -0.17712E-06   120   0.374E-03    0.831E-04
DAV:   9    -0.999651523049E+02   -0.10407E-04   -0.88867E-07   120   0.252E-03    0.118E-03
DAV:  10    -0.999651655457E+02   -0.13241E-04   -0.11270E-06   108   0.220E-03    0.605E-04
DAV:  11    -0.999651695027E+02   -0.39570E-05   -0.14390E-07   108   0.101E-03    0.285E-04
DAV:  12    -0.999651730831E+02   -0.35804E-05   -0.12005E-07    84   0.780E-04    0.140E-04
DAV:  13    -0.999651749067E+02   -0.18237E-05   -0.49511E-08    96   0.481E-04    0.219E-04
DAV:  14    -0.999651759579E+02   -0.10511E-05   -0.10063E-08   108   0.294E-04    0.938E-05
DAV:  15    -0.999651763974E+02   -0.43950E-06   -0.78707E-10    84   0.193E-04
  24 F= -.99965176E+02 E0= -.99965176E+02  d E =-.143694E-10
       N       E                     dE             d eps       ncg     rms          rms(c)
DAV:   1    -0.999631663000E+02    0.20097E-02   -0.35334E-01    96   0.179E+00    0.262E-01
DAV:   2    -0.999655463473E+02   -0.23800E-02   -0.24460E-02   132   0.545E-01    0.177E-01
DAV:   3    -0.999654293398E+02    0.11701E-03   -0.60496E-04   132   0.103E-01    0.941E-02
DAV:   4    -0.999654297882E+02   -0.44839E-06   -0.39328E-04   132   0.744E-02    0.175E-02
DAV:   5    -0.999654217703E+02    0.80179E-05   -0.79913E-05   132   0.324E-02    0.126E-02
DAV:   6    -0.999654284974E+02   -0.67271E-05   -0.17830E-05   132   0.116E-02    0.784E-03
DAV:   7    -0.999654518077E+02   -0.23310E-04   -0.23406E-06   132   0.520E-03    0.320E-03
DAV:   8    -0.999654833119E+02   -0.31504E-04   -0.31800E-06   108   0.466E-03    0.118E-03
DAV:   9    -0.999655101634E+02   -0.26851E-04   -0.32743E-06   132   0.424E-03    0.178E-03
DAV:  10    -0.999655312953E+02   -0.21132E-04   -0.18554E-06   108   0.315E-03    0.635E-04
DAV:  11    -0.999655377037E+02   -0.64084E-05   -0.26622E-07   108   0.127E-03    0.285E-04
DAV:  12    -0.999655442047E+02   -0.65010E-05   -0.33182E-07    96   0.116E-03    0.264E-04
DAV:  13    -0.999655459392E+02   -0.17346E-05   -0.52880E-08   108   0.501E-04    0.283E-04
DAV:  14    -0.999655476695E+02   -0.17302E-05   -0.32661E-08    84   0.458E-04    0.629E-05
DAV:  15    -0.999655481582E+02   -0.48871E-06   -0.45253E-09    96   0.252E-04
  25 F= -.99965548E+02 E0= -.99965548E+02  d E =-.107961E-10
       N       E                     dE             d eps       ncg     rms          rms(c)
DAV:   1    -0.999647137531E+02    0.83392E-03   -0.18516E-01    96   0.133E+00    0.169E-01
DAV:   2    -0.999660270312E+02   -0.13133E-02   -0.14651E-02   108   0.408E-01    0.112E-01
DAV:   3    -0.999659611113E+02    0.65920E-04   -0.28504E-04   144   0.662E-02    0.669E-02
DAV:   4    -0.999659335526E+02    0.27559E-04   -0.15934E-04   132   0.498E-02    0.101E-02
DAV:   5    -0.999659253702E+02    0.81824E-05   -0.45954E-05   132   0.246E-02    0.833E-03
DAV:   6    -0.999659234285E+02    0.19417E-05   -0.66971E-06   132   0.790E-03    0.576E-03
DAV:   7    -0.999659325751E+02   -0.91466E-05   -0.19177E-06   108   0.472E-03    0.220E-03
DAV:   8    -0.999659482800E+02   -0.15705E-04   -0.14564E-06   132   0.389E-03    0.119E-03
DAV:   9    -0.999659644607E+02   -0.16181E-04   -0.88535E-07    84   0.259E-03    0.120E-03
DAV:  10    -0.999659794528E+02   -0.14992E-04   -0.81895E-07    96   0.204E-03    0.404E-04
DAV:  11    -0.999659877867E+02   -0.83339E-05   -0.31235E-07    96   0.119E-03    0.278E-04
DAV:  12    -0.999659929533E+02   -0.51666E-05   -0.12076E-07    84   0.764E-04    0.193E-04
DAV:  13    -0.999659945515E+02   -0.15982E-05   -0.21190E-08   108   0.356E-04    0.139E-04
DAV:  14    -0.999659965814E+02   -0.20299E-05   -0.23146E-08    84   0.346E-04    0.468E-05
DAV:  15    -0.999659971410E+02   -0.55958E-06   -0.31190E-09    96   0.203E-04
  26 F= -.99965997E+02 E0= -.99965997E+02  d E =-.119461E-10
       N       E                     dE             d eps       ncg     rms          rms(c)
DAV:   1    -0.999643681424E+02    0.16284E-02   -0.40117E-01    96   0.169E+00    0.215E-01
DAV:   2    -0.999660855036E+02   -0.17174E-02   -0.20759E-02   132   0.433E-01    0.129E-01
DAV:   3    -0.999659735360E+02    0.11197E-03   -0.33556E-04   132   0.643E-02    0.714E-02
DAV:   4    -0.999659198879E+02    0.53648E-04   -0.14818E-04   132   0.457E-02    0.117E-02
DAV:   5    -0.999659131234E+02    0.67645E-05   -0.33511E-05   132   0.212E-02    0.787E-03
DAV:   6    -0.999659234659E+02   -0.10342E-04   -0.10406E-05   132   0.874E-03    0.456E-03
DAV:   7    -0.999659470732E+02   -0.23607E-04   -0.20410E-06   132   0.420E-03    0.221E-03
DAV:   8    -0.999659819252E+02   -0.34852E-04   -0.39368E-06   120   0.441E-03    0.130E-03
DAV:   9    -0.999660018687E+02   -0.19944E-04   -0.14225E-06   120   0.267E-03    0.991E-04
DAV:  10    -0.999660224366E+02   -0.20568E-04   -0.18005E-06   108   0.263E-03    0.357E-04
DAV:  11    -0.999660298054E+02   -0.73688E-05   -0.29478E-07   108   0.123E-03    0.326E-04
DAV:  12    -0.999660358304E+02   -0.60250E-05   -0.31225E-07    84   0.107E-03    0.145E-04
DAV:  13    -0.999660374406E+02   -0.16102E-05   -0.47018E-08   108   0.456E-04    0.966E-05
DAV:  14    -0.999660389896E+02   -0.15489E-05   -0.23550E-08    84   0.363E-04    0.513E-05
DAV:  15    -0.999660394328E+02   -0.44323E-06   -0.29797E-09   108   0.192E-04
  27 F= -.99966039E+02 E0= -.99966039E+02  d E =-.124859E-10
       N       E                     dE             d eps       ncg     rms          rms(c)
DAV:   1    -0.999656672684E+02    0.37172E-03   -0.19976E-01    96   0.118E+00    0.148E-01
DAV:   2    -0.999665544045E+02   -0.88714E-03   -0.10657E-02   132   0.305E-01    0.960E-02
DAV:   3    -0.999664863860E+02    0.68019E-04   -0.14275E-04   132   0.430E-02    0.537E-02
DAV:   4    -0.999664523141E+02    0.34072E-04   -0.84395E-05   132   0.333E-02    0.790E-03
DAV:   5    -0.999664457530E+02    0.65611E-05   -0.19534E-05   132   0.157E-02    0.535E-03
DAV:   6    -0.999664505178E+02   -0.47649E-05   -0.58810E-06   132   0.606E-03    0.313E-03
DAV:   7    -0.999664639417E+02   -0.13424E-04   -0.69481E-07   108   0.246E-03    0.156E-03
DAV:   8    -0.999664855708E+02   -0.21629E-04   -0.25342E-06   108   0.337E-03    0.101E-03
DAV:   9    -0.999665001531E+02   -0.14582E-04   -0.98440E-07   120   0.218E-03    0.795E-04
DAV:  10    -0.999665120278E+02   -0.11875E-04   -0.79347E-07   108   0.181E-03    0.279E-04
DAV:  11    -0.999665158996E+02   -0.38719E-05   -0.95281E-08   108   0.785E-04    0.231E-04
DAV:  12    -0.999665203371E+02   -0.44375E-05   -0.16862E-07    84   0.808E-04    0.113E-04
DAV:  13    -0.999665213080E+02   -0.97086E-06   -0.15490E-08   108   0.317E-04
  28 F= -.99966521E+02 E0= -.99966521E+02  d E =-.132042E-10
       N       E                     dE             d eps       ncg     rms          rms(c)
DAV:   1    -0.999649324081E+02    0.15879E-02   -0.40353E-01    96   0.174E+00    0.214E-01
DAV:   2    -0.999665083056E+02   -0.15759E-02   -0.18918E-02   108   0.407E-01    0.116E-01
DAV:   3    -0.999664189730E+02    0.89333E-04   -0.33348E-04   132   0.639E-02    0.613E-02
DAV:   4    -0.999663775001E+02    0.41473E-04   -0.11497E-04   132   0.419E-02    0.122E-02
DAV:   5    -0.999663663332E+02    0.11167E-04   -0.26334E-05   132   0.197E-02    0.770E-03
DAV:   6    -0.999663677435E+02   -0.14103E-05   -0.72518E-06   120   0.837E-03    0.446E-03
DAV:   7    -0.999663788921E+02   -0.11149E-04   -0.15645E-06   120   0.436E-03    0.206E-03
DAV:   8    -0.999663968423E+02   -0.17950E-04   -0.13898E-06    96   0.365E-03    0.120E-03
DAV:   9    -0.999664136054E+02   -0.16763E-04   -0.99022E-07   108   0.258E-03    0.863E-04
DAV:  10    -0.999664295585E+02   -0.15953E-04   -0.83760E-07   108   0.206E-03    0.336E-04
DAV:  11    -0.999664361131E+02   -0.65546E-05   -0.14647E-07    96   0.102E-03    0.306E-04
DAV:  12    -0.999664432960E+02   -0.71829E-05   -0.20596E-07    84   0.954E-04    0.141E-04
DAV:  13    -0.999664453459E+02   -0.20499E-05   -0.36454E-08    96   0.425E-04    0.105E-04
DAV:  14    -0.999664468965E+02   -0.15506E-05   -0.95173E-09    84   0.290E-04    0.485E-05
DAV:  15    -0.999664476909E+02   -0.79441E-06   -0.33738E-09   108   0.198E-04
  29 F= -.99966448E+02 E0= -.99966448E+02  d E =-.118473E-10
       N       E                     dE             d eps       ncg     rms          rms(c)
DAV:   1    -0.999658951088E+02    0.55179E-03   -0.20282E-01    96   0.120E+00    0.153E-01
DAV:   2    -0.999666792238E+02   -0.78411E-03   -0.96552E-03   120   0.282E-01    0.875E-02
DAV:   3    -0.999666184812E+02    0.60743E-04   -0.15300E-04   132   0.416E-02    0.470E-02
DAV:   4    -0.999665790304E+02    0.39451E-04   -0.54101E-05   132   0.257E-02    0.836E-03
DAV:   5    -0.999665740900E+02    0.49404E-05   -0.86786E-06   132   0.112E-02    0.454E-03
DAV:   6    -0.999665842874E+02   -0.10197E-04   -0.47357E-06   132   0.671E-03    0.241E-03
DAV:   7    -0.999666031477E+02   -0.18860E-04   -0.20938E-06   108   0.443E-03    0.136E-03
DAV:   8    -0.999666248215E+02   -0.21674E-04   -0.18349E-06   108   0.336E-03    0.804E-04
DAV:   9    -0.999666393404E+02   -0.14519E-04   -0.11900E-06   108   0.237E-03    0.560E-04
DAV:  10    -0.999666501616E+02   -0.10821E-04   -0.78436E-07   120   0.169E-03    0.297E-04
DAV:  11    -0.999666542744E+02   -0.41128E-05   -0.14515E-07   108   0.802E-04    0.194E-04
DAV:  12    -0.999666579817E+02   -0.37073E-05   -0.20863E-07    96   0.834E-04    0.123E-04
DAV:  13    -0.999666588327E+02   -0.85106E-06   -0.21629E-08   108   0.360E-04
  30 F= -.99966659E+02 E0= -.99966659E+02  d E =-.126175E-10
       N       E                     dE             d eps       ncg     rms          rms(c)
DAV:   1    -0.999654015453E+02    0.12564E-02   -0.40393E-01    96   0.172E+00    0.213E-01
DAV:   2    -0.999668164072E+02   -0.14149E-02   -0.17114E-02   108   0.398E-01    0.107E-01
DAV:   3    -0.999667333208E+02    0.83086E-04   -0.31978E-04   132   0.628E-02    0.547E-02
DAV:   4    -0.999666925774E+02    0.40743E-04   -0.90365E-05   132   0.382E-02    0.121E-02
DAV:   5    -0.999666820460E+02    0.10531E-04   -0.21851E-05   132   0.187E-02    0.734E-03
DAV:   6    -0.999666849458E+02   -0.28999E-05   -0.55520E-06   132   0.772E-03    0.469E-03
DAV:   7    -0.999666972600E+02   -0.12314E-04   -0.11899E-06   120   0.484E-03    0.154E-03
DAV:   8    -0.999667104141E+02   -0.13154E-04   -0.11473E-06   108   0.393E-03    0.137E-03
DAV:   9    -0.999667345136E+02   -0.24099E-04   -0.16505E-06    96   0.388E-03    0.574E-04
DAV:  10    -0.999667447558E+02   -0.10242E-04   -0.60200E-07    96   0.225E-03    0.658E-04
DAV:  11    -0.999667491188E+02   -0.43630E-05   -0.10397E-07   120   0.985E-04    0.410E-04
DAV:  12    -0.999667577240E+02   -0.86052E-05   -0.29796E-07    84   0.119E-03    0.235E-04
DAV:  13    -0.999667604356E+02   -0.27116E-05   -0.73412E-08    96   0.603E-04    0.259E-04
DAV:  14    -0.999667624066E+02   -0.19710E-05   -0.28118E-08    96   0.435E-04    0.674E-05
DAV:  15    -0.999667632041E+02   -0.79744E-06   -0.60152E-09   108   0.259E-04
  31 F= -.99966763E+02 E0= -.99966763E+02  d E =-.119501E-10
       N       E                     dE             d eps       ncg     rms          rms(c)
DAV:   1    -0.999648482250E+02    0.19142E-02   -0.19993E-01    96   0.137E+00    0.158E-01
DAV:   2    -0.999659170437E+02   -0.10688E-02   -0.12863E-02   132   0.358E-01    0.855E-02
DAV:   3    -0.999658775168E+02    0.39527E-04   -0.23086E-04   144   0.505E-02    0.487E-02
DAV:   4    -0.999658437760E+02    0.33741E-04   -0.56452E-05   132   0.298E-02    0.914E-03
DAV:   5    -0.999658365762E+02    0.71999E-05   -0.13578E-05   132   0.140E-02    0.543E-03
DAV:   6    -0.999658407914E+02   -0.42153E-05   -0.41865E-06   120   0.745E-03    0.271E-03
DAV:   7    -0.999658533923E+02   -0.12601E-04   -0.16941E-06   120   0.468E-03    0.141E-03
DAV:   8    -0.999658727075E+02   -0.19315E-04   -0.12423E-06   108   0.329E-03    0.770E-04
DAV:   9    -0.999658866603E+02   -0.13953E-04   -0.93168E-07   108   0.246E-03    0.570E-04
DAV:  10    -0.999658984172E+02   -0.11757E-04   -0.60025E-07    96   0.175E-03    0.259E-04
DAV:  11    -0.999659036335E+02   -0.52163E-05   -0.26578E-07    96   0.102E-03    0.238E-04
DAV:  12    -0.999659076765E+02   -0.40430E-05   -0.12946E-07    96   0.758E-04    0.894E-05
DAV:  13    -0.999659092800E+02   -0.16035E-05   -0.45372E-08    96   0.452E-04    0.688E-05
DAV:  14    -0.999659100691E+02   -0.78905E-06   -0.64272E-09    96   0.243E-04
  32 F= -.99965910E+02 E0= -.99965910E+02  d E =-.841183E-11
       N       E                     dE             d eps       ncg     rms          rms(c)
DAV:   1    -0.999644274775E+02    0.14818E-02   -0.40652E-01    96   0.188E+00    0.213E-01
DAV:   2    -0.999659603808E+02   -0.15329E-02   -0.18813E-02   108   0.440E-01    0.127E-01
DAV:   3    -0.999658444210E+02    0.11596E-03   -0.28911E-04   132   0.609E-02    0.676E-02
DAV:   4    -0.999657858096E+02    0.58611E-04   -0.14181E-04   120   0.452E-02    0.111E-02
DAV:   5    -0.999657807084E+02    0.51012E-05   -0.34908E-05   132   0.214E-02    0.705E-03
DAV:   6    -0.999657930335E+02   -0.12325E-04   -0.11375E-05   120   0.916E-03    0.420E-03
DAV:   7    -0.999658159597E+02   -0.22926E-04   -0.14190E-06   108   0.374E-03    0.222E-03
DAV:   8    -0.999658540264E+02   -0.38067E-04   -0.42794E-06    96   0.450E-03    0.118E-03
DAV:   9    -0.999658746303E+02   -0.20604E-04   -0.14018E-06   108   0.268E-03    0.847E-04
DAV:  10    -0.999658964124E+02   -0.21782E-04   -0.19187E-06    96   0.266E-03    0.350E-04
DAV:  11    -0.999659035944E+02   -0.71820E-05   -0.25129E-07   108   0.118E-03    0.308E-04
DAV:  12    -0.999659107654E+02   -0.71710E-05   -0.37524E-07    84   0.119E-03    0.156E-04
DAV:  13    -0.999659120908E+02   -0.13254E-05   -0.46765E-08   108   0.475E-04    0.126E-04
DAV:  14    -0.999659135843E+02   -0.14935E-05   -0.20634E-08    84   0.372E-04    0.481E-05
DAV:  15    -0.999659141481E+02   -0.56384E-06   -0.42866E-09   108   0.221E-04
  33 F= -.99965914E+02 E0= -.99965914E+02  d E =-.220822E-10
       N       E                     dE             d eps       ncg     rms          rms(c)
DAV:   1    -0.999655863399E+02    0.32724E-03   -0.20268E-01   108   0.134E+00    0.150E-01
DAV:   2    -0.999662903241E+02   -0.70398E-03   -0.86679E-03   108   0.304E-01    0.774E-02
DAV:   3    -0.999662484407E+02    0.41883E-04   -0.15269E-04   144   0.425E-02    0.403E-02
DAV:   4    -0.999662207704E+02    0.27670E-04   -0.44481E-05   108   0.259E-02    0.798E-03
DAV:   5    -0.999662142960E+02    0.64744E-05   -0.94781E-06   132   0.122E-02    0.470E-03
DAV:   6    -0.999662153967E+02   -0.11007E-05   -0.33688E-06   132   0.652E-03    0.244E-03
DAV:   7    -0.999662222123E+02   -0.68156E-05   -0.11586E-06    96   0.410E-03    0.139E-03
DAV:   8    -0.999662335648E+02   -0.11353E-04   -0.68885E-07    96   0.277E-03    0.770E-04
DAV:   9    -0.999662447850E+02   -0.11220E-04   -0.73178E-07    84   0.218E-03    0.576E-04
DAV:  10    -0.999662555403E+02   -0.10755E-04   -0.50389E-07    96   0.157E-03    0.239E-04
DAV:  11    -0.999662609604E+02   -0.54201E-05   -0.14277E-07    84   0.827E-04    0.203E-04
DAV:  12    -0.999662651846E+02   -0.42242E-05   -0.79563E-08    96   0.611E-04    0.834E-05
DAV:  13    -0.999662669451E+02   -0.17604E-05   -0.28102E-08    84   0.380E-04    0.566E-05
DAV:  14    -0.999662679892E+02   -0.10442E-05   -0.60201E-09    96   0.240E-04    0.347E-05
DAV:  15    -0.999662683972E+02   -0.40797E-06    0.19820E-09    84   0.144E-04
  34 F= -.99966268E+02 E0= -.99966268E+02  d E =-.121366E-10
       N       E                     dE             d eps       ncg     rms          rms(c)
DAV:   1    -0.999647441568E+02    0.15238E-02   -0.40684E-01   120   0.188E+00    0.215E-01
DAV:   2    -0.999662685489E+02   -0.15244E-02   -0.18799E-02   108   0.439E-01    0.118E-01
DAV:   3    -0.999661671993E+02    0.10135E-03   -0.30065E-04   132   0.592E-02    0.640E-02
DAV:   4    -0.999660942366E+02    0.72963E-04   -0.10731E-04   132   0.384E-02    0.115E-02
DAV:   5    -0.999660901852E+02    0.40514E-05   -0.20242E-05   132   0.174E-02    0.711E-03
DAV:   6    -0.999661068571E+02   -0.16672E-04   -0.94727E-06   132   0.102E-02    0.358E-03
DAV:   7    -0.999661350168E+02   -0.28160E-04   -0.43051E-06   132   0.660E-03    0.226E-03
DAV:   8    -0.999661696245E+02   -0.34608E-04   -0.28563E-06   108   0.424E-03    0.113E-03
DAV:   9    -0.999661959318E+02   -0.26307E-04   -0.24738E-06   108   0.354E-03    0.921E-04
DAV:  10    -0.999662183997E+02   -0.22468E-04   -0.22241E-06   108   0.295E-03    0.352E-04
DAV:  11    -0.999662252555E+02   -0.68558E-05   -0.29580E-07   108   0.126E-03    0.276E-04
DAV:  12    -0.999662304021E+02   -0.51465E-05   -0.24125E-07    84   0.970E-04    0.143E-04
DAV:  13    -0.999662320641E+02   -0.16621E-05   -0.49722E-08    96   0.480E-04    0.715E-05
DAV:  14    -0.999662330654E+02   -0.10012E-05   -0.11649E-08    96   0.307E-04    0.484E-05
DAV:  15    -0.999662334359E+02   -0.37050E-06    0.76131E-10   108   0.166E-04
  35 F= -.99966233E+02 E0= -.99966233E+02  d E =-.128279E-10
       N       E                     dE             d eps       ncg     rms          rms(c)
DAV:   1    -0.999663282993E+02   -0.95234E-04   -0.20497E-01   120   0.131E+00    0.148E-01
DAV:   2    -0.999671021051E+02   -0.77381E-03   -0.92025E-03   108   0.299E-01    0.709E-02
DAV:   3    -0.999670742517E+02    0.27853E-04   -0.16978E-04   132   0.450E-02    0.383E-02
DAV:   4    -0.999670601837E+02    0.14068E-04   -0.47690E-05   108   0.306E-02    0.797E-03
DAV:   5    -0.999670570482E+02    0.31355E-05   -0.17009E-05   144   0.153E-02    0.564E-03
DAV:   6    -0.999670574961E+02   -0.44787E-06   -0.25076E-06   132   0.495E-03
  36 F= -.99967057E+02 E0= -.99967057E+02  d E =-.112704E-10
       N       E                     dE             d eps       ncg     rms          rms(c)
DAV:   1    -0.999657369225E+02    0.13201E-02   -0.41329E-01   120   0.181E+00    0.187E-01
DAV:   2    -0.999671471744E+02   -0.14103E-02   -0.16812E-02   132   0.399E-01    0.926E-02
DAV:   3    -0.999671100385E+02    0.37136E-04   -0.31736E-04   132   0.605E-02    0.489E-02
DAV:   4    -0.999670916125E+02    0.18426E-04   -0.80022E-05   132   0.394E-02    0.101E-02
DAV:   5    -0.999670884693E+02    0.31432E-05   -0.26808E-05   132   0.195E-02    0.711E-03
DAV:   6    -0.999670911200E+02   -0.26506E-05   -0.43750E-06   132   0.702E-03    0.452E-03
DAV:   7    -0.999670987374E+02   -0.76175E-05   -0.81387E-07   108   0.406E-03    0.166E-03
DAV:   8    -0.999671086497E+02   -0.99123E-05   -0.11672E-06    96   0.387E-03    0.124E-03
DAV:   9    -0.999671247915E+02   -0.16142E-04   -0.11636E-06   120   0.349E-03    0.571E-04
DAV:  10    -0.999671315358E+02   -0.67443E-05   -0.38824E-07    84   0.194E-03    0.655E-04
DAV:  11    -0.999671350581E+02   -0.35223E-05   -0.75998E-08   108   0.896E-04    0.398E-04
DAV:  12    -0.999671415223E+02   -0.64643E-05   -0.24878E-07    84   0.109E-03    0.286E-04
DAV:  13    -0.999671428279E+02   -0.13055E-05   -0.29606E-08   108   0.462E-04    0.247E-04
DAV:  14    -0.999671448076E+02   -0.19797E-05   -0.39126E-08    84   0.451E-04    0.521E-05
DAV:  15    -0.999671454718E+02   -0.66423E-06   -0.56151E-09    96   0.245E-04
  37 F= -.99967145E+02 E0= -.99967145E+02  d E =-.217247E-10
       N       E                     dE             d eps       ncg     rms          rms(c)
DAV:   1    -0.999654341562E+02    0.17107E-02   -0.19677E-01    96   0.135E+00    0.147E-01
DAV:   2    -0.999665487095E+02   -0.11146E-02   -0.13318E-02   108   0.332E-01    0.784E-02
DAV:   3    -0.999665096215E+02    0.39088E-04   -0.26311E-04   144   0.536E-02    0.436E-02
DAV:   4    -0.999664793461E+02    0.30275E-04   -0.54134E-05   120   0.305E-02    0.963E-03
DAV:   5    -0.999664711482E+02    0.81979E-05   -0.16666E-05   132   0.158E-02    0.580E-03
DAV:   6    -0.999664738876E+02   -0.27393E-05   -0.30983E-06   132   0.622E-03    0.368E-03
DAV:   7    -0.999664838116E+02   -0.99240E-05   -0.10241E-06    96   0.369E-03    0.137E-03
DAV:   8    -0.999664954191E+02   -0.11608E-04   -0.91791E-07   120   0.314E-03    0.982E-04
DAV:   9    -0.999665124211E+02   -0.17002E-04   -0.14223E-06    96   0.304E-03    0.471E-04
DAV:  10    -0.999665194640E+02   -0.70429E-05   -0.42639E-07    96   0.175E-03    0.443E-04
DAV:  11    -0.999665235447E+02   -0.40807E-05   -0.15135E-07   108   0.951E-04    0.233E-04
DAV:  12    -0.999665272671E+02   -0.37223E-05   -0.16230E-07    84   0.827E-04    0.160E-04
DAV:  13    -0.999665287129E+02   -0.14458E-05   -0.41193E-08    96   0.438E-04    0.106E-04
DAV:  14    -0.999665296261E+02   -0.91326E-06   -0.19541E-08    84   0.308E-04
  38 F= -.99966530E+02 E0= -.99966530E+02  d E =-.148129E-10
       N       E                     dE             d eps       ncg     rms          rms(c)
DAV:   1    -0.999646213090E+02    0.19074E-02   -0.39220E-01    96   0.170E+00    0.208E-01
DAV:   2    -0.999661334676E+02   -0.15122E-02   -0.18623E-02   132   0.394E-01    0.119E-01
DAV:   3    -0.999660055812E+02    0.12789E-03   -0.32984E-04   132   0.676E-02    0.595E-02
DAV:   4    -0.999659610743E+02    0.44507E-04   -0.13501E-04   132   0.431E-02    0.119E-02
DAV:   5    -0.999659505185E+02    0.10556E-04   -0.20913E-05   132   0.175E-02    0.737E-03
DAV:   6    -0.999659540093E+02   -0.34908E-05   -0.69545E-06   132   0.788E-03    0.376E-03
DAV:   7    -0.999659679768E+02   -0.13968E-04   -0.15442E-06   132   0.393E-03    0.175E-03
DAV:   8    -0.999659889330E+02   -0.20956E-04   -0.11889E-06   120   0.273E-03    0.104E-03
DAV:   9    -0.999660084119E+02   -0.19479E-04   -0.10076E-06   120   0.210E-03    0.720E-04
DAV:  10    -0.999660269597E+02   -0.18548E-04   -0.10810E-06   108   0.193E-03    0.379E-04
DAV:  11    -0.999660323287E+02   -0.53690E-05   -0.81369E-08   108   0.788E-04    0.220E-04
DAV:  12    -0.999660389711E+02   -0.66424E-05   -0.20193E-07    96   0.902E-04    0.129E-04
DAV:  13    -0.999660406196E+02   -0.16485E-05   -0.21866E-08   108   0.383E-04    0.888E-05
DAV:  14    -0.999660421299E+02   -0.15102E-05   -0.99970E-09    84   0.302E-04    0.409E-05
DAV:  15    -0.999660425864E+02   -0.45649E-06    0.11335E-09   108   0.163E-04
  39 F= -.99966043E+02 E0= -.99966043E+02  d E =-.110785E-10
       N       E                     dE             d eps       ncg     rms          rms(c)
DAV:   1    -0.999665542146E+02   -0.51208E-03   -0.19890E-01    96   0.122E+00    0.137E-01
DAV:   2    -0.999673021807E+02   -0.74797E-03   -0.90873E-03   120   0.270E-01    0.787E-02
DAV:   3    -0.999672480012E+02    0.54180E-04   -0.15945E-04   132   0.458E-02    0.412E-02
DAV:   4    -0.999672242396E+02    0.23762E-04   -0.61683E-05   108   0.297E-02    0.815E-03
DAV:   5    -0.999672195654E+02    0.46742E-05   -0.10717E-05   132   0.125E-02    0.514E-03
DAV:   6    -0.999672232335E+02   -0.36681E-05   -0.33621E-06   132   0.570E-03    0.246E-03
DAV:   7    -0.999672316250E+02   -0.83915E-05   -0.83150E-07    96   0.285E-03    0.118E-03
DAV:   8    -0.999672424087E+02   -0.10784E-04   -0.68086E-07   108   0.202E-03    0.670E-04
DAV:   9    -0.999672527598E+02   -0.10351E-04   -0.68456E-07    96   0.176E-03    0.457E-04
DAV:  10    -0.999672623568E+02   -0.95970E-05   -0.84939E-07   108   0.170E-03    0.243E-04
DAV:  11    -0.999672646218E+02   -0.22650E-05   -0.50105E-08   108   0.657E-04    0.149E-04
DAV:  12    -0.999672672301E+02   -0.26083E-05   -0.98941E-08    84   0.651E-04    0.882E-05
DAV:  13    -0.999672681044E+02   -0.87431E-06   -0.21442E-08    96   0.335E-04
  40 F= -.99967268E+02 E0= -.99967268E+02  d E =-.663000E-11
       N       E                     dE             d eps       ncg     rms          rms(c)
DAV:   1    -0.999661732586E+02    0.10940E-02   -0.41286E-01    96   0.178E+00    0.201E-01
DAV:   2    -0.999674668783E+02   -0.12936E-02   -0.15477E-02   144   0.359E-01    0.858E-02
DAV:   3    -0.999674071943E+02    0.59684E-04   -0.33650E-04   132   0.635E-02    0.440E-02
DAV:   4    -0.999673900986E+02    0.17096E-04   -0.78276E-05   132   0.360E-02    0.123E-02
DAV:   5    -0.999673866041E+02    0.34944E-05   -0.18786E-05   132   0.172E-02    0.728E-03
DAV:   6    -0.999673875374E+02   -0.93326E-06   -0.40117E-06   132   0.724E-03
  41 F= -.99967388E+02 E0= -.99967388E+02  d E =-.345731E-10
       N       E                     dE             d eps       ncg     rms          rms(c)
DAV:   1    -0.999662993762E+02    0.10872E-02   -0.20820E-01    96   0.122E+00    0.136E-01
DAV:   2    -0.999669471355E+02   -0.64776E-03   -0.75430E-03   132   0.251E-01    0.610E-02
DAV:   3    -0.999669249121E+02    0.22223E-04   -0.15818E-04   120   0.431E-02    0.317E-02
DAV:   4    -0.999669257284E+02   -0.81633E-06   -0.45651E-05   108   0.264E-02    0.827E-03
DAV:   5    -0.999669267746E+02   -0.10462E-05   -0.96343E-06   132   0.119E-02    0.478E-03
DAV:   6    -0.999669283487E+02   -0.15741E-05   -0.19450E-06   108   0.482E-03    0.259E-03
DAV:   7    -0.999669308925E+02   -0.25439E-05   -0.26778E-07   108   0.211E-03    0.811E-04
DAV:   8    -0.999669334092E+02   -0.25167E-05   -0.16331E-07    84   0.157E-03    0.500E-04
DAV:   9    -0.999669377953E+02   -0.43860E-05   -0.24735E-07    96   0.167E-03    0.205E-04
DAV:  10    -0.999669397579E+02   -0.19626E-05   -0.13447E-07   108   0.105E-03    0.220E-04
DAV:  11    -0.999669408210E+02   -0.10631E-05   -0.17131E-08    84   0.498E-04    0.128E-04
DAV:  12    -0.999669421427E+02   -0.13217E-05   -0.32230E-08    84   0.430E-04    0.692E-05
DAV:  13    -0.999669428435E+02   -0.70075E-06   -0.11954E-08    96   0.266E-04
  42 F= -.99966943E+02 E0= -.99966943E+02  d E =-.582206E-11
       N       E                     dE             d eps       ncg     rms          rms(c)
DAV:   1    -0.999659886907E+02    0.95345E-03   -0.41172E-01    96   0.178E+00    0.215E-01
DAV:   2    -0.999673055922E+02   -0.13169E-02   -0.15905E-02   144   0.375E-01    0.944E-02
DAV:   3    -0.999672320838E+02    0.73508E-04   -0.32839E-04   132   0.641E-02    0.495E-02
DAV:   4    -0.999672071183E+02    0.24966E-04   -0.94721E-05   132   0.389E-02    0.121E-02
DAV:   5    -0.999672023067E+02    0.48116E-05   -0.22160E-05   132   0.182E-02    0.707E-03
DAV:   6    -0.999672047846E+02   -0.24779E-05   -0.42097E-06   132   0.699E-03    0.396E-03
DAV:   7    -0.999672125026E+02   -0.77180E-05   -0.64121E-07   108   0.309E-03    0.146E-03
DAV:   8    -0.999672215835E+02   -0.90808E-05   -0.66761E-07   120   0.262E-03    0.864E-04
DAV:   9    -0.999672340527E+02   -0.12469E-04   -0.86422E-07   120   0.264E-03    0.443E-04
DAV:  10    -0.999672417774E+02   -0.77247E-05   -0.55469E-07    96   0.188E-03    0.369E-04
DAV:  11    -0.999672444241E+02   -0.26467E-05   -0.56606E-08   108   0.825E-04    0.222E-04
DAV:  12    -0.999672477008E+02   -0.32767E-05   -0.10452E-07    84   0.713E-04    0.123E-04
DAV:  13    -0.999672492031E+02   -0.15023E-05   -0.34058E-08    96   0.401E-04    0.105E-04
DAV:  14    -0.999672502456E+02   -0.10424E-05   -0.13249E-08    84   0.284E-04    0.442E-05
DAV:  15    -0.999672507096E+02   -0.46409E-06   -0.36970E-10   108   0.175E-04
  43 F= -.99967251E+02 E0= -.99967251E+02  d E =-.284949E-10
       N       E                     dE             d eps       ncg     rms          rms(c)
DAV:   1    -0.999662077496E+02    0.10425E-02   -0.20306E-01   120   0.127E+00    0.143E-01
DAV:   2    -0.999671530906E+02   -0.94534E-03   -0.11159E-02   108   0.295E-01    0.667E-02
DAV:   3    -0.999671193370E+02    0.33754E-04   -0.21942E-04   144   0.511E-02    0.365E-02
DAV:   4    -0.999671050131E+02    0.14324E-04   -0.49497E-05   132   0.288E-02    0.913E-03
DAV:   5    -0.999671016344E+02    0.33787E-05   -0.12767E-05   132   0.139E-02    0.541E-03
DAV:   6    -0.999671024297E+02   -0.79524E-06   -0.25416E-06   132   0.595E-03
  44 F= -.99967102E+02 E0= -.99967102E+02  d E =-.627851E-10
       N       E                     dE             d eps       ncg     rms          rms(c)
DAV:   1    -0.999656495025E+02    0.14521E-02   -0.40949E-01    96   0.162E+00    0.177E-01
DAV:   2    -0.999670499096E+02   -0.14004E-02   -0.16603E-02   144   0.363E-01    0.900E-02
DAV:   3    -0.999670066999E+02    0.43210E-04   -0.27725E-04   120   0.585E-02    0.467E-02
DAV:   4    -0.999669820189E+02    0.24681E-04   -0.80120E-05   120   0.379E-02    0.101E-02
DAV:   5    -0.999669752511E+02    0.67678E-05   -0.21851E-05   132   0.179E-02    0.627E-03
DAV:   6    -0.999669763956E+02   -0.11445E-05   -0.44785E-06   120   0.717E-03    0.331E-03
DAV:   7    -0.999669822447E+02   -0.58491E-05   -0.73757E-07   108   0.324E-03    0.168E-03
DAV:   8    -0.999669916385E+02   -0.93938E-05   -0.74740E-07    96   0.262E-03    0.750E-04
DAV:   9    -0.999670022661E+02   -0.10628E-04   -0.77898E-07   108   0.236E-03    0.584E-04
DAV:  10    -0.999670112973E+02   -0.90312E-05   -0.61311E-07    84   0.187E-03    0.259E-04
DAV:  11    -0.999670151861E+02   -0.38888E-05   -0.18031E-07    96   0.103E-03    0.208E-04
DAV:  12    -0.999670180445E+02   -0.28584E-05   -0.97695E-08    84   0.674E-04    0.118E-04
DAV:  13    -0.999670193932E+02   -0.13488E-05   -0.37973E-08    96   0.416E-04    0.793E-05
DAV:  14    -0.999670202101E+02   -0.81688E-06   -0.12152E-08    84   0.258E-04
  45 F= -.99967020E+02 E0= -.99967020E+02  d E =-.663477E-11
       N       E                     dE             d eps       ncg     rms          rms(c)
DAV:   1    -0.999657029197E+02    0.13165E-02   -0.19849E-01   108   0.117E+00    0.137E-01
DAV:   2    -0.999664761225E+02   -0.77320E-03   -0.95774E-03   108   0.265E-01    0.826E-02
DAV:   3    -0.999664157376E+02    0.60385E-04   -0.14122E-04   132   0.417E-02    0.425E-02
DAV:   4    -0.999663867418E+02    0.28996E-04   -0.61472E-05   120   0.293E-02    0.774E-03
DAV:   5    -0.999663801431E+02    0.65987E-05   -0.13023E-05   132   0.131E-02    0.463E-03
DAV:   6    -0.999663817495E+02   -0.16064E-05   -0.36700E-06   132   0.517E-03    0.255E-03
DAV:   7    -0.999663895884E+02   -0.78389E-05   -0.59463E-07   108   0.246E-03    0.127E-03
DAV:   8    -0.999664028945E+02   -0.13306E-04   -0.95468E-07   108   0.226E-03    0.744E-04
DAV:   9    -0.999664142087E+02   -0.11314E-04   -0.55325E-07   108   0.162E-03    0.572E-04
DAV:  10    -0.999664247005E+02   -0.10492E-04   -0.47324E-07    96   0.136E-03    0.228E-04
DAV:  11    -0.999664280856E+02   -0.33850E-05   -0.93382E-08   108   0.652E-04    0.179E-04
DAV:  12    -0.999664323564E+02   -0.42708E-05   -0.11198E-07    84   0.679E-04    0.887E-05
DAV:  13    -0.999664336983E+02   -0.13418E-05   -0.23869E-08    96   0.352E-04    0.615E-05
DAV:  14    -0.999664348942E+02   -0.11960E-05   -0.95773E-09    84   0.261E-04    0.306E-05
DAV:  15    -0.999664352467E+02   -0.35251E-06    0.24345E-09    96   0.141E-04
  46 F= -.99966435E+02 E0= -.99966435E+02  d E =-.158653E-10
       N       E                     dE             d eps       ncg     rms          rms(c)
DAV:   1    -0.999652562588E+02    0.11786E-02   -0.40305E-01    96   0.163E+00    0.187E-01
DAV:   2    -0.999667677583E+02   -0.15115E-02   -0.18465E-02   144   0.380E-01    0.108E-01
DAV:   3    -0.999666701195E+02    0.97639E-04   -0.28493E-04   132   0.604E-02    0.561E-02
DAV:   4    -0.999666223757E+02    0.47744E-04   -0.11171E-04   132   0.414E-02    0.109E-02
DAV:   5    -0.999666159233E+02    0.64524E-05   -0.24134E-05   132   0.185E-02    0.688E-03
DAV:   6    -0.999666242586E+02   -0.83354E-05   -0.68284E-06   132   0.787E-03    0.368E-03
DAV:   7    -0.999666413996E+02   -0.17141E-04   -0.17714E-06   120   0.398E-03    0.185E-03
DAV:   8    -0.999666636613E+02   -0.22262E-04   -0.16722E-06    96   0.295E-03    0.956E-04
DAV:   9    -0.999666848708E+02   -0.21209E-04   -0.19321E-06   120   0.284E-03    0.766E-04
DAV:  10    -0.999667018451E+02   -0.16974E-04   -0.16159E-06    96   0.240E-03    0.352E-04
DAV:  11    -0.999667056835E+02   -0.38384E-05   -0.94739E-08   108   0.860E-04    0.272E-04
DAV:  12    -0.999667109885E+02   -0.53049E-05   -0.24488E-07    84   0.101E-03    0.131E-04
DAV:  13    -0.999667120546E+02   -0.10662E-05   -0.33881E-08    96   0.420E-04    0.100E-04
DAV:  14    -0.999667129478E+02   -0.89317E-06   -0.54918E-09    96   0.283E-04
  47 F= -.99966713E+02 E0= -.99966713E+02  d E =-.149395E-10
       N       E                     dE             d eps       ncg     rms          rms(c)
DAV:   1    -0.999663007571E+02    0.41130E-03   -0.20030E-01    96   0.117E+00    0.135E-01
DAV:   2    -0.999671007962E+02   -0.80004E-03   -0.97964E-03   120   0.266E-01    0.804E-02
DAV:   3    -0.999670455247E+02    0.55272E-04   -0.14372E-04   132   0.411E-02    0.430E-02
DAV:   4    -0.999670167427E+02    0.28782E-04   -0.60939E-05   108   0.297E-02    0.764E-03
DAV:   5    -0.999670104717E+02    0.62710E-05   -0.15457E-05   132   0.141E-02    0.469E-03
DAV:   6    -0.999670116107E+02   -0.11390E-05   -0.33978E-06   132   0.528E-03    0.278E-03
DAV:   7    -0.999670188464E+02   -0.72357E-05   -0.64678E-07   120   0.253E-03    0.133E-03
DAV:   8    -0.999670313298E+02   -0.12483E-04   -0.83765E-07   108   0.227E-03    0.767E-04
DAV:   9    -0.999670427076E+02   -0.11378E-04   -0.57724E-07   108   0.166E-03    0.563E-04
DAV:  10    -0.999670528384E+02   -0.10131E-04   -0.46173E-07    96   0.136E-03    0.234E-04
DAV:  11    -0.999670564937E+02   -0.36553E-05   -0.97016E-08   108   0.677E-04    0.182E-04
DAV:  12    -0.999670608543E+02   -0.43606E-05   -0.11915E-07    84   0.702E-04    0.966E-05
DAV:  13    -0.999670621605E+02   -0.13062E-05   -0.22683E-08    96   0.348E-04    0.682E-05
DAV:  14    -0.999670632455E+02   -0.10850E-05   -0.80202E-09    84   0.252E-04    0.318E-05
DAV:  15    -0.999670636739E+02   -0.42838E-06    0.16520E-09    96   0.153E-04
  48 F= -.99967064E+02 E0= -.99967064E+02  d E =-.110193E-10
       N       E                     dE             d eps       ncg     rms          rms(c)
DAV:   1    -0.999659049962E+02    0.11582E-02   -0.41295E-01   120   0.163E+00    0.173E-01
DAV:   2    -0.999672907932E+02   -0.13858E-02   -0.16653E-02   120   0.360E-01    0.878E-02
DAV:   3    -0.999672357443E+02    0.55049E-04   -0.28470E-04   132   0.592E-02    0.451E-02
DAV:   4    -0.999672086965E+02    0.27048E-04   -0.77815E-05   132   0.384E-02    0.101E-02
DAV:   5    -0.999672039006E+02    0.47960E-05   -0.22362E-05   132   0.184E-02    0.642E-03
DAV:   6    -0.999672074916E+02   -0.35911E-05   -0.48009E-06   132   0.741E-03    0.372E-03
DAV:   7    -0.999672155024E+02   -0.80107E-05   -0.63750E-07   108   0.302E-03    0.179E-03
DAV:   8    -0.999672277349E+02   -0.12233E-04   -0.94175E-07   108   0.294E-03    0.895E-04
DAV:   9    -0.999672432156E+02   -0.15481E-04   -0.12424E-06   108   0.298E-03    0.597E-04
DAV:  10    -0.999672528368E+02   -0.96211E-05   -0.69724E-07   108   0.205E-03    0.442E-04
DAV:  11    -0.999672571361E+02   -0.42994E-05   -0.10587E-07    96   0.992E-04    0.201E-04
DAV:  12    -0.999672600710E+02   -0.29348E-05   -0.94660E-08    84   0.669E-04    0.195E-04
DAV:  13    -0.999672619623E+02   -0.18914E-05   -0.45756E-08    96   0.453E-04    0.884E-05
DAV:  14    -0.999672627992E+02   -0.83685E-06   -0.93934E-09    84   0.253E-04
  49 F= -.99967263E+02 E0= -.99967263E+02  d E =-.328029E-10
       N       E                     dE             d eps       ncg     rms          rms(c)
DAV:   1    -0.999651717254E+02    0.20902E-02   -0.19811E-01    96   0.132E+00    0.143E-01
DAV:   2    -0.999661499624E+02   -0.97824E-03   -0.12049E-02   120   0.324E-01    0.754E-02
DAV:   3    -0.999661160018E+02    0.33961E-04   -0.22673E-04   144   0.490E-02    0.411E-02
DAV:   4    -0.999660911561E+02    0.24846E-04   -0.46523E-05   108   0.284E-02    0.860E-03
DAV:   5    -0.999660837267E+02    0.74294E-05   -0.12751E-05   132   0.139E-02    0.517E-03
DAV:   6    -0.999660847735E+02   -0.10468E-05   -0.30594E-06   132   0.626E-03    0.312E-03
DAV:   7    -0.999660910663E+02   -0.62928E-05   -0.92153E-07   108   0.423E-03    0.128E-03
DAV:   8    -0.999661005251E+02   -0.94588E-05   -0.91730E-07   108   0.356E-03    0.101E-03
DAV:   9    -0.999661150610E+02   -0.14536E-04   -0.10612E-06   120   0.280E-03    0.458E-04
DAV:  10    -0.999661219380E+02   -0.68769E-05   -0.28812E-07   108   0.145E-03    0.402E-04
DAV:  11    -0.999661264973E+02   -0.45594E-05   -0.11590E-07    96   0.874E-04    0.169E-04
DAV:  12    -0.999661299034E+02   -0.34061E-05   -0.10910E-07    96   0.677E-04    0.137E-04
DAV:  13    -0.999661310190E+02   -0.11156E-05   -0.10412E-08   108   0.305E-04    0.667E-05
DAV:  14    -0.999661323149E+02   -0.12959E-05   -0.21417E-08    84   0.309E-04    0.445E-05
DAV:  15    -0.999661327629E+02   -0.44798E-06    0.16460E-09    96   0.153E-04
  50 F= -.99966133E+02 E0= -.99966133E+02  d E =-.113409E-10
       N       E                     dE             d eps       ncg     rms          rms(c)
DAV:   1    -0.999647037294E+02    0.14286E-02   -0.40521E-01   120   0.189E+00    0.205E-01
DAV:   2    -0.999661823395E+02   -0.14786E-02   -0.18393E-02   108   0.438E-01    0.119E-01
DAV:   3    -0.999660718340E+02    0.11051E-03   -0.27205E-04   132   0.572E-02    0.623E-02
DAV:   4    -0.999659937992E+02    0.78035E-04   -0.10150E-04   132   0.366E-02    0.109E-02
DAV:   5    -0.999659922553E+02    0.15440E-05   -0.16841E-05   132   0.166E-02    0.643E-03
DAV:   6    -0.999660151548E+02   -0.22900E-04   -0.10810E-05   132   0.107E-02    0.341E-03
DAV:   7    -0.999660472720E+02   -0.32117E-04   -0.41463E-06   108   0.657E-03    0.216E-03
DAV:   8    -0.999660859226E+02   -0.38651E-04   -0.34595E-06   108   0.448E-03    0.110E-03
DAV:   9    -0.999661147788E+02   -0.28856E-04   -0.28525E-06    96   0.363E-03    0.831E-04
DAV:  10    -0.999661363150E+02   -0.21536E-04   -0.20134E-06   108   0.276E-03    0.370E-04
DAV:  11    -0.999661434588E+02   -0.71439E-05   -0.29901E-07   108   0.122E-03    0.242E-04
DAV:  12    -0.999661482666E+02   -0.48077E-05   -0.23342E-07    84   0.938E-04    0.143E-04
DAV:  13    -0.999661499453E+02   -0.16787E-05   -0.43186E-08    96   0.480E-04    0.629E-05
DAV:  14    -0.999661508443E+02   -0.89901E-06   -0.89277E-09    96   0.304E-04
  51 F= -.99966151E+02 E0= -.99966151E+02  d E =-.152989E-10
       N       E                     dE             d eps       ncg     rms          rms(c)
DAV:   1    -0.999666771828E+02   -0.52724E-03   -0.20312E-01   108   0.132E+00    0.149E-01
DAV:   2    -0.999673855680E+02   -0.70839E-03   -0.86180E-03   108   0.299E-01    0.757E-02
DAV:   3    -0.999673469907E+02    0.38577E-04   -0.15851E-04   132   0.438E-02    0.393E-02
DAV:   4    -0.999673250747E+02    0.21916E-04   -0.49529E-05   132   0.284E-02    0.793E-03
DAV:   5    -0.999673202448E+02    0.48299E-05   -0.12748E-05   132   0.136E-02    0.493E-03
DAV:   6    -0.999673213346E+02   -0.10898E-05   -0.33462E-06   132   0.593E-03    0.272E-03
DAV:   7    -0.999673267401E+02   -0.54055E-05   -0.58581E-07   108   0.322E-03    0.137E-03
DAV:   8    -0.999673371153E+02   -0.10375E-04   -0.87429E-07    96   0.298E-03    0.801E-04
DAV:   9    -0.999673475308E+02   -0.10415E-04   -0.70086E-07    96   0.224E-03    0.578E-04
DAV:  10    -0.999673551249E+02   -0.75942E-05   -0.32410E-07    96   0.141E-03    0.279E-04
DAV:  11    -0.999673591833E+02   -0.40584E-05   -0.87915E-08    96   0.723E-04    0.183E-04
DAV:  12    -0.999673626484E+02   -0.34651E-05   -0.88710E-08    84   0.633E-04    0.133E-04
DAV:  13    -0.999673640720E+02   -0.14235E-05   -0.20408E-08   108   0.344E-04    0.618E-05
DAV:  14    -0.999673649547E+02   -0.88267E-06   -0.70542E-09    84   0.240E-04
  52 F= -.99967365E+02 E0= -.99967365E+02  d E =-.755915E-11
       N       E                     dE             d eps       ncg     rms          rms(c)
DAV:   1    -0.999658917960E+02    0.14723E-02   -0.41411E-01    96   0.181E+00    0.197E-01
DAV:   2    -0.999672932206E+02   -0.14014E-02   -0.16626E-02   132   0.385E-01    0.861E-02
DAV:   3    -0.999672628197E+02    0.30401E-04   -0.34926E-04   144   0.630E-02    0.458E-02
DAV:   4    -0.999672482530E+02    0.14567E-04   -0.68060E-05   132   0.394E-02    0.102E-02
DAV:   5    -0.999672457430E+02    0.25100E-05   -0.29787E-05   132   0.205E-02    0.701E-03
DAV:   6    -0.999672466783E+02   -0.93524E-06   -0.35223E-06   132   0.629E-03
  53 F= -.99967247E+02 E0= -.99967247E+02  d E =-.400306E-10
       N       E                     dE             d eps       ncg     rms          rms(c)
DAV:   1    -0.999649444617E+02    0.23013E-02   -0.20461E-01   120   0.134E+00    0.149E-01
DAV:   2    -0.999657281828E+02   -0.78372E-03   -0.92846E-03   120   0.306E-01    0.731E-02
DAV:   3    -0.999657031580E+02    0.25025E-04   -0.16747E-04   120   0.447E-02    0.394E-02
DAV:   4    -0.999656982462E+02    0.49118E-05   -0.50615E-05   120   0.302E-02    0.795E-03
DAV:   5    -0.999656986746E+02   -0.42843E-06   -0.15817E-05   120   0.146E-02    0.553E-03
DAV:   6    -0.999657014086E+02   -0.27340E-05   -0.27022E-06   132   0.509E-03    0.337E-03
DAV:   7    -0.999657073297E+02   -0.59211E-05   -0.44582E-07    84   0.250E-03    0.147E-03
DAV:   8    -0.999657157640E+02   -0.84343E-05   -0.74926E-07    96   0.251E-03    0.811E-04
DAV:   9    -0.999657253088E+02   -0.95448E-05   -0.60149E-07    96   0.208E-03    0.557E-04
DAV:  10    -0.999657311595E+02   -0.58507E-05   -0.27889E-07    84   0.134E-03    0.338E-04
DAV:  11    -0.999657341067E+02   -0.29472E-05   -0.49138E-08   108   0.694E-04    0.156E-04
DAV:  12    -0.999657371894E+02   -0.30827E-05   -0.84344E-08    84   0.635E-04    0.181E-04
DAV:  13    -0.999657381412E+02   -0.95184E-06   -0.84241E-09   108   0.296E-04
  54 F= -.99965738E+02 E0= -.99965738E+02  d E =-.156747E-10
       N       E                     dE             d eps       ncg     rms          rms(c)
DAV:   1    -0.999642511246E+02    0.14861E-02   -0.40808E-01   120   0.185E+00    0.209E-01
DAV:   2    -0.999659272189E+02   -0.16761E-02   -0.20514E-02   120   0.469E-01    0.132E-01
DAV:   3    -0.999658019897E+02    0.12523E-03   -0.28482E-04   132   0.599E-02    0.730E-02
DAV:   4    -0.999657382978E+02    0.63692E-04   -0.15918E-04   132   0.471E-02    0.116E-02
DAV:   5    -0.999657334042E+02    0.48936E-05   -0.33168E-05   132   0.209E-02    0.767E-03
DAV:   6    -0.999657476864E+02   -0.14282E-04   -0.12656E-05   120   0.987E-03    0.439E-03
DAV:   7    -0.999657761869E+02   -0.28501E-04   -0.27177E-06   108   0.496E-03    0.227E-03
DAV:   8    -0.999658195730E+02   -0.43386E-04   -0.52031E-06   108   0.506E-03    0.132E-03
DAV:   9    -0.999658428611E+02   -0.23288E-04   -0.18090E-06    96   0.298E-03    0.103E-03
DAV:  10    -0.999658664860E+02   -0.23625E-04   -0.22388E-06   108   0.293E-03    0.423E-04
DAV:  11    -0.999658737686E+02   -0.72827E-05   -0.29648E-07   108   0.125E-03    0.377E-04
DAV:  12    -0.999658799194E+02   -0.61507E-05   -0.31908E-07    96   0.115E-03    0.142E-04
DAV:  13    -0.999658814798E+02   -0.15604E-05   -0.46978E-08   108   0.504E-04    0.115E-04
DAV:  14    -0.999658828417E+02   -0.13619E-05   -0.17182E-08    84   0.353E-04    0.531E-05
DAV:  15    -0.999658832640E+02   -0.42224E-06   -0.13680E-09   108   0.194E-04
  55 F= -.99965883E+02 E0= -.99965883E+02  d E =-.111089E-10
       N       E                     dE             d eps       ncg     rms          rms(c)
DAV:   1    -0.999658908070E+02   -0.79652E-05   -0.20199E-01   120   0.133E+00    0.142E-01
DAV:   2    -0.999669420608E+02   -0.10513E-02   -0.12856E-02   120   0.355E-01    0.844E-02
DAV:   3    -0.999668949508E+02    0.47110E-04   -0.22381E-04   144   0.506E-02    0.495E-02
DAV:   4    -0.999668568386E+02    0.38112E-04   -0.64666E-05   132   0.353E-02    0.911E-03
DAV:   5    -0.999668476051E+02    0.92336E-05   -0.25056E-05   132   0.183E-02    0.664E-03
DAV:   6    -0.999668481965E+02   -0.59144E-06   -0.38639E-06   132   0.650E-03
  56 F= -.99966848E+02 E0= -.99966848E+02  d E =-.764483E-11
       N       E                     dE             d eps       ncg     rms          rms(c)
DAV:   1    -0.999655303564E+02    0.13172E-02   -0.41142E-01   120   0.162E+00    0.180E-01
DAV:   2    -0.999669589578E+02   -0.14286E-02   -0.16896E-02   120   0.370E-01    0.963E-02
DAV:   3    -0.999669364393E+02    0.22519E-04   -0.29066E-04   120   0.573E-02    0.510E-02
DAV:   4    -0.999669268470E+02    0.95923E-05   -0.77091E-05   108   0.391E-02    0.929E-03
DAV:   5    -0.999669247027E+02    0.21444E-05   -0.25600E-05   132   0.190E-02    0.680E-03
DAV:   6    -0.999669266646E+02   -0.19619E-05   -0.46082E-06   108   0.678E-03    0.398E-03
DAV:   7    -0.999669322070E+02   -0.55424E-05   -0.69987E-07   108   0.368E-03    0.176E-03
DAV:   8    -0.999669415384E+02   -0.93314E-05   -0.13051E-06    96   0.378E-03    0.115E-03
DAV:   9    -0.999669524188E+02   -0.10880E-04   -0.70985E-07    96   0.267E-03    0.641E-04
DAV:  10    -0.999669592513E+02   -0.68325E-05   -0.37671E-07    84   0.164E-03    0.418E-04
DAV:  11    -0.999669644532E+02   -0.52019E-05   -0.12967E-07    96   0.912E-04    0.220E-04
DAV:  12    -0.999669676027E+02   -0.31495E-05   -0.83537E-08    84   0.620E-04    0.208E-04
DAV:  13    -0.999669697592E+02   -0.21565E-05   -0.41211E-08    96   0.442E-04    0.632E-05
DAV:  14    -0.999669706522E+02   -0.89298E-06   -0.77883E-09    84   0.258E-04
  57 F= -.99966971E+02 E0= -.99966971E+02  d E =-.376068E-10
       N       E                     dE             d eps       ncg     rms          rms(c)
DAV:   1    -0.999657368804E+02    0.12329E-02   -0.20734E-01   120   0.114E+00    0.119E-01
DAV:   2    -0.999663844697E+02   -0.64759E-03   -0.77655E-03   120   0.224E-01    0.557E-02
DAV:   3    -0.999663751324E+02    0.93373E-05   -0.14175E-04   132   0.414E-02    0.295E-02
DAV:   4    -0.999663676980E+02    0.74344E-05   -0.31044E-05   108   0.289E-02    0.583E-03
DAV:   5    -0.999663671317E+02    0.56626E-06   -0.16748E-05   132   0.148E-02    0.519E-03
DAV:   6    -0.999663675222E+02   -0.39047E-06   -0.12190E-06   120   0.349E-03
  58 F= -.99966368E+02 E0= -.99966368E+02  d E =-.177184E-10
       N       E                     dE             d eps       ncg     rms          rms(c)
DAV:   1    -0.999648000173E+02    0.15671E-02   -0.40350E-01   108   0.169E+00    0.193E-01
DAV:   2    -0.999664123677E+02   -0.16124E-02   -0.19495E-02   120   0.404E-01    0.113E-01
DAV:   3    -0.999663396622E+02    0.72706E-04   -0.28978E-04   132   0.575E-02    0.609E-02
DAV:   4    -0.999662847266E+02    0.54936E-04   -0.98875E-05   108   0.401E-02    0.101E-02
DAV:   5    -0.999662804211E+02    0.43055E-05   -0.24851E-05   132   0.188E-02    0.698E-03
DAV:   6    -0.999662901655E+02   -0.97443E-05   -0.81966E-06   132   0.837E-03    0.398E-03
DAV:   7    -0.999663085949E+02   -0.18429E-04   -0.19000E-06   132   0.444E-03    0.213E-03
DAV:   8    -0.999663374877E+02   -0.28893E-04   -0.30406E-06    96   0.417E-03    0.108E-03
DAV:   9    -0.999663555296E+02   -0.18042E-04   -0.15940E-06   108   0.289E-03    0.960E-04
DAV:  10    -0.999663734976E+02   -0.17968E-04   -0.16723E-06    96   0.262E-03    0.327E-04
DAV:  11    -0.999663790329E+02   -0.55353E-05   -0.22515E-07   108   0.111E-03    0.318E-04
DAV:  12    -0.999663845083E+02   -0.54754E-05   -0.32144E-07    84   0.111E-03    0.131E-04
DAV:  13    -0.999663855864E+02   -0.10781E-05   -0.33867E-08    96   0.416E-04    0.952E-05
DAV:  14    -0.999663867484E+02   -0.11620E-05   -0.16411E-08    84   0.332E-04    0.468E-05
DAV:  15    -0.999663871786E+02   -0.43028E-06   -0.26295E-09    96   0.196E-04
  59 F= -.99966387E+02 E0= -.99966387E+02  d E =-.132848E-10
       N       E                     dE             d eps       ncg     rms          rms(c)
DAV:   1    -0.999651923101E+02    0.11944E-02   -0.20183E-01    96   0.121E+00    0.134E-01
DAV:   2    -0.999659357381E+02   -0.74343E-03   -0.92998E-03   144   0.280E-01    0.760E-02
DAV:   3    -0.999658969156E+02    0.38823E-04   -0.13789E-04   132   0.368E-02    0.403E-02
DAV:   4    -0.999658623311E+02    0.34584E-04   -0.36933E-05   132   0.229E-02    0.706E-03
DAV:   5    -0.999658549237E+02    0.74075E-05   -0.79223E-06   132   0.112E-02    0.394E-03
DAV:   6    -0.999658575494E+02   -0.26258E-05   -0.39288E-06   132   0.689E-03    0.211E-03
DAV:   7    -0.999658669752E+02   -0.94258E-05   -0.14550E-06   120   0.421E-03    0.145E-03
DAV:   8    -0.999658805030E+02   -0.13528E-04   -0.67165E-07    96   0.230E-03    0.724E-04
DAV:   9    -0.999658939947E+02   -0.13492E-04   -0.94893E-07   108   0.215E-03    0.583E-04
DAV:  10    -0.999659069887E+02   -0.12994E-04   -0.58970E-07    96   0.168E-03    0.229E-04
DAV:  11    -0.999659114471E+02   -0.44584E-05   -0.15007E-07   108   0.812E-04    0.241E-04
DAV:  12    -0.999659160322E+02   -0.45852E-05   -0.88312E-08    96   0.632E-04    0.903E-05
DAV:  13    -0.999659176149E+02   -0.15827E-05   -0.24424E-08   108   0.352E-04    0.591E-05
DAV:  14    -0.999659188043E+02   -0.11894E-05   -0.87875E-09    96   0.252E-04    0.378E-05
DAV:  15    -0.999659192636E+02   -0.45922E-06    0.17604E-09   108   0.151E-04
  60 F= -.99965919E+02 E0= -.99965919E+02  d E =-.256221E-10
       N       E                     dE             d eps       ncg     rms          rms(c)
DAV:   1    -0.999647070977E+02    0.12117E-02   -0.40303E-01   108   0.170E+00    0.198E-01
DAV:   2    -0.999660431776E+02   -0.13361E-02   -0.17160E-02   120   0.385E-01    0.120E-01
DAV:   3    -0.999659285750E+02    0.11460E-03   -0.25053E-04   132   0.533E-02    0.601E-02
DAV:   4    -0.999658518239E+02    0.76751E-04   -0.92472E-05   132   0.353E-02    0.109E-02
DAV:   5    -0.999658525645E+02   -0.74058E-06   -0.16111E-05   132   0.157E-02    0.634E-03
DAV:   6    -0.999658791634E+02   -0.26599E-04   -0.12903E-05   132   0.104E-02    0.342E-03
DAV:   7    -0.999659097959E+02   -0.30632E-04   -0.33232E-06   132   0.577E-03    0.231E-03
DAV:   8    -0.999659524092E+02   -0.42613E-04   -0.40988E-06   108   0.439E-03    0.105E-03
DAV:   9    -0.999659811186E+02   -0.28709E-04   -0.28837E-06   120   0.352E-03    0.910E-04
DAV:  10    -0.999660040699E+02   -0.22951E-04   -0.23606E-06    96   0.294E-03    0.323E-04
DAV:  11    -0.999660106269E+02   -0.65571E-05   -0.27976E-07   108   0.120E-03    0.301E-04
DAV:  12    -0.999660153606E+02   -0.47337E-05   -0.21298E-07    84   0.911E-04    0.109E-04
DAV:  13    -0.999660166582E+02   -0.12976E-05   -0.32246E-08   108   0.393E-04    0.765E-05
DAV:  14    -0.999660177865E+02   -0.11283E-05   -0.11933E-08    84   0.319E-04    0.444E-05
DAV:  15    -0.999660181428E+02   -0.35630E-06    0.12118E-09    96   0.165E-04
  61 F= -.99966018E+02 E0= -.99966018E+02  d E =-.692266E-11
       N       E                     dE             d eps       ncg     rms          rms(c)
DAV:   1    -0.999689888404E+02   -0.29711E-02   -0.23781E-01   108   0.170E+00    0.151E-01
DAV:   2    -0.999693450879E+02   -0.35625E-03   -0.62302E-03   120   0.256E-01    0.868E-02
DAV:   3    -0.999692637130E+02    0.81375E-04   -0.19514E-04   132   0.505E-02    0.373E-02
DAV:   4    -0.999692456269E+02    0.18086E-04   -0.77330E-05   132   0.305E-02    0.939E-03
DAV:   5    -0.999692417224E+02    0.39045E-05   -0.85828E-06   132   0.113E-02    0.674E-03
DAV:   6    -0.999692428588E+02   -0.11364E-05   -0.35414E-06   132   0.648E-03    0.219E-03
DAV:   7    -0.999692474518E+02   -0.45930E-05   -0.81364E-07   108   0.358E-03    0.139E-03
DAV:   8    -0.999692556392E+02   -0.81874E-05   -0.47754E-07    96   0.210E-03    0.784E-04
DAV:   9    -0.999692647220E+02   -0.90828E-05   -0.52247E-07   108   0.189E-03    0.448E-04
DAV:  10    -0.999692731821E+02   -0.84601E-05   -0.48950E-07    84   0.151E-03    0.321E-04
DAV:  11    -0.999692771978E+02   -0.40158E-05   -0.11926E-07   108   0.935E-04    0.248E-04
DAV:  12    -0.999692791416E+02   -0.19437E-05   -0.29106E-08    84   0.478E-04    0.132E-04
DAV:  13    -0.999692804966E+02   -0.13551E-05   -0.18426E-08   108   0.334E-04    0.678E-05
DAV:  14    -0.999692815303E+02   -0.10337E-05   -0.74134E-09    84   0.237E-04    0.388E-05
DAV:  15    -0.999692819738E+02   -0.44353E-06    0.21097E-09    96   0.131E-04
  62 F= -.99969282E+02 E0= -.99969282E+02  d E =-.111006E-10
       N       E                     dE             d eps       ncg     rms          rms(c)
DAV:   1    -0.999696166942E+02   -0.33516E-03   -0.54922E-01    96   0.265E+00    0.229E-01
DAV:   2    -0.999692543582E+02    0.36234E-03   -0.32872E-03    96   0.211E-01    0.121E-01
DAV:   3    -0.999690441632E+02    0.21020E-03   -0.53631E-04   132   0.734E-02    0.346E-02
DAV:   4    -0.999690465627E+02   -0.23995E-05   -0.11147E-04   120   0.340E-02    0.141E-02
DAV:   5    -0.999690477528E+02   -0.11902E-05   -0.53466E-06   132   0.926E-03    0.835E-03
DAV:   6    -0.999690512057E+02   -0.34529E-05   -0.32778E-06   120   0.659E-03    0.153E-03
DAV:   7    -0.999690533183E+02   -0.21126E-05   -0.68286E-07   108   0.327E-03    0.112E-03
DAV:   8    -0.999690559581E+02   -0.26397E-05   -0.13018E-07    84   0.143E-03    0.454E-04
DAV:   9    -0.999690589596E+02   -0.30016E-05   -0.14011E-07    96   0.124E-03    0.352E-04
DAV:  10    -0.999690611727E+02   -0.22131E-05   -0.96178E-08    96   0.915E-04    0.189E-04
DAV:  11    -0.999690627995E+02   -0.16269E-05   -0.69847E-08    84   0.672E-04    0.200E-04
DAV:  12    -0.999690634198E+02   -0.62023E-06   -0.10443E-08    96   0.376E-04
  63 F= -.99969063E+02 E0= -.99969063E+02  d E =-.127719E-10
       N       E                     dE             d eps       ncg     rms          rms(c)
DAV:   1    -0.999684941290E+02    0.56867E-03   -0.29088E-01    96   0.191E+00    0.213E-01
DAV:   2    -0.999682349757E+02    0.25915E-03   -0.23477E-03   108   0.174E-01    0.102E-01
DAV:   3    -0.999680846609E+02    0.15031E-03   -0.39697E-04   132   0.622E-02    0.362E-02
DAV:   4    -0.999680771243E+02    0.75366E-05   -0.10937E-04   108   0.323E-02    0.140E-02
DAV:   5    -0.999680752613E+02    0.18630E-05   -0.49216E-06   132   0.973E-03    0.533E-03
DAV:   6    -0.999680762424E+02   -0.98112E-06   -0.28696E-06   132   0.625E-03
  64 F= -.99968076E+02 E0= -.99968076E+02  d E =-.160077E-10
       N       E                     dE             d eps       ncg     rms          rms(c)
DAV:   1    -0.999686618780E+02   -0.58662E-03   -0.56796E-01    96   0.267E+00    0.277E-01
[...]
DAV:  10    -0.999678965304E+02   -0.39544E-05   -0.21987E-07    96   0.104E-03    0.202E-04
DAV:  11    -0.999678987759E+02   -0.22455E-05   -0.11062E-07    96   0.661E-04    0.102E-04
DAV:  12    -0.999679000000E+02   -0.12241E-05   -0.38447E-08    96   0.406E-04    0.771E-05
DAV:  13    -0.999679005938E+02   -0.59383E-06   -0.87685E-09    96   0.266E-04
 129 F= -.99967901E+02 E0= -.99967901E+02  d E =-.111361E-10
       N       E                     dE             d eps       ncg     rms          rms(c)
DAV:   1    -0.999697953547E+02   -0.18954E-02   -0.26726E-01    96   0.133E+00    0.134E-01
DAV:   2    -0.999697370707E+02    0.58284E-04   -0.16957E-03   108   0.117E-01    0.734E-02
DAV:   3    -0.999696554532E+02    0.81618E-04   -0.23015E-04   132   0.391E-02    0.185E-02
DAV:   4    -0.999696523823E+02    0.30709E-05   -0.33392E-05   132   0.164E-02    0.714E-03
DAV:   5    -0.999696518045E+02    0.57776E-06   -0.25444E-06   108   0.587E-03
 130 F= -.99969652E+02 E0= -.99969652E+02  d E =-.222759E-10
       N       E                     dE             d eps       ncg     rms          rms(c)
DAV:   1    -0.999701069220E+02   -0.45454E-03   -0.52208E-01    96   0.192E+00    0.156E-01
DAV:   2    -0.999699959287E+02    0.11099E-03   -0.19226E-03   108   0.133E-01    0.907E-02
DAV:   3    -0.999699057433E+02    0.90185E-04   -0.35132E-04   120   0.575E-02    0.116E-02
DAV:   4    -0.999699116092E+02   -0.58659E-05   -0.50696E-05   132   0.235E-02    0.803E-03
DAV:   5    -0.999699121190E+02   -0.50976E-06   -0.13487E-06   108   0.424E-03
 131 F= -.99969912E+02 E0= -.99969912E+02  d E =-.906587E-11
       N       E                     dE             d eps       ncg     rms          rms(c)
DAV:   1    -0.999694274875E+02    0.48412E-03   -0.26142E-01    96   0.134E+00    0.110E-01
DAV:   2    -0.999693759504E+02    0.51537E-04   -0.10727E-03   120   0.941E-02    0.637E-02
DAV:   3    -0.999693296788E+02    0.46272E-04   -0.17858E-04   120   0.381E-02    0.882E-03
DAV:   4    -0.999693322962E+02   -0.26174E-05   -0.23323E-05   132   0.154E-02    0.494E-03
DAV:   5    -0.999693328868E+02   -0.59050E-06   -0.91962E-07   108   0.330E-03
 132 F= -.99969333E+02 E0= -.99969333E+02  d E =-.180925E-10
       N       E                     dE             d eps       ncg     rms          rms(c)
DAV:   1    -0.999696137644E+02   -0.28147E-03   -0.52788E-01    96   0.190E+00    0.168E-01
DAV:   2    -0.999694965005E+02    0.11726E-03   -0.23364E-03   108   0.149E-01    0.951E-02
DAV:   3    -0.999693815208E+02    0.11498E-03   -0.41282E-04   120   0.593E-02    0.167E-02
DAV:   4    -0.999693843951E+02   -0.28743E-05   -0.60635E-05   132   0.253E-02    0.957E-03
DAV:   5    -0.999693839187E+02    0.47634E-06   -0.28861E-06   108   0.586E-03
 133 F= -.99969384E+02 E0= -.99969384E+02  d E =-.993671E-11
       N       E                     dE             d eps       ncg     rms          rms(c)
DAV:   1    -0.999693185510E+02    0.65844E-04   -0.27074E-01    96   0.194E+00    0.143E-01
DAV:   2    -0.999692764655E+02    0.42086E-04   -0.19323E-03   120   0.156E-01    0.782E-02
DAV:   3    -0.999692028543E+02    0.73611E-04   -0.17962E-04   120   0.425E-02    0.233E-02
DAV:   4    -0.999692026218E+02    0.23253E-06   -0.46190E-05   108   0.210E-02    0.644E-03
DAV:   5    -0.999692019335E+02    0.68828E-06   -0.28494E-06   132   0.643E-03
 134 F= -.99969202E+02 E0= -.99969202E+02  d E =-.150401E-10
       N       E                     dE             d eps       ncg     rms          rms(c)
DAV:   1    -0.999695535914E+02   -0.35097E-03   -0.55333E-01    96   0.264E+00    0.231E-01
DAV:   2    -0.999692283111E+02    0.32528E-03   -0.32645E-03   120   0.201E-01    0.121E-01
DAV:   3    -0.999690121326E+02    0.21618E-03   -0.48818E-04   120   0.653E-02    0.367E-02
DAV:   4    -0.999690061769E+02    0.59557E-05   -0.98716E-05   132   0.307E-02    0.122E-02
DAV:   5    -0.999690063760E+02   -0.19911E-06   -0.61757E-06   108   0.100E-02
 135 F= -.99969006E+02 E0= -.99969006E+02  d E =-.134184E-10
       N       E                     dE             d eps       ncg     rms          rms(c)
DAV:   1    -0.999685764896E+02    0.42969E-03   -0.29012E-01    96   0.191E+00    0.210E-01
DAV:   2    -0.999683216051E+02    0.25488E-03   -0.23943E-03   120   0.177E-01    0.102E-01
DAV:   3    -0.999681822397E+02    0.13937E-03   -0.41109E-04   120   0.648E-02    0.357E-02
DAV:   4    -0.999681826284E+02   -0.38870E-06   -0.11530E-04   120   0.338E-02    0.146E-02
DAV:   5    -0.999681811635E+02    0.14649E-05   -0.49239E-06   120   0.936E-03    0.611E-03
DAV:   6    -0.999681812386E+02   -0.75053E-07   -0.28261E-06   108   0.626E-03
 136 F= -.99968181E+02 E0= -.99968181E+02  d E =-.119412E-10
       N       E                     dE             d eps       ncg     rms          rms(c)
DAV:   1    -0.999687636831E+02   -0.58252E-03   -0.57158E-01   108   0.267E+00    0.273E-01
DAV:   2    -0.999682520098E+02    0.51167E-03   -0.47560E-03   108   0.255E-01    0.137E-01
DAV:   3    -0.999679538173E+02    0.29819E-03   -0.80674E-04   132   0.931E-02    0.463E-02
DAV:   4    -0.999679539703E+02   -0.15295E-06   -0.21094E-04   120   0.474E-02    0.206E-02
DAV:   5    -0.999679534596E+02    0.51065E-06   -0.81237E-06   132   0.115E-02
 137 F= -.99967953E+02 E0= -.99967953E+02  d E =-.140959E-10
       N       E                     dE             d eps       ncg     rms          rms(c)
DAV:   1    -0.999696568718E+02   -0.17029E-02   -0.28815E-01   108   0.191E+00    0.203E-01
DAV:   2    -0.999694005573E+02    0.25631E-03   -0.24151E-03   120   0.182E-01    0.101E-01
DAV:   3    -0.999692580327E+02    0.14252E-03   -0.40041E-04   120   0.661E-02    0.339E-02
DAV:   4    -0.999692597885E+02   -0.17558E-05   -0.11399E-04   120   0.339E-02    0.143E-02
DAV:   5    -0.999692586428E+02    0.11457E-05   -0.46913E-06   120   0.925E-03    0.574E-03
DAV:   6    -0.999692589534E+02   -0.31063E-06   -0.28265E-06   120   0.608E-03
 138 F= -.99969259E+02 E0= -.99969259E+02  d E =-.150055E-10
       N       E                     dE             d eps       ncg     rms          rms(c)
DAV:   1    -0.999697042117E+02   -0.44557E-03   -0.54798E-01    96   0.265E+00    0.227E-01
DAV:   2    -0.999693890086E+02    0.31520E-03   -0.33548E-03   108   0.210E-01    0.121E-01
DAV:   3    -0.999691856567E+02    0.20335E-03   -0.48381E-04   132   0.687E-02    0.357E-02
DAV:   4    -0.999691854770E+02    0.17974E-06   -0.10230E-04   132   0.319E-02    0.122E-02
DAV:   5    -0.999691856300E+02   -0.15299E-06   -0.59089E-06   120   0.983E-03
 139 F= -.99969186E+02 E0= -.99969186E+02  d E =-.125851E-10
       N       E                     dE             d eps       ncg     rms          rms(c)
DAV:   1    -0.999690374922E+02    0.14798E-03   -0.27622E-01    96   0.192E+00    0.169E-01
DAV:   2    -0.999689381265E+02    0.99366E-04   -0.19749E-03   120   0.151E-01    0.879E-02
DAV:   3    -0.999688471789E+02    0.90948E-04   -0.24959E-04   120   0.452E-02    0.287E-02
DAV:   4    -0.999688428244E+02    0.43545E-05   -0.45920E-05   108   0.197E-02    0.100E-02
DAV:   5    -0.999688412063E+02    0.16182E-05   -0.27281E-06   132   0.750E-03    0.485E-03
DAV:   6    -0.999688412771E+02   -0.70788E-07   -0.23439E-06   108   0.567E-03
 140 F= -.99968841E+02 E0= -.99968841E+02  d E =-.136076E-10
       N       E                     dE             d eps       ncg     rms          rms(c)
DAV:   1    -0.999693873631E+02   -0.54616E-03   -0.55632E-01    96   0.256E+00    0.247E-01
DAV:   2    -0.999690305615E+02    0.35680E-03   -0.35750E-03   120   0.208E-01    0.124E-01
DAV:   3    -0.999688063745E+02    0.22419E-03   -0.50441E-04   120   0.657E-02    0.420E-02
DAV:   4    -0.999687953507E+02    0.11024E-04   -0.11600E-04   132   0.323E-02    0.135E-02
DAV:   5    -0.999687952521E+02    0.98561E-07   -0.79975E-06   132   0.115E-02
 141 F= -.99968795E+02 E0= -.99968795E+02  d E =-.142995E-10
       N       E                     dE             d eps       ncg     rms          rms(c)
DAV:   1    -0.999680211885E+02    0.77416E-03   -0.27278E-01    96   0.181E+00    0.139E-01
DAV:   2    -0.999678858600E+02    0.13533E-03   -0.14568E-03   120   0.133E-01    0.785E-02
DAV:   3    -0.999677996527E+02    0.86207E-04   -0.26880E-04   120   0.522E-02    0.161E-02
DAV:   4    -0.999678048905E+02   -0.52377E-05   -0.49028E-05   132   0.234E-02    0.835E-03
DAV:   5    -0.999678055348E+02   -0.64433E-06   -0.11153E-06    84   0.439E-03
 142 F= -.99967806E+02 E0= -.99967806E+02  d E =-.134123E-10
       N       E                     dE             d eps       ncg     rms          rms(c)
DAV:   1    -0.999686159065E+02   -0.81102E-03   -0.58053E-01    96   0.262E+00    0.285E-01
DAV:   2    -0.999680639782E+02    0.55193E-03   -0.48143E-03   108   0.251E-01    0.142E-01
DAV:   3    -0.999677592990E+02    0.30468E-03   -0.85068E-04   120   0.942E-02    0.465E-02
DAV:   4    -0.999677612183E+02   -0.19194E-05   -0.22766E-04   108   0.477E-02    0.198E-02
DAV:   5    -0.999677587839E+02    0.24344E-05   -0.86609E-06   132   0.122E-02    0.841E-03
DAV:   6    -0.999677589518E+02   -0.16790E-06   -0.56697E-06   120   0.858E-03
 143 F= -.99967759E+02 E0= -.99967759E+02  d E =-.128561E-10
       N       E                     dE             d eps       ncg     rms          rms(c)
DAV:   1    -0.999701034640E+02   -0.23447E-02   -0.28296E-01    96   0.183E+00    0.171E-01
DAV:   2    -0.999698856835E+02    0.21778E-03   -0.19486E-03   108   0.157E-01    0.895E-02
DAV:   3    -0.999697710384E+02    0.11465E-03   -0.33580E-04   120   0.592E-02    0.271E-02
DAV:   4    -0.999697757597E+02   -0.47214E-05   -0.82037E-05   132   0.293E-02    0.124E-02
DAV:   5    -0.999697759036E+02   -0.14382E-06   -0.30969E-06   108   0.700E-03
 144 F= -.99969776E+02 E0= -.99969776E+02  d E =-.140724E-10
       N       E                     dE             d eps       ncg     rms          rms(c)
DAV:   1    -0.999702136674E+02   -0.43791E-03   -0.54832E-01    96   0.253E+00    0.200E-01
DAV:   2    -0.999699395191E+02    0.27415E-03   -0.28087E-03   108   0.180E-01    0.112E-01
DAV:   3    -0.999697661501E+02    0.17337E-03   -0.47347E-04   120   0.663E-02    0.232E-02
DAV:   4    -0.999697720474E+02   -0.58972E-05   -0.73039E-05   132   0.276E-02    0.880E-03
DAV:   5    -0.999697724457E+02   -0.39828E-06   -0.30489E-06   132   0.638E-03
 145 F= -.99969772E+02 E0= -.99969772E+02  d E =-.131636E-10
       N       E                     dE             d eps       ncg     rms          rms(c)
DAV:   1    -0.999691329602E+02    0.63909E-03   -0.27222E-01    96   0.201E+00    0.134E-01
DAV:   2    -0.999690731717E+02    0.59788E-04   -0.18581E-03   120   0.158E-01    0.761E-02
DAV:   3    -0.999689968936E+02    0.76278E-04   -0.23905E-04   132   0.515E-02    0.178E-02
DAV:   4    -0.999690009834E+02   -0.40898E-05   -0.56058E-05   120   0.241E-02    0.809E-03
DAV:   5    -0.999690008276E+02    0.15581E-06   -0.14831E-06   108   0.498E-03
 146 F= -.99969001E+02 E0= -.99969001E+02  d E =-.140658E-10
       N       E                     dE             d eps       ncg     rms          rms(c)
DAV:   1    -0.999693062452E+02   -0.30526E-03   -0.53682E-01    96   0.259E+00    0.177E-01
DAV:   2    -0.999691663459E+02    0.13990E-03   -0.31460E-03   108   0.198E-01    0.101E-01
DAV:   3    -0.999690100445E+02    0.15630E-03   -0.50146E-04   120   0.717E-02    0.197E-02
DAV:   4    -0.999690145719E+02   -0.45274E-05   -0.10096E-04   132   0.331E-02    0.107E-02
DAV:   5    -0.999690135437E+02    0.10283E-05   -0.27368E-06   132   0.599E-03    0.693E-03
DAV:   6    -0.999690142461E+02   -0.70244E-06   -0.30800E-06   108   0.646E-03
 147 F= -.99969014E+02 E0= -.99969014E+02  d E =-.119809E-10
       N       E                     dE             d eps       ncg     rms          rms(c)
DAV:   1    -0.999678604107E+02    0.11531E-02   -0.26392E-01    96   0.184E+00    0.112E-01
DAV:   2    -0.999677970333E+02    0.63377E-04   -0.10182E-03   108   0.109E-01    0.642E-02
DAV:   3    -0.999677385770E+02    0.58456E-04   -0.17152E-04   120   0.401E-02    0.102E-02
DAV:   4    -0.999677412272E+02   -0.26502E-05   -0.24937E-05   132   0.167E-02    0.563E-03
DAV:   5    -0.999677426110E+02   -0.13838E-05   -0.10225E-06    84   0.368E-03    0.344E-03
DAV:   6    -0.999677455548E+02   -0.29438E-05   -0.78630E-07    96   0.319E-03    0.680E-04
DAV:   7    -0.999677475721E+02   -0.20172E-05   -0.27591E-07    96   0.180E-03    0.616E-04
DAV:   8    -0.999677507856E+02   -0.32136E-05   -0.19647E-07    96   0.151E-03    0.277E-04
DAV:   9    -0.999677527676E+02   -0.19820E-05   -0.13238E-07    96   0.101E-03    0.204E-04
DAV:  10    -0.999677547878E+02   -0.20203E-05   -0.74732E-08    96   0.694E-04    0.109E-04
DAV:  11    -0.999677556261E+02   -0.83826E-06   -0.26363E-08    96   0.377E-04
 148 F= -.99967756E+02 E0= -.99967756E+02  d E =-.118354E-10
       N       E                     dE             d eps       ncg     rms          rms(c)
DAV:   1    -0.999682601982E+02   -0.50541E-03   -0.54147E-01   108   0.259E+00    0.205E-01
DAV:   2    -0.999681829779E+02    0.77220E-04   -0.42877E-03   108   0.224E-01    0.111E-01
DAV:   3    -0.999679884137E+02    0.19456E-03   -0.48623E-04   132   0.642E-02    0.321E-02
DAV:   4    -0.999679776007E+02    0.10813E-04   -0.10685E-04   132   0.298E-02    0.118E-02
DAV:   5    -0.999679751981E+02    0.24026E-05   -0.60649E-06   132   0.976E-03    0.616E-03
DAV:   6    -0.999679775947E+02   -0.23966E-05   -0.48522E-06   132   0.813E-03    0.195E-03
DAV:   7    -0.999679818723E+02   -0.42776E-05   -0.17126E-06   132   0.438E-03    0.166E-03
DAV:   8    -0.999679874917E+02   -0.56194E-05   -0.27218E-07    84   0.158E-03    0.638E-04
DAV:   9    -0.999679927544E+02   -0.52627E-05   -0.29838E-07    96   0.143E-03    0.411E-04
DAV:  10    -0.999679995316E+02   -0.67773E-05   -0.39776E-07    84   0.148E-03    0.178E-04
DAV:  11    -0.999680025041E+02   -0.29724E-05   -0.96588E-08   108   0.815E-04    0.171E-04
DAV:  12    -0.999680040795E+02   -0.15755E-05   -0.15073E-08    84   0.396E-04    0.102E-04
DAV:  13    -0.999680057786E+02   -0.16991E-05   -0.28886E-08    84   0.382E-04    0.490E-05
DAV:  14    -0.999680064298E+02   -0.65118E-06   -0.24159E-09   108   0.203E-04
 149 F= -.99968006E+02 E0= -.99968006E+02  d E =-.123176E-10
       N       E                     dE             d eps       ncg     rms          rms(c)
DAV:   1    -0.999699234330E+02   -0.19177E-02   -0.26697E-01   108   0.185E+00    0.128E-01
DAV:   2    -0.999698492850E+02    0.74148E-04   -0.14844E-03   108   0.136E-01    0.715E-02
DAV:   3    -0.999697730302E+02    0.76255E-04   -0.22966E-04   132   0.463E-02    0.154E-02
DAV:   4    -0.999697742082E+02   -0.11780E-05   -0.44383E-05   120   0.209E-02    0.797E-03
DAV:   5    -0.999697745109E+02   -0.30276E-06   -0.16454E-06   108   0.491E-03
 150 F= -.99969775E+02 E0= -.99969775E+02  d E =-.160183E-10
       N       E                     dE             d eps       ncg     rms          rms(c)
DAV:   1    -0.999700443567E+02   -0.27015E-03   -0.53135E-01    96   0.260E+00    0.159E-01
DAV:   2    -0.999699283205E+02    0.11604E-03   -0.21598E-03   132   0.158E-01    0.923E-02
DAV:   3    -0.999698158751E+02    0.11245E-03   -0.38305E-04   120   0.606E-02    0.117E-02
DAV:   4    -0.999698227064E+02   -0.68312E-05   -0.58600E-05   132   0.250E-02    0.719E-03
DAV:   5    -0.999698239551E+02   -0.12488E-05   -0.18110E-06   120   0.463E-03    0.482E-03
DAV:   6    -0.999698277289E+02   -0.37738E-05   -0.16364E-06    96   0.400E-03    0.937E-04
DAV:   7    -0.999698301459E+02   -0.24170E-05   -0.33049E-07   108   0.196E-03    0.828E-04
DAV:   8    -0.999698336737E+02   -0.35278E-05   -0.17243E-07    84   0.163E-03    0.394E-04
DAV:   9    -0.999698372272E+02   -0.35535E-05   -0.23570E-07    96   0.165E-03    0.315E-04
DAV:  10    -0.999698398073E+02   -0.25801E-05   -0.13794E-07    96   0.100E-03    0.164E-04
DAV:  11    -0.999698408893E+02   -0.10821E-05   -0.27240E-08    96   0.411E-04    0.103E-04
DAV:  12    -0.999698417285E+02   -0.83915E-06   -0.17575E-08    96   0.310E-04
 151 F= -.99969842E+02 E0= -.99969842E+02  d E =-.105634E-10
       N       E                     dE             d eps       ncg     rms          rms(c)
DAV:   1    -0.999676507378E+02    0.21902E-02   -0.26831E-01    96   0.197E+00    0.130E-01
DAV:   2    -0.999676037833E+02    0.46955E-04   -0.19762E-03   108   0.161E-01    0.712E-02
DAV:   3    -0.999675230111E+02    0.80772E-04   -0.22693E-04   132   0.505E-02    0.191E-02
DAV:   4    -0.999675249411E+02   -0.19300E-05   -0.67394E-05   132   0.255E-02    0.770E-03
DAV:   5    -0.999675251571E+02   -0.21595E-06   -0.25378E-06   132   0.577E-03
 152 F= -.99967525E+02 E0= -.99967525E+02  d E =-.144447E-10
       N       E                     dE             d eps       ncg     rms          rms(c)
DAV:   1    -0.999680455471E+02   -0.52061E-03   -0.54663E-01   108   0.264E+00    0.207E-01
DAV:   2    -0.999679712564E+02    0.74291E-04   -0.48635E-03   120   0.249E-01    0.114E-01
DAV:   3    -0.999677625167E+02    0.20874E-03   -0.55965E-04   108   0.769E-02    0.322E-02
DAV:   4    -0.999677619966E+02    0.52005E-06   -0.16276E-04   132   0.391E-02    0.125E-02
DAV:   5    -0.999677595732E+02    0.24234E-05   -0.54798E-06   132   0.959E-03    0.731E-03
DAV:   6    -0.999677601574E+02   -0.58425E-06   -0.55560E-06   108   0.905E-03
 153 F= -.99967760E+02 E0= -.99967760E+02  d E =-.131856E-10
       N       E                     dE             d eps       ncg     rms          rms(c)
DAV:   1    -0.999697713888E+02   -0.20118E-02   -0.26969E-01    96   0.190E+00    0.140E-01
DAV:   2    -0.999697168747E+02    0.54514E-04   -0.19263E-03   120   0.154E-01    0.757E-02
DAV:   3    -0.999696424182E+02    0.74457E-04   -0.23784E-04   108   0.446E-02    0.210E-02
DAV:   4    -0.999696410306E+02    0.13876E-05   -0.41145E-05   120   0.196E-02    0.809E-03
DAV:   5    -0.999696402256E+02    0.80493E-06   -0.26797E-06   108   0.645E-03
 154 F= -.99969640E+02 E0= -.99969640E+02  d E =-.143675E-10
       N       E                     dE             d eps       ncg     rms          rms(c)
DAV:   1    -0.999700570570E+02   -0.41603E-03   -0.53173E-01    96   0.260E+00    0.160E-01
DAV:   2    -0.999699446702E+02    0.11239E-03   -0.20801E-03   120   0.160E-01    0.920E-02
DAV:   3    -0.999698385545E+02    0.10612E-03   -0.34758E-04   108   0.583E-02    0.145E-02
DAV:   4    -0.999698416462E+02   -0.30917E-05   -0.52212E-05   132   0.240E-02    0.775E-03
DAV:   5    -0.999698410500E+02    0.59615E-06   -0.16778E-06   108   0.474E-03
 155 F= -.99969841E+02 E0= -.99969841E+02  d E =-.129564E-10
       N       E                     dE             d eps       ncg     rms          rms(c)
DAV:   1    -0.999693673523E+02    0.47429E-03   -0.26444E-01    96   0.186E+00    0.115E-01
DAV:   2    -0.999692988053E+02    0.68547E-04   -0.10921E-03   120   0.121E-01    0.667E-02
DAV:   3    -0.999692477139E+02    0.51091E-04   -0.19667E-04   120   0.465E-02    0.878E-03
DAV:   4    -0.999692516158E+02   -0.39019E-05   -0.34961E-05   120   0.196E-02    0.620E-03
DAV:   5    -0.999692519956E+02   -0.37973E-06   -0.80229E-07   108   0.340E-03
 156 F= -.99969252E+02 E0= -.99969252E+02  d E =-.184422E-10
       N       E                     dE             d eps       ncg     rms          rms(c)
DAV:   1    -0.999695510044E+02   -0.29939E-03   -0.52616E-01    96   0.264E+00    0.173E-01
DAV:   2    -0.999694609237E+02    0.90081E-04   -0.28592E-03   108   0.191E-01    0.972E-02
DAV:   3    -0.999693294400E+02    0.13148E-03   -0.36224E-04   120   0.580E-02    0.212E-02
DAV:   4    -0.999693288830E+02    0.55701E-06   -0.64040E-05   132   0.248E-02    0.909E-03
DAV:   5    -0.999693288114E+02    0.71650E-07   -0.34765E-06   132   0.661E-03
 157 F= -.99969329E+02 E0= -.99969329E+02  d E =-.110783E-10
