       N       E                     dE             d eps       ncg     rms          rms(c)
DAV:   1     0.204180839882E+03    0.20418E+03   -0.10481E+04   116   0.546E+02
DAV:   2    -0.275284828951E+02   -0.23171E+03   -0.21639E+03   144   0.103E+02
DAV:   3    -0.101769951788E+03   -0.74241E+02   -0.74077E+02   112   0.547E+01
DAV:   4    -0.105969225700E+03   -0.41993E+01   -0.41822E+01   104   0.181E+01
DAV:   5    -0.106044049847E+03   -0.74824E-01   -0.74765E-01   136   0.265E+00    0.149E+01
DAV:   6    -0.102827253910E+03    0.32168E+01   -0.16077E+00   112   0.459E+00    0.861E+00
DAV:   7    -0.101145516381E+03    0.16817E+01   -0.41293E+00   112   0.677E+00    0.122E+00
DAV:   8    -0.101094494071E+03    0.51022E-01   -0.27897E-01   112   0.222E+00    0.619E-01
DAV:   9    -0.101058503888E+03    0.35990E-01   -0.72833E-02   112   0.772E-01    0.333E-01
DAV:  10    -0.101058379173E+03    0.12471E-03   -0.29674E-03   112   0.218E-01    0.153E-01
DAV:  11    -0.101058164001E+03    0.21517E-03   -0.64094E-03   104   0.234E-01    0.806E-02
DAV:  12    -0.101062410911E+03   -0.42469E-02   -0.11689E-03   104   0.100E-01    0.563E-02
DAV:  13    -0.101067056703E+03   -0.46458E-02   -0.19086E-03   104   0.112E-01    0.349E-02
DAV:  14    -0.101071627874E+03   -0.45712E-02   -0.39066E-04   112   0.584E-02    0.150E-02
DAV:  15    -0.101075637118E+03   -0.40092E-02   -0.46459E-04   112   0.566E-02    0.151E-02
DAV:  16    -0.101076753194E+03   -0.11161E-02   -0.64995E-05   112   0.234E-02    0.650E-03
DAV:  17    -0.101077802840E+03   -0.10496E-02   -0.93238E-05   104   0.231E-02    0.328E-03
DAV:  18    -0.101078060446E+03   -0.25761E-03   -0.84998E-06   104   0.817E-03    0.175E-03
DAV:  19    -0.101078200485E+03   -0.14004E-03   -0.47480E-06    96   0.552E-03    0.156E-03
DAV:  20    -0.101078247360E+03   -0.46874E-04   -0.88962E-07    88   0.329E-03    0.573E-04
DAV:  21    -0.101078268812E+03   -0.21453E-04   -0.67451E-07    80   0.213E-03    0.540E-04
DAV:  22    -0.101078276162E+03   -0.73496E-05   -0.16752E-07    88   0.133E-03    0.194E-04
DAV:  23    -0.101078279307E+03   -0.31449E-05   -0.74853E-08    80   0.759E-04    0.166E-04
DAV:  24    -0.101078281091E+03   -0.17837E-05   -0.19790E-08    88   0.410E-04    0.856E-05
DAV:  25    -0.101078282250E+03   -0.11595E-05   -0.19476E-08    80   0.350E-04    0.343E-05
DAV:  26    -0.101078282711E+03   -0.46123E-06   -0.32011E-09    72   0.194E-04
   1 F= -.10107828E+03 E0= -.10107828E+03  d E =-.101078E+03
       N       E                     dE             d eps       ncg     rms          rms(c)
DAV:   1    -0.101254291838E+03   -0.17601E+00   -0.72714E+00    84   0.113E+01    0.118E+00
DAV:   2    -0.101279718684E+03   -0.25427E-01   -0.33292E-01   120   0.227E+00    0.594E-01
DAV:   3    -0.101274926838E+03    0.47918E-02   -0.13240E-02   120   0.452E-01    0.292E-01
DAV:   4    -0.101273807937E+03    0.11189E-02   -0.61352E-03   112   0.268E-01    0.668E-02
DAV:   5    -0.101273635562E+03    0.17238E-03   -0.51769E-04   120   0.101E-01    0.402E-02
DAV:   6    -0.101273678042E+03   -0.42480E-04   -0.17310E-04   120   0.517E-02    0.210E-02
DAV:   7    -0.101273858326E+03   -0.18028E-03   -0.69257E-05   118   0.371E-02    0.943E-03
DAV:   8    -0.101273960641E+03   -0.10232E-03   -0.23860E-05   112   0.197E-02    0.974E-03
DAV:   9    -0.101274049704E+03   -0.89063E-04   -0.39652E-06   112   0.715E-03    0.598E-03
DAV:  10    -0.101274227530E+03   -0.17783E-03   -0.17590E-05   112   0.995E-03    0.394E-03
DAV:  11    -0.101274257186E+03   -0.29656E-04   -0.74312E-07    96   0.388E-03    0.196E-03
DAV:  12    -0.101274343007E+03   -0.85821E-04   -0.56343E-06   104   0.601E-03    0.987E-04
DAV:  13    -0.101274363375E+03   -0.20368E-04   -0.58086E-07    96   0.313E-03    0.871E-04
DAV:  14    -0.101274388236E+03   -0.24861E-04   -0.69015E-07    88   0.204E-03    0.616E-04
DAV:  15    -0.101274395676E+03   -0.74395E-05   -0.16893E-07    88   0.103E-03    0.618E-04
DAV:  16    -0.101274402832E+03   -0.71558E-05   -0.11177E-07    88   0.101E-03    0.436E-04
DAV:  17    -0.101274403587E+03   -0.75535E-06   -0.20706E-08    96   0.435E-04
   2 F= -.10127440E+03 E0= -.10127440E+03  d E =-.196121E+00
       N       E                     dE             d eps       ncg     rms          rms(c)
DAV:   1    -0.101275834991E+03   -0.14322E-02   -0.46224E-02    84   0.903E-01    0.904E-02
DAV:   2    -0.101275981744E+03   -0.14675E-03   -0.21034E-03   120   0.180E-01    0.489E-02
DAV:   3    -0.101275944299E+03    0.37445E-04   -0.89956E-05   120   0.371E-02    0.235E-02
DAV:   4    -0.101275932180E+03    0.12118E-04   -0.38083E-05   112   0.212E-02    0.621E-03
DAV:   5    -0.101275931356E+03    0.82402E-06   -0.30825E-06   112   0.794E-03
   3 F= -.10127593E+03 E0= -.10127593E+03  d E =-.197649E+00
       N       E                     dE             d eps       ncg     rms          rms(c)
DAV:   1    -0.101320300634E+03   -0.44368E-01   -0.10198E+00    84   0.444E+00    0.420E-01
DAV:   2    -0.101324074751E+03   -0.37741E-02   -0.49624E-02   120   0.808E-01    0.189E-01
DAV:   3    -0.101323669015E+03    0.40574E-03   -0.21057E-03   120   0.177E-01    0.101E-01
DAV:   4    -0.101323574820E+03    0.94196E-04   -0.57948E-04   112   0.850E-02    0.329E-02
DAV:   5    -0.101323563535E+03    0.11285E-04   -0.52169E-05   120   0.341E-02    0.184E-02
DAV:   6    -0.101323574731E+03   -0.11196E-04   -0.21305E-05   112   0.210E-02    0.762E-03
DAV:   7    -0.101323604603E+03   -0.29872E-04   -0.10914E-05   112   0.134E-02    0.353E-03
DAV:   8    -0.101323621415E+03   -0.16812E-04   -0.15496E-06    88   0.542E-03    0.267E-03
DAV:   9    -0.101323642859E+03   -0.21444E-04   -0.11525E-06    88   0.332E-03    0.923E-04
DAV:  10    -0.101323662732E+03   -0.19873E-04   -0.14842E-06    96   0.345E-03    0.890E-04
DAV:  11    -0.101323678099E+03   -0.15367E-04   -0.10675E-06    88   0.288E-03    0.341E-04
DAV:  12    -0.101323681705E+03   -0.36062E-05   -0.25503E-07    96   0.145E-03    0.373E-04
DAV:  13    -0.101323684055E+03   -0.23493E-05   -0.57761E-08    88   0.799E-04    0.155E-04
DAV:  14    -0.101323688040E+03   -0.39850E-05   -0.21360E-07    80   0.112E-03    0.136E-04
DAV:  15    -0.101323688460E+03   -0.42070E-06   -0.20063E-08    96   0.429E-04
   4 F= -.10132369E+03 E0= -.10132369E+03  d E =-.477571E-01
       N       E                     dE             d eps       ncg     rms          rms(c)
DAV:   1    -0.101329547662E+03   -0.58596E-02   -0.31342E-01    84   0.246E+00    0.232E-01
DAV:   2    -0.101330729595E+03   -0.11819E-02   -0.15511E-02   120   0.451E-01    0.105E-01
DAV:   3    -0.101330601917E+03    0.12768E-03   -0.66218E-04   120   0.992E-02    0.560E-02
DAV:   4    -0.101330569573E+03    0.32344E-04   -0.17914E-04   112   0.473E-02    0.188E-02
DAV:   5    -0.101330561987E+03    0.75858E-05   -0.16080E-05   120   0.191E-02    0.103E-02
DAV:   6    -0.101330563814E+03   -0.18269E-05   -0.67462E-06   120   0.118E-02    0.423E-03
DAV:   7    -0.101330573021E+03   -0.92072E-05   -0.31467E-06   104   0.738E-03    0.191E-03
DAV:   8    -0.101330578888E+03   -0.58663E-05   -0.51226E-07    88   0.311E-03    0.152E-03
DAV:   9    -0.101330586622E+03   -0.77340E-05   -0.33398E-07    88   0.180E-03    0.518E-04
DAV:  10    -0.101330594692E+03   -0.80704E-05   -0.48593E-07    88   0.199E-03    0.518E-04
DAV:  11    -0.101330601774E+03   -0.70823E-05   -0.48320E-07    88   0.183E-03    0.225E-04
DAV:  12    -0.101330602993E+03   -0.12184E-05   -0.71749E-08    96   0.872E-04    0.215E-04
DAV:  13    -0.101330604091E+03   -0.10980E-05   -0.24921E-08    88   0.536E-04    0.784E-05
DAV:  14    -0.101330605737E+03   -0.16461E-05   -0.73677E-08    80   0.635E-04    0.921E-05
DAV:  15    -0.101330605932E+03   -0.19491E-06   -0.55721E-09    88   0.259E-04
   5 F= -.10133061E+03 E0= -.10133061E+03  d E =-.546746E-01
       N       E                     dE             d eps       ncg     rms          rms(c)
DAV:   1    -0.101342139241E+03   -0.11534E-01   -0.37346E-01    84   0.275E+00    0.216E-01
DAV:   2    -0.101343134163E+03   -0.99492E-03   -0.15798E-02   112   0.466E-01    0.112E-01
DAV:   3    -0.101342988513E+03    0.14565E-03   -0.63571E-04   128   0.948E-02    0.622E-02
DAV:   4    -0.101342936449E+03    0.52064E-04   -0.17025E-04   112   0.475E-02    0.156E-02
DAV:   5    -0.101342926676E+03    0.97731E-05   -0.22917E-05   112   0.185E-02    0.103E-02
DAV:   6    -0.101342930940E+03   -0.42639E-05   -0.48971E-06   112   0.858E-03    0.477E-03
DAV:   7    -0.101342948111E+03   -0.17172E-04   -0.21396E-06    96   0.483E-03    0.163E-03
DAV:   8    -0.101342965836E+03   -0.17725E-04   -0.58889E-07    80   0.237E-03    0.104E-03
DAV:   9    -0.101342988937E+03   -0.23101E-04   -0.16154E-06    88   0.281E-03    0.583E-04
DAV:  10    -0.101343001242E+03   -0.12306E-04   -0.55289E-07    88   0.180E-03    0.301E-04
DAV:  11    -0.101343009026E+03   -0.77843E-05   -0.32184E-07    80   0.127E-03    0.259E-04
DAV:  12    -0.101343012048E+03   -0.30217E-05   -0.63831E-08    88   0.658E-04    0.123E-04
DAV:  13    -0.101343015029E+03   -0.29805E-05   -0.78258E-08    80   0.618E-04    0.570E-05
DAV:  14    -0.101343015923E+03   -0.89378E-06   -0.20210E-08    88   0.320E-04
   6 F= -.10134302E+03 E0= -.10134302E+03  d E =-.124100E-01
       N       E                     dE             d eps       ncg     rms          rms(c)
DAV:   1    -0.101343883160E+03   -0.86813E-03   -0.50783E-02    86   0.101E+00    0.796E-02
DAV:   2    -0.101344020517E+03   -0.13736E-03   -0.21686E-03   112   0.173E-01    0.416E-02
DAV:   3    -0.101344001259E+03    0.19257E-04   -0.86452E-05   128   0.350E-02    0.231E-02
DAV:   4    -0.101343993698E+03    0.75608E-05   -0.23324E-05   104   0.176E-02    0.577E-03
DAV:   5    -0.101343991185E+03    0.25131E-05   -0.30356E-06   104   0.682E-03    0.369E-03
DAV:   6    -0.101343991083E+03    0.10195E-06   -0.70809E-07    88   0.347E-03
   7 F= -.10134399E+03 E0= -.10134399E+03  d E =-.133852E-01
       N       E                     dE             d eps       ncg     rms          rms(c)
DAV:   1    -0.101354716814E+03   -0.10726E-01   -0.37169E-01    84   0.286E+00    0.173E-01
DAV:   2    -0.101354757017E+03   -0.40203E-04   -0.56661E-03   120   0.311E-01    0.915E-02
DAV:   3    -0.101354598892E+03    0.15813E-03   -0.60168E-04   128   0.974E-02    0.398E-02
DAV:   4    -0.101354597742E+03    0.11497E-05   -0.18250E-04   120   0.513E-02    0.145E-02
DAV:   5    -0.101354597268E+03    0.47368E-06   -0.13774E-05   120   0.156E-02    0.913E-03
DAV:   6    -0.101354599347E+03   -0.20785E-05   -0.14992E-06    88   0.581E-03    0.261E-03
DAV:   7    -0.101354603830E+03   -0.44831E-05   -0.11765E-06    88   0.446E-03    0.132E-03
DAV:   8    -0.101354614330E+03   -0.10500E-04   -0.72743E-07    88   0.416E-03    0.566E-04
DAV:   9    -0.101354618796E+03   -0.44657E-05   -0.47612E-07    88   0.250E-03    0.567E-04
DAV:  10    -0.101354622079E+03   -0.32826E-05   -0.11469E-07    88   0.126E-03    0.321E-04
DAV:  11    -0.101354626163E+03   -0.40842E-05   -0.17044E-07    80   0.105E-03    0.206E-04
DAV:  12    -0.101354628980E+03   -0.28170E-05   -0.11994E-07    88   0.798E-04    0.152E-04
DAV:  13    -0.101354630357E+03   -0.13776E-05   -0.39470E-08    88   0.495E-04    0.110E-04
DAV:  14    -0.101354631250E+03   -0.89301E-06   -0.27352E-08    80   0.413E-04
   8 F= -.10135463E+03 E0= -.10135463E+03  d E =-.106402E-01
       N       E                     dE             d eps       ncg     rms          rms(c)
DAV:   1    -0.101360324044E+03   -0.56937E-02   -0.73131E-01    84   0.401E+00    0.243E-01
DAV:   2    -0.101360401914E+03   -0.77870E-04   -0.11176E-02   120   0.437E-01    0.128E-01
DAV:   3    -0.101360085242E+03    0.31667E-03   -0.11766E-03   128   0.136E-01    0.559E-02
DAV:   4    -0.101360080213E+03    0.50292E-05   -0.35955E-04   120   0.720E-02    0.202E-02
DAV:   5    -0.101360077093E+03    0.31198E-05   -0.27210E-05   120   0.219E-02    0.128E-02
DAV:   6    -0.101360077968E+03   -0.87559E-06   -0.33531E-06   112   0.813E-03
   9 F= -.10136008E+03 E0= -.10136008E+03  d E =-.160869E-01
       N       E                     dE             d eps       ncg     rms          rms(c)
DAV:   1    -0.101365988777E+03   -0.59117E-02   -0.31396E-01    84   0.256E+00    0.163E-01
DAV:   2    -0.101366368886E+03   -0.38011E-03   -0.75325E-03   120   0.331E-01    0.865E-02
DAV:   3    -0.101366246427E+03    0.12246E-03   -0.41717E-04   128   0.777E-02    0.418E-02
DAV:   4    -0.101366235460E+03    0.10967E-04   -0.13301E-04   120   0.423E-02    0.115E-02
DAV:   5    -0.101366238776E+03   -0.33161E-05   -0.14530E-05   120   0.164E-02    0.671E-03
DAV:   6    -0.101366246208E+03   -0.74323E-05   -0.34287E-06   112   0.784E-03    0.331E-03
DAV:   7    -0.101366259084E+03   -0.12875E-04   -0.57040E-07    88   0.400E-03    0.987E-04
DAV:   8    -0.101366270039E+03   -0.10955E-04   -0.63758E-07    88   0.339E-03    0.980E-04
DAV:   9    -0.101366289350E+03   -0.19310E-04   -0.16676E-06    88   0.421E-03    0.527E-04
DAV:  10    -0.101366292497E+03   -0.31474E-05   -0.31108E-07    96   0.217E-03    0.422E-04
DAV:  11    -0.101366294140E+03   -0.16424E-05   -0.47914E-08    72   0.841E-04    0.297E-04
DAV:  12    -0.101366298676E+03   -0.45362E-05   -0.15287E-07    80   0.101E-03    0.142E-04
DAV:  13    -0.101366301020E+03   -0.23446E-05   -0.10334E-07    88   0.710E-04    0.120E-04
DAV:  14    -0.101366301926E+03   -0.90566E-06   -0.19668E-08    88   0.345E-04
  10 F= -.10136630E+03 E0= -.10136630E+03  d E =-.622396E-02
       N       E                     dE             d eps       ncg     rms          rms(c)
DAV:   1    -0.101367817468E+03   -0.15164E-02   -0.20404E-01    84   0.206E+00    0.131E-01
DAV:   2    -0.101368067361E+03   -0.24989E-03   -0.48944E-03   120   0.267E-01    0.695E-02
DAV:   3    -0.101367987945E+03    0.79415E-04   -0.26872E-04   128   0.622E-02    0.336E-02
DAV:   4    -0.101367977917E+03    0.10029E-04   -0.85871E-05   120   0.337E-02    0.917E-03
DAV:   5    -0.101367975333E+03    0.25842E-05   -0.87425E-06   120   0.127E-02    0.527E-03
DAV:   6    -0.101367975619E+03   -0.28622E-06   -0.17264E-06    96   0.602E-03
  11 F= -.10136798E+03 E0= -.10136798E+03  d E =-.789765E-02
       N       E                     dE             d eps       ncg     rms          rms(c)
DAV:   1    -0.101370791621E+03   -0.28163E-02   -0.20864E-01    84   0.205E+00    0.135E-01
DAV:   2    -0.101371231327E+03   -0.43971E-03   -0.64732E-03   120   0.324E-01    0.821E-02
DAV:   3    -0.101371155547E+03    0.75780E-04   -0.27049E-04   120   0.689E-02    0.417E-02
DAV:   4    -0.101371153334E+03    0.22123E-05   -0.11815E-04   112   0.391E-02    0.103E-02
DAV:   5    -0.101371153553E+03   -0.21813E-06   -0.11353E-05   112   0.137E-02    0.525E-03
DAV:   6    -0.101371154730E+03   -0.11779E-05   -0.21567E-06    96   0.531E-03    0.270E-03
DAV:   7    -0.101371158040E+03   -0.33100E-05   -0.55751E-07    80   0.310E-03    0.717E-04
DAV:   8    -0.101371160976E+03   -0.29352E-05   -0.33605E-07    88   0.205E-03    0.604E-04
DAV:   9    -0.101371165096E+03   -0.41205E-05   -0.20613E-07    88   0.138E-03    0.232E-04
DAV:  10    -0.101371168074E+03   -0.29777E-05   -0.20396E-07    88   0.105E-03    0.244E-04
DAV:  11    -0.101371169426E+03   -0.13521E-05   -0.50726E-08    88   0.678E-04    0.989E-05
DAV:  12    -0.101371170529E+03   -0.11027E-05   -0.43613E-08    88   0.519E-04    0.582E-05
DAV:  13    -0.101371171209E+03   -0.68022E-06   -0.14244E-08    88   0.304E-04
  12 F= -.10137117E+03 E0= -.10137117E+03  d E =-.319559E-02
       N       E                     dE             d eps       ncg     rms          rms(c)
DAV:   1    -0.101371281053E+03   -0.11052E-03   -0.13078E-02    84   0.514E-01    0.338E-02
DAV:   2    -0.101371306893E+03   -0.25841E-04   -0.40544E-04   120   0.810E-02    0.206E-02
DAV:   3    -0.101371301134E+03    0.57589E-05   -0.16950E-05   120   0.172E-02    0.104E-02
DAV:   4    -0.101371300134E+03    0.10001E-05   -0.73779E-06   104   0.975E-03    0.255E-03
DAV:   5    -0.101371299916E+03    0.21838E-06   -0.64194E-07    80   0.341E-03
  13 F= -.10137130E+03 E0= -.10137130E+03  d E =-.332430E-02
       N       E                     dE             d eps       ncg     rms          rms(c)
DAV:   1    -0.101373045951E+03   -0.17458E-02   -0.18948E-01    84   0.195E+00    0.139E-01
DAV:   2    -0.101373305869E+03   -0.25992E-03   -0.51872E-03   120   0.280E-01    0.771E-02
DAV:   3    -0.101373223651E+03    0.82218E-04   -0.25744E-04   120   0.641E-02    0.391E-02
DAV:   4    -0.101373213129E+03    0.10522E-04   -0.90571E-05   112   0.363E-02    0.109E-02
DAV:   5    -0.101373213351E+03   -0.22221E-06   -0.82020E-06   112   0.126E-02
  14 F= -.10137321E+03 E0= -.10137321E+03  d E =-.191344E-02
       N       E                     dE             d eps       ncg     rms          rms(c)
DAV:   1    -0.101373219735E+03   -0.66064E-05   -0.64813E-04    88   0.114E-01    0.859E-03
DAV:   2    -0.101373221845E+03   -0.21093E-05   -0.21170E-05   120   0.178E-02    0.447E-03
DAV:   3    -0.101373222921E+03   -0.10768E-05   -0.74176E-07    80   0.381E-03    0.242E-03
DAV:   4    -0.101373225818E+03   -0.28970E-05   -0.65092E-07    88   0.318E-03    0.593E-04
DAV:   5    -0.101373228624E+03   -0.28061E-05   -0.19742E-07    88   0.190E-03    0.402E-04
DAV:   6    -0.101373231743E+03   -0.31189E-05   -0.15299E-07    88   0.127E-03    0.228E-04
DAV:   7    -0.101373234176E+03   -0.24325E-05   -0.95634E-08    88   0.867E-04    0.139E-04
DAV:   8    -0.101373236193E+03   -0.20173E-05   -0.83462E-08    88   0.680E-04    0.115E-04
DAV:   9    -0.101373236905E+03   -0.71153E-06   -0.19902E-08    88   0.387E-04
  15 F= -.10137324E+03 E0= -.10137324E+03  d E =-.193699E-02
       N       E                     dE             d eps       ncg     rms          rms(c)
DAV:   1    -0.101373523403E+03   -0.28721E-03   -0.21723E-02    84   0.646E-01    0.607E-02
DAV:   2    -0.101373587655E+03   -0.64252E-04   -0.84690E-04   112   0.115E-01    0.291E-02
DAV:   3    -0.101373577810E+03    0.98444E-05   -0.34296E-05   120   0.253E-02    0.157E-02
DAV:   4    -0.101373577046E+03    0.76481E-06   -0.17376E-05   112   0.162E-02    0.422E-03
DAV:   5    -0.101373576618E+03    0.42782E-06   -0.20908E-06    96   0.647E-03
  16 F= -.10137358E+03 E0= -.10137358E+03  d E =-.339713E-03
       N       E                     dE             d eps       ncg     rms          rms(c)
DAV:   1    -0.101373579586E+03   -0.25401E-05   -0.19926E-04    84   0.621E-02    0.516E-03
DAV:   2    -0.101373580203E+03   -0.61694E-06   -0.68675E-06   112   0.105E-02
  17 F= -.10137358E+03 E0= -.10137358E+03  d E =-.343298E-03
       N       E                     dE             d eps       ncg     rms          rms(c)
DAV:   1    -0.101373744514E+03   -0.16493E-03   -0.67096E-03    84   0.371E-01    0.278E-02
DAV:   2    -0.101373761640E+03   -0.17126E-04   -0.22934E-04   120   0.591E-02    0.149E-02
DAV:   3    -0.101373760355E+03    0.12853E-05   -0.84387E-06   120   0.115E-02    0.801E-03
DAV:   4    -0.101373760936E+03   -0.58137E-06   -0.33717E-06   112   0.666E-03
  18 F= -.10137376E+03 E0= -.10137376E+03  d E =-.180733E-03
