       N       E                     dE             d eps       ncg     rms          rms(c)
DAV:   1     0.246284097178E+03    0.24628E+03   -0.10181E+04   120   0.484E+02
DAV:   2    -0.222785472266E+02   -0.26856E+03   -0.25458E+03   156   0.917E+01
DAV:   3    -0.102510339080E+03   -0.80232E+02   -0.80021E+02   120   0.554E+01
DAV:   4    -0.106451252890E+03   -0.39409E+01   -0.39279E+01   132   0.176E+01
DAV:   5    -0.106514451180E+03   -0.63198E-01   -0.63140E-01   168   0.250E+00    0.153E+01
DAV:   6    -0.103055503176E+03    0.34589E+01   -0.16088E+00   120   0.437E+00    0.882E+00
DAV:   7    -0.101294366571E+03    0.17611E+01   -0.42271E+00   120   0.633E+00    0.130E+00
DAV:   8    -0.101238674973E+03    0.55692E-01   -0.33677E-01   132   0.221E+00    0.685E-01
DAV:   9    -0.101205197441E+03    0.33478E-01   -0.63157E-02   132   0.675E-01    0.355E-01
DAV:  10    -0.101203750489E+03    0.14470E-02   -0.32834E-03   144   0.194E-01    0.155E-01
DAV:  11    -0.101202939660E+03    0.81083E-03   -0.57847E-03   120   0.205E-01    0.106E-01
DAV:  12    -0.101206906524E+03   -0.39669E-02   -0.13736E-03   108   0.962E-02    0.649E-02
DAV:  13    -0.101212101830E+03   -0.51953E-02   -0.20572E-03   132   0.113E-01    0.453E-02
DAV:  14    -0.101214501462E+03   -0.23996E-02   -0.16793E-04   132   0.415E-02    0.258E-02
DAV:  15    -0.101220129794E+03   -0.56283E-02   -0.70963E-04   108   0.675E-02    0.187E-02
DAV:  16    -0.101221106701E+03   -0.97691E-03   -0.56650E-05   132   0.273E-02    0.930E-03
DAV:  17    -0.101222700189E+03   -0.15935E-02   -0.18058E-04   108   0.280E-02    0.744E-03
DAV:  18    -0.101222812190E+03   -0.11200E-03   -0.29823E-06   144   0.510E-03    0.342E-03
DAV:  19    -0.101223146032E+03   -0.33384E-03   -0.15363E-05   108   0.840E-03    0.237E-03
DAV:  20    -0.101223190025E+03   -0.43992E-04   -0.79290E-07    96   0.272E-03    0.138E-03
DAV:  21    -0.101223239847E+03   -0.49822E-04   -0.15574E-06    96   0.291E-03    0.500E-04
DAV:  22    -0.101223246956E+03   -0.71089E-05   -0.13501E-07    96   0.112E-03    0.438E-04
DAV:  23    -0.101223253125E+03   -0.61697E-05   -0.10362E-07    96   0.788E-04    0.165E-04
DAV:  24    -0.101223255193E+03   -0.20679E-05   -0.30614E-08    84   0.450E-04    0.124E-04
DAV:  25    -0.101223256792E+03   -0.15990E-05   -0.86019E-09    84   0.328E-04    0.101E-04
DAV:  26    -0.101223257317E+03   -0.52497E-06   -0.53904E-10    96   0.202E-04
   1 F= -.10122326E+03 E0= -.10122326E+03  d E =-.142346E-10
       N       E                     dE             d eps       ncg     rms          rms(c)
DAV:   1    -0.101219656214E+03    0.36006E-02   -0.82015E-02    96   0.831E-01    0.127E-01
DAV:   2    -0.101220006553E+03   -0.35034E-03   -0.39469E-03   132   0.211E-01    0.565E-02
DAV:   3    -0.101219993524E+03    0.13029E-04   -0.14791E-04   144   0.448E-02    0.294E-02
DAV:   4    -0.101219996337E+03   -0.28133E-05   -0.34030E-05   108   0.219E-02    0.827E-03
DAV:   5    -0.101219995612E+03    0.72505E-06   -0.65398E-06   132   0.989E-03
   2 F= -.10122000E+03 E0= -.10122000E+03  d E =-.152352E-10
       N       E                     dE             d eps       ncg     rms          rms(c)
DAV:   1    -0.101218965781E+03    0.10306E-02   -0.32706E-01    96   0.167E+00    0.260E-01
DAV:   2    -0.101220382659E+03   -0.14169E-02   -0.15920E-02   132   0.425E-01    0.113E-01
DAV:   3    -0.101220333589E+03    0.49070E-04   -0.58815E-04   132   0.889E-02    0.599E-02
DAV:   4    -0.101220349208E+03   -0.15619E-04   -0.13809E-04   108   0.436E-02    0.170E-02
DAV:   5    -0.101220346463E+03    0.27452E-05   -0.26559E-05   132   0.198E-02    0.963E-03
DAV:   6    -0.101220346020E+03    0.44317E-06   -0.49618E-06   120   0.771E-03
   3 F= -.10122035E+03 E0= -.10122035E+03  d E =-.197770E-10
       N       E                     dE             d eps       ncg     rms          rms(c)
DAV:   1    -0.101219513796E+03    0.83267E-03   -0.16466E-01    96   0.119E+00    0.156E-01
DAV:   2    -0.101220215696E+03   -0.70190E-03   -0.76325E-03   120   0.293E-01    0.763E-02
DAV:   3    -0.101220204338E+03    0.11358E-04   -0.27245E-04   132   0.614E-02    0.387E-02
DAV:   4    -0.101220216413E+03   -0.12074E-04   -0.58098E-05   108   0.288E-02    0.111E-02
DAV:   5    -0.101220216073E+03    0.34004E-06   -0.10324E-05   120   0.127E-02    0.596E-03
DAV:   6    -0.101220216559E+03   -0.48685E-06   -0.27483E-06   108   0.561E-03
   4 F= -.10122022E+03 E0= -.10122022E+03  d E =-.121631E-10
       N       E                     dE             d eps       ncg     rms          rms(c)
DAV:   1    -0.101218834060E+03    0.13820E-02   -0.32834E-01    96   0.168E+00    0.240E-01
DAV:   2    -0.101220225530E+03   -0.13915E-02   -0.15210E-02   108   0.422E-01    0.110E-01
DAV:   3    -0.101220191500E+03    0.34030E-04   -0.52256E-04   108   0.881E-02    0.572E-02
DAV:   4    -0.101220207162E+03   -0.15663E-04   -0.13698E-04   120   0.446E-02    0.160E-02
DAV:   5    -0.101220202699E+03    0.44632E-05   -0.25913E-05   120   0.200E-02    0.888E-03
DAV:   6    -0.101220202372E+03    0.32734E-06   -0.58577E-06   132   0.824E-03
   5 F= -.10122020E+03 E0= -.10122020E+03  d E =-.311279E-10
       N       E                     dE             d eps       ncg     rms          rms(c)
DAV:   1    -0.101217954468E+03    0.22482E-02   -0.16295E-01    96   0.122E+00    0.163E-01
DAV:   2    -0.101218881400E+03   -0.92693E-03   -0.98386E-03   120   0.332E-01    0.922E-02
DAV:   3    -0.101218842797E+03    0.38604E-04   -0.28858E-04   108   0.677E-02    0.489E-02
DAV:   4    -0.101218850585E+03   -0.77881E-05   -0.11328E-04   108   0.402E-02    0.116E-02
DAV:   5    -0.101218849106E+03    0.14787E-05   -0.21207E-05   132   0.174E-02    0.759E-03
DAV:   6    -0.101218850836E+03   -0.17300E-05   -0.36802E-06   108   0.627E-03    0.472E-03
DAV:   7    -0.101218856226E+03   -0.53904E-05   -0.48357E-07    96   0.262E-03    0.169E-03
DAV:   8    -0.101218861799E+03   -0.55730E-05   -0.50693E-07    96   0.238E-03    0.668E-04
DAV:   9    -0.101218867636E+03   -0.58362E-05   -0.31565E-07    96   0.174E-03    0.534E-04
DAV:  10    -0.101218874329E+03   -0.66931E-05   -0.59042E-07    96   0.166E-03    0.397E-04
DAV:  11    -0.101218875603E+03   -0.12739E-05   -0.37048E-08   108   0.734E-04    0.299E-04
DAV:  12    -0.101218877568E+03   -0.19657E-05   -0.56072E-08    84   0.586E-04    0.141E-04
DAV:  13    -0.101218878762E+03   -0.11937E-05   -0.28433E-08    96   0.383E-04    0.928E-05
DAV:  14    -0.101218879745E+03   -0.98300E-06   -0.16338E-08    84   0.291E-04
   6 F= -.10121888E+03 E0= -.10121888E+03  d E =-.200294E-10
       N       E                     dE             d eps       ncg     rms          rms(c)
DAV:   1    -0.101216747049E+03    0.21317E-02   -0.33088E-01    96   0.172E+00    0.265E-01
DAV:   2    -0.101219085768E+03   -0.23387E-02   -0.25243E-02   120   0.529E-01    0.168E-01
DAV:   3    -0.101218915127E+03    0.17064E-03   -0.68762E-04   132   0.110E-01    0.879E-02
DAV:   4    -0.101218914856E+03    0.27041E-06   -0.42809E-04   108   0.748E-02    0.166E-02
DAV:   5    -0.101218906160E+03    0.86968E-05   -0.68829E-05   120   0.303E-02    0.123E-02
DAV:   6    -0.101218905983E+03    0.17714E-06   -0.11766E-05   120   0.979E-03    0.820E-03
DAV:   7    -0.101218916983E+03   -0.11000E-04   -0.13027E-06   108   0.391E-03    0.336E-03
DAV:   8    -0.101218935450E+03   -0.18467E-04   -0.18277E-06   120   0.479E-03    0.127E-03
DAV:   9    -0.101218949589E+03   -0.14139E-04   -0.10738E-06    96   0.258E-03    0.157E-03
DAV:  10    -0.101218972030E+03   -0.22441E-04   -0.12606E-06   120   0.239E-03    0.629E-04
DAV:  11    -0.101218976701E+03   -0.46711E-05   -0.11284E-07   108   0.951E-04    0.435E-04
DAV:  12    -0.101218985838E+03   -0.91368E-05   -0.29762E-07    84   0.113E-03    0.249E-04
DAV:  13    -0.101218988220E+03   -0.23823E-05   -0.60031E-08   108   0.520E-04    0.213E-04
DAV:  14    -0.101218990439E+03   -0.22192E-05   -0.21404E-08    84   0.399E-04    0.791E-05
DAV:  15    -0.101218991501E+03   -0.10615E-05   -0.12919E-08    96   0.280E-04    0.760E-05
DAV:  16    -0.101218992125E+03   -0.62427E-06    0.18032E-09    84   0.183E-04
   7 F= -.10121899E+03 E0= -.10121899E+03  d E =-.106510E-10
       N       E                     dE             d eps       ncg     rms          rms(c)
DAV:   1    -0.101218103981E+03    0.88752E-03   -0.19067E-01    96   0.133E+00    0.190E-01
DAV:   2    -0.101219494950E+03   -0.13910E-02   -0.14471E-02   108   0.424E-01    0.120E-01
DAV:   3    -0.101219411111E+03    0.83839E-04   -0.38485E-04   132   0.841E-02    0.653E-02
DAV:   4    -0.101219410836E+03    0.27533E-06   -0.22627E-04   108   0.585E-02    0.122E-02
DAV:   5    -0.101219406088E+03    0.47479E-05   -0.44173E-05   120   0.241E-02    0.965E-03
DAV:   6    -0.101219406834E+03   -0.74565E-06   -0.46029E-06   132   0.682E-03
   8 F= -.10121941E+03 E0= -.10121941E+03  d E =-.154030E-10
       N       E                     dE             d eps       ncg     rms          rms(c)
DAV:   1    -0.101217187120E+03    0.22190E-02   -0.33584E-01    96   0.173E+00    0.263E-01
DAV:   2    -0.101219246635E+03   -0.20595E-02   -0.21169E-02   108   0.486E-01    0.154E-01
DAV:   3    -0.101219172926E+03    0.73708E-04   -0.55642E-04   108   0.911E-02    0.830E-02
DAV:   4    -0.101219171363E+03    0.15634E-05   -0.24050E-04   132   0.576E-02    0.159E-02
DAV:   5    -0.101219162089E+03    0.92740E-05   -0.43143E-05   144   0.244E-02    0.108E-02
DAV:   6    -0.101219160851E+03    0.12383E-05   -0.76538E-06   132   0.100E-02    0.646E-03
DAV:   7    -0.101219172074E+03   -0.11223E-04   -0.37107E-06   120   0.774E-03    0.211E-03
DAV:   8    -0.101219187079E+03   -0.15005E-04   -0.15071E-06   108   0.516E-03    0.162E-03
DAV:   9    -0.101219198593E+03   -0.11514E-04   -0.66980E-07   108   0.273E-03    0.158E-03
DAV:  10    -0.101219214868E+03   -0.16275E-04   -0.71101E-07    84   0.191E-03    0.451E-04
DAV:  11    -0.101219222600E+03   -0.77321E-05   -0.45545E-07    96   0.153E-03    0.569E-04
DAV:  12    -0.101219226533E+03   -0.39334E-05   -0.85333E-08   108   0.907E-04    0.243E-04
DAV:  13    -0.101219233088E+03   -0.65548E-05   -0.22311E-07    84   0.974E-04    0.260E-04
DAV:  14    -0.101219234628E+03   -0.15402E-05   -0.25675E-08   108   0.430E-04    0.196E-04
DAV:  15    -0.101219236812E+03   -0.21839E-05   -0.33248E-08    84   0.525E-04    0.150E-04
DAV:  16    -0.101219237208E+03   -0.39588E-06   -0.24874E-09   108   0.255E-04
   9 F= -.10121924E+03 E0= -.10121924E+03  d E =-.152786E-10
       N       E                     dE             d eps       ncg     rms          rms(c)
DAV:   1    -0.101217369213E+03    0.18676E-02   -0.16971E-01    96   0.123E+00    0.184E-01
DAV:   2    -0.101218476682E+03   -0.11075E-02   -0.11448E-02   120   0.364E-01    0.116E-01
DAV:   3    -0.101218423376E+03    0.53306E-04   -0.28138E-04   132   0.693E-02    0.621E-02
DAV:   4    -0.101218420411E+03    0.29653E-05   -0.17037E-04   108   0.488E-02    0.120E-02
DAV:   5    -0.101218415696E+03    0.47145E-05   -0.34663E-05   132   0.216E-02    0.883E-03
DAV:   6    -0.101218417934E+03   -0.22379E-05   -0.76289E-06   132   0.838E-03    0.551E-03
DAV:   7    -0.101218428324E+03   -0.10390E-04   -0.12550E-06    96   0.412E-03    0.225E-03
DAV:   8    -0.101218442361E+03   -0.14037E-04   -0.14051E-06   108   0.349E-03    0.821E-04
DAV:   9    -0.101218455267E+03   -0.12906E-04   -0.12389E-06    96   0.282E-03    0.112E-03
DAV:  10    -0.101218467131E+03   -0.11864E-04   -0.93291E-07   108   0.216E-03    0.394E-04
DAV:  11    -0.101218471214E+03   -0.40831E-05   -0.16664E-07   108   0.100E-03    0.213E-04
DAV:  12    -0.101218475205E+03   -0.39914E-05   -0.17426E-07    84   0.846E-04    0.135E-04
DAV:  13    -0.101218476608E+03   -0.14032E-05   -0.41899E-08    96   0.433E-04    0.153E-04
DAV:  14    -0.101218477749E+03   -0.11403E-05   -0.16397E-08    84   0.332E-04    0.479E-05
DAV:  15    -0.101218478104E+03   -0.35541E-06   -0.69805E-10    96   0.181E-04
  10 F= -.10121848E+03 E0= -.10121848E+03  d E =-.152587E-10
       N       E                     dE             d eps       ncg     rms          rms(c)
DAV:   1    -0.101216044842E+03    0.24329E-02   -0.34773E-01    96   0.178E+00    0.275E-01
DAV:   2    -0.101218441554E+03   -0.23967E-02   -0.24638E-02   120   0.542E-01    0.180E-01
DAV:   3    -0.101218296411E+03    0.14514E-03   -0.65348E-04   144   0.111E-01    0.864E-02
DAV:   4    -0.101218315958E+03   -0.19547E-04   -0.44421E-04   108   0.759E-02    0.177E-02
DAV:   5    -0.101218301785E+03    0.14173E-04   -0.65076E-05   132   0.298E-02    0.117E-02
DAV:   6    -0.101218306285E+03   -0.45009E-05   -0.16952E-05   132   0.111E-02    0.579E-03
DAV:   7    -0.101218324615E+03   -0.18329E-04   -0.16306E-06   108   0.405E-03    0.245E-03
DAV:   8    -0.101218351588E+03   -0.26973E-04   -0.32429E-06   120   0.482E-03    0.154E-03
DAV:   9    -0.101218372960E+03   -0.21373E-04   -0.16023E-06   108   0.303E-03    0.121E-03
DAV:  10    -0.101218391617E+03   -0.18656E-04   -0.14264E-06   120   0.257E-03    0.409E-04
DAV:  11    -0.101218398899E+03   -0.72826E-05   -0.20203E-07   108   0.118E-03    0.281E-04
DAV:  12    -0.101218405607E+03   -0.67075E-05   -0.28411E-07    84   0.102E-03    0.185E-04
DAV:  13    -0.101218407780E+03   -0.21736E-05   -0.37321E-08    96   0.427E-04    0.115E-04
DAV:  14    -0.101218409847E+03   -0.20671E-05   -0.34330E-08    84   0.396E-04    0.692E-05
DAV:  15    -0.101218410475E+03   -0.62714E-06   -0.26025E-09    96   0.194E-04
  11 F= -.10121841E+03 E0= -.10121841E+03  d E =-.138688E-10
       N       E                     dE             d eps       ncg     rms          rms(c)
DAV:   1    -0.101218742064E+03   -0.33222E-03   -0.17129E-01    96   0.125E+00    0.191E-01
DAV:   2    -0.101219909160E+03   -0.11671E-02   -0.12070E-02   120   0.387E-01    0.121E-01
DAV:   3    -0.101219845022E+03    0.64138E-04   -0.31061E-04   156   0.747E-02    0.626E-02
DAV:   4    -0.101219848827E+03   -0.38047E-05   -0.19600E-04   108   0.528E-02    0.123E-02
DAV:   5    -0.101219842541E+03    0.62862E-05   -0.40510E-05   132   0.235E-02    0.867E-03
DAV:   6    -0.101219844024E+03   -0.14826E-05   -0.81371E-06   132   0.820E-03    0.531E-03
DAV:   7    -0.101219852970E+03   -0.89466E-05   -0.81203E-07    84   0.337E-03    0.234E-03
DAV:   8    -0.101219867079E+03   -0.14108E-04   -0.18305E-06   120   0.396E-03    0.982E-04
DAV:   9    -0.101219876974E+03   -0.98957E-05   -0.71604E-07    84   0.246E-03    0.101E-03
DAV:  10    -0.101219889372E+03   -0.12397E-04   -0.11942E-06   108   0.226E-03    0.433E-04
DAV:  11    -0.101219892880E+03   -0.35081E-05   -0.11304E-07   108   0.968E-04    0.243E-04
DAV:  12    -0.101219896472E+03   -0.35925E-05   -0.12269E-07    84   0.770E-04    0.142E-04
DAV:  13    -0.101219898337E+03   -0.18644E-05   -0.52899E-08    96   0.484E-04    0.168E-04
DAV:  14    -0.101219899699E+03   -0.13619E-05   -0.23931E-08    84   0.358E-04    0.584E-05
DAV:  15    -0.101219900166E+03   -0.46783E-06   -0.13411E-09    96   0.197E-04
  12 F= -.10121990E+03 E0= -.10121990E+03  d E =-.142655E-10
       N       E                     dE             d eps       ncg     rms          rms(c)
DAV:   1    -0.101218112719E+03    0.17870E-02   -0.33068E-01    96   0.167E+00    0.273E-01
DAV:   2    -0.101219814255E+03   -0.17015E-02   -0.17999E-02   120   0.445E-01    0.133E-01
DAV:   3    -0.101219760740E+03    0.53515E-04   -0.56340E-04   132   0.896E-02    0.715E-02
DAV:   4    -0.101219771813E+03   -0.11073E-04   -0.19849E-04   120   0.564E-02    0.156E-02
DAV:   5    -0.101219766182E+03    0.56307E-05   -0.48917E-05   132   0.264E-02    0.116E-02
DAV:   6    -0.101219765393E+03    0.78916E-06   -0.73051E-06   120   0.944E-03
  13 F= -.10121977E+03 E0= -.10121977E+03  d E =-.221060E-10
       N       E                     dE             d eps       ncg     rms          rms(c)
DAV:   1    -0.101217459694E+03    0.23065E-02   -0.16803E-01    96   0.128E+00    0.192E-01
DAV:   2    -0.101218721586E+03   -0.12619E-02   -0.13010E-02   132   0.396E-01    0.114E-01
DAV:   3    -0.101218670853E+03    0.50733E-04   -0.35390E-04   120   0.769E-02    0.656E-02
DAV:   4    -0.101218690644E+03   -0.19791E-04   -0.19171E-04   108   0.561E-02    0.132E-02
DAV:   5    -0.101218689941E+03    0.70310E-06   -0.52932E-05   132   0.271E-02    0.105E-02
DAV:   6    -0.101218688566E+03    0.13743E-05   -0.58532E-06   108   0.832E-03    0.707E-03
DAV:   7    -0.101218691737E+03   -0.31703E-05   -0.18960E-06   120   0.520E-03    0.273E-03
DAV:   8    -0.101218696880E+03   -0.51439E-05   -0.50360E-07    96   0.326E-03    0.771E-04
DAV:   9    -0.101218703186E+03   -0.63056E-05   -0.52268E-07    84   0.234E-03    0.972E-04
DAV:  10    -0.101218712048E+03   -0.88620E-05   -0.49388E-07    96   0.185E-03    0.351E-04
DAV:  11    -0.101218714207E+03   -0.21590E-05   -0.94455E-08   108   0.894E-04    0.286E-04
DAV:  12    -0.101218717207E+03   -0.30002E-05   -0.69974E-08    84   0.661E-04    0.157E-04
DAV:  13    -0.101218719860E+03   -0.26524E-05   -0.89173E-08    84   0.618E-04    0.120E-04
DAV:  14    -0.101218721112E+03   -0.12528E-05   -0.20916E-08    96   0.330E-04    0.853E-05
DAV:  15    -0.101218721834E+03   -0.72112E-06   -0.48973E-09    84   0.227E-04
  14 F= -.10121872E+03 E0= -.10121872E+03  d E =-.142689E-10
       N       E                     dE             d eps       ncg     rms          rms(c)
DAV:   1    -0.101216609380E+03    0.21117E-02   -0.35338E-01    96   0.181E+00    0.260E-01
DAV:   2    -0.101218800710E+03   -0.21913E-02   -0.22524E-02   132   0.547E-01    0.170E-01
DAV:   3    -0.101218696044E+03    0.10467E-03   -0.56745E-04   144   0.103E-01    0.877E-02
DAV:   4    -0.101218702733E+03   -0.66885E-05   -0.36047E-04   120   0.735E-02    0.172E-02
DAV:   5    -0.101218694533E+03    0.82003E-05   -0.75420E-05   120   0.322E-02    0.120E-02
DAV:   6    -0.101218700029E+03   -0.54964E-05   -0.16827E-05   120   0.119E-02    0.724E-03
DAV:   7    -0.101218719238E+03   -0.19209E-04   -0.20111E-06   108   0.507E-03    0.307E-03
DAV:   8    -0.101218746063E+03   -0.26825E-04   -0.25734E-06   120   0.439E-03    0.106E-03
DAV:   9    -0.101218767957E+03   -0.21894E-04   -0.21584E-06   108   0.359E-03    0.147E-03
DAV:  10    -0.101218790249E+03   -0.22292E-04   -0.20781E-06   120   0.321E-03    0.473E-04
DAV:  11    -0.101218795562E+03   -0.53132E-05   -0.19024E-07   108   0.119E-03    0.314E-04
DAV:  12    -0.101218801574E+03   -0.60114E-05   -0.23149E-07    84   0.102E-03    0.144E-04
DAV:  13    -0.101218804236E+03   -0.26626E-05   -0.10469E-07    96   0.636E-04    0.186E-04
DAV:  14    -0.101218805953E+03   -0.17170E-05   -0.28022E-08    84   0.405E-04    0.812E-05
DAV:  15    -0.101218806504E+03   -0.55047E-06   -0.33501E-09   108   0.216E-04
  15 F= -.10121881E+03 E0= -.10121881E+03  d E =-.165454E-10
       N       E                     dE             d eps       ncg     rms          rms(c)
DAV:   1    -0.101218134524E+03    0.67143E-03   -0.17620E-01    96   0.130E+00    0.183E-01
DAV:   2    -0.101219359314E+03   -0.12248E-02   -0.12523E-02   108   0.398E-01    0.128E-01
DAV:   3    -0.101219285780E+03    0.73534E-04   -0.31075E-04   132   0.781E-02    0.627E-02
DAV:   4    -0.101219291381E+03   -0.56006E-05   -0.22532E-04   108   0.573E-02    0.133E-02
DAV:   5    -0.101219283656E+03    0.77247E-05   -0.40636E-05   132   0.240E-02    0.878E-03
DAV:   6    -0.101219285555E+03   -0.18989E-05   -0.83493E-06   108   0.800E-03    0.412E-03
DAV:   7    -0.101219295682E+03   -0.10127E-04   -0.56053E-07    96   0.256E-03    0.210E-03
DAV:   8    -0.101219314428E+03   -0.18746E-04   -0.27332E-06   108   0.434E-03    0.130E-03
DAV:   9    -0.101219326659E+03   -0.12231E-04   -0.76453E-07    96   0.247E-03    0.894E-04
DAV:  10    -0.101219337694E+03   -0.11035E-04   -0.86925E-07    84   0.199E-03    0.334E-04
DAV:  11    -0.101219342663E+03   -0.49688E-05   -0.20670E-07    96   0.995E-04    0.221E-04
DAV:  12    -0.101219346014E+03   -0.33509E-05   -0.99051E-08    84   0.698E-04    0.135E-04
DAV:  13    -0.101219347316E+03   -0.13026E-05   -0.26219E-08   108   0.389E-04    0.107E-04
DAV:  14    -0.101219348516E+03   -0.11993E-05   -0.15584E-08    84   0.307E-04    0.373E-05
DAV:  15    -0.101219348873E+03   -0.35763E-06    0.19155E-09    96   0.157E-04
  16 F= -.10121935E+03 E0= -.10121935E+03  d E =-.142769E-10
       N       E                     dE             d eps       ncg     rms          rms(c)
DAV:   1    -0.101217110813E+03    0.22377E-02   -0.34143E-01    96   0.184E+00    0.257E-01
DAV:   2    -0.101219143041E+03   -0.20322E-02   -0.20969E-02   120   0.510E-01    0.154E-01
DAV:   3    -0.101219055996E+03    0.87045E-04   -0.53269E-04   132   0.946E-02    0.806E-02
DAV:   4    -0.101219061879E+03   -0.58832E-05   -0.28807E-04   120   0.662E-02    0.161E-02
DAV:   5    -0.101219052677E+03    0.92021E-05   -0.62388E-05   132   0.299E-02    0.122E-02
DAV:   6    -0.101219051395E+03    0.12823E-05   -0.11665E-05   132   0.108E-02    0.749E-03
DAV:   7    -0.101219060078E+03   -0.86835E-05   -0.22163E-06   108   0.576E-03    0.295E-03
DAV:   8    -0.101219074853E+03   -0.14775E-04   -0.15132E-06   120   0.452E-03    0.122E-03
DAV:   9    -0.101219091182E+03   -0.16328E-04   -0.99956E-07    84   0.300E-03    0.130E-03
DAV:  10    -0.101219107247E+03   -0.16066E-04   -0.97457E-07    96   0.234E-03    0.650E-04
DAV:  11    -0.101219116795E+03   -0.95482E-05   -0.38839E-07    84   0.140E-03    0.253E-04
DAV:  12    -0.101219122715E+03   -0.59196E-05   -0.14288E-07    96   0.836E-04    0.248E-04
DAV:  13    -0.101219125411E+03   -0.26961E-05   -0.41210E-08   108   0.463E-04    0.148E-04
DAV:  14    -0.101219127458E+03   -0.20467E-05   -0.28686E-08    84   0.384E-04    0.488E-05
DAV:  15    -0.101219127976E+03   -0.51796E-06    0.13424E-10   120   0.183E-04
  17 F= -.10121913E+03 E0= -.10121913E+03  d E =-.140271E-10
       N       E                     dE             d eps       ncg     rms          rms(c)
DAV:   1    -0.101218697218E+03    0.43024E-03   -0.17081E-01    96   0.131E+00    0.171E-01
DAV:   2    -0.101219761832E+03   -0.10646E-02   -0.11024E-02   132   0.376E-01    0.115E-01
DAV:   3    -0.101219715457E+03    0.46375E-04   -0.25967E-04   144   0.669E-02    0.611E-02
DAV:   4    -0.101219699393E+03    0.16064E-04   -0.12872E-04   120   0.432E-02    0.106E-02
DAV:   5    -0.101219696533E+03    0.28608E-05   -0.19622E-05   132   0.173E-02    0.745E-03
DAV:   6    -0.101219701811E+03   -0.52785E-05   -0.66440E-06   108   0.906E-03    0.424E-03
DAV:   7    -0.101219718906E+03   -0.17095E-04   -0.25155E-06   120   0.579E-03    0.156E-03
DAV:   8    -0.101219736544E+03   -0.17638E-04   -0.12639E-06    96   0.373E-03    0.100E-03
DAV:   9    -0.101219755103E+03   -0.18559E-04   -0.17513E-06   108   0.318E-03    0.879E-04
DAV:  10    -0.101219768208E+03   -0.13105E-04   -0.11193E-06    96   0.218E-03    0.355E-04
DAV:  11    -0.101219771709E+03   -0.35008E-05   -0.10699E-07   108   0.805E-04    0.220E-04
DAV:  12    -0.101219776591E+03   -0.48818E-05   -0.31251E-07    84   0.108E-03    0.142E-04
DAV:  13    -0.101219777549E+03   -0.95821E-06   -0.30899E-08   108   0.413E-04
  18 F= -.10121978E+03 E0= -.10121978E+03  d E =-.158528E-10
       N       E                     dE             d eps       ncg     rms          rms(c)
DAV:   1    -0.101217606566E+03    0.21700E-02   -0.33354E-01    96   0.179E+00    0.215E-01
DAV:   2    -0.101219509221E+03   -0.19027E-02   -0.19442E-02   132   0.486E-01    0.140E-01
DAV:   3    -0.101219464061E+03    0.45160E-04   -0.48013E-04   132   0.870E-02    0.721E-02
DAV:   4    -0.101219459110E+03    0.49517E-05   -0.17666E-04   132   0.536E-02    0.136E-02
DAV:   5    -0.101219449953E+03    0.91569E-05   -0.36622E-05   132   0.240E-02    0.916E-03
DAV:   6    -0.101219451229E+03   -0.12766E-05   -0.77921E-06   132   0.958E-03    0.561E-03
DAV:   7    -0.101219463367E+03   -0.12138E-04   -0.18806E-06   108   0.648E-03    0.213E-03
DAV:   8    -0.101219480444E+03   -0.17077E-04   -0.23267E-06   120   0.621E-03    0.171E-03
DAV:   9    -0.101219495881E+03   -0.15436E-04   -0.10966E-06    96   0.366E-03    0.148E-03
DAV:  10    -0.101219505387E+03   -0.95060E-05   -0.28476E-07   108   0.141E-03    0.863E-04
DAV:  11    -0.101219519137E+03   -0.13750E-04   -0.70473E-07    84   0.172E-03    0.325E-04
DAV:  12    -0.101219524476E+03   -0.53391E-05   -0.17414E-07    96   0.859E-04    0.294E-04
DAV:  13    -0.101219530401E+03   -0.59247E-05   -0.15458E-07    84   0.778E-04    0.144E-04
DAV:  14    -0.101219533081E+03   -0.26797E-05   -0.57656E-08    96   0.521E-04    0.133E-04
DAV:  15    -0.101219534592E+03   -0.15118E-05   -0.18298E-08    84   0.403E-04    0.127E-04
DAV:  16    -0.101219535199E+03   -0.60678E-06   -0.24030E-09   108   0.221E-04
  19 F= -.10121954E+03 E0= -.10121954E+03  d E =-.145867E-10
       N       E                     dE             d eps       ncg     rms          rms(c)
DAV:   1    -0.101217772583E+03    0.17620E-02   -0.16589E-01    96   0.128E+00    0.152E-01
DAV:   2    -0.101219046624E+03   -0.12740E-02   -0.13201E-02   120   0.399E-01    0.110E-01
DAV:   3    -0.101218991503E+03    0.55122E-04   -0.31842E-04   144   0.716E-02    0.624E-02
DAV:   4    -0.101218974786E+03    0.16716E-04   -0.14817E-04   120   0.482E-02    0.105E-02
DAV:   5    -0.101218969232E+03    0.55539E-05   -0.36786E-05   132   0.220E-02    0.836E-03
DAV:   6    -0.101218969811E+03   -0.57886E-06   -0.51635E-06   144   0.761E-03
  20 F= -.10121897E+03 E0= -.10121897E+03  d E =-.263107E-10
       N       E                     dE             d eps       ncg     rms          rms(c)
DAV:   1    -0.101216843766E+03    0.21255E-02   -0.33411E-01    96   0.171E+00    0.245E-01
DAV:   2    -0.101219221062E+03   -0.23773E-02   -0.25014E-02   132   0.494E-01    0.162E-01
DAV:   3    -0.101219092161E+03    0.12890E-03   -0.64724E-04   132   0.995E-02    0.856E-02
DAV:   4    -0.101219108242E+03   -0.16082E-04   -0.38305E-04   108   0.680E-02    0.159E-02
DAV:   5    -0.101219101338E+03    0.69043E-05   -0.69874E-05   132   0.288E-02    0.119E-02
DAV:   6    -0.101219100286E+03    0.10521E-05   -0.10708E-05   108   0.896E-03    0.790E-03
DAV:   7    -0.101219106848E+03   -0.65619E-05   -0.10616E-06   120   0.354E-03    0.333E-03
DAV:   8    -0.101219118711E+03   -0.11864E-04   -0.16113E-06   108   0.430E-03    0.112E-03
DAV:   9    -0.101219128006E+03   -0.92950E-05   -0.80645E-07   108   0.228E-03    0.138E-03
DAV:  10    -0.101219143375E+03   -0.15369E-04   -0.85184E-07    96   0.200E-03    0.532E-04
DAV:  11    -0.101219147379E+03   -0.40042E-05   -0.11884E-07   108   0.907E-04    0.397E-04
DAV:  12    -0.101219154090E+03   -0.67112E-05   -0.22443E-07    84   0.988E-04    0.185E-04
DAV:  13    -0.101219156122E+03   -0.20312E-05   -0.50548E-08    96   0.478E-04    0.176E-04
DAV:  14    -0.101219157928E+03   -0.18062E-05   -0.17964E-08    84   0.352E-04    0.796E-05
DAV:  15    -0.101219158919E+03   -0.99108E-06   -0.12548E-08    96   0.270E-04
  21 F= -.10121916E+03 E0= -.10121916E+03  d E =-.108960E-10
       N       E                     dE             d eps       ncg     rms          rms(c)
DAV:   1    -0.101219373691E+03   -0.21576E-03   -0.16851E-01    96   0.117E+00    0.158E-01
DAV:   2    -0.101220413614E+03   -0.10399E-02   -0.10999E-02   108   0.341E-01    0.104E-01
DAV:   3    -0.101220358959E+03    0.54656E-04   -0.29399E-04   132   0.671E-02    0.578E-02
DAV:   4    -0.101220358547E+03    0.41165E-06   -0.13520E-04   108   0.414E-02    0.125E-02
DAV:   5    -0.101220354723E+03    0.38236E-05   -0.23146E-05   132   0.172E-02    0.756E-03
DAV:   6    -0.101220355964E+03   -0.12403E-05   -0.38023E-06   132   0.617E-03    0.480E-03
DAV:   7    -0.101220363402E+03   -0.74380E-05   -0.71408E-07    96   0.288E-03    0.158E-03
DAV:   8    -0.101220371088E+03   -0.76858E-05   -0.46389E-07    96   0.217E-03    0.720E-04
DAV:   9    -0.101220380753E+03   -0.96655E-05   -0.76756E-07    96   0.213E-03    0.716E-04
DAV:  10    -0.101220389526E+03   -0.87731E-05   -0.71462E-07   108   0.185E-03    0.342E-04
DAV:  11    -0.101220391312E+03   -0.17856E-05   -0.44867E-08   108   0.709E-04    0.258E-04
DAV:  12    -0.101220393755E+03   -0.24435E-05   -0.69137E-08    84   0.618E-04    0.104E-04
DAV:  13    -0.101220395151E+03   -0.13960E-05   -0.40684E-08    96   0.429E-04    0.123E-04
DAV:  14    -0.101220396067E+03   -0.91592E-06   -0.12409E-08    84   0.279E-04
  22 F= -.10122040E+03 E0= -.10122040E+03  d E =-.193916E-10
       N       E                     dE             d eps       ncg     rms          rms(c)
DAV:   1    -0.101218722863E+03    0.16723E-02   -0.33348E-01    96   0.168E+00    0.195E-01
DAV:   2    -0.101220236311E+03   -0.15134E-02   -0.15924E-02    96   0.407E-01    0.103E-01
DAV:   3    -0.101220222501E+03    0.13810E-04   -0.53312E-04   144   0.877E-02    0.510E-02
DAV:   4    -0.101220235430E+03   -0.12929E-04   -0.11601E-04   108   0.416E-02    0.137E-02
DAV:   5    -0.101220231897E+03    0.35329E-05   -0.22161E-05   132   0.185E-02    0.780E-03
DAV:   6    -0.101220233110E+03   -0.12128E-05   -0.67883E-06   108   0.874E-03    0.394E-03
DAV:   7    -0.101220237083E+03   -0.39733E-05   -0.66052E-07    96   0.313E-03    0.171E-03
DAV:   8    -0.101220242873E+03   -0.57902E-05   -0.47753E-07    84   0.281E-03    0.757E-04
DAV:   9    -0.101220248130E+03   -0.52565E-05   -0.31473E-07   108   0.197E-03    0.553E-04
DAV:  10    -0.101220255405E+03   -0.72751E-05   -0.47829E-07    84   0.210E-03    0.241E-04
DAV:  11    -0.101220257521E+03   -0.21160E-05   -0.14391E-07   108   0.120E-03    0.283E-04
DAV:  12    -0.101220259105E+03   -0.15840E-05   -0.25921E-08    84   0.535E-04    0.173E-04
DAV:  13    -0.101220261759E+03   -0.26542E-05   -0.89690E-08    84   0.630E-04    0.819E-05
DAV:  14    -0.101220262942E+03   -0.11830E-05   -0.28663E-08    96   0.366E-04    0.103E-04
DAV:  15    -0.101220263509E+03   -0.56676E-06   -0.26460E-09    84   0.209E-04
  23 F= -.10122026E+03 E0= -.10122026E+03  d E =-.179492E-10
       N       E                     dE             d eps       ncg     rms          rms(c)
DAV:   1    -0.101219226149E+03    0.10368E-02   -0.16761E-01    96   0.118E+00    0.149E-01
DAV:   2    -0.101219991187E+03   -0.76504E-03   -0.81327E-03    96   0.296E-01    0.757E-02
DAV:   3    -0.101219978832E+03    0.12355E-04   -0.27146E-04   144   0.627E-02    0.390E-02
DAV:   4    -0.101219986040E+03   -0.72087E-05   -0.65928E-05   108   0.312E-02    0.103E-02
DAV:   5    -0.101219984566E+03    0.14746E-05   -0.13034E-05   132   0.141E-02    0.598E-03
DAV:   6    -0.101219985000E+03   -0.43444E-06   -0.31005E-06   108   0.602E-03
  24 F= -.10121999E+03 E0= -.10121999E+03  d E =-.139503E-10
       N       E                     dE             d eps       ncg     rms          rms(c)
DAV:   1    -0.101218384965E+03    0.15996E-02   -0.33927E-01    96   0.168E+00    0.266E-01
DAV:   2    -0.101219925181E+03   -0.15402E-02   -0.16803E-02   120   0.432E-01    0.122E-01
DAV:   3    -0.101219873579E+03    0.51602E-04   -0.53089E-04   120   0.866E-02    0.705E-02
DAV:   4    -0.101219887371E+03   -0.13792E-04   -0.17028E-04   108   0.483E-02    0.184E-02
DAV:   5    -0.101219883745E+03    0.36264E-05   -0.33109E-05   132   0.213E-02    0.940E-03
DAV:   6    -0.101219883859E+03   -0.11456E-06   -0.48858E-06   108   0.745E-03
  25 F= -.10121988E+03 E0= -.10121988E+03  d E =-.265999E-10
       N       E                     dE             d eps       ncg     rms          rms(c)
DAV:   1    -0.101217567028E+03    0.23167E-02   -0.16879E-01    96   0.128E+00    0.178E-01
DAV:   2    -0.101218838535E+03   -0.12715E-02   -0.13118E-02   132   0.393E-01    0.106E-01
DAV:   3    -0.101218791543E+03    0.46992E-04   -0.32188E-04   120   0.702E-02    0.606E-02
DAV:   4    -0.101218795725E+03   -0.41818E-05   -0.14266E-04   108   0.441E-02    0.120E-02
DAV:   5    -0.101218791211E+03    0.45137E-05   -0.26550E-05   132   0.189E-02    0.753E-03
DAV:   6    -0.101218790251E+03    0.96051E-06   -0.39850E-06   120   0.696E-03
  26 F= -.10121879E+03 E0= -.10121879E+03  d E =-.174151E-10
       N       E                     dE             d eps       ncg     rms          rms(c)
DAV:   1    -0.101216782083E+03    0.20091E-02   -0.34939E-01    96   0.176E+00    0.222E-01
DAV:   2    -0.101219000227E+03   -0.22181E-02   -0.22088E-02   132   0.521E-01    0.162E-01
DAV:   3    -0.101218954883E+03    0.45344E-04   -0.47908E-04   120   0.886E-02    0.895E-02
DAV:   4    -0.101218931057E+03    0.23826E-04   -0.26578E-04   120   0.590E-02    0.145E-02
DAV:   5    -0.101218920503E+03    0.10554E-04   -0.42892E-05   132   0.237E-02    0.100E-02
DAV:   6    -0.101218923626E+03   -0.31224E-05   -0.14748E-05   132   0.120E-02    0.597E-03
DAV:   7    -0.101218945118E+03   -0.21493E-04   -0.41073E-06   120   0.693E-03    0.220E-03
DAV:   8    -0.101218969093E+03   -0.23975E-04   -0.22229E-06    96   0.460E-03    0.119E-03
DAV:   9    -0.101218993959E+03   -0.24866E-04   -0.27899E-06   108   0.404E-03    0.119E-03
DAV:  10    -0.101219012107E+03   -0.18148E-04   -0.16507E-06    96   0.282E-03    0.491E-04
DAV:  11    -0.101219019179E+03   -0.70719E-05   -0.32837E-07    96   0.129E-03    0.260E-04
DAV:  12    -0.101219023507E+03   -0.43288E-05   -0.20169E-07    84   0.915E-04    0.178E-04
DAV:  13    -0.101219025864E+03   -0.23567E-05   -0.72422E-08    96   0.589E-04    0.774E-05
DAV:  14    -0.101219026543E+03   -0.67838E-06   -0.74485E-09    96   0.273E-04
  27 F= -.10121903E+03 E0= -.10121903E+03  d E =-.179348E-10
       N       E                     dE             d eps       ncg     rms          rms(c)
DAV:   1    -0.101219230357E+03   -0.20449E-03   -0.17180E-01    96   0.124E+00    0.153E-01
DAV:   2    -0.101220262278E+03   -0.10319E-02   -0.10472E-02   108   0.346E-01    0.103E-01
DAV:   3    -0.101220234089E+03    0.28189E-04   -0.22615E-04   132   0.613E-02    0.535E-02
DAV:   4    -0.101220235105E+03   -0.10158E-05   -0.12324E-04   108   0.427E-02    0.101E-02
DAV:   5    -0.101220230347E+03    0.47576E-05   -0.27003E-05   132   0.193E-02    0.725E-03
DAV:   6    -0.101220230238E+03    0.10951E-06   -0.53071E-06   108   0.707E-03
  28 F= -.10122023E+03 E0= -.10122023E+03  d E =-.157732E-10
       N       E                     dE             d eps       ncg     rms          rms(c)
DAV:   1    -0.101218580091E+03    0.16503E-02   -0.34067E-01    96   0.159E+00    0.193E-01
DAV:   2    -0.101220131410E+03   -0.15513E-02   -0.15444E-02   108   0.401E-01    0.112E-01
DAV:   3    -0.101220159327E+03   -0.27917E-04   -0.42173E-04   132   0.816E-02    0.546E-02
DAV:   4    -0.101220191202E+03   -0.31875E-04   -0.13789E-04   108   0.495E-02    0.126E-02
DAV:   5    -0.101220190915E+03    0.28672E-06   -0.33467E-05   132   0.214E-02    0.895E-03
DAV:   6    -0.101220192512E+03   -0.15967E-05   -0.61295E-06   108   0.782E-03    0.473E-03
DAV:   7    -0.101220196269E+03   -0.37578E-05   -0.75896E-07    96   0.379E-03    0.182E-03
DAV:   8    -0.101220201631E+03   -0.53619E-05   -0.69761E-07    96   0.345E-03    0.950E-04
DAV:   9    -0.101220210570E+03   -0.89385E-05   -0.63759E-07    84   0.333E-03    0.447E-04
DAV:  10    -0.101220214875E+03   -0.43058E-05   -0.40241E-07    96   0.202E-03    0.417E-04
DAV:  11    -0.101220216137E+03   -0.12611E-05   -0.43977E-08   108   0.834E-04    0.373E-04
DAV:  12    -0.101220219522E+03   -0.33853E-05   -0.72676E-08    84   0.762E-04    0.152E-04
DAV:  13    -0.101220222023E+03   -0.25016E-05   -0.92808E-08    96   0.653E-04    0.222E-04
DAV:  14    -0.101220222861E+03   -0.83784E-06   -0.76654E-09   108   0.415E-04
  29 F= -.10122022E+03 E0= -.10122022E+03  d E =-.212410E-10
       N       E                     dE             d eps       ncg     rms          rms(c)
DAV:   1    -0.101217365591E+03    0.28564E-02   -0.17173E-01    96   0.121E+00    0.145E-01
DAV:   2    -0.101218278744E+03   -0.91315E-03   -0.92751E-03   108   0.326E-01    0.941E-02
DAV:   3    -0.101218265298E+03    0.13446E-04   -0.23030E-04   132   0.622E-02    0.460E-02
DAV:   4    -0.101218273872E+03   -0.85738E-05   -0.10787E-04   108   0.413E-02    0.100E-02
DAV:   5    -0.101218270107E+03    0.37650E-05   -0.22667E-05   132   0.178E-02    0.675E-03
DAV:   6    -0.101218269990E+03    0.11719E-06   -0.47678E-06   108   0.680E-03
  30 F= -.10121827E+03 E0= -.10121827E+03  d E =-.193365E-10
       N       E                     dE             d eps       ncg     rms          rms(c)
DAV:   1    -0.101216366279E+03    0.19038E-02   -0.35705E-01    96   0.177E+00    0.246E-01
DAV:   2    -0.101218815040E+03   -0.24488E-02   -0.24625E-02   132   0.543E-01    0.174E-01
DAV:   3    -0.101218719735E+03    0.95306E-04   -0.58897E-04   132   0.102E-01    0.863E-02
DAV:   4    -0.101218729761E+03   -0.10026E-04   -0.38011E-04   108   0.698E-02    0.165E-02
DAV:   5    -0.101218714766E+03    0.14994E-04   -0.66341E-05   132   0.289E-02    0.103E-02
DAV:   6    -0.101218719928E+03   -0.51615E-05   -0.14554E-05   108   0.103E-02    0.556E-03
DAV:   7    -0.101218740344E+03   -0.20416E-04   -0.14324E-06   120   0.376E-03    0.253E-03
DAV:   8    -0.101218767004E+03   -0.26660E-04   -0.36557E-06    96   0.518E-03    0.139E-03
DAV:   9    -0.101218785602E+03   -0.18598E-04   -0.19580E-06   108   0.339E-03    0.141E-03
DAV:  10    -0.101218800508E+03   -0.14907E-04   -0.11262E-06    96   0.245E-03    0.509E-04
DAV:  11    -0.101218805598E+03   -0.50893E-05   -0.21269E-07   108   0.120E-03    0.281E-04
DAV:  12    -0.101218811763E+03   -0.61652E-05   -0.32576E-07    84   0.115E-03    0.184E-04
DAV:  13    -0.101218813138E+03   -0.13747E-05   -0.47300E-08    96   0.470E-04    0.189E-04
DAV:  14    -0.101218814747E+03   -0.16092E-05   -0.34831E-08    84   0.430E-04    0.805E-05
DAV:  15    -0.101218815202E+03   -0.45548E-06   -0.50632E-09    96   0.238E-04
  31 F= -.10121882E+03 E0= -.10121882E+03  d E =-.191301E-10
       N       E                     dE             d eps       ncg     rms          rms(c)
DAV:   1    -0.101217740377E+03    0.10744E-02   -0.18727E-01    96   0.134E+00    0.166E-01
DAV:   2    -0.101219059502E+03   -0.13191E-02   -0.14299E-02   108   0.417E-01    0.113E-01
DAV:   3    -0.101219000898E+03    0.58604E-04   -0.26272E-04   156   0.650E-02    0.656E-02
DAV:   4    -0.101218989656E+03    0.11242E-04   -0.16327E-04   120   0.498E-02    0.107E-02
DAV:   5    -0.101218984448E+03    0.52072E-05   -0.42120E-05   132   0.234E-02    0.737E-03
DAV:   6    -0.101218982077E+03    0.23718E-05   -0.66698E-06   108   0.853E-03    0.470E-03
DAV:   7    -0.101218989278E+03   -0.72008E-05   -0.22297E-06   132   0.510E-03    0.189E-03
DAV:   8    -0.101219001814E+03   -0.12536E-04   -0.81976E-07    84   0.307E-03    0.823E-04
DAV:   9    -0.101219013552E+03   -0.11738E-04   -0.86832E-07    96   0.232E-03    0.105E-03
DAV:  10    -0.101219026363E+03   -0.12811E-04   -0.60377E-07    84   0.195E-03    0.261E-04
DAV:  11    -0.101219030651E+03   -0.42888E-05   -0.14927E-07    96   0.939E-04    0.282E-04
DAV:  12    -0.101219035183E+03   -0.45320E-05   -0.99038E-08    84   0.728E-04    0.119E-04
DAV:  13    -0.101219036918E+03   -0.17344E-05   -0.31051E-08   108   0.423E-04    0.940E-05
DAV:  14    -0.101219038410E+03   -0.14923E-05   -0.13581E-08    84   0.303E-04    0.429E-05
DAV:  15    -0.101219039055E+03   -0.64500E-06   -0.27004E-09    96   0.199E-04
  32 F= -.10121904E+03 E0= -.10121904E+03  d E =-.994414E-11
       N       E                     dE             d eps       ncg     rms          rms(c)
DAV:   1    -0.101217686246E+03    0.13522E-02   -0.40903E-01   120   0.182E+00    0.212E-01
DAV:   2    -0.101219126659E+03   -0.14404E-02   -0.17800E-02   108   0.435E-01    0.126E-01
DAV:   3    -0.101219010589E+03    0.11607E-03   -0.28848E-04   132   0.605E-02    0.661E-02
DAV:   4    -0.101218951330E+03    0.59260E-04   -0.12657E-04   108   0.432E-02    0.112E-02
DAV:   5    -0.101218946661E+03    0.46684E-05   -0.27769E-05   132   0.195E-02    0.748E-03
DAV:   6    -0.101218959098E+03   -0.12436E-04   -0.10757E-05   120   0.918E-03    0.429E-03
DAV:   7    -0.101218982535E+03   -0.23438E-04   -0.15655E-06   108   0.392E-03    0.221E-03
DAV:   8    -0.101219021052E+03   -0.38516E-04   -0.43368E-06   108   0.461E-03    0.126E-03
DAV:   9    -0.101219042686E+03   -0.21635E-04   -0.15268E-06   120   0.284E-03    0.916E-04
DAV:  10    -0.101219064191E+03   -0.21505E-04   -0.18090E-06    96   0.267E-03    0.340E-04
DAV:  11    -0.101219071595E+03   -0.74042E-05   -0.26219E-07   108   0.121E-03    0.331E-04
DAV:  12    -0.101219078384E+03   -0.67889E-05   -0.32717E-07    84   0.115E-03    0.144E-04
DAV:  13    -0.101219079915E+03   -0.15307E-05   -0.46705E-08   108   0.481E-04    0.114E-04
DAV:  14    -0.101219081424E+03   -0.15092E-05   -0.17203E-08    84   0.362E-04    0.519E-05
DAV:  15    -0.101219081984E+03   -0.55976E-06   -0.38552E-09    96   0.222E-04
  33 F= -.10121908E+03 E0= -.10121908E+03  d E =-.255518E-10
       N       E                     dE             d eps       ncg     rms          rms(c)
DAV:   1    -0.101218701204E+03    0.38022E-03   -0.20461E-01    96   0.133E+00    0.152E-01
DAV:   2    -0.101219416174E+03   -0.71497E-03   -0.87962E-03   108   0.301E-01    0.773E-02
DAV:   3    -0.101219374405E+03    0.41769E-04   -0.14808E-04   132   0.425E-02    0.406E-02
DAV:   4    -0.101219345682E+03    0.28723E-04   -0.42704E-05   132   0.261E-02    0.790E-03
DAV:   5    -0.101219339329E+03    0.63533E-05   -0.10283E-05   132   0.127E-02    0.473E-03
DAV:   6    -0.101219340476E+03   -0.11473E-05   -0.33869E-06   132   0.630E-03    0.272E-03
DAV:   7    -0.101219347706E+03   -0.72294E-05   -0.75029E-07    84   0.376E-03    0.133E-03
DAV:   8    -0.101219360152E+03   -0.12446E-04   -0.11139E-06    96   0.340E-03    0.925E-04
DAV:   9    -0.101219372886E+03   -0.12734E-04   -0.73040E-07    96   0.243E-03    0.533E-04
DAV:  10    -0.101219380790E+03   -0.79037E-05   -0.36508E-07    84   0.142E-03    0.323E-04
DAV:  11    -0.101219387498E+03   -0.67085E-05   -0.17256E-07    96   0.909E-04    0.170E-04
DAV:  12    -0.101219390690E+03   -0.31915E-05   -0.62550E-08   108   0.535E-04    0.122E-04
DAV:  13    -0.101219393197E+03   -0.25070E-05   -0.44149E-08    84   0.418E-04    0.616E-05
DAV:  14    -0.101219394170E+03   -0.97351E-06   -0.50959E-09    96   0.229E-04
  34 F= -.10121939E+03 E0= -.10121939E+03  d E =-.195620E-10
       N       E                     dE             d eps       ncg     rms          rms(c)
DAV:   1    -0.101217938321E+03    0.14549E-02   -0.40154E-01    96   0.185E+00    0.218E-01
DAV:   2    -0.101219468568E+03   -0.15302E-02   -0.18917E-02   108   0.442E-01    0.117E-01
DAV:   3    -0.101219368671E+03    0.99896E-04   -0.30015E-04   132   0.615E-02    0.631E-02
DAV:   4    -0.101219296309E+03    0.72362E-04   -0.10107E-04   120   0.387E-02    0.116E-02
DAV:   5    -0.101219292615E+03    0.36941E-05   -0.18161E-05   132   0.175E-02    0.720E-03
DAV:   6    -0.101219309608E+03   -0.16993E-04   -0.87287E-06   120   0.101E-02    0.368E-03
DAV:   7    -0.101219337467E+03   -0.27859E-04   -0.37486E-06   108   0.656E-03    0.217E-03
DAV:   8    -0.101219373644E+03   -0.36176E-04   -0.31179E-06   108   0.459E-03    0.112E-03
DAV:   9    -0.101219398770E+03   -0.25126E-04   -0.23538E-06    96   0.356E-03    0.888E-04
DAV:  10    -0.101219419137E+03   -0.20367E-04   -0.17679E-06   108   0.271E-03    0.370E-04
DAV:  11    -0.101219426834E+03   -0.76973E-05   -0.34813E-07    84   0.130E-03    0.281E-04
DAV:  12    -0.101219432599E+03   -0.57645E-05   -0.29605E-07    96   0.105E-03    0.137E-04
DAV:  13    -0.101219434411E+03   -0.18120E-05   -0.63812E-08    84   0.528E-04    0.784E-05
DAV:  14    -0.101219435463E+03   -0.10522E-05   -0.12281E-08    96   0.323E-04    0.495E-05
DAV:  15    -0.101219435846E+03   -0.38336E-06    0.50964E-11    84   0.177E-04
  35 F= -.10121944E+03 E0= -.10121944E+03  d E =-.122383E-10
       N       E                     dE             d eps       ncg     rms          rms(c)
DAV:   1    -0.101219659914E+03   -0.22445E-03   -0.20391E-01   108   0.132E+00    0.143E-01
DAV:   2    -0.101220350588E+03   -0.69067E-03   -0.83676E-03   108   0.292E-01    0.705E-02
DAV:   3    -0.101220322878E+03    0.27710E-04   -0.15827E-04   132   0.458E-02    0.371E-02
DAV:   4    -0.101220309813E+03    0.13065E-04   -0.45257E-05   120   0.306E-02    0.795E-03
DAV:   5    -0.101220306936E+03    0.28770E-05   -0.14823E-05   132   0.147E-02    0.585E-03
DAV:   6    -0.101220307532E+03   -0.59578E-06   -0.24502E-06   132   0.505E-03
  36 F= -.10122031E+03 E0= -.10122031E+03  d E =-.968408E-11
       N       E                     dE             d eps       ncg     rms          rms(c)
DAV:   1    -0.101218904700E+03    0.14022E-02   -0.41232E-01    96   0.181E+00    0.188E-01
DAV:   2    -0.101220214686E+03   -0.13100E-02   -0.15769E-02    96   0.376E-01    0.917E-02
DAV:   3    -0.101220183896E+03    0.30790E-04   -0.33955E-04   144   0.637E-02    0.486E-02
DAV:   4    -0.101220164832E+03    0.19064E-04   -0.74124E-05   108   0.392E-02    0.961E-03
DAV:   5    -0.101220162530E+03    0.23016E-05   -0.25587E-05   132   0.194E-02    0.782E-03
DAV:   6    -0.101220164771E+03   -0.22408E-05   -0.40585E-06   132   0.670E-03    0.523E-03
DAV:   7    -0.101220171861E+03   -0.70895E-05   -0.78716E-07    96   0.414E-03    0.197E-03
DAV:   8    -0.101220181949E+03   -0.10088E-04   -0.12344E-06   120   0.398E-03    0.127E-03
DAV:   9    -0.101220198349E+03   -0.16401E-04   -0.11781E-06    96   0.352E-03    0.670E-04
DAV:  10    -0.101220205653E+03   -0.73036E-05   -0.41858E-07    96   0.202E-03    0.656E-04
DAV:  11    -0.101220209074E+03   -0.34214E-05   -0.80046E-08   108   0.915E-04    0.458E-04
DAV:  12    -0.101220216022E+03   -0.69472E-05   -0.26572E-07    84   0.111E-03    0.266E-04
DAV:  13    -0.101220217515E+03   -0.14937E-05   -0.35854E-08   108   0.479E-04    0.274E-04
DAV:  14    -0.101220219624E+03   -0.21090E-05   -0.40254E-08    84   0.469E-04    0.629E-05
DAV:  15    -0.101220220337E+03   -0.71218E-06   -0.67755E-09    96   0.256E-04
  37 F= -.10122022E+03 E0= -.10122022E+03  d E =-.447927E-10
       N       E                     dE             d eps       ncg     rms          rms(c)
DAV:   1    -0.101219321266E+03    0.89836E-03   -0.20273E-01    96   0.132E+00    0.139E-01
DAV:   2    -0.101220309283E+03   -0.98802E-03   -0.11848E-02   108   0.312E-01    0.700E-02
DAV:   3    -0.101220280087E+03    0.29196E-04   -0.25883E-04   144   0.534E-02    0.391E-02
DAV:   4    -0.101220257560E+03    0.22527E-04   -0.46385E-05   120   0.309E-02    0.911E-03
DAV:   5    -0.101220252799E+03    0.47608E-05   -0.17674E-05   132   0.163E-02    0.593E-03
DAV:   6    -0.101220254025E+03   -0.12259E-05   -0.25030E-06   120   0.575E-03    0.393E-03
DAV:   7    -0.101220259642E+03   -0.56175E-05   -0.71610E-07    84   0.355E-03    0.158E-03
DAV:   8    -0.101220268112E+03   -0.84699E-05   -0.84702E-07    96   0.327E-03    0.917E-04
DAV:   9    -0.101220280603E+03   -0.12490E-04   -0.86576E-07    84   0.268E-03    0.539E-04
DAV:  10    -0.101220286832E+03   -0.62295E-05   -0.39435E-07    96   0.161E-03    0.446E-04
DAV:  11    -0.101220290788E+03   -0.39560E-05   -0.10639E-07    84   0.870E-04    0.252E-04
DAV:  12    -0.101220293667E+03   -0.28785E-05   -0.89921E-08    96   0.669E-04    0.172E-04
DAV:  13    -0.101220295267E+03   -0.16002E-05   -0.31790E-08    84   0.408E-04    0.932E-05
DAV:  14    -0.101220296274E+03   -0.10077E-05   -0.15798E-08    84   0.302E-04    0.424E-05
DAV:  15    -0.101220296781E+03   -0.50663E-06   -0.15992E-09   108   0.186E-04
  38 F= -.10122030E+03 E0= -.10122030E+03  d E =-.220592E-10
       N       E                     dE             d eps       ncg     rms          rms(c)
DAV:   1    -0.101218604963E+03    0.16913E-02   -0.41280E-01    96   0.178E+00    0.189E-01
DAV:   2    -0.101220104202E+03   -0.14992E-02   -0.17772E-02   120   0.393E-01    0.994E-02
DAV:   3    -0.101220026891E+03    0.77312E-04   -0.35495E-04   144   0.676E-02    0.531E-02
DAV:   4    -0.101219995427E+03    0.31463E-04   -0.11510E-04   132   0.428E-02    0.114E-02
DAV:   5    -0.101219991138E+03    0.42887E-05   -0.27707E-05   132   0.198E-02    0.784E-03
DAV:   6    -0.101219994984E+03   -0.38453E-05   -0.50754E-06   132   0.756E-03    0.433E-03
DAV:   7    -0.101220005516E+03   -0.10533E-04   -0.12455E-06    96   0.399E-03    0.163E-03
DAV:   8    -0.101220017648E+03   -0.12132E-04   -0.84773E-07   120   0.297E-03    0.970E-04
DAV:   9    -0.101220032743E+03   -0.15095E-04   -0.10994E-06    96   0.273E-03    0.562E-04
DAV:  10    -0.101220044552E+03   -0.11809E-04   -0.10138E-06    96   0.222E-03    0.356E-04
DAV:  11    -0.101220048343E+03   -0.37912E-05   -0.10558E-07   108   0.101E-03    0.222E-04
DAV:  12    -0.101220052271E+03   -0.39275E-05   -0.17293E-07    84   0.885E-04    0.126E-04
DAV:  13    -0.101220053593E+03   -0.13217E-05   -0.34529E-08    96   0.430E-04    0.928E-05
DAV:  14    -0.101220054627E+03   -0.10341E-05   -0.11325E-08    84   0.295E-04    0.393E-05
DAV:  15    -0.101220055111E+03   -0.48386E-06   -0.21637E-09    96   0.195E-04
  39 F= -.10122006E+03 E0= -.10122006E+03  d E =-.144049E-10
       N       E                     dE             d eps       ncg     rms          rms(c)
DAV:   1    -0.101219217730E+03    0.83690E-03   -0.20549E-01    96   0.123E+00    0.144E-01
DAV:   2    -0.101219860554E+03   -0.64282E-03   -0.77140E-03   108   0.260E-01    0.614E-02
DAV:   3    -0.101219830255E+03    0.30299E-04   -0.16565E-04   132   0.454E-02    0.319E-02
DAV:   4    -0.101219821069E+03    0.91859E-05   -0.42074E-05   120   0.261E-02    0.871E-03
DAV:   5    -0.101219818396E+03    0.26728E-05   -0.10156E-05   132   0.127E-02    0.512E-03
DAV:   6    -0.101219818403E+03   -0.66811E-08   -0.21047E-06   108   0.534E-03
  40 F= -.10121982E+03 E0= -.10121982E+03  d E =-.219689E-10
       N       E                     dE             d eps       ncg     rms          rms(c)
DAV:   1    -0.101217822854E+03    0.19955E-02   -0.39378E-01    96   0.178E+00    0.216E-01
DAV:   2    -0.101219365266E+03   -0.15424E-02   -0.18555E-02   132   0.415E-01    0.118E-01
DAV:   3    -0.101219249190E+03    0.11608E-03   -0.31324E-04   120   0.663E-02    0.620E-02
DAV:   4    -0.101219211353E+03    0.37837E-04   -0.14495E-04   120   0.451E-02    0.125E-02
DAV:   5    -0.101219200297E+03    0.11055E-04   -0.24956E-05   132   0.190E-02    0.761E-03
DAV:   6    -0.101219200306E+03   -0.83251E-08   -0.61555E-06   108   0.783E-03
  41 F= -.10121920E+03 E0= -.10121920E+03  d E =-.163429E-10
       N       E                     dE             d eps       ncg     rms          rms(c)
DAV:   1    -0.101219908754E+03   -0.70846E-03   -0.20173E-01    96   0.126E+00    0.156E-01
DAV:   2    -0.101220594639E+03   -0.68588E-03   -0.80830E-03   132   0.277E-01    0.716E-02
DAV:   3    -0.101220569938E+03    0.24701E-04   -0.15891E-04   108   0.456E-02    0.374E-02
DAV:   4    -0.101220577943E+03   -0.80053E-05   -0.52551E-05   120   0.283E-02    0.920E-03
DAV:   5    -0.101220579938E+03   -0.19950E-05   -0.10444E-05   132   0.127E-02    0.559E-03
DAV:   6    -0.101220581382E+03   -0.14441E-05   -0.20578E-06    96   0.534E-03    0.277E-03
DAV:   7    -0.101220583655E+03   -0.22732E-05   -0.48455E-07    96   0.279E-03    0.986E-04
DAV:   8    -0.101220585842E+03   -0.21867E-05   -0.22146E-07    84   0.188E-03    0.491E-04
DAV:   9    -0.101220588835E+03   -0.29933E-05   -0.18823E-07    96   0.150E-03    0.262E-04
DAV:  10    -0.101220591167E+03   -0.23312E-05   -0.15093E-07    84   0.111E-03    0.162E-04
DAV:  11    -0.101220592523E+03   -0.13561E-05   -0.41300E-08   108   0.626E-04    0.137E-04
DAV:  12    -0.101220593574E+03   -0.10516E-05   -0.24961E-08    84   0.415E-04    0.614E-05
DAV:  13    -0.101220594128E+03   -0.55385E-06   -0.76882E-09    96   0.257E-04
  42 F= -.10122059E+03 E0= -.10122059E+03  d E =-.133712E-10
       N       E                     dE             d eps       ncg     rms          rms(c)
DAV:   1    -0.101219133338E+03    0.14602E-02   -0.41649E-01   120   0.179E+00    0.217E-01
DAV:   2    -0.101220406877E+03   -0.12735E-02   -0.15451E-02   144   0.376E-01    0.855E-02
DAV:   3    -0.101220347918E+03    0.58959E-04   -0.35257E-04   132   0.659E-02    0.444E-02
DAV:   4    -0.101220332460E+03    0.15458E-04   -0.80290E-05   132   0.370E-02    0.130E-02
DAV:   5    -0.101220329500E+03    0.29602E-05   -0.19069E-05   144   0.176E-02    0.771E-03
DAV:   6    -0.101220330429E+03   -0.92939E-06   -0.39422E-06   132   0.724E-03
  43 F= -.10122033E+03 E0= -.10122033E+03  d E =-.254724E-10
       N       E                     dE             d eps       ncg     rms          rms(c)
DAV:   1    -0.101219306250E+03    0.10232E-02   -0.20417E-01    96   0.129E+00    0.154E-01
DAV:   2    -0.101220312660E+03   -0.10064E-02   -0.11676E-02   144   0.294E-01    0.652E-02
DAV:   3    -0.101220299016E+03    0.13644E-04   -0.22820E-04   120   0.481E-02    0.355E-02
DAV:   4    -0.101220298041E+03    0.97491E-06   -0.48145E-05   120   0.243E-02    0.100E-02
DAV:   5    -0.101220296811E+03    0.12303E-05   -0.65878E-06   132   0.101E-02    0.556E-03
DAV:   6    -0.101220297328E+03   -0.51740E-06   -0.22013E-06    96   0.593E-03
  44 F= -.10122030E+03 E0= -.10122030E+03  d E =-.476374E-10
       N       E                     dE             d eps       ncg     rms          rms(c)
DAV:   1    -0.101218847483E+03    0.14493E-02   -0.41460E-01    96   0.175E+00    0.187E-01
DAV:   2    -0.101220277993E+03   -0.14305E-02   -0.16800E-02   108   0.378E-01    0.926E-02
DAV:   3    -0.101220221957E+03    0.56035E-04   -0.30317E-04   144   0.618E-02    0.483E-02
DAV:   4    -0.101220196006E+03    0.25952E-04   -0.94088E-05   108   0.398E-02    0.111E-02
DAV:   5    -0.101220189541E+03    0.64649E-05   -0.24832E-05   132   0.190E-02    0.702E-03
DAV:   6    -0.101220190863E+03   -0.13217E-05   -0.44766E-06   108   0.714E-03    0.432E-03
DAV:   7    -0.101220196227E+03   -0.53640E-05   -0.67426E-07   108   0.301E-03    0.170E-03
DAV:   8    -0.101220203295E+03   -0.70685E-05   -0.65567E-07    84   0.270E-03    0.879E-04
DAV:   9    -0.101220215016E+03   -0.11721E-04   -0.10246E-06   108   0.287E-03    0.541E-04
DAV:  10    -0.101220221800E+03   -0.67836E-05   -0.51074E-07    84   0.194E-03    0.502E-04
DAV:  11    -0.101220224025E+03   -0.22252E-05   -0.89874E-08   108   0.938E-04    0.312E-04
DAV:  12    -0.101220227409E+03   -0.33838E-05   -0.13539E-07    84   0.880E-04    0.212E-04
DAV:  13    -0.101220228543E+03   -0.11343E-05   -0.36321E-08    96   0.452E-04    0.183E-04
DAV:  14    -0.101220229717E+03   -0.11744E-05   -0.24428E-08    84   0.374E-04    0.393E-05
DAV:  15    -0.101220230234E+03   -0.51689E-06   -0.64801E-09    96   0.240E-04
  45 F= -.10122023E+03 E0= -.10122023E+03  d E =-.101647E-10
       N       E                     dE             d eps       ncg     rms          rms(c)
DAV:   1    -0.101218634581E+03    0.15951E-02   -0.20067E-01    96   0.121E+00    0.138E-01
DAV:   2    -0.101219424520E+03   -0.78994E-03   -0.96666E-03   120   0.287E-01    0.835E-02
DAV:   3    -0.101219362797E+03    0.61724E-04   -0.15272E-04   132   0.454E-02    0.430E-02
DAV:   4    -0.101219335730E+03    0.27067E-04   -0.68406E-05   108   0.313E-02    0.805E-03
DAV:   5    -0.101219329267E+03    0.64624E-05   -0.13090E-05   132   0.134E-02    0.530E-03
DAV:   6    -0.101219330481E+03   -0.12141E-05   -0.35194E-06   132   0.560E-03    0.282E-03
DAV:   7    -0.101219337732E+03   -0.72500E-05   -0.74957E-07    84   0.295E-03    0.122E-03
DAV:   8    -0.101219349634E+03   -0.11902E-04   -0.86339E-07    96   0.238E-03    0.860E-04
DAV:   9    -0.101219361771E+03   -0.12137E-04   -0.58362E-07    96   0.178E-03    0.489E-04
DAV:  10    -0.101219370972E+03   -0.92004E-05   -0.49725E-07    84   0.135E-03    0.279E-04
DAV:  11    -0.101219375185E+03   -0.42129E-05   -0.93330E-08    96   0.697E-04    0.176E-04
DAV:  12    -0.101219379171E+03   -0.39859E-05   -0.92728E-08    84   0.653E-04    0.843E-05
DAV:  13    -0.101219380452E+03   -0.12814E-05   -0.17488E-08   108   0.331E-04    0.650E-05
DAV:  14    -0.101219381509E+03   -0.10569E-05   -0.59587E-09    84   0.246E-04    0.299E-05
DAV:  15    -0.101219381976E+03   -0.46692E-06    0.11085E-09    96   0.155E-04
  46 F= -.10121938E+03 E0= -.10121938E+03  d E =-.126311E-10
       N       E                     dE             d eps       ncg     rms          rms(c)
DAV:   1    -0.101218513939E+03    0.86757E-03   -0.39757E-01    96   0.175E+00    0.220E-01
DAV:   2    -0.101219955703E+03   -0.14418E-02   -0.17667E-02    96   0.397E-01    0.111E-01
DAV:   3    -0.101219851861E+03    0.10384E-03   -0.32696E-04   144   0.650E-02    0.582E-02
DAV:   4    -0.101219804359E+03    0.47502E-04   -0.11335E-04   108   0.411E-02    0.118E-02
DAV:   5    -0.101219798177E+03    0.61818E-05   -0.23182E-05   132   0.181E-02    0.729E-03
DAV:   6    -0.101219804925E+03   -0.67480E-05   -0.59228E-06   108   0.752E-03    0.390E-03
DAV:   7    -0.101219822405E+03   -0.17479E-04   -0.19640E-06   120   0.424E-03    0.174E-03
DAV:   8    -0.101219843490E+03   -0.21085E-04   -0.16067E-06    96   0.305E-03    0.986E-04
DAV:   9    -0.101219861096E+03   -0.17606E-04   -0.13339E-06   108   0.249E-03    0.762E-04
DAV:  10    -0.101219878154E+03   -0.17058E-04   -0.16603E-06    96   0.242E-03    0.333E-04
DAV:  11    -0.101219882180E+03   -0.40266E-05   -0.10799E-07   108   0.899E-04    0.248E-04
DAV:  12    -0.101219887285E+03   -0.51049E-05   -0.22951E-07    84   0.984E-04    0.125E-04
DAV:  13    -0.101219888668E+03   -0.13831E-05   -0.40494E-08    96   0.457E-04    0.905E-05
DAV:  14    -0.101219889713E+03   -0.10450E-05   -0.83626E-09    84   0.288E-04    0.403E-05
DAV:  15    -0.101219890149E+03   -0.43535E-06   -0.87557E-10    96   0.180E-04
  47 F= -.10121989E+03 E0= -.10121989E+03  d E =-.204848E-10
       N       E                     dE             d eps       ncg     rms          rms(c)
DAV:   1    -0.101219720550E+03    0.16916E-03   -0.19859E-01    96   0.122E+00    0.144E-01
DAV:   2    -0.101220474418E+03   -0.75387E-03   -0.92296E-03   108   0.283E-01    0.824E-02
DAV:   3    -0.101220413627E+03    0.60791E-04   -0.14684E-04   132   0.446E-02    0.426E-02
DAV:   4    -0.101220386852E+03    0.26775E-04   -0.66668E-05   120   0.314E-02    0.809E-03
DAV:   5    -0.101220380795E+03    0.60572E-05   -0.13498E-05   132   0.138E-02    0.523E-03
DAV:   6    -0.101220381736E+03   -0.94112E-06   -0.33292E-06   108   0.547E-03
  48 F= -.10122038E+03 E0= -.10122038E+03  d E =-.553621E-10
       N       E                     dE             d eps       ncg     rms          rms(c)
DAV:   1    -0.101218946901E+03    0.14339E-02   -0.41469E-01    96   0.170E+00    0.175E-01
DAV:   2    -0.101220274983E+03   -0.13281E-02   -0.15712E-02   144   0.370E-01    0.897E-02
DAV:   3    -0.101220237958E+03    0.37025E-04   -0.28145E-04   108   0.614E-02    0.456E-02
DAV:   4    -0.101220232946E+03    0.50119E-05   -0.86387E-05   120   0.403E-02    0.102E-02
DAV:   5    -0.101220228000E+03    0.49457E-05   -0.23978E-05   132   0.185E-02    0.692E-03
DAV:   6    -0.101220227337E+03    0.66366E-06   -0.39159E-06   108   0.674E-03
  49 F= -.10122023E+03 E0= -.10122023E+03  d E =-.205519E-10
       N       E                     dE             d eps       ncg     rms          rms(c)
DAV:   1    -0.101219311949E+03    0.91605E-03   -0.20422E-01    96   0.131E+00    0.136E-01
DAV:   2    -0.101220299865E+03   -0.98792E-03   -0.11452E-02   144   0.309E-01    0.680E-02
DAV:   3    -0.101220288919E+03    0.10946E-04   -0.21949E-04   120   0.489E-02    0.381E-02
DAV:   4    -0.101220290319E+03   -0.14003E-05   -0.48997E-05   120   0.292E-02    0.900E-03
DAV:   5    -0.101220290588E+03   -0.26912E-06   -0.12964E-05   108   0.139E-02    0.544E-03
DAV:   6    -0.101220292391E+03   -0.18027E-05   -0.21429E-06   120   0.531E-03    0.309E-03
DAV:   7    -0.101220296371E+03   -0.39800E-05   -0.79010E-07    84   0.324E-03    0.107E-03
DAV:   8    -0.101220300603E+03   -0.42316E-05   -0.31018E-07    96   0.202E-03    0.587E-04
DAV:   9    -0.101220305945E+03   -0.53426E-05   -0.34769E-07    84   0.167E-03    0.328E-04
DAV:  10    -0.101220309338E+03   -0.33928E-05   -0.24924E-07    96   0.123E-03    0.181E-04
DAV:  11    -0.101220311669E+03   -0.23311E-05   -0.99721E-08    84   0.775E-04    0.180E-04
DAV:  12    -0.101220312751E+03   -0.10814E-05   -0.30556E-08    96   0.430E-04    0.100E-04
DAV:  13    -0.101220313628E+03   -0.87724E-06   -0.18385E-08    84   0.331E-04
  50 F= -.10122031E+03 E0= -.10122031E+03  d E =-.136325E-10
       N       E                     dE             d eps       ncg     rms          rms(c)
DAV:   1    -0.101218844611E+03    0.14681E-02   -0.41374E-01    96   0.182E+00    0.192E-01
DAV:   2    -0.101220288728E+03   -0.14441E-02   -0.17219E-02   132   0.390E-01    0.940E-02
DAV:   3    -0.101220246161E+03    0.42567E-04   -0.33727E-04   120   0.636E-02    0.498E-02
DAV:   4    -0.101220222457E+03    0.23704E-04   -0.79617E-05   132   0.420E-02    0.106E-02
DAV:   5    -0.101220217309E+03    0.51481E-05   -0.31274E-05   132   0.213E-02    0.797E-03
DAV:   6    -0.101220218068E+03   -0.75840E-06   -0.45262E-06   132   0.700E-03
  51 F= -.10122022E+03 E0= -.10122022E+03  d E =-.309494E-10
       N       E                     dE             d eps       ncg     rms          rms(c)
DAV:   1    -0.101218749372E+03    0.14679E-02   -0.20174E-01    96   0.133E+00    0.139E-01
DAV:   2    -0.101219552379E+03   -0.80301E-03   -0.94919E-03   132   0.302E-01    0.816E-02
DAV:   3    -0.101219530213E+03    0.22166E-04   -0.15134E-04   108   0.416E-02    0.424E-02
DAV:   4    -0.101219506090E+03    0.24123E-04   -0.50434E-05   108   0.260E-02    0.751E-03
DAV:   5    -0.101219499536E+03    0.65534E-05   -0.87614E-06   132   0.119E-02    0.422E-03
DAV:   6    -0.101219503736E+03   -0.41997E-05   -0.40487E-06   120   0.645E-03    0.240E-03
DAV:   7    -0.101219513631E+03   -0.98951E-05   -0.93170E-07    84   0.362E-03    0.124E-03
DAV:   8    -0.101219526749E+03   -0.13118E-04   -0.12487E-06    96   0.296E-03    0.727E-04
DAV:   9    -0.101219537128E+03   -0.10379E-04   -0.80657E-07   108   0.216E-03    0.535E-04
DAV:  10    -0.101219545592E+03   -0.84644E-05   -0.56502E-07    84   0.158E-03    0.247E-04
DAV:  11    -0.101219548525E+03   -0.29324E-05   -0.15499E-07   108   0.776E-04    0.183E-04
DAV:  12    -0.101219551761E+03   -0.32367E-05   -0.16677E-07    84   0.801E-04    0.845E-05
DAV:  13    -0.101219552558E+03   -0.79677E-06   -0.29841E-08    96   0.376E-04
  52 F= -.10121955E+03 E0= -.10121955E+03  d E =-.139440E-10
       N       E                     dE             d eps       ncg     rms          rms(c)
DAV:   1    -0.101217949393E+03    0.16024E-02   -0.40177E-01    96   0.188E+00    0.217E-01
DAV:   2    -0.101219458113E+03   -0.15087E-02   -0.18460E-02   108   0.440E-01    0.114E-01
DAV:   3    -0.101219363270E+03    0.94844E-04   -0.30474E-04   132   0.608E-02    0.598E-02
DAV:   4    -0.101219304491E+03    0.58779E-04   -0.95261E-05   132   0.372E-02    0.115E-02
DAV:   5    -0.101219291589E+03    0.12902E-04   -0.16833E-05   132   0.171E-02    0.663E-03
DAV:   6    -0.101219295441E+03   -0.38523E-05   -0.78198E-06   132   0.983E-03    0.351E-03
DAV:   7    -0.101219311137E+03   -0.15696E-04   -0.24816E-06   108   0.597E-03    0.197E-03
DAV:   8    -0.101219334463E+03   -0.23325E-04   -0.14751E-06   120   0.400E-03    0.115E-03
DAV:   9    -0.101219354905E+03   -0.20442E-04   -0.12631E-06    96   0.289E-03    0.849E-04
DAV:  10    -0.101219373387E+03   -0.18482E-04   -0.83136E-07    96   0.197E-03    0.365E-04
DAV:  11    -0.101219382572E+03   -0.91845E-05   -0.21593E-07    96   0.103E-03    0.282E-04
DAV:  12    -0.101219390898E+03   -0.83266E-05   -0.22915E-07    84   0.939E-04    0.135E-04
DAV:  13    -0.101219393422E+03   -0.25234E-05   -0.41667E-08    96   0.455E-04    0.839E-05
DAV:  14    -0.101219394993E+03   -0.15713E-05   -0.10050E-08    84   0.300E-04    0.438E-05
DAV:  15    -0.101219395671E+03   -0.67836E-06   -0.17891E-09    96   0.190E-04
  53 F= -.10121940E+03 E0= -.10121940E+03  d E =-.171101E-10
       N       E                     dE             d eps       ncg     rms          rms(c)
DAV:   1    -0.101218142592E+03    0.12524E-02   -0.20133E-01    96   0.132E+00    0.154E-01
DAV:   2    -0.101218935099E+03   -0.79251E-03   -0.97665E-03   108   0.326E-01    0.890E-02
DAV:   3    -0.101218877129E+03    0.57970E-04   -0.16428E-04   132   0.458E-02    0.466E-02
DAV:   4    -0.101218846402E+03    0.30727E-04   -0.65604E-05   120   0.315E-02    0.802E-03
DAV:   5    -0.101218841893E+03    0.45090E-05   -0.13711E-05   132   0.139E-02    0.542E-03
DAV:   6    -0.101218847044E+03   -0.51509E-05   -0.51660E-06   108   0.652E-03    0.308E-03
DAV:   7    -0.101218858978E+03   -0.11934E-04   -0.72331E-07    96   0.283E-03    0.154E-03
DAV:   8    -0.101218879130E+03   -0.20153E-04   -0.21411E-06    96   0.324E-03    0.941E-04
DAV:   9    -0.101218892540E+03   -0.13410E-04   -0.89873E-07   108   0.217E-03    0.703E-04
DAV:  10    -0.101218904302E+03   -0.11762E-04   -0.81346E-07    96   0.183E-03    0.245E-04
DAV:  11    -0.101218908647E+03   -0.43458E-05   -0.12332E-07    96   0.844E-04    0.241E-04
DAV:  12    -0.101218912787E+03   -0.41393E-05   -0.16693E-07    84   0.821E-04    0.108E-04
DAV:  13    -0.101218913699E+03   -0.91249E-06   -0.17548E-08   108   0.333E-04
  54 F= -.10121891E+03 E0= -.10121891E+03  d E =-.186615E-10
       N       E                     dE             d eps       ncg     rms          rms(c)
DAV:   1    -0.101217434536E+03    0.14783E-02   -0.40600E-01    96   0.188E+00    0.207E-01
DAV:   2    -0.101219070648E+03   -0.16361E-02   -0.20259E-02   120   0.456E-01    0.130E-01
DAV:   3    -0.101218952447E+03    0.11820E-03   -0.30674E-04   132   0.636E-02    0.713E-02
DAV:   4    -0.101218893168E+03    0.59280E-04   -0.15332E-04   132   0.476E-02    0.111E-02
DAV:   5    -0.101218890843E+03    0.23246E-05   -0.33638E-05   132   0.219E-02    0.797E-03
DAV:   6    -0.101218905529E+03   -0.14686E-04   -0.12236E-05   120   0.971E-03    0.461E-03
DAV:   7    -0.101218933072E+03   -0.27543E-04   -0.19593E-06   120   0.435E-03    0.229E-03
DAV:   8    -0.101218976691E+03   -0.43620E-04   -0.55195E-06   108   0.535E-03    0.141E-03
DAV:   9    -0.101219001023E+03   -0.24332E-04   -0.20054E-06   108   0.329E-03    0.975E-04
DAV:  10    -0.101219020901E+03   -0.19878E-04   -0.16661E-06    96   0.266E-03    0.400E-04
DAV:  11    -0.101219030003E+03   -0.91020E-05   -0.40650E-07    96   0.144E-03    0.323E-04
DAV:  12    -0.101219035387E+03   -0.53832E-05   -0.28396E-07    84   0.103E-03    0.177E-04
DAV:  13    -0.101219037309E+03   -0.19228E-05   -0.53160E-08   108   0.500E-04    0.957E-05
DAV:  14    -0.101219038638E+03   -0.13285E-05   -0.16246E-08    84   0.344E-04    0.718E-05
DAV:  15    -0.101219039080E+03   -0.44175E-06   -0.92125E-10    96   0.189E-04
  55 F= -.10121904E+03 E0= -.10121904E+03  d E =-.132815E-10
       N       E                     dE             d eps       ncg     rms          rms(c)
DAV:   1    -0.101219056998E+03   -0.18360E-04   -0.20034E-01    96   0.135E+00    0.145E-01
DAV:   2    -0.101220212209E+03   -0.11552E-02   -0.13803E-02   108   0.356E-01    0.837E-02
DAV:   3    -0.101220181427E+03    0.30781E-04   -0.21667E-04   132   0.475E-02    0.498E-02
DAV:   4    -0.101220156346E+03    0.25082E-04   -0.71613E-05   120   0.322E-02    0.815E-03
DAV:   5    -0.101220150420E+03    0.59257E-05   -0.14768E-05   132   0.138E-02    0.532E-03
DAV:   6    -0.101220152282E+03   -0.18620E-05   -0.41167E-06   108   0.667E-03    0.282E-03
DAV:   7    -0.101220161695E+03   -0.94126E-05   -0.16096E-06    96   0.423E-03    0.140E-03
DAV:   8    -0.101220177586E+03   -0.15891E-04   -0.86945E-07    96   0.255E-03    0.726E-04
DAV:   9    -0.101220191052E+03   -0.13466E-04   -0.99493E-07    96   0.216E-03    0.613E-04
DAV:  10    -0.101220203658E+03   -0.12606E-04   -0.73387E-07    96   0.186E-03    0.275E-04
DAV:  11    -0.101220207701E+03   -0.40429E-05   -0.19499E-07    84   0.902E-04    0.271E-04
DAV:  12    -0.101220211369E+03   -0.36683E-05   -0.93111E-08    96   0.737E-04    0.972E-05
DAV:  13    -0.101220213011E+03   -0.16418E-05   -0.42482E-08    84   0.469E-04    0.934E-05
DAV:  14    -0.101220213916E+03   -0.90515E-06   -0.74018E-09    96   0.268E-04
  56 F= -.10122021E+03 E0= -.10122021E+03  d E =-.805688E-11
       N       E                     dE             d eps       ncg     rms          rms(c)
DAV:   1    -0.101218720903E+03    0.14921E-02   -0.41373E-01    96   0.179E+00    0.191E-01
DAV:   2    -0.101220143367E+03   -0.14225E-02   -0.17038E-02    96   0.394E-01    0.971E-02
DAV:   3    -0.101220096876E+03    0.46491E-04   -0.35522E-04   144   0.639E-02    0.514E-02
DAV:   4    -0.101220068329E+03    0.28547E-04   -0.88624E-05   120   0.418E-02    0.991E-03
DAV:   5    -0.101220062472E+03    0.58568E-05   -0.31815E-05   132   0.211E-02    0.730E-03
DAV:   6    -0.101220063392E+03   -0.91976E-06   -0.52295E-06   132   0.735E-03
  57 F= -.10122006E+03 E0= -.10122006E+03  d E =-.651436E-10
       N       E                     dE             d eps       ncg     rms          rms(c)
DAV:   1    -0.101218716617E+03    0.13459E-02   -0.20645E-01    96   0.128E+00    0.140E-01
DAV:   2    -0.101219393237E+03   -0.67662E-03   -0.79665E-03   132   0.257E-01    0.614E-02
DAV:   3    -0.101219389309E+03    0.39281E-05   -0.17385E-04   108   0.458E-02    0.322E-02
DAV:   4    -0.101219396168E+03   -0.68592E-05   -0.38941E-05   108   0.292E-02    0.755E-03
DAV:   5    -0.101219401165E+03   -0.49970E-05   -0.14594E-05   120   0.144E-02    0.572E-03
DAV:   6    -0.101219404342E+03   -0.31769E-05   -0.13999E-06   120   0.394E-03    0.390E-03
DAV:   7    -0.101219410980E+03   -0.66374E-05   -0.51744E-07    84   0.258E-03    0.106E-03
DAV:   8    -0.101219416109E+03   -0.51296E-05   -0.33640E-07   108   0.200E-03    0.754E-04
DAV:   9    -0.101219425764E+03   -0.96542E-05   -0.54867E-07    84   0.266E-03    0.396E-04
DAV:  10    -0.101219428217E+03   -0.24530E-05   -0.21050E-07   108   0.137E-03    0.434E-04
DAV:  11    -0.101219429737E+03   -0.15206E-05   -0.23435E-08   108   0.590E-04    0.283E-04
DAV:  12    -0.101219432868E+03   -0.31311E-05   -0.80402E-08    84   0.672E-04    0.123E-04
DAV:  13    -0.101219434408E+03   -0.15397E-05   -0.29805E-08    96   0.402E-04    0.141E-04
DAV:  14    -0.101219435459E+03   -0.10512E-05   -0.10599E-08    84   0.270E-04    0.570E-05
DAV:  15    -0.101219435862E+03   -0.40305E-06    0.10529E-09   108   0.154E-04
  58 F= -.10121944E+03 E0= -.10121944E+03  d E =-.139937E-10
       N       E                     dE             d eps       ncg     rms          rms(c)
DAV:   1    -0.101217964051E+03    0.14714E-02   -0.40297E-01   108   0.183E+00    0.217E-01
DAV:   2    -0.101219514858E+03   -0.15508E-02   -0.19056E-02   108   0.428E-01    0.116E-01
DAV:   3    -0.101219425649E+03    0.89209E-04   -0.35872E-04   144   0.653E-02    0.602E-02
DAV:   4    -0.101219368166E+03    0.57483E-04   -0.93944E-05   108   0.391E-02    0.120E-02
DAV:   5    -0.101219361926E+03    0.62397E-05   -0.21009E-05   132   0.177E-02    0.758E-03
DAV:   6    -0.101219374097E+03   -0.12171E-04   -0.75009E-06   108   0.856E-03    0.413E-03
DAV:   7    -0.101219397550E+03   -0.23452E-04   -0.27429E-06   132   0.523E-03    0.200E-03
DAV:   8    -0.101219428648E+03   -0.31099E-04   -0.29356E-06    96   0.433E-03    0.121E-03
DAV:   9    -0.101219450572E+03   -0.21923E-04   -0.19569E-06    96   0.327E-03    0.903E-04
DAV:  10    -0.101219467865E+03   -0.17293E-04   -0.14428E-06    96   0.255E-03    0.384E-04
DAV:  11    -0.101219475227E+03   -0.73618E-05   -0.32576E-07   108   0.129E-03    0.326E-04
DAV:  12    -0.101219480283E+03   -0.50561E-05   -0.26420E-07    84   0.102E-03    0.134E-04
DAV:  13    -0.101219482089E+03   -0.18061E-05   -0.55796E-08    96   0.507E-04    0.864E-05
DAV:  14    -0.101219483058E+03   -0.96901E-06   -0.71505E-09    84   0.283E-04
  59 F= -.10121948E+03 E0= -.10121948E+03  d E =-.166067E-10
       N       E                     dE             d eps       ncg     rms          rms(c)
DAV:   1    -0.101218348094E+03    0.11340E-02   -0.20262E-01   108   0.133E+00    0.155E-01
DAV:   2    -0.101219076742E+03   -0.72865E-03   -0.90176E-03    96   0.305E-01    0.784E-02
DAV:   3    -0.101219033311E+03    0.43430E-04   -0.16087E-04   144   0.428E-02    0.411E-02
DAV:   4    -0.101219000588E+03    0.32723E-04   -0.40856E-05   108   0.238E-02    0.793E-03
DAV:   5    -0.101218993388E+03    0.72004E-05   -0.73588E-06   132   0.112E-02    0.446E-03
DAV:   6    -0.101218995144E+03   -0.17562E-05   -0.36170E-06   108   0.723E-03    0.228E-03
DAV:   7    -0.101219004439E+03   -0.92950E-05   -0.17909E-06   132   0.478E-03    0.145E-03
DAV:   8    -0.101219016293E+03   -0.11854E-04   -0.55673E-07    84   0.241E-03    0.808E-04
DAV:   9    -0.101219029593E+03   -0.13300E-04   -0.80906E-07    84   0.209E-03    0.550E-04
DAV:  10    -0.101219041355E+03   -0.11762E-04   -0.59137E-07    96   0.160E-03    0.254E-04
DAV:  11    -0.101219047462E+03   -0.61074E-05   -0.18321E-07    84   0.937E-04    0.200E-04
DAV:  12    -0.101219051404E+03   -0.39421E-05   -0.61062E-08    96   0.558E-04    0.981E-05
DAV:  13    -0.101219053171E+03   -0.17662E-05   -0.22848E-08    84   0.363E-04    0.520E-05
DAV:  14    -0.101219054045E+03   -0.87457E-06   -0.38801E-09   108   0.219E-04
  60 F= -.10121905E+03 E0= -.10121905E+03  d E =-.163353E-10
       N       E                     dE             d eps       ncg     rms          rms(c)
DAV:   1    -0.101217887431E+03    0.11657E-02   -0.41150E-01   120   0.186E+00    0.211E-01
DAV:   2    -0.101219262624E+03   -0.13752E-02   -0.17450E-02   108   0.412E-01    0.121E-01
DAV:   3    -0.101219148527E+03    0.11410E-03   -0.28626E-04   132   0.587E-02    0.601E-02
DAV:   4    -0.101219075314E+03    0.73213E-04   -0.99450E-05   132   0.364E-02    0.112E-02
DAV:   5    -0.101219074078E+03    0.12366E-05   -0.14762E-05   132   0.153E-02    0.697E-03
DAV:   6    -0.101219098432E+03   -0.24354E-04   -0.12283E-05   108   0.110E-02    0.336E-03
DAV:   7    -0.101219128427E+03   -0.29996E-04   -0.44923E-06   120   0.660E-03    0.234E-03
DAV:   8    -0.101219168925E+03   -0.40498E-04   -0.36756E-06    96   0.438E-03    0.111E-03
DAV:   9    -0.101219197132E+03   -0.28207E-04   -0.26944E-06   108   0.351E-03    0.873E-04
DAV:  10    -0.101219219487E+03   -0.22355E-04   -0.21770E-06    96   0.288E-03    0.344E-04
DAV:  11    -0.101219226857E+03   -0.73705E-05   -0.37258E-07   108   0.139E-03    0.297E-04
DAV:  12    -0.101219231066E+03   -0.42087E-05   -0.16829E-07    84   0.856E-04    0.135E-04
DAV:  13    -0.101219233002E+03   -0.19359E-05   -0.59748E-08    96   0.521E-04    0.815E-05
DAV:  14    -0.101219234058E+03   -0.10559E-05   -0.12230E-08    84   0.329E-04    0.441E-05
DAV:  15    -0.101219234502E+03   -0.44438E-06   -0.34817E-10   108   0.184E-04
  61 F= -.10121923E+03 E0= -.10121923E+03  d E =-.164724E-10
       N       E                     dE             d eps       ncg     rms          rms(c)
DAV:   1    -0.101222151839E+03   -0.29178E-02   -0.23376E-01   120   0.168E+00    0.135E-01
DAV:   2    -0.101222607289E+03   -0.45545E-03   -0.65768E-03   108   0.259E-01    0.794E-02
DAV:   3    -0.101222548599E+03    0.58690E-04   -0.16903E-04   132   0.451E-02    0.360E-02
DAV:   4    -0.101222530207E+03    0.18392E-04   -0.60275E-05   108   0.272E-02    0.751E-03
DAV:   5    -0.101222526126E+03    0.40813E-05   -0.84220E-06   132   0.111E-02    0.503E-03
DAV:   6    -0.101222527252E+03   -0.11261E-05   -0.34542E-06   120   0.594E-03    0.229E-03
DAV:   7    -0.101222531927E+03   -0.46746E-05   -0.63475E-07   108   0.326E-03    0.120E-03
DAV:   8    -0.101222540137E+03   -0.82106E-05   -0.57251E-07    84   0.234E-03    0.760E-04
DAV:   9    -0.101222549777E+03   -0.96401E-05   -0.59687E-07    96   0.201E-03    0.395E-04
DAV:  10    -0.101222557238E+03   -0.74606E-05   -0.38633E-07    84   0.141E-03    0.310E-04
DAV:  11    -0.101222561535E+03   -0.42971E-05   -0.92483E-08    96   0.797E-04    0.126E-04
DAV:  12    -0.101222563844E+03   -0.23092E-05   -0.52499E-08    84   0.512E-04    0.102E-04
DAV:  13    -0.101222564631E+03   -0.78720E-06   -0.35667E-09   108   0.243E-04
  62 F= -.10122256E+03 E0= -.10122256E+03  d E =-.151781E-10
       N       E                     dE             d eps       ncg     rms          rms(c)
DAV:   1    -0.101222562016E+03    0.18279E-05   -0.52754E-01    96   0.259E+00    0.173E-01
DAV:   2    -0.101222450715E+03    0.11130E-03   -0.27654E-03   108   0.185E-01    0.976E-02
DAV:   3    -0.101222307130E+03    0.14359E-03   -0.39327E-04   120   0.611E-02    0.199E-02
DAV:   4    -0.101222309749E+03   -0.26191E-05   -0.70439E-05   132   0.262E-02    0.932E-03
DAV:   5    -0.101222310683E+03   -0.93470E-06   -0.31375E-06   132   0.645E-03
  63 F= -.10122231E+03 E0= -.10122231E+03  d E =-.188893E-10
       N       E                     dE             d eps       ncg     rms          rms(c)
DAV:   1    -0.101221581515E+03    0.72823E-03   -0.27285E-01   108   0.186E+00    0.147E-01
DAV:   2    -0.101221569809E+03    0.11706E-04   -0.23375E-03   108   0.165E-01    0.799E-02
DAV:   3    -0.101221482262E+03    0.87547E-04   -0.25926E-04   120   0.470E-02    0.226E-02
DAV:   4    -0.101221479759E+03    0.25031E-05   -0.56091E-05   108   0.218E-02    0.777E-03
DAV:   5    -0.101221478055E+03    0.17042E-05   -0.33535E-06   120   0.741E-03    0.351E-03
DAV:   6    -0.101221478402E+03   -0.34679E-06   -0.24389E-06   108   0.533E-03
  64 F= -.10122148E+03 E0= -.10122148E+03  d E =-.173412E-10
       N       E                     dE             d eps       ncg     rms          rms(c)
DAV:   1    -0.101221378114E+03    0.99941E-04   -0.53950E-01   108   0.263E+00    0.198E-01
DAV:   2    -0.101221282362E+03    0.95752E-04   -0.41648E-03    96   0.223E-01    0.108E-01
DAV:   3    -0.101221098996E+03    0.18337E-03   -0.49141E-04   120   0.615E-02    0.299E-02
DAV:   4    -0.101221085304E+03    0.13692E-04   -0.75449E-05   108   0.263E-02    0.108E-02
DAV:   5    -0.101221084869E+03    0.43439E-06   -0.68289E-06   132   0.987E-03
  65 F= -.10122108E+03 E0= -.10122108E+03  d E =-.163671E-10
       N       E                     dE             d eps       ncg     rms          rms(c)
DAV:   1    -0.101222593211E+03   -0.15079E-02   -0.27189E-01   108   0.185E+00    0.143E-01
DAV:   2    -0.101222560048E+03    0.33162E-04   -0.22564E-03   108   0.166E-01    0.789E-02
DAV:   3    -0.101222478989E+03    0.81060E-04   -0.27244E-04   120   0.510E-02    0.211E-02
DAV:   4    -0.101222481732E+03   -0.27434E-05   -0.59315E-05   120   0.238E-02    0.746E-03
DAV:   5    -0.101222481209E+03    0.52313E-06   -0.28890E-06    96   0.655E-03
  66 F= -.10122248E+03 E0= -.10122248E+03  d E =-.138871E-10
       N       E                     dE             d eps       ncg     rms          rms(c)
DAV:   1    -0.101222685969E+03   -0.20424E-03   -0.53433E-01    96   0.258E+00    0.170E-01
DAV:   2    -0.101222561171E+03    0.12480E-03   -0.29553E-03   108   0.189E-01    0.975E-02
DAV:   3    -0.101222418940E+03    0.14223E-03   -0.45969E-04   108   0.685E-02    0.172E-02
DAV:   4    -0.101222423778E+03   -0.48375E-05   -0.80631E-05   132   0.296E-02    0.893E-03
DAV:   5    -0.101222422797E+03    0.98029E-06   -0.26129E-06   108   0.588E-03
[...]
DAV:  10    -0.101220643072E+03   -0.54383E-05   -0.45007E-07   108   0.146E-03    0.337E-04
DAV:  11    -0.101220644276E+03   -0.12049E-05   -0.51838E-08    96   0.695E-04    0.255E-04
DAV:  12    -0.101220644903E+03   -0.62674E-06   -0.74835E-09    96   0.325E-04
 129 F= -.10122064E+03 E0= -.10122064E+03  d E =-.134359E-10
       N       E                     dE             d eps       ncg     rms          rms(c)
DAV:   1    -0.101223336654E+03   -0.26924E-02   -0.28277E-01    96   0.152E+00    0.186E-01
DAV:   2    -0.101223130639E+03    0.20602E-03   -0.20477E-03   108   0.140E-01    0.932E-02
DAV:   3    -0.101223010558E+03    0.12008E-03   -0.34258E-04   132   0.505E-02    0.308E-02
DAV:   4    -0.101223008094E+03    0.24638E-05   -0.72591E-05   108   0.241E-02    0.111E-02
DAV:   5    -0.101223006938E+03    0.11559E-05   -0.39669E-06   132   0.789E-03    0.448E-03
DAV:   6    -0.101223007890E+03   -0.95163E-06   -0.23985E-06   108   0.486E-03
 130 F= -.10122301E+03 E0= -.10122301E+03  d E =-.196033E-10
       N       E                     dE             d eps       ncg     rms          rms(c)
DAV:   1    -0.101223231073E+03   -0.22413E-03   -0.54402E-01    96   0.214E+00    0.196E-01
DAV:   2    -0.101223003298E+03    0.22777E-03   -0.28350E-03   108   0.162E-01    0.111E-01
DAV:   3    -0.101222842570E+03    0.16073E-03   -0.46482E-04   120   0.641E-02    0.226E-02
DAV:   4    -0.101222849803E+03   -0.72329E-05   -0.71081E-05   132   0.270E-02    0.845E-03
DAV:   5    -0.101222850632E+03   -0.82908E-06   -0.33155E-06   120   0.652E-03
 131 F= -.10122285E+03 E0= -.10122285E+03  d E =-.166315E-10
       N       E                     dE             d eps       ncg     rms          rms(c)
DAV:   1    -0.101222543783E+03    0.30602E-03   -0.27132E-01    96   0.151E+00    0.139E-01
DAV:   2    -0.101222429516E+03    0.11427E-03   -0.14812E-03   108   0.117E-01    0.783E-02
DAV:   3    -0.101222350981E+03    0.78534E-04   -0.22547E-04   120   0.445E-02    0.173E-02
DAV:   4    -0.101222354428E+03   -0.34470E-05   -0.36062E-05   132   0.190E-02    0.634E-03
DAV:   5    -0.101222355015E+03   -0.58696E-06   -0.17516E-06   108   0.479E-03
 132 F= -.10122236E+03 E0= -.10122236E+03  d E =-.188221E-10
       N       E                     dE             d eps       ncg     rms          rms(c)
DAV:   1    -0.101223072767E+03   -0.71834E-03   -0.55026E-01    96   0.213E+00    0.224E-01
DAV:   2    -0.101222774783E+03    0.29798E-03   -0.32141E-03   108   0.173E-01    0.118E-01
DAV:   3    -0.101222593809E+03    0.18097E-03   -0.48387E-04   120   0.627E-02    0.358E-02
DAV:   4    -0.101222595183E+03   -0.13738E-05   -0.97276E-05   120   0.294E-02    0.113E-02
DAV:   5    -0.101222594362E+03    0.82111E-06   -0.54297E-06   120   0.861E-03
 133 F= -.10122259E+03 E0= -.10122259E+03  d E =-.138777E-10
       N       E                     dE             d eps       ncg     rms          rms(c)
DAV:   1    -0.101222640424E+03   -0.45240E-04   -0.27613E-01    96   0.198E+00    0.160E-01
DAV:   2    -0.101222549008E+03    0.91416E-04   -0.21286E-03   108   0.162E-01    0.857E-02
DAV:   3    -0.101222459329E+03    0.89679E-04   -0.21603E-04   120   0.462E-02    0.288E-02
DAV:   4    -0.101222458681E+03    0.64769E-06   -0.60484E-05   108   0.237E-02    0.798E-03
DAV:   5    -0.101222457957E+03    0.72399E-06   -0.39444E-06   132   0.754E-03
 134 F= -.10122246E+03 E0= -.10122246E+03  d E =-.174704E-10
       N       E                     dE             d eps       ncg     rms          rms(c)
DAV:   1    -0.101222623509E+03   -0.16483E-03   -0.55361E-01    96   0.262E+00    0.234E-01
DAV:   2    -0.101222287222E+03    0.33629E-03   -0.32105E-03   108   0.194E-01    0.121E-01
DAV:   3    -0.101222074808E+03    0.21241E-03   -0.47751E-04   120   0.628E-02    0.382E-02
DAV:   4    -0.101222069530E+03    0.52788E-05   -0.10698E-04   108   0.308E-02    0.118E-02
DAV:   5    -0.101222069742E+03   -0.21199E-06   -0.62256E-06   132   0.998E-03
 135 F= -.10122207E+03 E0= -.10122207E+03  d E =-.166241E-10
       N       E                     dE             d eps       ncg     rms          rms(c)
DAV:   1    -0.101221627292E+03    0.44224E-03   -0.28980E-01    96   0.189E+00    0.209E-01
DAV:   2    -0.101221387235E+03    0.24006E-03   -0.24671E-03   108   0.173E-01    0.103E-01
DAV:   3    -0.101221241658E+03    0.14558E-03   -0.41058E-04   120   0.632E-02    0.358E-02
DAV:   4    -0.101221243097E+03   -0.14389E-05   -0.12817E-04   120   0.347E-02    0.147E-02
DAV:   5    -0.101221241747E+03    0.13499E-05   -0.49407E-06   108   0.913E-03    0.631E-03
DAV:   6    -0.101221241786E+03   -0.38562E-07   -0.28848E-06   132   0.625E-03
 136 F= -.10122124E+03 E0= -.10122124E+03  d E =-.144469E-10
       N       E                     dE             d eps       ncg     rms          rms(c)
DAV:   1    -0.101222073895E+03   -0.83215E-03   -0.57250E-01    96   0.265E+00    0.273E-01
DAV:   2    -0.101221567902E+03    0.50599E-03   -0.47349E-03   108   0.244E-01    0.137E-01
DAV:   3    -0.101221269201E+03    0.29870E-03   -0.80498E-04   120   0.888E-02    0.463E-02
DAV:   4    -0.101221269866E+03   -0.66525E-06   -0.22517E-04   120   0.473E-02    0.201E-02
DAV:   5    -0.101221269500E+03    0.36546E-06   -0.85407E-06   120   0.114E-02
 137 F= -.10122127E+03 E0= -.10122127E+03  d E =-.169208E-10
       N       E                     dE             d eps       ncg     rms          rms(c)
DAV:   1    -0.101222892977E+03   -0.16231E-02   -0.28834E-01    96   0.189E+00    0.209E-01
DAV:   2    -0.101222630136E+03    0.26284E-03   -0.23030E-03   120   0.171E-01    0.100E-01
DAV:   3    -0.101222489473E+03    0.14066E-03   -0.40203E-04   120   0.626E-02    0.354E-02
DAV:   4    -0.101222490750E+03   -0.12771E-05   -0.12086E-04   108   0.342E-02    0.134E-02
DAV:   5    -0.101222489998E+03    0.75237E-06   -0.48518E-06   132   0.885E-03
 138 F= -.10122249E+03 E0= -.10122249E+03  d E =-.160388E-10
       N       E                     dE             d eps       ncg     rms          rms(c)
DAV:   1    -0.101222795719E+03   -0.30497E-03   -0.54700E-01    96   0.262E+00    0.229E-01
DAV:   2    -0.101222487783E+03    0.30794E-03   -0.34233E-03   108   0.205E-01    0.120E-01
DAV:   3    -0.101222289814E+03    0.19797E-03   -0.46099E-04   120   0.655E-02    0.374E-02
DAV:   4    -0.101222290462E+03   -0.64782E-06   -0.10288E-04   108   0.313E-02    0.120E-02
DAV:   5    -0.101222290757E+03   -0.29473E-06   -0.60092E-06   132   0.952E-03
 139 F= -.10122229E+03 E0= -.10122229E+03  d E =-.157067E-10
       N       E                     dE             d eps       ncg     rms          rms(c)
DAV:   1    -0.101222329055E+03   -0.38593E-04   -0.27625E-01    96   0.189E+00    0.166E-01
DAV:   2    -0.101222225973E+03    0.10308E-03   -0.18788E-03   108   0.145E-01    0.876E-02
DAV:   3    -0.101222134374E+03    0.91600E-04   -0.26951E-04   120   0.453E-02    0.264E-02
DAV:   4    -0.101222132276E+03    0.20973E-05   -0.43222E-05   120   0.193E-02    0.103E-02
DAV:   5    -0.101222130625E+03    0.16513E-05   -0.24465E-06   132   0.687E-03    0.500E-03
DAV:   6    -0.101222130568E+03    0.57461E-07   -0.22592E-06   108   0.557E-03
 140 F= -.10122213E+03 E0= -.10122213E+03  d E =-.159392E-10
       N       E                     dE             d eps       ncg     rms          rms(c)
DAV:   1    -0.101222559660E+03   -0.42904E-03   -0.55653E-01    96   0.251E+00    0.243E-01
DAV:   2    -0.101222173222E+03    0.38644E-03   -0.33090E-03   108   0.198E-01    0.124E-01
DAV:   3    -0.101221954533E+03    0.21869E-03   -0.54435E-04   120   0.661E-02    0.389E-02
DAV:   4    -0.101221947894E+03    0.66386E-05   -0.10801E-04   108   0.311E-02    0.136E-02
DAV:   5    -0.101221947877E+03    0.17030E-07   -0.59129E-06   132   0.102E-02
 141 F= -.10122195E+03 E0= -.10122195E+03  d E =-.175459E-10
       N       E                     dE             d eps       ncg     rms          rms(c)
DAV:   1    -0.101221246429E+03    0.70147E-03   -0.27281E-01    96   0.181E+00    0.139E-01
DAV:   2    -0.101221106957E+03    0.13947E-03   -0.14464E-03   120   0.129E-01    0.783E-02
DAV:   3    -0.101221022435E+03    0.84522E-04   -0.25634E-04   108   0.496E-02    0.164E-02
DAV:   4    -0.101221027611E+03   -0.51761E-05   -0.50093E-05   132   0.229E-02    0.875E-03
DAV:   5    -0.101221028146E+03   -0.53506E-06   -0.11512E-06   108   0.424E-03
 142 F= -.10122103E+03 E0= -.10122103E+03  d E =-.149753E-10
       N       E                     dE             d eps       ncg     rms          rms(c)
DAV:   1    -0.101221679447E+03   -0.65184E-03   -0.58092E-01    96   0.259E+00    0.285E-01
DAV:   2    -0.101221140888E+03    0.53856E-03   -0.48393E-03   108   0.239E-01    0.143E-01
DAV:   3    -0.101220826270E+03    0.31462E-03   -0.84950E-04   120   0.919E-02    0.470E-02
DAV:   4    -0.101220830442E+03   -0.41718E-05   -0.24817E-04   108   0.485E-02    0.203E-02
DAV:   5    -0.101220827985E+03    0.24571E-05   -0.92743E-06   132   0.125E-02    0.836E-03
DAV:   6    -0.101220828224E+03   -0.23920E-06   -0.59587E-06   108   0.853E-03
 143 F= -.10122083E+03 E0= -.10122083E+03  d E =-.157470E-10
       N       E                     dE             d eps       ncg     rms          rms(c)
DAV:   1    -0.101223272385E+03   -0.24444E-02   -0.28124E-01    96   0.181E+00    0.167E-01
DAV:   2    -0.101223054702E+03    0.21768E-03   -0.18696E-03   108   0.151E-01    0.894E-02
DAV:   3    -0.101222940550E+03    0.11415E-03   -0.33921E-04   120   0.582E-02    0.249E-02
DAV:   4    -0.101222946456E+03   -0.59057E-05   -0.83364E-05   120   0.289E-02    0.120E-02
DAV:   5    -0.101222946505E+03   -0.49220E-07   -0.25226E-06   108   0.638E-03
 144 F= -.10122295E+03 E0= -.10122295E+03  d E =-.172356E-10
       N       E                     dE             d eps       ncg     rms          rms(c)
DAV:   1    -0.101223339628E+03   -0.39317E-03   -0.54061E-01    96   0.252E+00    0.199E-01
DAV:   2    -0.101223063658E+03    0.27597E-03   -0.28154E-03   108   0.183E-01    0.112E-01
DAV:   3    -0.101222897380E+03    0.16628E-03   -0.43866E-04   132   0.653E-02    0.231E-02
DAV:   4    -0.101222902832E+03   -0.54522E-05   -0.69637E-05   120   0.267E-02    0.977E-03
DAV:   5    -0.101222903238E+03   -0.40521E-06   -0.29384E-06   132   0.623E-03
 145 F= -.10122290E+03 E0= -.10122290E+03  d E =-.156794E-10
       N       E                     dE             d eps       ncg     rms          rms(c)
DAV:   1    -0.101222278367E+03    0.62447E-03   -0.27002E-01    96   0.199E+00    0.134E-01
DAV:   2    -0.101222213346E+03    0.65022E-04   -0.18042E-03   120   0.156E-01    0.760E-02
DAV:   3    -0.101222138364E+03    0.74981E-04   -0.22330E-04   108   0.501E-02    0.184E-02
DAV:   4    -0.101222141699E+03   -0.33352E-05   -0.50933E-05   132   0.234E-02    0.785E-03
DAV:   5    -0.101222141539E+03    0.16083E-06   -0.15473E-06   108   0.509E-03
 146 F= -.10122214E+03 E0= -.10122214E+03  d E =-.160357E-10
       N       E                     dE             d eps       ncg     rms          rms(c)
DAV:   1    -0.101222412135E+03   -0.27044E-03   -0.53558E-01   108   0.262E+00    0.178E-01
DAV:   2    -0.101222284708E+03    0.12743E-03   -0.33303E-03   108   0.200E-01    0.101E-01
DAV:   3    -0.101222128094E+03    0.15661E-03   -0.48248E-04   108   0.687E-02    0.208E-02
DAV:   4    -0.101222131396E+03   -0.33021E-05   -0.94752E-05   132   0.319E-02    0.106E-02
DAV:   5    -0.101222130316E+03    0.10802E-05   -0.31758E-06   108   0.641E-03    0.617E-03
DAV:   6    -0.101222131161E+03   -0.84464E-06   -0.27335E-06   120   0.570E-03
 147 F= -.10122213E+03 E0= -.10122213E+03  d E =-.151427E-10
       N       E                     dE             d eps       ncg     rms          rms(c)
DAV:   1    -0.101221086995E+03    0.10433E-02   -0.26429E-01    96   0.181E+00    0.111E-01
DAV:   2    -0.101221027186E+03    0.59809E-04   -0.10670E-03   108   0.113E-01    0.639E-02
DAV:   3    -0.101220969798E+03    0.57388E-04   -0.16980E-04   108   0.408E-02    0.100E-02
DAV:   4    -0.101220972714E+03   -0.29161E-05   -0.25995E-05   132   0.173E-02    0.574E-03
DAV:   5    -0.101220973942E+03   -0.12286E-05   -0.94819E-07    96   0.361E-03    0.382E-03
DAV:   6    -0.101220976995E+03   -0.30524E-05   -0.86196E-07    96   0.343E-03    0.695E-04
DAV:   7    -0.101220978769E+03   -0.17742E-05   -0.32553E-07   108   0.196E-03    0.676E-04
DAV:   8    -0.101220982042E+03   -0.32730E-05   -0.20356E-07    84   0.168E-03    0.236E-04
DAV:   9    -0.101220983876E+03   -0.18339E-05   -0.14176E-07    96   0.107E-03    0.243E-04
DAV:  10    -0.101220985550E+03   -0.16743E-05   -0.49189E-08    96   0.677E-04    0.149E-04
DAV:  11    -0.101220986744E+03   -0.11944E-05   -0.49028E-08    84   0.470E-04    0.831E-05
DAV:  12    -0.101220987321E+03   -0.57625E-06   -0.10033E-08    96   0.262E-04
 148 F= -.10122099E+03 E0= -.10122099E+03  d E =-.137485E-10
       N       E                     dE             d eps       ncg     rms          rms(c)
DAV:   1    -0.101221430076E+03   -0.44333E-03   -0.54464E-01   108   0.266E+00    0.204E-01
DAV:   2    -0.101221330402E+03    0.99675E-04   -0.42562E-03   108   0.225E-01    0.110E-01
DAV:   3    -0.101221143897E+03    0.18650E-03   -0.48374E-04   132   0.634E-02    0.313E-02
DAV:   4    -0.101221133881E+03    0.10016E-04   -0.89952E-05   132   0.280E-02    0.106E-02
DAV:   5    -0.101221131519E+03    0.23618E-05   -0.60251E-06   132   0.101E-02    0.503E-03
DAV:   6    -0.101221134197E+03   -0.26779E-05   -0.40641E-06   132   0.719E-03    0.181E-03
DAV:   7    -0.101221138563E+03   -0.43661E-05   -0.10569E-06   120   0.363E-03    0.126E-03
DAV:   8    -0.101221144185E+03   -0.56216E-05   -0.31524E-07    84   0.197E-03    0.612E-04
DAV:   9    -0.101221149582E+03   -0.53973E-05   -0.31518E-07    96   0.155E-03    0.364E-04
DAV:  10    -0.101221155739E+03   -0.61567E-05   -0.33340E-07    84   0.131E-03    0.187E-04
DAV:  11    -0.101221158678E+03   -0.29392E-05   -0.75760E-08    96   0.710E-04    0.145E-04
DAV:  12    -0.101221160841E+03   -0.21629E-05   -0.33141E-08    84   0.425E-04    0.849E-05
DAV:  13    -0.101221161919E+03   -0.10781E-05   -0.12072E-08    96   0.283E-04    0.410E-05
DAV:  14    -0.101221162652E+03   -0.73335E-06   -0.28699E-09    84   0.192E-04
 149 F= -.10122116E+03 E0= -.10122116E+03  d E =-.141848E-10
       N       E                     dE             d eps       ncg     rms          rms(c)
DAV:   1    -0.101223103974E+03   -0.19421E-02   -0.26706E-01    96   0.184E+00    0.128E-01
DAV:   2    -0.101223019678E+03    0.84296E-04   -0.14627E-03   108   0.139E-01    0.712E-02
DAV:   3    -0.101222947388E+03    0.72289E-04   -0.22005E-04   120   0.459E-02    0.151E-02
DAV:   4    -0.101222948043E+03   -0.65494E-06   -0.34892E-05   132   0.195E-02    0.725E-03
DAV:   5    -0.101222948481E+03   -0.43819E-06   -0.14781E-06   108   0.471E-03
 150 F= -.10122295E+03 E0= -.10122295E+03  d E =-.202841E-10
       N       E                     dE             d eps       ncg     rms          rms(c)
DAV:   1    -0.101223200348E+03   -0.25230E-03   -0.52536E-01    96   0.260E+00    0.159E-01
DAV:   2    -0.101223077762E+03    0.12259E-03   -0.21970E-03   108   0.164E-01    0.920E-02
DAV:   3    -0.101222970526E+03    0.10724E-03   -0.35362E-04   120   0.607E-02    0.123E-02
DAV:   4    -0.101222977425E+03   -0.68993E-05   -0.55700E-05   132   0.250E-02    0.773E-03
DAV:   5    -0.101222978561E+03   -0.11353E-05   -0.16429E-06   108   0.465E-03    0.554E-03
DAV:   6    -0.101222982550E+03   -0.39896E-05   -0.18746E-06   108   0.458E-03    0.980E-04
DAV:   7    -0.101222984814E+03   -0.22634E-05   -0.47094E-07   108   0.229E-03    0.879E-04
DAV:   8    -0.101222988232E+03   -0.34183E-05   -0.17901E-07    84   0.173E-03    0.425E-04
DAV:   9    -0.101222991690E+03   -0.34584E-05   -0.22527E-07    96   0.166E-03    0.294E-04
DAV:  10    -0.101222994307E+03   -0.26171E-05   -0.13834E-07    84   0.102E-03    0.150E-04
DAV:  11    -0.101222995308E+03   -0.10004E-05   -0.26845E-08    96   0.428E-04    0.104E-04
DAV:  12    -0.101222996100E+03   -0.79268E-06   -0.15034E-08    84   0.317E-04
 151 F= -.10122300E+03 E0= -.10122300E+03  d E =-.123483E-10
       N       E                     dE             d eps       ncg     rms          rms(c)
DAV:   1    -0.101220849453E+03    0.21459E-02   -0.26672E-01   108   0.191E+00    0.131E-01
DAV:   2    -0.101220807419E+03    0.42034E-04   -0.20224E-03   108   0.161E-01    0.711E-02
DAV:   3    -0.101220727362E+03    0.80056E-04   -0.21959E-04   120   0.492E-02    0.197E-02
DAV:   4    -0.101220728240E+03   -0.87802E-06   -0.55773E-05   120   0.237E-02    0.673E-03
DAV:   5    -0.101220728705E+03   -0.46485E-06   -0.29688E-06   108   0.627E-03
 152 F= -.10122073E+03 E0= -.10122073E+03  d E =-.188502E-10
       N       E                     dE             d eps       ncg     rms          rms(c)
DAV:   1    -0.101221230721E+03   -0.50248E-03   -0.54521E-01   108   0.262E+00    0.205E-01
DAV:   2    -0.101221135333E+03    0.95389E-04   -0.44929E-03   108   0.229E-01    0.114E-01
DAV:   3    -0.101220925386E+03    0.20995E-03   -0.59061E-04   120   0.749E-02    0.299E-02
DAV:   4    -0.101220923476E+03    0.19101E-05   -0.13027E-04   132   0.349E-02    0.118E-02
DAV:   5    -0.101220920782E+03    0.26941E-05   -0.62443E-06   108   0.955E-03    0.584E-03
DAV:   6    -0.101220921723E+03   -0.94110E-06   -0.45450E-06   132   0.743E-03
 153 F= -.10122092E+03 E0= -.10122092E+03  d E =-.160421E-10
       N       E                     dE             d eps       ncg     rms          rms(c)
DAV:   1    -0.101222866482E+03   -0.19457E-02   -0.26903E-01   108   0.184E+00    0.140E-01
DAV:   2    -0.101222824636E+03    0.41846E-04   -0.19933E-03    96   0.147E-01    0.762E-02
DAV:   3    -0.101222746178E+03    0.78458E-04   -0.22534E-04   108   0.432E-02    0.216E-02
DAV:   4    -0.101222743862E+03    0.23157E-05   -0.40858E-05   120   0.192E-02    0.799E-03
DAV:   5    -0.101222742984E+03    0.87803E-06   -0.29167E-06   120   0.660E-03
 154 F= -.10122274E+03 E0= -.10122274E+03  d E =-.166162E-10
       N       E                     dE             d eps       ncg     rms          rms(c)
DAV:   1    -0.101223262513E+03   -0.51865E-03   -0.53147E-01    96   0.258E+00    0.160E-01
DAV:   2    -0.101223154845E+03    0.10767E-03   -0.20442E-03   108   0.154E-01    0.924E-02
DAV:   3    -0.101223045383E+03    0.10946E-03   -0.35385E-04   120   0.572E-02    0.142E-02
DAV:   4    -0.101223048304E+03   -0.29203E-05   -0.49861E-05   120   0.235E-02    0.771E-03
DAV:   5    -0.101223047690E+03    0.61349E-06   -0.17361E-06   120   0.489E-03
 155 F= -.10122305E+03 E0= -.10122305E+03  d E =-.155377E-10
       N       E                     dE             d eps       ncg     rms          rms(c)
DAV:   1    -0.101222532401E+03    0.51590E-03   -0.26595E-01    96   0.181E+00    0.116E-01
DAV:   2    -0.101222473756E+03    0.58645E-04   -0.11796E-03   108   0.119E-01    0.667E-02
DAV:   3    -0.101222422064E+03    0.51692E-04   -0.19166E-04   120   0.452E-02    0.944E-03
DAV:   4    -0.101222425868E+03   -0.38033E-05   -0.33053E-05   132   0.192E-02    0.603E-03
DAV:   5    -0.101222426307E+03   -0.43903E-06   -0.77041E-07    96   0.341E-03
 156 F= -.10122243E+03 E0= -.10122243E+03  d E =-.226975E-10
       N       E                     dE             d eps       ncg     rms          rms(c)
DAV:   1    -0.101222691403E+03   -0.26554E-03   -0.53202E-01    96   0.258E+00    0.173E-01
DAV:   2    -0.101222599528E+03    0.91875E-04   -0.28760E-03   108   0.183E-01    0.976E-02
DAV:   3    -0.101222465852E+03    0.13368E-03   -0.38594E-04   120   0.581E-02    0.206E-02
DAV:   4    -0.101222465320E+03    0.53143E-06   -0.59261E-05   132   0.242E-02    0.881E-03
DAV:   5    -0.101222465382E+03   -0.61515E-07   -0.36529E-06   132   0.674E-03
 157 F= -.10122247E+03 E0= -.10122247E+03  d E =-.126305E-10
