       N       E                     dE             d eps       ncg     rms          rms(c)
DAV:   1     0.245678337222E+03    0.24568E+03   -0.10189E+04   120   0.484E+02
DAV:   2    -0.220069384913E+02   -0.26769E+03   -0.25402E+03   156   0.915E+01
DAV:   3    -0.102646380171E+03   -0.80639E+02   -0.80398E+02   120   0.553E+01
DAV:   4    -0.106660397475E+03   -0.40140E+01   -0.40003E+01   132   0.176E+01
DAV:   5    -0.106724693782E+03   -0.64296E-01   -0.64230E-01   156   0.251E+00    0.154E+01
DAV:   6    -0.103207045269E+03    0.35176E+01   -0.16373E+00   108   0.443E+00    0.888E+00
DAV:   7    -0.101429918897E+03    0.17771E+01   -0.43695E+00   120   0.644E+00    0.132E+00
DAV:   8    -0.101373019185E+03    0.56900E-01   -0.35486E-01   132   0.227E+00    0.702E-01
DAV:   9    -0.101338303761E+03    0.34715E-01   -0.63988E-02   144   0.691E-01    0.384E-01
DAV:  10    -0.101337037975E+03    0.12658E-02   -0.42301E-03   132   0.227E-01    0.146E-01
DAV:  11    -0.101335727088E+03    0.13109E-02   -0.67104E-03   132   0.223E-01    0.114E-01
DAV:  12    -0.101341603742E+03   -0.58767E-02   -0.14898E-03   132   0.109E-01    0.515E-02
DAV:  13    -0.101344958114E+03   -0.33544E-02   -0.19432E-03   132   0.112E-01    0.499E-02
DAV:  14    -0.101347984175E+03   -0.30261E-02   -0.19383E-04   144   0.494E-02    0.215E-02
DAV:  15    -0.101352858205E+03   -0.48740E-02   -0.55969E-04    96   0.591E-02    0.142E-02
DAV:  16    -0.101354511549E+03   -0.16533E-02   -0.11750E-04   132   0.326E-02    0.912E-03
DAV:  17    -0.101355725198E+03   -0.12136E-02   -0.11082E-04   108   0.240E-02    0.821E-03
DAV:  18    -0.101356053406E+03   -0.32821E-03   -0.10805E-05   132   0.873E-03    0.173E-03
DAV:  19    -0.101356279654E+03   -0.22625E-03   -0.10348E-05   108   0.718E-03    0.244E-03
DAV:  20    -0.101356339877E+03   -0.60223E-04   -0.12559E-06   108   0.348E-03    0.860E-04
DAV:  21    -0.101356358708E+03   -0.18832E-04   -0.38967E-07   108   0.158E-03    0.371E-04
DAV:  22    -0.101356375359E+03   -0.16651E-04   -0.38012E-07    96   0.138E-03    0.339E-04
DAV:  23    -0.101356378876E+03   -0.35170E-05   -0.80767E-08   108   0.648E-04    0.206E-04
DAV:  24    -0.101356382958E+03   -0.40819E-05   -0.76062E-08    84   0.629E-04    0.130E-04
DAV:  25    -0.101356383557E+03   -0.59894E-06   -0.53828E-09   108   0.291E-04
   1 F= -.10135638E+03 E0= -.10135638E+03  d E =-.537093E-10
       N       E                     dE             d eps       ncg     rms          rms(c)
DAV:   1    -0.101352980487E+03    0.34025E-02   -0.82357E-02    96   0.826E-01    0.129E-01
DAV:   2    -0.101353286992E+03   -0.30651E-03   -0.35525E-03   144   0.204E-01    0.552E-02
DAV:   3    -0.101353275567E+03    0.11425E-04   -0.13387E-04   132   0.432E-02    0.287E-02
DAV:   4    -0.101353278868E+03   -0.33009E-05   -0.31931E-05   132   0.213E-02    0.834E-03
DAV:   5    -0.101353278216E+03    0.65192E-06   -0.63798E-06   132   0.100E-02
   2 F= -.10135328E+03 E0= -.10135328E+03  d E =-.619976E-10
       N       E                     dE             d eps       ncg     rms          rms(c)
DAV:   1    -0.101352108960E+03    0.11699E-02   -0.32997E-01    96   0.168E+00    0.267E-01
DAV:   2    -0.101353323101E+03   -0.12141E-02   -0.14077E-02   144   0.403E-01    0.110E-01
DAV:   3    -0.101353283272E+03    0.39828E-04   -0.52858E-04   120   0.853E-02    0.594E-02
DAV:   4    -0.101353299585E+03   -0.16312E-04   -0.12692E-04   120   0.422E-02    0.173E-02
DAV:   5    -0.101353297142E+03    0.24431E-05   -0.25753E-05   132   0.199E-02    0.959E-03
DAV:   6    -0.101353296839E+03    0.30221E-06   -0.51811E-06   144   0.793E-03
   3 F= -.10135330E+03 E0= -.10135330E+03  d E =-.634733E-10
       N       E                     dE             d eps       ncg     rms          rms(c)
DAV:   1    -0.101352641304E+03    0.65584E-03   -0.16484E-01    96   0.115E+00    0.157E-01
DAV:   2    -0.101353325826E+03   -0.68452E-03   -0.74779E-03   132   0.284E-01    0.756E-02
DAV:   3    -0.101353314163E+03    0.11663E-04   -0.27210E-04   132   0.616E-02    0.379E-02
DAV:   4    -0.101353326838E+03   -0.12675E-04   -0.59663E-05   120   0.286E-02    0.113E-02
DAV:   5    -0.101353326529E+03    0.30905E-06   -0.94113E-06   132   0.121E-02
   4 F= -.10135333E+03 E0= -.10135333E+03  d E =-.696284E-10
       N       E                     dE             d eps       ncg     rms          rms(c)
DAV:   1    -0.101351984621E+03    0.13422E-02   -0.32664E-01    96   0.164E+00    0.237E-01
DAV:   2    -0.101353385054E+03   -0.14004E-02   -0.15333E-02   120   0.411E-01    0.110E-01
DAV:   3    -0.101353353641E+03    0.31413E-04   -0.55194E-04   144   0.881E-02    0.577E-02
DAV:   4    -0.101353370704E+03   -0.17064E-04   -0.12912E-04   120   0.424E-02    0.164E-02
DAV:   5    -0.101353366317E+03    0.43878E-05   -0.24281E-05   132   0.190E-02    0.866E-03
DAV:   6    -0.101353365806E+03    0.51050E-06   -0.54446E-06   132   0.785E-03
   5 F= -.10135337E+03 E0= -.10135337E+03  d E =-.631811E-10
       N       E                     dE             d eps       ncg     rms          rms(c)
DAV:   1    -0.101351148374E+03    0.22179E-02   -0.16255E-01    96   0.116E+00    0.163E-01
DAV:   2    -0.101352061095E+03   -0.91272E-03   -0.97460E-03   132   0.318E-01    0.921E-02
DAV:   3    -0.101352021476E+03    0.39619E-04   -0.29172E-04   132   0.663E-02    0.484E-02
DAV:   4    -0.101352029400E+03   -0.79250E-05   -0.11032E-04   132   0.379E-02    0.116E-02
DAV:   5    -0.101352027770E+03    0.16310E-05   -0.20298E-05   120   0.166E-02    0.715E-03
DAV:   6    -0.101352029587E+03   -0.18173E-05   -0.37271E-06   132   0.593E-03    0.451E-03
DAV:   7    -0.101352034931E+03   -0.53439E-05   -0.41490E-07    96   0.228E-03    0.179E-03
DAV:   8    -0.101352040820E+03   -0.58891E-05   -0.55288E-07   120   0.242E-03    0.693E-04
DAV:   9    -0.101352045896E+03   -0.50762E-05   -0.30075E-07   108   0.165E-03    0.581E-04
DAV:  10    -0.101352053296E+03   -0.74001E-05   -0.64300E-07   120   0.170E-03    0.504E-04
DAV:  11    -0.101352054509E+03   -0.12133E-05   -0.41537E-08   108   0.740E-04    0.363E-04
DAV:  12    -0.101352056286E+03   -0.17763E-05   -0.43616E-08   108   0.550E-04    0.174E-04
DAV:  13    -0.101352057759E+03   -0.14731E-05   -0.41732E-08   108   0.439E-04    0.102E-04
DAV:  14    -0.101352058732E+03   -0.97356E-06   -0.16397E-08   108   0.293E-04
   6 F= -.10135206E+03 E0= -.10135206E+03  d E =-.661241E-10
       N       E                     dE             d eps       ncg     rms          rms(c)
DAV:   1    -0.101349888827E+03    0.21689E-02   -0.33276E-01    96   0.163E+00    0.262E-01
DAV:   2    -0.101352112282E+03   -0.22235E-02   -0.24210E-02   120   0.489E-01    0.168E-01
DAV:   3    -0.101351947773E+03    0.16451E-03   -0.69333E-04   144   0.105E-01    0.847E-02
DAV:   4    -0.101351950710E+03   -0.29373E-05   -0.40919E-04   132   0.679E-02    0.162E-02
DAV:   5    -0.101351940874E+03    0.98370E-05   -0.56651E-05   132   0.265E-02    0.114E-02
DAV:   6    -0.101351941623E+03   -0.74998E-06   -0.11795E-05   132   0.896E-03    0.731E-03
DAV:   7    -0.101351953590E+03   -0.11966E-04   -0.11415E-06   120   0.347E-03    0.306E-03
DAV:   8    -0.101351972582E+03   -0.18992E-04   -0.18283E-06   132   0.435E-03    0.133E-03
DAV:   9    -0.101351986478E+03   -0.13897E-04   -0.99900E-07   132   0.231E-03    0.152E-03
DAV:  10    -0.101352008859E+03   -0.22381E-04   -0.12449E-06   120   0.231E-03    0.676E-04
DAV:  11    -0.101352013265E+03   -0.44054E-05   -0.12412E-07   108   0.938E-04    0.454E-04
DAV:  12    -0.101352021896E+03   -0.86314E-05   -0.25086E-07   108   0.106E-03    0.254E-04
DAV:  13    -0.101352024857E+03   -0.29606E-05   -0.83642E-08   108   0.567E-04    0.226E-04
DAV:  14    -0.101352027024E+03   -0.21675E-05   -0.19008E-08   108   0.388E-04    0.692E-05
DAV:  15    -0.101352028031E+03   -0.10065E-05   -0.10513E-08   108   0.268E-04    0.679E-05
DAV:  16    -0.101352028702E+03   -0.67186E-06    0.15648E-09   108   0.180E-04
   7 F= -.10135203E+03 E0= -.10135203E+03  d E =-.553043E-10
       N       E                     dE             d eps       ncg     rms          rms(c)
DAV:   1    -0.101350945365E+03    0.10827E-02   -0.19042E-01    96   0.134E+00    0.192E-01
DAV:   2    -0.101352367929E+03   -0.14226E-02   -0.14751E-02   120   0.424E-01    0.120E-01
DAV:   3    -0.101352287038E+03    0.80891E-04   -0.40081E-04   144   0.848E-02    0.652E-02
DAV:   4    -0.101352285644E+03    0.13940E-05   -0.21218E-04   132   0.559E-02    0.125E-02
DAV:   5    -0.101352281289E+03    0.43549E-05   -0.41661E-05   132   0.230E-02    0.956E-03
DAV:   6    -0.101352281828E+03   -0.53913E-06   -0.41738E-06   144   0.659E-03
   8 F= -.10135228E+03 E0= -.10135228E+03  d E =-.719793E-10
       N       E                     dE             d eps       ncg     rms          rms(c)
DAV:   1    -0.101350396614E+03    0.18847E-02   -0.33730E-01    96   0.181E+00    0.261E-01
DAV:   2    -0.101352492601E+03   -0.20960E-02   -0.21433E-02   132   0.516E-01    0.153E-01
DAV:   3    -0.101352425338E+03    0.67263E-04   -0.52373E-04   120   0.909E-02    0.849E-02
DAV:   4    -0.101352420092E+03    0.52467E-05   -0.23966E-04   132   0.603E-02    0.154E-02
DAV:   5    -0.101352411217E+03    0.88743E-05   -0.49541E-05   144   0.267E-02    0.110E-02
DAV:   6    -0.101352410157E+03    0.10603E-05   -0.75068E-06   132   0.100E-02    0.692E-03
DAV:   7    -0.101352422094E+03   -0.11937E-04   -0.33084E-06   144   0.825E-03    0.218E-03
DAV:   8    -0.101352437366E+03   -0.15272E-04   -0.21797E-06   132   0.592E-03    0.200E-03
DAV:   9    -0.101352444418E+03   -0.70528E-05   -0.42560E-07   108   0.239E-03    0.168E-03
DAV:  10    -0.101352462133E+03   -0.17715E-04   -0.76327E-07    96   0.195E-03    0.561E-04
DAV:  11    -0.101352472768E+03   -0.10635E-04   -0.74671E-07   108   0.194E-03    0.838E-04
DAV:  12    -0.101352477405E+03   -0.46365E-05   -0.14523E-07   120   0.126E-03    0.419E-04
DAV:  13    -0.101352484509E+03   -0.71045E-05   -0.25938E-07    96   0.112E-03    0.413E-04
DAV:  14    -0.101352486653E+03   -0.21438E-05   -0.44843E-08   120   0.506E-04    0.306E-04
DAV:  15    -0.101352488974E+03   -0.23204E-05   -0.45983E-08    96   0.632E-04    0.235E-04
DAV:  16    -0.101352489550E+03   -0.57674E-06   -0.63881E-09   120   0.314E-04
   9 F= -.10135249E+03 E0= -.10135249E+03  d E =-.501980E-10
       N       E                     dE             d eps       ncg     rms          rms(c)
DAV:   1    -0.101350310139E+03    0.21788E-02   -0.17074E-01    96   0.129E+00    0.185E-01
DAV:   2    -0.101351438469E+03   -0.11283E-02   -0.11592E-02   132   0.387E-01    0.115E-01
DAV:   3    -0.101351387832E+03    0.50637E-04   -0.27153E-04   132   0.692E-02    0.647E-02
DAV:   4    -0.101351381918E+03    0.59141E-05   -0.16422E-04   132   0.506E-02    0.115E-02
DAV:   5    -0.101351378110E+03    0.38087E-05   -0.37491E-05   132   0.229E-02    0.912E-03
DAV:   6    -0.101351380122E+03   -0.20123E-05   -0.73566E-06   132   0.865E-03    0.598E-03
DAV:   7    -0.101351390630E+03   -0.10508E-04   -0.15328E-06   132   0.451E-03    0.233E-03
DAV:   8    -0.101351404190E+03   -0.13561E-04   -0.10459E-06   120   0.311E-03    0.859E-04
DAV:   9    -0.101351419578E+03   -0.15388E-04   -0.16441E-06   132   0.318E-03    0.117E-03
DAV:  10    -0.101351431557E+03   -0.11979E-04   -0.10236E-06   108   0.235E-03    0.540E-04
DAV:  11    -0.101351436007E+03   -0.44502E-05   -0.19446E-07   120   0.108E-03    0.216E-04
DAV:  12    -0.101351439937E+03   -0.39301E-05   -0.18607E-07   108   0.859E-04    0.189E-04
DAV:  13    -0.101351441108E+03   -0.11711E-05   -0.26210E-08   120   0.370E-04    0.164E-04
DAV:  14    -0.101351442242E+03   -0.11342E-05   -0.18135E-08   108   0.332E-04    0.659E-05
DAV:  15    -0.101351442684E+03   -0.44114E-06   -0.26862E-09   108   0.200E-04
  10 F= -.10135144E+03 E0= -.10135144E+03  d E =-.488172E-10
       N       E                     dE             d eps       ncg     rms          rms(c)
DAV:   1    -0.101349061008E+03    0.23812E-02   -0.34817E-01    96   0.186E+00    0.267E-01
DAV:   2    -0.101351656283E+03   -0.25953E-02   -0.26466E-02   132   0.590E-01    0.182E-01
DAV:   3    -0.101351502850E+03    0.15343E-03   -0.63178E-04   132   0.113E-01    0.906E-02
DAV:   4    -0.101351519515E+03   -0.16666E-04   -0.47521E-04   132   0.824E-02    0.183E-02
DAV:   5    -0.101351505442E+03    0.14073E-04   -0.81301E-05   132   0.341E-02    0.122E-02
DAV:   6    -0.101351510241E+03   -0.47988E-05   -0.16566E-05   132   0.114E-02    0.615E-03
DAV:   7    -0.101351529068E+03   -0.18827E-04   -0.10403E-06   108   0.327E-03    0.310E-03
DAV:   8    -0.101351561674E+03   -0.32606E-04   -0.53348E-06   132   0.611E-03    0.184E-03
DAV:   9    -0.101351579357E+03   -0.17683E-04   -0.14586E-06   132   0.331E-03    0.159E-03
DAV:  10    -0.101351598680E+03   -0.19323E-04   -0.13668E-06   120   0.259E-03    0.501E-04
DAV:  11    -0.101351604958E+03   -0.62783E-05   -0.21033E-07   108   0.122E-03    0.349E-04
DAV:  12    -0.101351613448E+03   -0.84901E-05   -0.34044E-07    96   0.119E-03    0.168E-04
DAV:  13    -0.101351615756E+03   -0.23077E-05   -0.60076E-08   108   0.509E-04    0.173E-04
DAV:  14    -0.101351618195E+03   -0.24393E-05   -0.36704E-08   108   0.470E-04    0.100E-04
DAV:  15    -0.101351618655E+03   -0.46006E-06   -0.39048E-09   120   0.232E-04
  11 F= -.10135162E+03 E0= -.10135162E+03  d E =-.792715E-10
       N       E                     dE             d eps       ncg     rms          rms(c)
DAV:   1    -0.101351987733E+03   -0.36954E-03   -0.17162E-01    96   0.132E+00    0.177E-01
DAV:   2    -0.101353235547E+03   -0.12478E-02   -0.12712E-02   132   0.409E-01    0.120E-01
DAV:   3    -0.101353172958E+03    0.62590E-04   -0.31171E-04   144   0.778E-02    0.606E-02
DAV:   4    -0.101353175944E+03   -0.29866E-05   -0.19087E-04   132   0.533E-02    0.117E-02
DAV:   5    -0.101353169961E+03    0.59829E-05   -0.36040E-05   132   0.229E-02    0.772E-03
DAV:   6    -0.101353172488E+03   -0.25266E-05   -0.62624E-06   132   0.740E-03    0.458E-03
DAV:   7    -0.101353183050E+03   -0.10561E-04   -0.73549E-07   108   0.321E-03    0.202E-03
DAV:   8    -0.101353198256E+03   -0.15206E-04   -0.26131E-06   132   0.480E-03    0.143E-03
DAV:   9    -0.101353207836E+03   -0.95804E-05   -0.67638E-07   108   0.266E-03    0.910E-04
DAV:  10    -0.101353219501E+03   -0.11665E-04   -0.11213E-06   108   0.226E-03    0.427E-04
DAV:  11    -0.101353222626E+03   -0.31257E-05   -0.99764E-08   120   0.921E-04    0.290E-04
DAV:  12    -0.101353226571E+03   -0.39443E-05   -0.13588E-07   108   0.802E-04    0.136E-04
DAV:  13    -0.101353228528E+03   -0.19569E-05   -0.60376E-08   108   0.508E-04    0.131E-04
DAV:  14    -0.101353230106E+03   -0.15787E-05   -0.30808E-08   108   0.389E-04    0.682E-05
DAV:  15    -0.101353230556E+03   -0.45013E-06   -0.18906E-09   108   0.200E-04
  12 F= -.10135323E+03 E0= -.10135323E+03  d E =-.472359E-10
       N       E                     dE             d eps       ncg     rms          rms(c)
DAV:   1    -0.101351122477E+03    0.21076E-02   -0.32693E-01    96   0.174E+00    0.221E-01
DAV:   2    -0.101352986838E+03   -0.18644E-02   -0.19102E-02   132   0.472E-01    0.128E-01
DAV:   3    -0.101352962201E+03    0.24637E-04   -0.50262E-04   132   0.874E-02    0.694E-02
DAV:   4    -0.101352971917E+03   -0.97166E-05   -0.16671E-04   132   0.542E-02    0.135E-02
DAV:   5    -0.101352965709E+03    0.62078E-05   -0.44627E-05   132   0.257E-02    0.990E-03
DAV:   6    -0.101352965408E+03    0.30106E-06   -0.67026E-06   144   0.890E-03
  13 F= -.10135297E+03 E0= -.10135297E+03  d E =-.826273E-10
       N       E                     dE             d eps       ncg     rms          rms(c)
DAV:   1    -0.101350547992E+03    0.24177E-02   -0.16590E-01    96   0.129E+00    0.174E-01
DAV:   2    -0.101351881448E+03   -0.13335E-02   -0.13645E-02   132   0.400E-01    0.112E-01
DAV:   3    -0.101351839223E+03    0.42225E-04   -0.33736E-04   144   0.765E-02    0.650E-02
DAV:   4    -0.101351861190E+03   -0.21967E-04   -0.18903E-04   132   0.570E-02    0.123E-02
DAV:   5    -0.101351860963E+03    0.22767E-06   -0.57559E-05   132   0.281E-02    0.101E-02
DAV:   6    -0.101351859993E+03    0.96949E-06   -0.58486E-06   132   0.811E-03
  14 F= -.10135186E+03 E0= -.10135186E+03  d E =-.570690E-10
       N       E                     dE             d eps       ncg     rms          rms(c)
DAV:   1    -0.101349547424E+03    0.23135E-02   -0.34664E-01    96   0.184E+00    0.267E-01
DAV:   2    -0.101351937519E+03   -0.23901E-02   -0.24131E-02   132   0.567E-01    0.170E-01
DAV:   3    -0.101351849143E+03    0.88376E-04   -0.58159E-04   144   0.105E-01    0.916E-02
DAV:   4    -0.101351862545E+03   -0.13401E-04   -0.37626E-04   120   0.753E-02    0.170E-02
DAV:   5    -0.101351848666E+03    0.13878E-04   -0.78336E-05   132   0.334E-02    0.117E-02
DAV:   6    -0.101351848582E+03    0.84270E-07   -0.12900E-05   132   0.104E-02    0.740E-03
DAV:   7    -0.101351861112E+03   -0.12530E-04   -0.12166E-06   108   0.421E-03    0.326E-03
DAV:   8    -0.101351879301E+03   -0.18189E-04   -0.31807E-06   132   0.543E-03    0.143E-03
DAV:   9    -0.101351891080E+03   -0.11778E-04   -0.12306E-06   120   0.317E-03    0.152E-03
DAV:  10    -0.101351905640E+03   -0.14560E-04   -0.10492E-06   108   0.237E-03    0.703E-04
DAV:  11    -0.101351910578E+03   -0.49383E-05   -0.22961E-07   108   0.126E-03    0.433E-04
DAV:  12    -0.101351916258E+03   -0.56796E-05   -0.25435E-07    96   0.110E-03    0.184E-04
DAV:  13    -0.101351918756E+03   -0.24981E-05   -0.10858E-07   108   0.674E-04    0.221E-04
DAV:  14    -0.101351920622E+03   -0.18659E-05   -0.44863E-08   108   0.499E-04    0.108E-04
DAV:  15    -0.101351921228E+03   -0.60634E-06   -0.12886E-08   108   0.290E-04
  15 F= -.10135192E+03 E0= -.10135192E+03  d E =-.439585E-11
       N       E                     dE             d eps       ncg     rms          rms(c)
DAV:   1    -0.101351019884E+03    0.90074E-03   -0.17434E-01    96   0.132E+00    0.189E-01
DAV:   2    -0.101352297384E+03   -0.12775E-02   -0.13083E-02   132   0.412E-01    0.128E-01
DAV:   3    -0.101352223509E+03    0.73875E-04   -0.31057E-04   144   0.782E-02    0.639E-02
DAV:   4    -0.101352229054E+03   -0.55453E-05   -0.22834E-04   132   0.563E-02    0.128E-02
DAV:   5    -0.101352220536E+03    0.85178E-05   -0.39802E-05   132   0.236E-02    0.823E-03
DAV:   6    -0.101352223198E+03   -0.26615E-05   -0.75495E-06   132   0.766E-03    0.445E-03
DAV:   7    -0.101352234581E+03   -0.11383E-04   -0.55911E-07   108   0.231E-03    0.213E-03
DAV:   8    -0.101352253147E+03   -0.18566E-04   -0.25753E-06   132   0.413E-03    0.129E-03
DAV:   9    -0.101352264010E+03   -0.10863E-04   -0.68792E-07   108   0.231E-03    0.976E-04
DAV:  10    -0.101352275689E+03   -0.11679E-04   -0.95384E-07   108   0.199E-03    0.425E-04
DAV:  11    -0.101352279828E+03   -0.41381E-05   -0.13022E-07   108   0.987E-04    0.197E-04
DAV:  12    -0.101352283363E+03   -0.35357E-05   -0.12030E-07   108   0.750E-04    0.203E-04
DAV:  13    -0.101352284785E+03   -0.14218E-05   -0.24135E-08   108   0.373E-04    0.155E-04
DAV:  14    -0.101352286042E+03   -0.12566E-05   -0.15824E-08   108   0.316E-04    0.616E-05
DAV:  15    -0.101352286342E+03   -0.30003E-06    0.19467E-09   108   0.161E-04
  16 F= -.10135229E+03 E0= -.10135229E+03  d E =-.634382E-10
       N       E                     dE             d eps       ncg     rms          rms(c)
DAV:   1    -0.101350365091E+03    0.19210E-02   -0.33887E-01    96   0.181E+00    0.259E-01
DAV:   2    -0.101352461945E+03   -0.20969E-02   -0.21627E-02   132   0.522E-01    0.154E-01
DAV:   3    -0.101352372437E+03    0.89508E-04   -0.53214E-04   132   0.958E-02    0.819E-02
DAV:   4    -0.101352378074E+03   -0.56365E-05   -0.30453E-04   132   0.675E-02    0.164E-02
DAV:   5    -0.101352368106E+03    0.99681E-05   -0.64100E-05   132   0.303E-02    0.124E-02
DAV:   6    -0.101352367040E+03    0.10661E-05   -0.12618E-05   144   0.112E-02    0.787E-03
DAV:   7    -0.101352375884E+03   -0.88441E-05   -0.17717E-06   120   0.550E-03    0.326E-03
DAV:   8    -0.101352390826E+03   -0.14943E-04   -0.18396E-06   132   0.486E-03    0.120E-03
DAV:   9    -0.101352406838E+03   -0.16011E-04   -0.10605E-06    96   0.328E-03    0.140E-03
DAV:  10    -0.101352423155E+03   -0.16317E-04   -0.10699E-06   108   0.243E-03    0.770E-04
DAV:  11    -0.101352431691E+03   -0.85356E-05   -0.26747E-07   108   0.136E-03    0.272E-04
DAV:  12    -0.101352437719E+03   -0.60286E-05   -0.17430E-07   108   0.904E-04    0.258E-04
DAV:  13    -0.101352440916E+03   -0.31969E-05   -0.57847E-08   108   0.520E-04    0.241E-04
DAV:  14    -0.101352442930E+03   -0.20133E-05   -0.22133E-08   108   0.382E-04    0.523E-05
DAV:  15    -0.101352443718E+03   -0.78828E-06   -0.60141E-09   108   0.238E-04
  17 F= -.10135244E+03 E0= -.10135244E+03  d E =-.569590E-10
       N       E                     dE             d eps       ncg     rms          rms(c)
DAV:   1    -0.101351758351E+03    0.68458E-03   -0.17023E-01    96   0.132E+00    0.173E-01
DAV:   2    -0.101352862355E+03   -0.11040E-02   -0.11395E-02   132   0.387E-01    0.115E-01
DAV:   3    -0.101352815625E+03    0.46730E-04   -0.26846E-04   132   0.684E-02    0.617E-02
DAV:   4    -0.101352799220E+03    0.16405E-04   -0.13410E-04   132   0.446E-02    0.106E-02
DAV:   5    -0.101352795941E+03    0.32792E-05   -0.20912E-05   132   0.180E-02    0.757E-03
DAV:   6    -0.101352801067E+03   -0.51262E-05   -0.62196E-06   132   0.881E-03    0.442E-03
DAV:   7    -0.101352818278E+03   -0.17211E-04   -0.23913E-06   132   0.575E-03    0.162E-03
DAV:   8    -0.101352836738E+03   -0.18461E-04   -0.15105E-06   120   0.421E-03    0.105E-03
DAV:   9    -0.101352853907E+03   -0.17169E-04   -0.15922E-06   120   0.322E-03    0.102E-03
DAV:  10    -0.101352867816E+03   -0.13909E-04   -0.12318E-06   108   0.240E-03    0.351E-04
DAV:  11    -0.101352870899E+03   -0.30821E-05   -0.91757E-08   120   0.858E-04    0.244E-04
DAV:  12    -0.101352875767E+03   -0.48688E-05   -0.28718E-07   108   0.109E-03    0.131E-04
DAV:  13    -0.101352876787E+03   -0.10193E-05   -0.40269E-08   120   0.475E-04    0.117E-04
DAV:  14    -0.101352877704E+03   -0.91730E-06   -0.14250E-08   108   0.343E-04
  18 F= -.10135288E+03 E0= -.10135288E+03  d E =-.575168E-10
       N       E                     dE             d eps       ncg     rms          rms(c)
DAV:   1    -0.101350617505E+03    0.22593E-02   -0.32807E-01    96   0.179E+00    0.216E-01
DAV:   2    -0.101352686729E+03   -0.20692E-02   -0.21159E-02   132   0.503E-01    0.142E-01
DAV:   3    -0.101352637278E+03    0.49451E-04   -0.49548E-04   132   0.884E-02    0.770E-02
DAV:   4    -0.101352630690E+03    0.65883E-05   -0.19470E-04   132   0.566E-02    0.135E-02
DAV:   5    -0.101352621545E+03    0.91448E-05   -0.44103E-05   132   0.260E-02    0.970E-03
DAV:   6    -0.101352621953E+03   -0.40786E-06   -0.74750E-06   132   0.942E-03
  19 F= -.10135262E+03 E0= -.10135262E+03  d E =-.666835E-10
       N       E                     dE             d eps       ncg     rms          rms(c)
DAV:   1    -0.101350451005E+03    0.21705E-02   -0.16817E-01    96   0.132E+00    0.156E-01
DAV:   2    -0.101351794059E+03   -0.13431E-02   -0.13467E-02   132   0.406E-01    0.111E-01
DAV:   3    -0.101351776925E+03    0.17134E-04   -0.27419E-04   144   0.667E-02    0.671E-02
DAV:   4    -0.101351797859E+03   -0.20934E-04   -0.14261E-04   132   0.497E-02    0.970E-03
DAV:   5    -0.101351797191E+03    0.66754E-06   -0.41748E-05   144   0.240E-02    0.796E-03
DAV:   6    -0.101351796743E+03    0.44843E-06   -0.39342E-06   132   0.733E-03
  20 F= -.10135180E+03 E0= -.10135180E+03  d E =-.570795E-10
       N       E                     dE             d eps       ncg     rms          rms(c)
DAV:   1    -0.101349934140E+03    0.18631E-02   -0.34817E-01    96   0.184E+00    0.221E-01
DAV:   2    -0.101352249039E+03   -0.23149E-02   -0.23142E-02   132   0.541E-01    0.164E-01
DAV:   3    -0.101352200990E+03    0.48049E-04   -0.47111E-04   132   0.897E-02    0.916E-02
DAV:   4    -0.101352178121E+03    0.22869E-04   -0.29118E-04   120   0.631E-02    0.152E-02
DAV:   5    -0.101352169354E+03    0.87666E-05   -0.51234E-05   132   0.261E-02    0.109E-02
DAV:   6    -0.101352170560E+03   -0.12057E-05   -0.15518E-05   120   0.129E-02    0.647E-03
DAV:   7    -0.101352189284E+03   -0.18724E-04   -0.44177E-06   132   0.744E-03    0.248E-03
DAV:   8    -0.101352214303E+03   -0.25019E-04   -0.24000E-06   108   0.513E-03    0.117E-03
DAV:   9    -0.101352238478E+03   -0.24174E-04   -0.28139E-06   120   0.428E-03    0.129E-03
DAV:  10    -0.101352257133E+03   -0.18656E-04   -0.16511E-06   120   0.298E-03    0.562E-04
DAV:  11    -0.101352263735E+03   -0.66019E-05   -0.30893E-07   108   0.130E-03    0.268E-04
DAV:  12    -0.101352268092E+03   -0.43573E-05   -0.20782E-07   108   0.953E-04    0.176E-04
DAV:  13    -0.101352270582E+03   -0.24901E-05   -0.76326E-08   108   0.619E-04    0.853E-05
DAV:  14    -0.101352271582E+03   -0.99986E-06   -0.18980E-08   108   0.355E-04
  21 F= -.10135227E+03 E0= -.10135227E+03  d E =-.831800E-10
       N       E                     dE             d eps       ncg     rms          rms(c)
DAV:   1    -0.101352291895E+03   -0.21313E-04   -0.17114E-01    96   0.127E+00    0.152E-01
DAV:   2    -0.101353347536E+03   -0.10556E-02   -0.10760E-02   132   0.361E-01    0.103E-01
DAV:   3    -0.101353318727E+03    0.28808E-04   -0.22210E-04   132   0.618E-02    0.549E-02
DAV:   4    -0.101353319741E+03   -0.10137E-05   -0.12519E-04   132   0.435E-02    0.101E-02
DAV:   5    -0.101353314779E+03    0.49618E-05   -0.27144E-05   132   0.196E-02    0.771E-03
DAV:   6    -0.101353314463E+03    0.31673E-06   -0.52508E-06   132   0.722E-03
  22 F= -.10135331E+03 E0= -.10135331E+03  d E =-.823573E-10
       N       E                     dE             d eps       ncg     rms          rms(c)
DAV:   1    -0.101351636322E+03    0.16785E-02   -0.33610E-01    96   0.171E+00    0.195E-01
DAV:   2    -0.101353287998E+03   -0.16517E-02   -0.16511E-02   132   0.429E-01    0.112E-01
DAV:   3    -0.101353311306E+03   -0.23308E-04   -0.42852E-04   132   0.832E-02    0.561E-02
DAV:   4    -0.101353343557E+03   -0.32251E-04   -0.13751E-04   132   0.500E-02    0.129E-02
DAV:   5    -0.101353343230E+03    0.32718E-06   -0.35882E-05   132   0.223E-02    0.946E-03
DAV:   6    -0.101353344652E+03   -0.14221E-05   -0.60827E-06   132   0.784E-03    0.557E-03
DAV:   7    -0.101353348641E+03   -0.39888E-05   -0.76533E-07   108   0.367E-03    0.203E-03
DAV:   8    -0.101353353653E+03   -0.50125E-05   -0.72411E-07   108   0.332E-03    0.961E-04
DAV:   9    -0.101353363149E+03   -0.94957E-05   -0.73331E-07    96   0.349E-03    0.515E-04
DAV:  10    -0.101353366898E+03   -0.37489E-05   -0.39256E-07   108   0.201E-03    0.546E-04
DAV:  11    -0.101353368072E+03   -0.11740E-05   -0.39882E-08   120   0.805E-04    0.463E-04
DAV:  12    -0.101353371505E+03   -0.34334E-05   -0.77741E-08   108   0.750E-04    0.153E-04
DAV:  13    -0.101353374081E+03   -0.25762E-05   -0.90838E-08   108   0.656E-04    0.226E-04
DAV:  14    -0.101353375152E+03   -0.10705E-05   -0.12026E-08   108   0.408E-04    0.827E-05
DAV:  15    -0.101353375906E+03   -0.75460E-06   -0.11968E-08   108   0.288E-04
  23 F= -.10135338E+03 E0= -.10135338E+03  d E =-.488325E-10
       N       E                     dE             d eps       ncg     rms          rms(c)
DAV:   1    -0.101350771916E+03    0.26032E-02   -0.17080E-01    96   0.124E+00    0.148E-01
DAV:   2    -0.101351730093E+03   -0.95818E-03   -0.97364E-03   132   0.346E-01    0.941E-02
DAV:   3    -0.101351714347E+03    0.15747E-04   -0.22711E-04   144   0.634E-02    0.472E-02
DAV:   4    -0.101351722122E+03   -0.77755E-05   -0.10688E-04   132   0.422E-02    0.102E-02
DAV:   5    -0.101351718411E+03    0.37116E-05   -0.24987E-05   132   0.189E-02    0.650E-03
DAV:   6    -0.101351718320E+03    0.90307E-07   -0.45887E-06   132   0.682E-03
  24 F= -.10135172E+03 E0= -.10135172E+03  d E =-.814040E-10
       N       E                     dE             d eps       ncg     rms          rms(c)
DAV:   1    -0.101349095700E+03    0.26227E-02   -0.35361E-01    96   0.185E+00    0.249E-01
DAV:   2    -0.101351657636E+03   -0.25619E-02   -0.25672E-02   132   0.569E-01    0.176E-01
DAV:   3    -0.101351559817E+03    0.97818E-04   -0.58752E-04   144   0.105E-01    0.918E-02
DAV:   4    -0.101351565121E+03   -0.53039E-05   -0.38191E-04   132   0.738E-02    0.165E-02
DAV:   5    -0.101351551229E+03    0.13892E-04   -0.77959E-05   144   0.322E-02    0.107E-02
DAV:   6    -0.101351555187E+03   -0.39576E-05   -0.13159E-05   132   0.100E-02    0.651E-03
DAV:   7    -0.101351576221E+03   -0.21034E-04   -0.15323E-06   108   0.402E-03    0.293E-03
DAV:   8    -0.101351603635E+03   -0.27414E-04   -0.44141E-06   120   0.605E-03    0.173E-03
DAV:   9    -0.101351618211E+03   -0.14575E-04   -0.15807E-06   120   0.333E-03    0.181E-03
DAV:  10    -0.101351634877E+03   -0.16666E-04   -0.12327E-06    96   0.266E-03    0.657E-04
DAV:  11    -0.101351640832E+03   -0.59549E-05   -0.34235E-07   108   0.150E-03    0.366E-04
DAV:  12    -0.101351647130E+03   -0.62983E-05   -0.31748E-07   108   0.119E-03    0.173E-04
DAV:  13    -0.101351648979E+03   -0.18491E-05   -0.71208E-08   108   0.552E-04    0.203E-04
DAV:  14    -0.101351650848E+03   -0.18689E-05   -0.43124E-08   108   0.487E-04    0.102E-04
DAV:  15    -0.101351651416E+03   -0.56809E-06   -0.12156E-08   108   0.286E-04
  25 F= -.10135165E+03 E0= -.10135165E+03  d E =-.499254E-10
       N       E                     dE             d eps       ncg     rms          rms(c)
DAV:   1    -0.101351780133E+03   -0.12928E-03   -0.17204E-01    96   0.130E+00    0.157E-01
DAV:   2    -0.101353120955E+03   -0.13408E-02   -0.13952E-02   132   0.413E-01    0.113E-01
DAV:   3    -0.101353066553E+03    0.54403E-04   -0.30634E-04   156   0.726E-02    0.663E-02
DAV:   4    -0.101353051038E+03    0.15515E-04   -0.17771E-04   132   0.561E-02    0.112E-02
DAV:   5    -0.101353046390E+03    0.46480E-05   -0.60631E-05   144   0.284E-02    0.906E-03
DAV:   6    -0.101353044247E+03    0.21424E-05   -0.64490E-06   132   0.853E-03    0.616E-03
DAV:   7    -0.101353051083E+03   -0.68361E-05   -0.22774E-06   132   0.594E-03    0.267E-03
DAV:   8    -0.101353065974E+03   -0.14891E-04   -0.17954E-06   132   0.532E-03    0.120E-03
DAV:   9    -0.101353079325E+03   -0.13351E-04   -0.97169E-07   108   0.334E-03    0.143E-03
DAV:  10    -0.101353091266E+03   -0.11941E-04   -0.57827E-07   108   0.206E-03    0.552E-04
DAV:  11    -0.101353099369E+03   -0.81025E-05   -0.40327E-07   108   0.140E-03    0.240E-04
DAV:  12    -0.101353103735E+03   -0.43667E-05   -0.11709E-07   108   0.779E-04    0.161E-04
DAV:  13    -0.101353107066E+03   -0.33302E-05   -0.11248E-07   108   0.660E-04    0.122E-04
DAV:  14    -0.101353108279E+03   -0.12130E-05   -0.14293E-08   108   0.328E-04    0.795E-05
DAV:  15    -0.101353109225E+03   -0.94624E-06   -0.11955E-08   108   0.265E-04
  26 F= -.10135311E+03 E0= -.10135311E+03  d E =-.534637E-11
       N       E                     dE             d eps       ncg     rms          rms(c)
DAV:   1    -0.101350928538E+03    0.21797E-02   -0.34064E-01    96   0.177E+00    0.205E-01
DAV:   2    -0.101352814509E+03   -0.18860E-02   -0.19061E-02   132   0.482E-01    0.132E-01
DAV:   3    -0.101352785550E+03    0.28960E-04   -0.44971E-04   144   0.873E-02    0.678E-02
DAV:   4    -0.101352797267E+03   -0.11717E-04   -0.20403E-04   132   0.579E-02    0.138E-02
DAV:   5    -0.101352789819E+03    0.74482E-05   -0.49708E-05   132   0.266E-02    0.928E-03
DAV:   6    -0.101352790076E+03   -0.25687E-06   -0.87180E-06   132   0.941E-03
  27 F= -.10135279E+03 E0= -.10135279E+03  d E =-.521128E-10
       N       E                     dE             d eps       ncg     rms          rms(c)
DAV:   1    -0.101351167762E+03    0.16221E-02   -0.16772E-01    96   0.120E+00    0.135E-01
DAV:   2    -0.101351975688E+03   -0.80793E-03   -0.80729E-03   132   0.290E-01    0.784E-02
DAV:   3    -0.101351995700E+03   -0.20012E-04   -0.20346E-04   120   0.568E-02    0.384E-02
DAV:   4    -0.101352018731E+03   -0.23031E-04   -0.63775E-05   120   0.336E-02    0.895E-03
DAV:   5    -0.101352022117E+03   -0.33857E-05   -0.15234E-05   132   0.144E-02    0.629E-03
DAV:   6    -0.101352025641E+03   -0.35241E-05   -0.27799E-06   132   0.532E-03    0.343E-03
DAV:   7    -0.101352031195E+03   -0.55541E-05   -0.43259E-07   108   0.264E-03    0.117E-03
DAV:   8    -0.101352036883E+03   -0.56882E-05   -0.41587E-07   108   0.234E-03    0.761E-04
DAV:   9    -0.101352045629E+03   -0.87464E-05   -0.49040E-07    96   0.252E-03    0.277E-04
DAV:  10    -0.101352048298E+03   -0.26690E-05   -0.20365E-07   108   0.138E-03    0.344E-04
DAV:  11    -0.101352049276E+03   -0.97802E-06   -0.17075E-08   120   0.550E-04
  28 F= -.10135205E+03 E0= -.10135205E+03  d E =-.613148E-10
       N       E                     dE             d eps       ncg     rms          rms(c)
DAV:   1    -0.101350082009E+03    0.19663E-02   -0.34617E-01    96   0.180E+00    0.220E-01
DAV:   2    -0.101352449274E+03   -0.23673E-02   -0.23919E-02   132   0.546E-01    0.160E-01
DAV:   3    -0.101352369530E+03    0.79744E-04   -0.47241E-04   132   0.911E-02    0.932E-02
DAV:   4    -0.101352360004E+03    0.95261E-05   -0.32428E-04   132   0.720E-02    0.152E-02
DAV:   5    -0.101352357070E+03    0.29347E-05   -0.87449E-05   132   0.340E-02    0.128E-02
DAV:   6    -0.101352360406E+03   -0.33363E-05   -0.14976E-05   132   0.125E-02    0.853E-03
DAV:   7    -0.101352378796E+03   -0.18390E-04   -0.43407E-06   132   0.716E-03    0.351E-03
DAV:   8    -0.101352404843E+03   -0.26048E-04   -0.24667E-06   120   0.485E-03    0.116E-03
DAV:   9    -0.101352429087E+03   -0.24244E-04   -0.26265E-06   120   0.402E-03    0.158E-03
DAV:  10    -0.101352447809E+03   -0.18723E-04   -0.16689E-06   120   0.301E-03    0.775E-04
DAV:  11    -0.101352455912E+03   -0.81026E-05   -0.44951E-07   108   0.157E-03    0.231E-04
DAV:  12    -0.101352460300E+03   -0.43876E-05   -0.20680E-07   108   0.947E-04    0.236E-04
DAV:  13    -0.101352462785E+03   -0.24859E-05   -0.73451E-08   108   0.608E-04    0.158E-04
DAV:  14    -0.101352463982E+03   -0.11963E-05   -0.23306E-08   108   0.382E-04    0.780E-05
DAV:  15    -0.101352464495E+03   -0.51275E-06   -0.23028E-09   108   0.215E-04
  29 F= -.10135246E+03 E0= -.10135246E+03  d E =-.644916E-10
       N       E                     dE             d eps       ncg     rms          rms(c)
DAV:   1    -0.101350784000E+03    0.16800E-02   -0.17010E-01    96   0.131E+00    0.154E-01
DAV:   2    -0.101351852963E+03   -0.10690E-02   -0.10992E-02   120   0.369E-01    0.107E-01
DAV:   3    -0.101351821588E+03    0.31375E-04   -0.22902E-04   132   0.617E-02    0.574E-02
DAV:   4    -0.101351809002E+03    0.12586E-04   -0.10577E-04   132   0.398E-02    0.974E-03
DAV:   5    -0.101351802630E+03    0.63713E-05   -0.19036E-05   132   0.171E-02    0.626E-03
DAV:   6    -0.101351803012E+03   -0.38146E-06   -0.46215E-06   132   0.752E-03
  30 F= -.10135180E+03 E0= -.10135180E+03  d E =-.778630E-10
       N       E                     dE             d eps       ncg     rms          rms(c)
DAV:   1    -0.101349460035E+03    0.23426E-02   -0.35078E-01    96   0.184E+00    0.234E-01
DAV:   2    -0.101351842110E+03   -0.23821E-02   -0.23788E-02   132   0.546E-01    0.168E-01
DAV:   3    -0.101351785496E+03    0.56614E-04   -0.52294E-04   144   0.972E-02    0.884E-02
DAV:   4    -0.101351775040E+03    0.10456E-04   -0.32449E-04   132   0.670E-02    0.159E-02
DAV:   5    -0.101351764961E+03    0.10079E-04   -0.57522E-05   144   0.281E-02    0.108E-02
DAV:   6    -0.101351769018E+03   -0.40572E-05   -0.16251E-05   132   0.120E-02    0.629E-03
DAV:   7    -0.101351790269E+03   -0.21251E-04   -0.28598E-06   132   0.596E-03    0.256E-03
DAV:   8    -0.101351819431E+03   -0.29162E-04   -0.33607E-06   120   0.546E-03    0.117E-03
DAV:   9    -0.101351841675E+03   -0.22244E-04   -0.25743E-06   120   0.389E-03    0.152E-03
DAV:  10    -0.101351860181E+03   -0.18506E-04   -0.15003E-06   120   0.292E-03    0.408E-04
DAV:  11    -0.101351866532E+03   -0.63505E-05   -0.33379E-07   108   0.139E-03    0.353E-04
DAV:  12    -0.101351871763E+03   -0.52316E-05   -0.25085E-07   108   0.104E-03    0.227E-04
DAV:  13    -0.101351873638E+03   -0.18746E-05   -0.60039E-08   108   0.547E-04    0.140E-04
DAV:  14    -0.101351875176E+03   -0.15377E-05   -0.31419E-08   108   0.447E-04    0.540E-05
DAV:  15    -0.101351875702E+03   -0.52670E-06   -0.47339E-09   108   0.236E-04
  31 F= -.10135188E+03 E0= -.10135188E+03  d E =-.507554E-10
       N       E                     dE             d eps       ncg     rms          rms(c)
DAV:   1    -0.101350896631E+03    0.97854E-03   -0.18416E-01    96   0.134E+00    0.161E-01
DAV:   2    -0.101352169499E+03   -0.12729E-02   -0.14363E-02   120   0.411E-01    0.109E-01
DAV:   3    -0.101352115037E+03    0.54462E-04   -0.25888E-04   156   0.622E-02    0.646E-02
DAV:   4    -0.101352083625E+03    0.31413E-04   -0.11653E-04   132   0.429E-02    0.999E-03
DAV:   5    -0.101352073621E+03    0.10004E-04   -0.27946E-05   144   0.197E-02    0.672E-03
DAV:   6    -0.101352071971E+03    0.16494E-05   -0.60826E-06   132   0.837E-03    0.430E-03
DAV:   7    -0.101352083690E+03   -0.11719E-04   -0.24884E-06   132   0.559E-03    0.169E-03
DAV:   8    -0.101352100615E+03   -0.16924E-04   -0.12172E-06   120   0.383E-03    0.114E-03
DAV:   9    -0.101352117250E+03   -0.16635E-04   -0.88554E-07   108   0.268E-03    0.102E-03
DAV:  10    -0.101352134770E+03   -0.17520E-04   -0.10038E-06   120   0.218E-03    0.341E-04
DAV:  11    -0.101352140451E+03   -0.56814E-05   -0.12246E-07   120   0.906E-04    0.308E-04
DAV:  12    -0.101352146774E+03   -0.63233E-05   -0.13829E-07   108   0.849E-04    0.131E-04
DAV:  13    -0.101352148871E+03   -0.20962E-05   -0.35757E-08   108   0.466E-04    0.108E-04
DAV:  14    -0.101352150945E+03   -0.20746E-05   -0.17233E-08   108   0.348E-04    0.414E-05
DAV:  15    -0.101352151600E+03   -0.65474E-06   -0.36113E-09   108   0.204E-04
  32 F= -.10135215E+03 E0= -.10135215E+03  d E =-.699515E-10
       N       E                     dE             d eps       ncg     rms          rms(c)
DAV:   1    -0.101350778149E+03    0.13728E-02   -0.39981E-01   120   0.169E+00    0.214E-01
DAV:   2    -0.101352247906E+03   -0.14698E-02   -0.18214E-02   132   0.398E-01    0.126E-01
DAV:   3    -0.101352134488E+03    0.11342E-03   -0.28566E-04   132   0.598E-02    0.666E-02
DAV:   4    -0.101352077635E+03    0.56853E-04   -0.12185E-04   132   0.420E-02    0.111E-02
DAV:   5    -0.101352073576E+03    0.40591E-05   -0.25314E-05   132   0.189E-02    0.771E-03
DAV:   6    -0.101352086544E+03   -0.12968E-04   -0.10808E-05   132   0.873E-03    0.426E-03
DAV:   7    -0.101352109425E+03   -0.22881E-04   -0.15303E-06   120   0.383E-03    0.222E-03
DAV:   8    -0.101352148264E+03   -0.38839E-04   -0.44434E-06   132   0.452E-03    0.131E-03
DAV:   9    -0.101352166846E+03   -0.18582E-04   -0.11580E-06   120   0.249E-03    0.963E-04
DAV:  10    -0.101352190210E+03   -0.23365E-04   -0.21023E-06   108   0.280E-03    0.329E-04
DAV:  11    -0.101352197580E+03   -0.73697E-05   -0.28020E-07   108   0.123E-03    0.355E-04
DAV:  12    -0.101352204221E+03   -0.66413E-05   -0.30180E-07    84   0.111E-03    0.129E-04
DAV:  13    -0.101352205933E+03   -0.17112E-05   -0.54505E-08   108   0.500E-04    0.976E-05
DAV:  14    -0.101352207496E+03   -0.15635E-05   -0.18455E-08   108   0.360E-04    0.540E-05
DAV:  15    -0.101352207968E+03   -0.47190E-06   -0.16766E-09   108   0.194E-04
  33 F= -.10135221E+03 E0= -.10135221E+03  d E =-.548004E-10
       N       E                     dE             d eps       ncg     rms          rms(c)
DAV:   1    -0.101351772507E+03    0.43499E-03   -0.20249E-01    96   0.118E+00    0.150E-01
DAV:   2    -0.101352493806E+03   -0.72130E-03   -0.88821E-03   132   0.272E-01    0.782E-02
DAV:   3    -0.101352450640E+03    0.43166E-04   -0.15189E-04   132   0.415E-02    0.408E-02
DAV:   4    -0.101352423187E+03    0.27454E-04   -0.43238E-05   132   0.255E-02    0.819E-03
DAV:   5    -0.101352416326E+03    0.68602E-05   -0.91222E-06   132   0.120E-02    0.487E-03
DAV:   6    -0.101352417642E+03   -0.13162E-05   -0.32771E-06   132   0.587E-03    0.265E-03
DAV:   7    -0.101352424929E+03   -0.72862E-05   -0.73983E-07   108   0.355E-03    0.128E-03
DAV:   8    -0.101352437016E+03   -0.12087E-04   -0.10082E-06   120   0.307E-03    0.931E-04
DAV:   9    -0.101352450578E+03   -0.13563E-04   -0.83299E-07   120   0.234E-03    0.473E-04
DAV:  10    -0.101352458280E+03   -0.77020E-05   -0.24637E-07   108   0.125E-03    0.313E-04
DAV:  11    -0.101352463948E+03   -0.56680E-05   -0.13652E-07   108   0.772E-04    0.165E-04
DAV:  12    -0.101352468525E+03   -0.45766E-05   -0.11615E-07   108   0.663E-04    0.103E-04
DAV:  13    -0.101352470287E+03   -0.17620E-05   -0.19056E-08   108   0.333E-04    0.550E-05
DAV:  14    -0.101352471536E+03   -0.12496E-05   -0.13577E-08   108   0.264E-04    0.360E-05
DAV:  15    -0.101352471997E+03   -0.46038E-06    0.21318E-09   108   0.146E-04
  34 F= -.10135247E+03 E0= -.10135247E+03  d E =-.661200E-10
       N       E                     dE             d eps       ncg     rms          rms(c)
DAV:   1    -0.101351120342E+03    0.13512E-02   -0.40206E-01    96   0.165E+00    0.214E-01
DAV:   2    -0.101352630411E+03   -0.15101E-02   -0.18732E-02   132   0.395E-01    0.118E-01
DAV:   3    -0.101352528009E+03    0.10240E-03   -0.28942E-04   132   0.573E-02    0.633E-02
DAV:   4    -0.101352455280E+03    0.72730E-04   -0.10005E-04   132   0.372E-02    0.117E-02
DAV:   5    -0.101352451074E+03    0.42059E-05   -0.18324E-05   132   0.168E-02    0.711E-03
DAV:   6    -0.101352468183E+03   -0.17109E-04   -0.84612E-06   132   0.938E-03    0.368E-03
DAV:   7    -0.101352497017E+03   -0.28834E-04   -0.36968E-06   132   0.612E-03    0.214E-03
DAV:   8    -0.101352534376E+03   -0.37359E-04   -0.34006E-06   132   0.453E-03    0.113E-03
DAV:   9    -0.101352558678E+03   -0.24302E-04   -0.21979E-06   120   0.331E-03    0.863E-04
DAV:  10    -0.101352578626E+03   -0.19948E-04   -0.16828E-06   108   0.258E-03    0.387E-04
DAV:  11    -0.101352586245E+03   -0.76190E-05   -0.34022E-07   108   0.125E-03    0.287E-04
DAV:  12    -0.101352592502E+03   -0.62568E-05   -0.35927E-07    84   0.112E-03    0.162E-04
DAV:  13    -0.101352593982E+03   -0.14799E-05   -0.49497E-08   108   0.483E-04    0.816E-05
DAV:  14    -0.101352595021E+03   -0.10392E-05   -0.13453E-08   108   0.326E-04    0.555E-05
DAV:  15    -0.101352595395E+03   -0.37406E-06   -0.17543E-10   108   0.181E-04
  35 F= -.10135260E+03 E0= -.10135260E+03  d E =-.521655E-10
       N       E                     dE             d eps       ncg     rms          rms(c)
DAV:   1    -0.101352915088E+03   -0.32007E-03   -0.20416E-01   120   0.117E+00    0.142E-01
DAV:   2    -0.101353556308E+03   -0.64122E-03   -0.78009E-03   120   0.259E-01    0.698E-02
DAV:   3    -0.101353528201E+03    0.28107E-04   -0.14675E-04   132   0.439E-02    0.362E-02
DAV:   4    -0.101353514823E+03    0.13378E-04   -0.41215E-05   132   0.297E-02    0.766E-03
DAV:   5    -0.101353512395E+03    0.24278E-05   -0.14271E-05   132   0.142E-02    0.601E-03
DAV:   6    -0.101353512902E+03   -0.50714E-06   -0.22302E-06   132   0.466E-03
  36 F= -.10135351E+03 E0= -.10135351E+03  d E =-.751090E-10
       N       E                     dE             d eps       ncg     rms          rms(c)
DAV:   1    -0.101351987663E+03    0.15247E-02   -0.40621E-01    96   0.162E+00    0.182E-01
DAV:   2    -0.101353315776E+03   -0.13281E-02   -0.16028E-02   132   0.345E-01    0.925E-02
DAV:   3    -0.101353282750E+03    0.33026E-04   -0.30498E-04   132   0.610E-02    0.477E-02
DAV:   4    -0.101353266073E+03    0.16677E-04   -0.71648E-05   132   0.389E-02    0.102E-02
DAV:   5    -0.101353263100E+03    0.29728E-05   -0.24146E-05   132   0.189E-02    0.787E-03
DAV:   6    -0.101353265549E+03   -0.24480E-05   -0.39033E-06   132   0.634E-03    0.524E-03
DAV:   7    -0.101353272845E+03   -0.72963E-05   -0.76542E-07   108   0.381E-03    0.183E-03
DAV:   8    -0.101353282359E+03   -0.95142E-05   -0.10809E-06   120   0.356E-03    0.130E-03
DAV:   9    -0.101353299570E+03   -0.17211E-04   -0.12253E-06   120   0.356E-03    0.614E-04
DAV:  10    -0.101353306594E+03   -0.70243E-05   -0.44862E-07   108   0.208E-03    0.692E-04
DAV:  11    -0.101353309539E+03   -0.29447E-05   -0.69806E-08   108   0.892E-04    0.500E-04
DAV:  12    -0.101353316513E+03   -0.69743E-05   -0.25463E-07   108   0.112E-03    0.281E-04
DAV:  13    -0.101353318280E+03   -0.17674E-05   -0.46819E-08   108   0.525E-04    0.312E-04
DAV:  14    -0.101353320138E+03   -0.18580E-05   -0.31686E-08   108   0.438E-04    0.661E-05
DAV:  15    -0.101353320888E+03   -0.74984E-06   -0.76659E-09   108   0.260E-04
  37 F= -.10135332E+03 E0= -.10135332E+03  d E =-.604937E-10
       N       E                     dE             d eps       ncg     rms          rms(c)
DAV:   1    -0.101351829920E+03    0.14902E-02   -0.19728E-01    96   0.131E+00    0.144E-01
DAV:   2    -0.101352871011E+03   -0.10411E-02   -0.12475E-02   132   0.321E-01    0.789E-02
DAV:   3    -0.101352828490E+03    0.42521E-04   -0.23241E-04   144   0.520E-02    0.440E-02
DAV:   4    -0.101352798571E+03    0.29919E-04   -0.54875E-05   132   0.321E-02    0.944E-03
DAV:   5    -0.101352791003E+03    0.75679E-05   -0.17747E-05   132   0.164E-02    0.595E-03
DAV:   6    -0.101352793468E+03   -0.24653E-05   -0.31838E-06   132   0.626E-03    0.397E-03
DAV:   7    -0.101352803448E+03   -0.99797E-05   -0.11066E-06   120   0.384E-03    0.149E-03
DAV:   8    -0.101352815610E+03   -0.12162E-04   -0.92017E-07   108   0.322E-03    0.976E-04
DAV:   9    -0.101352832180E+03   -0.16570E-04   -0.15476E-06   108   0.307E-03    0.665E-04
DAV:  10    -0.101352841100E+03   -0.89202E-05   -0.60390E-07   108   0.205E-03    0.460E-04
DAV:  11    -0.101352844355E+03   -0.32547E-05   -0.13823E-07   108   0.975E-04    0.327E-04
DAV:  12    -0.101352848415E+03   -0.40598E-05   -0.17769E-07   108   0.935E-04    0.167E-04
DAV:  13    -0.101352849467E+03   -0.10518E-05   -0.33100E-08   108   0.435E-04    0.135E-04
DAV:  14    -0.101352850690E+03   -0.12237E-05   -0.29556E-08   108   0.380E-04    0.484E-05
DAV:  15    -0.101352851095E+03   -0.40432E-06   -0.28553E-09   108   0.212E-04
  38 F= -.10135285E+03 E0= -.10135285E+03  d E =-.498854E-10
       N       E                     dE             d eps       ncg     rms          rms(c)
DAV:   1    -0.101350794591E+03    0.20561E-02   -0.39331E-01    96   0.181E+00    0.203E-01
DAV:   2    -0.101352392688E+03   -0.15981E-02   -0.19425E-02   132   0.421E-01    0.122E-01
DAV:   3    -0.101352257742E+03    0.13495E-03   -0.31700E-04   132   0.665E-02    0.641E-02
DAV:   4    -0.101352209591E+03    0.48151E-04   -0.15658E-04   132   0.472E-02    0.119E-02
DAV:   5    -0.101352198281E+03    0.11310E-04   -0.29443E-05   132   0.204E-02    0.773E-03
DAV:   6    -0.101352200854E+03   -0.25730E-05   -0.74054E-06   132   0.811E-03    0.453E-03
DAV:   7    -0.101352215221E+03   -0.14367E-04   -0.16259E-06   132   0.420E-03    0.185E-03
DAV:   8    -0.101352236207E+03   -0.20986E-04   -0.13894E-06   120   0.331E-03    0.124E-03
DAV:   9    -0.101352256509E+03   -0.20302E-04   -0.10574E-06   108   0.234E-03    0.847E-04
DAV:  10    -0.101352275441E+03   -0.18931E-04   -0.11242E-06   120   0.204E-03    0.424E-04
DAV:  11    -0.101352280180E+03   -0.47394E-05   -0.68724E-08   108   0.790E-04    0.286E-04
DAV:  12    -0.101352288362E+03   -0.81816E-05   -0.26178E-07   108   0.106E-03    0.155E-04
DAV:  13    -0.101352290234E+03   -0.18724E-05   -0.33452E-08   108   0.466E-04    0.104E-04
DAV:  14    -0.101352292153E+03   -0.19188E-05   -0.18116E-08   108   0.370E-04    0.501E-05
DAV:  15    -0.101352292735E+03   -0.58261E-06   -0.14060E-09   108   0.198E-04
  39 F= -.10135229E+03 E0= -.10135229E+03  d E =-.856158E-10
       N       E                     dE             d eps       ncg     rms          rms(c)
DAV:   1    -0.101353009857E+03   -0.71770E-03   -0.20034E-01   108   0.128E+00    0.155E-01
DAV:   2    -0.101353740851E+03   -0.73099E-03   -0.89044E-03   120   0.294E-01    0.798E-02
DAV:   3    -0.101353682968E+03    0.57883E-04   -0.17176E-04   144   0.492E-02    0.417E-02
DAV:   4    -0.101353660961E+03    0.22007E-04   -0.70263E-05   132   0.319E-02    0.864E-03
DAV:   5    -0.101353656499E+03    0.44617E-05   -0.13409E-05   132   0.139E-02    0.557E-03
DAV:   6    -0.101353658832E+03   -0.23327E-05   -0.32223E-06   132   0.566E-03    0.303E-03
DAV:   7    -0.101353667088E+03   -0.82564E-05   -0.74354E-07   108   0.293E-03    0.121E-03
DAV:   8    -0.101353677294E+03   -0.10206E-04   -0.85271E-07   120   0.242E-03    0.797E-04
DAV:   9    -0.101353687663E+03   -0.10369E-04   -0.69001E-07   120   0.198E-03    0.518E-04
DAV:  10    -0.101353696077E+03   -0.84141E-05   -0.64362E-07   120   0.162E-03    0.288E-04
DAV:  11    -0.101353698084E+03   -0.20069E-05   -0.41878E-08   108   0.642E-04    0.189E-04
DAV:  12    -0.101353701267E+03   -0.31824E-05   -0.12713E-07   108   0.748E-04    0.100E-04
DAV:  13    -0.101353702292E+03   -0.10251E-05   -0.27227E-08   108   0.371E-04    0.850E-05
DAV:  14    -0.101353703114E+03   -0.82244E-06   -0.68585E-09   108   0.257E-04
  40 F= -.10135370E+03 E0= -.10135370E+03  d E =-.130621E-10
       N       E                     dE             d eps       ncg     rms          rms(c)
DAV:   1    -0.101352388554E+03    0.13137E-02   -0.40760E-01    96   0.178E+00    0.192E-01
DAV:   2    -0.101353679475E+03   -0.12909E-02   -0.15347E-02   132   0.359E-01    0.843E-02
DAV:   3    -0.101353622341E+03    0.57134E-04   -0.32697E-04   132   0.640E-02    0.429E-02
DAV:   4    -0.101353608391E+03    0.13950E-04   -0.80040E-05   132   0.372E-02    0.122E-02
DAV:   5    -0.101353605534E+03    0.28572E-05   -0.19788E-05   132   0.176E-02    0.701E-03
DAV:   6    -0.101353606749E+03   -0.12150E-05   -0.41227E-06   132   0.714E-03    0.388E-03
DAV:   7    -0.101353610400E+03   -0.36513E-05   -0.45483E-07   108   0.288E-03    0.132E-03
DAV:   8    -0.101353615022E+03   -0.46216E-05   -0.36708E-07   108   0.249E-03    0.773E-04
DAV:   9    -0.101353623951E+03   -0.89295E-05   -0.71153E-07   108   0.303E-03    0.343E-04
DAV:  10    -0.101353627978E+03   -0.40267E-05   -0.40543E-07   108   0.184E-03    0.431E-04
DAV:  11    -0.101353629552E+03   -0.15744E-05   -0.35021E-08   108   0.752E-04    0.306E-04
DAV:  12    -0.101353632462E+03   -0.29098E-05   -0.77737E-08   108   0.744E-04    0.123E-04
DAV:  13    -0.101353634112E+03   -0.16500E-05   -0.49839E-08   108   0.504E-04    0.177E-04
DAV:  14    -0.101353635122E+03   -0.10098E-05   -0.11647E-08   108   0.328E-04    0.424E-05
DAV:  15    -0.101353635568E+03   -0.44633E-06   -0.22667E-09   108   0.200E-04
  41 F= -.10135364E+03 E0= -.10135364E+03  d E =-.173680E-10
       N       E                     dE             d eps       ncg     rms          rms(c)
DAV:   1    -0.101352844225E+03    0.79090E-03   -0.20411E-01    96   0.128E+00    0.147E-01
DAV:   2    -0.101353445882E+03   -0.60166E-03   -0.73132E-03   132   0.264E-01    0.621E-02
DAV:   3    -0.101353413670E+03    0.32212E-04   -0.16267E-04   132   0.453E-02    0.318E-02
DAV:   4    -0.101353404874E+03    0.87959E-05   -0.40675E-05   132   0.262E-02    0.913E-03
DAV:   5    -0.101353402908E+03    0.19669E-05   -0.10443E-05   132   0.128E-02    0.530E-03
DAV:   6    -0.101353403296E+03   -0.38866E-06   -0.20133E-06   120   0.538E-03
  42 F= -.10135340E+03 E0= -.10135340E+03  d E =-.400662E-10
       N       E                     dE             d eps       ncg     rms          rms(c)
DAV:   1    -0.101352107873E+03    0.12950E-02   -0.40429E-01    96   0.184E+00    0.219E-01
DAV:   2    -0.101353357145E+03   -0.12493E-02   -0.15213E-02   132   0.386E-01    0.950E-02
DAV:   3    -0.101353291184E+03    0.65961E-04   -0.34198E-04   144   0.664E-02    0.482E-02
DAV:   4    -0.101353272927E+03    0.18257E-04   -0.91761E-05   132   0.390E-02    0.124E-02
DAV:   5    -0.101353267268E+03    0.56593E-05   -0.21319E-05   132   0.180E-02    0.720E-03
DAV:   6    -0.101353268354E+03   -0.10859E-05   -0.40493E-06   132   0.689E-03    0.435E-03
DAV:   7    -0.101353273683E+03   -0.53293E-05   -0.53979E-07   108   0.281E-03    0.165E-03
DAV:   8    -0.101353280019E+03   -0.63362E-05   -0.53168E-07   108   0.258E-03    0.871E-04
DAV:   9    -0.101353289495E+03   -0.94760E-05   -0.74549E-07   120   0.263E-03    0.619E-04
DAV:  10    -0.101353296553E+03   -0.70579E-05   -0.52354E-07   108   0.199E-03    0.584E-04
DAV:  11    -0.101353298100E+03   -0.15467E-05   -0.87918E-08   108   0.959E-04    0.370E-04
DAV:  12    -0.101353300390E+03   -0.22902E-05   -0.59238E-08   108   0.686E-04    0.145E-04
DAV:  13    -0.101353302547E+03   -0.21567E-05   -0.87581E-08   108   0.612E-04    0.222E-04
DAV:  14    -0.101353303660E+03   -0.11135E-05   -0.24646E-08    96   0.372E-04    0.688E-05
DAV:  15    -0.101353304067E+03   -0.40642E-06   -0.26336E-10   108   0.194E-04
  43 F= -.10135330E+03 E0= -.10135330E+03  d E =-.936535E-10
       N       E                     dE             d eps       ncg     rms          rms(c)
DAV:   1    -0.101352118130E+03    0.11855E-02   -0.19871E-01    96   0.129E+00    0.155E-01
DAV:   2    -0.101353241064E+03   -0.11229E-02   -0.13253E-02   132   0.306E-01    0.718E-02
DAV:   3    -0.101353197822E+03    0.43242E-04   -0.28068E-04   144   0.556E-02    0.394E-02
DAV:   4    -0.101353181189E+03    0.16633E-04   -0.63120E-05   132   0.312E-02    0.108E-02
DAV:   5    -0.101353176819E+03    0.43699E-05   -0.15425E-05   132   0.154E-02    0.611E-03
DAV:   6    -0.101353177492E+03   -0.67293E-06   -0.28142E-06   132   0.631E-03
  44 F= -.10135318E+03 E0= -.10135318E+03  d E =-.918210E-11
       N       E                     dE             d eps       ncg     rms          rms(c)
DAV:   1    -0.101351896382E+03    0.12804E-02   -0.40482E-01    96   0.179E+00    0.191E-01
DAV:   2    -0.101353422854E+03   -0.15265E-02   -0.17897E-02   132   0.392E-01    0.100E-01
DAV:   3    -0.101353356841E+03    0.66013E-04   -0.31984E-04   132   0.641E-02    0.536E-02
DAV:   4    -0.101353330817E+03    0.26024E-04   -0.11640E-04   132   0.420E-02    0.118E-02
DAV:   5    -0.101353323478E+03    0.73391E-05   -0.25809E-05   132   0.194E-02    0.731E-03
DAV:   6    -0.101353324837E+03   -0.13590E-05   -0.54656E-06   132   0.776E-03    0.400E-03
DAV:   7    -0.101353331701E+03   -0.68644E-05   -0.94717E-07   108   0.359E-03    0.159E-03
DAV:   8    -0.101353340292E+03   -0.85907E-05   -0.77528E-07   120   0.277E-03    0.861E-04
DAV:   9    -0.101353351544E+03   -0.11252E-04   -0.80428E-07   120   0.241E-03    0.507E-04
DAV:  10    -0.101353360516E+03   -0.89722E-05   -0.73021E-07   120   0.192E-03    0.315E-04
DAV:  11    -0.101353363483E+03   -0.29669E-05   -0.79966E-08   108   0.893E-04    0.207E-04
DAV:  12    -0.101353366835E+03   -0.33518E-05   -0.13209E-07   108   0.768E-04    0.118E-04
DAV:  13    -0.101353368333E+03   -0.14985E-05   -0.40298E-08   108   0.429E-04    0.861E-05
DAV:  14    -0.101353369476E+03   -0.11428E-05   -0.17799E-08   108   0.308E-04    0.360E-05
DAV:  15    -0.101353369924E+03   -0.44750E-06   -0.17280E-09   108   0.185E-04
  45 F= -.10135337E+03 E0= -.10135337E+03  d E =-.281019E-10
       N       E                     dE             d eps       ncg     rms          rms(c)
DAV:   1    -0.101352292178E+03    0.10773E-02   -0.20299E-01    96   0.126E+00    0.142E-01
DAV:   2    -0.101352940791E+03   -0.64861E-03   -0.77896E-03   120   0.263E-01    0.605E-02
DAV:   3    -0.101352913654E+03    0.27137E-04   -0.17906E-04   132   0.476E-02    0.308E-02
DAV:   4    -0.101352905066E+03    0.85876E-05   -0.40948E-05   132   0.261E-02    0.855E-03
DAV:   5    -0.101352902608E+03    0.24581E-05   -0.99798E-06   132   0.124E-02    0.501E-03
DAV:   6    -0.101352902652E+03   -0.43311E-07   -0.19434E-06   120   0.506E-03
  46 F= -.10135290E+03 E0= -.10135290E+03  d E =-.654225E-11
       N       E                     dE             d eps       ncg     rms          rms(c)
DAV:   1    -0.101351049666E+03    0.18529E-02   -0.39507E-01    96   0.181E+00    0.212E-01
DAV:   2    -0.101352574960E+03   -0.15253E-02   -0.18331E-02   132   0.415E-01    0.118E-01
DAV:   3    -0.101352458503E+03    0.11646E-03   -0.32261E-04   132   0.670E-02    0.617E-02
DAV:   4    -0.101352421503E+03    0.37000E-04   -0.15928E-04   132   0.468E-02    0.126E-02
DAV:   5    -0.101352410919E+03    0.10584E-04   -0.28104E-05   132   0.199E-02    0.798E-03
DAV:   6    -0.101352410949E+03   -0.29830E-07   -0.67043E-06   132   0.783E-03
  47 F= -.10135241E+03 E0= -.10135241E+03  d E =-.328990E-10
       N       E                     dE             d eps       ncg     rms          rms(c)
DAV:   1    -0.101353066592E+03   -0.65567E-03   -0.20211E-01    96   0.130E+00    0.154E-01
DAV:   2    -0.101353744028E+03   -0.67744E-03   -0.80057E-03   132   0.285E-01    0.719E-02
DAV:   3    -0.101353719569E+03    0.24459E-04   -0.16208E-04   132   0.470E-02    0.374E-02
DAV:   4    -0.101353728072E+03   -0.85031E-05   -0.57353E-05   132   0.296E-02    0.921E-03
DAV:   5    -0.101353730204E+03   -0.21319E-05   -0.11239E-05   132   0.131E-02    0.580E-03
DAV:   6    -0.101353731738E+03   -0.15346E-05   -0.23193E-06   132   0.549E-03    0.299E-03
DAV:   7    -0.101353734086E+03   -0.23483E-05   -0.42635E-07   108   0.255E-03    0.111E-03
DAV:   8    -0.101353736163E+03   -0.20764E-05   -0.19453E-07   108   0.172E-03    0.489E-04
DAV:   9    -0.101353738965E+03   -0.28018E-05   -0.17400E-07   108   0.142E-03    0.325E-04
DAV:  10    -0.101353741598E+03   -0.26338E-05   -0.18067E-07   108   0.118E-03    0.174E-04
DAV:  11    -0.101353742608E+03   -0.10097E-05   -0.36212E-08   108   0.635E-04    0.167E-04
DAV:  12    -0.101353743457E+03   -0.84883E-06   -0.13652E-08   108   0.348E-04
  48 F= -.10135374E+03 E0= -.10135374E+03  d E =-.288282E-10
       N       E                     dE             d eps       ncg     rms          rms(c)
DAV:   1    -0.101352401352E+03    0.13413E-02   -0.40820E-01    96   0.184E+00    0.213E-01
DAV:   2    -0.101353526187E+03   -0.11248E-02   -0.13847E-02   132   0.361E-01    0.858E-02
DAV:   3    -0.101353466759E+03    0.59428E-04   -0.32458E-04   132   0.642E-02    0.439E-02
DAV:   4    -0.101353451660E+03    0.15100E-04   -0.76045E-05   132   0.367E-02    0.126E-02
DAV:   5    -0.101353449165E+03    0.24949E-05   -0.20222E-05   144   0.177E-02    0.760E-03
DAV:   6    -0.101353450264E+03   -0.10987E-05   -0.35135E-06   132   0.665E-03    0.441E-03
DAV:   7    -0.101353454021E+03   -0.37577E-05   -0.34109E-07   108   0.263E-03    0.151E-03
DAV:   8    -0.101353458683E+03   -0.46618E-05   -0.34780E-07   108   0.243E-03    0.795E-04
DAV:   9    -0.101353467454E+03   -0.87713E-05   -0.65018E-07    96   0.295E-03    0.463E-04
DAV:  10    -0.101353471476E+03   -0.40214E-05   -0.39253E-07   108   0.185E-03    0.548E-04
DAV:  11    -0.101353472592E+03   -0.11160E-05   -0.36843E-08   120   0.766E-04    0.430E-04
DAV:  12    -0.101353474816E+03   -0.22243E-05   -0.47413E-08   108   0.666E-04    0.118E-04
DAV:  13    -0.101353476491E+03   -0.16749E-05   -0.51399E-08   108   0.549E-04    0.246E-04
DAV:  14    -0.101353477425E+03   -0.93439E-06   -0.11596E-08   108   0.356E-04
  49 F= -.10135348E+03 E0= -.10135348E+03  d E =-.597454E-11
       N       E                     dE             d eps       ncg     rms          rms(c)
DAV:   1    -0.101352330791E+03    0.11457E-02   -0.20121E-01    96   0.132E+00    0.166E-01
DAV:   2    -0.101353241343E+03   -0.91055E-03   -0.10692E-02   120   0.298E-01    0.671E-02
DAV:   3    -0.101353212583E+03    0.28760E-04   -0.21156E-04   132   0.492E-02    0.370E-02
DAV:   4    -0.101353201960E+03    0.10623E-04   -0.51484E-05   144   0.255E-02    0.101E-02
DAV:   5    -0.101353199409E+03    0.25517E-05   -0.73726E-06   144   0.107E-02    0.606E-03
DAV:   6    -0.101353199553E+03   -0.14446E-06   -0.22354E-06   120   0.637E-03
  50 F= -.10135320E+03 E0= -.10135320E+03  d E =-.672017E-10
       N       E                     dE             d eps       ncg     rms          rms(c)
DAV:   1    -0.101352096100E+03    0.11033E-02   -0.41195E-01    96   0.175E+00    0.225E-01
DAV:   2    -0.101353416354E+03   -0.13203E-02   -0.15854E-02   132   0.380E-01    0.973E-02
DAV:   3    -0.101353344635E+03    0.71719E-04   -0.30754E-04   144   0.635E-02    0.512E-02
DAV:   4    -0.101353320284E+03    0.24351E-04   -0.97199E-05   120   0.398E-02    0.125E-02
DAV:   5    -0.101353313159E+03    0.71245E-05   -0.25241E-05   132   0.194E-02    0.747E-03
DAV:   6    -0.101353313788E+03   -0.62907E-06   -0.44067E-06   132   0.726E-03
  51 F= -.10135331E+03 E0= -.10135331E+03  d E =-.642711E-10
       N       E                     dE             d eps       ncg     rms          rms(c)
DAV:   1    -0.101351815097E+03    0.14981E-02   -0.19868E-01    96   0.122E+00    0.154E-01
DAV:   2    -0.101352582155E+03   -0.76706E-03   -0.91861E-03   132   0.280E-01    0.855E-02
DAV:   3    -0.101352530785E+03    0.51371E-04   -0.16210E-04   132   0.473E-02    0.437E-02
DAV:   4    -0.101352518925E+03    0.11860E-04   -0.75833E-05   120   0.321E-02    0.881E-03
DAV:   5    -0.101352513056E+03    0.58689E-05   -0.12484E-05   132   0.132E-02    0.540E-03
DAV:   6    -0.101352511953E+03    0.11030E-05   -0.31260E-06   132   0.520E-03    0.294E-03
DAV:   7    -0.101352514571E+03   -0.26180E-05   -0.62456E-07   108   0.270E-03    0.109E-03
DAV:   8    -0.101352519330E+03   -0.47587E-05   -0.44895E-07   108   0.195E-03    0.732E-04
DAV:   9    -0.101352526200E+03   -0.68696E-05   -0.39227E-07   108   0.149E-03    0.459E-04
DAV:  10    -0.101352532180E+03   -0.59807E-05   -0.32288E-07   108   0.114E-03    0.251E-04
DAV:  11    -0.101352534396E+03   -0.22161E-05   -0.43375E-08   108   0.550E-04    0.160E-04
DAV:  12    -0.101352537702E+03   -0.33057E-05   -0.95062E-08   108   0.641E-04    0.905E-05
DAV:  13    -0.101352538678E+03   -0.97577E-06   -0.15216E-08   108   0.313E-04
  52 F= -.10135254E+03 E0= -.10135254E+03  d E =-.684587E-10
       N       E                     dE             d eps       ncg     rms          rms(c)
DAV:   1    -0.101351695193E+03    0.84251E-03   -0.40630E-01    96   0.173E+00    0.220E-01
DAV:   2    -0.101353160425E+03   -0.14652E-02   -0.17819E-02   132   0.393E-01    0.113E-01
DAV:   3    -0.101353047494E+03    0.11293E-03   -0.32037E-04   132   0.656E-02    0.592E-02
DAV:   4    -0.101353003037E+03    0.44457E-04   -0.12336E-04   132   0.430E-02    0.124E-02
DAV:   5    -0.101352995516E+03    0.75213E-05   -0.25074E-05   132   0.190E-02    0.747E-03
DAV:   6    -0.101353002274E+03   -0.67576E-05   -0.58224E-06   132   0.730E-03    0.434E-03
DAV:   7    -0.101353019931E+03   -0.17657E-04   -0.17526E-06   132   0.394E-03    0.162E-03
DAV:   8    -0.101353037469E+03   -0.17539E-04   -0.12528E-06   120   0.286E-03    0.110E-03
DAV:   9    -0.101353057850E+03   -0.20381E-04   -0.17412E-06   120   0.280E-03    0.661E-04
DAV:  10    -0.101353072050E+03   -0.14200E-04   -0.12476E-06   120   0.216E-03    0.419E-04
DAV:  11    -0.101353075734E+03   -0.36838E-05   -0.86623E-08   108   0.845E-04    0.257E-04
DAV:  12    -0.101353081370E+03   -0.56360E-05   -0.27697E-07    96   0.105E-03    0.156E-04
DAV:  13    -0.101353082836E+03   -0.14664E-05   -0.43547E-08   108   0.463E-04    0.110E-04
DAV:  14    -0.101353084001E+03   -0.11646E-05   -0.12775E-08   108   0.320E-04    0.443E-05
DAV:  15    -0.101353084559E+03   -0.55768E-06   -0.42110E-09   108   0.212E-04
  53 F= -.10135308E+03 E0= -.10135308E+03  d E =-.608478E-10
       N       E                     dE             d eps       ncg     rms          rms(c)
DAV:   1    -0.101352945976E+03    0.13802E-03   -0.19816E-01    96   0.122E+00    0.145E-01
DAV:   2    -0.101353724140E+03   -0.77816E-03   -0.94627E-03   132   0.283E-01    0.831E-02
DAV:   3    -0.101353661238E+03    0.62902E-04   -0.15109E-04   132   0.457E-02    0.434E-02
DAV:   4    -0.101353635960E+03    0.25277E-04   -0.73825E-05   132   0.321E-02    0.857E-03
DAV:   5    -0.101353629934E+03    0.60265E-05   -0.14368E-05   132   0.141E-02    0.549E-03
DAV:   6    -0.101353630764E+03   -0.82976E-06   -0.34025E-06   132   0.557E-03
  54 F= -.10135363E+03 E0= -.10135363E+03  d E =-.599858E-10
       N       E                     dE             d eps       ncg     rms          rms(c)
DAV:   1    -0.101352000754E+03    0.16292E-02   -0.41151E-01    96   0.168E+00    0.180E-01
DAV:   2    -0.101353346233E+03   -0.13455E-02   -0.15817E-02   132   0.359E-01    0.924E-02
DAV:   3    -0.101353298808E+03    0.47425E-04   -0.30746E-04   132   0.618E-02    0.472E-02
DAV:   4    -0.101353295275E+03    0.35330E-05   -0.97617E-05   132   0.397E-02    0.112E-02
DAV:   5    -0.101353290202E+03    0.50733E-05   -0.21764E-05   132   0.178E-02    0.686E-03
DAV:   6    -0.101353289676E+03    0.52613E-06   -0.44622E-06   132   0.717E-03
  55 F= -.10135329E+03 E0= -.10135329E+03  d E =-.810626E-10
       N       E                     dE             d eps       ncg     rms          rms(c)
DAV:   1    -0.101352416290E+03    0.87391E-03   -0.20122E-01    96   0.126E+00    0.135E-01
DAV:   2    -0.101353442697E+03   -0.10264E-02   -0.11925E-02   132   0.301E-01    0.673E-02
DAV:   3    -0.101353432514E+03    0.10183E-04   -0.22435E-04   144   0.494E-02    0.383E-02
DAV:   4    -0.101353432736E+03   -0.22143E-06   -0.48733E-05   132   0.294E-02    0.887E-03
DAV:   5    -0.101353432539E+03    0.19663E-06   -0.12918E-05   132   0.141E-02    0.563E-03
DAV:   6    -0.101353434073E+03   -0.15340E-05   -0.23279E-06   132   0.535E-03    0.337E-03
DAV:   7    -0.101353437896E+03   -0.38233E-05   -0.56113E-07   108   0.283E-03    0.122E-03
DAV:   8    -0.101353442276E+03   -0.43791E-05   -0.38791E-07   108   0.216E-03    0.635E-04
DAV:   9    -0.101353447849E+03   -0.55731E-05   -0.35757E-07   108   0.181E-03    0.388E-04
DAV:  10    -0.101353451369E+03   -0.35206E-05   -0.25376E-07   108   0.130E-03    0.241E-04
DAV:  11    -0.101353453390E+03   -0.20202E-05   -0.71305E-08   108   0.722E-04    0.185E-04
DAV:  12    -0.101353454752E+03   -0.13623E-05   -0.37754E-08   108   0.459E-04    0.104E-04
DAV:  13    -0.101353455551E+03   -0.79880E-06   -0.16016E-08   108   0.296E-04
  56 F= -.10135346E+03 E0= -.10135346E+03  d E =-.622352E-10
       N       E                     dE             d eps       ncg     rms          rms(c)
DAV:   1    -0.101351999194E+03    0.14556E-02   -0.40861E-01   120   0.161E+00    0.172E-01
DAV:   2    -0.101353389146E+03   -0.13900E-02   -0.16779E-02   132   0.353E-01    0.911E-02
DAV:   3    -0.101353353462E+03    0.35684E-04   -0.28672E-04   132   0.619E-02    0.478E-02
DAV:   4    -0.101353329224E+03    0.24238E-04   -0.70629E-05   132   0.428E-02    0.917E-03
DAV:   5    -0.101353325844E+03    0.33802E-05   -0.32224E-05   132   0.211E-02    0.872E-03
DAV:   6    -0.101353326752E+03   -0.90788E-06   -0.36367E-06   132   0.590E-03
  57 F= -.10135333E+03 E0= -.10135333E+03  d E =-.581330E-11
       N       E                     dE             d eps       ncg     rms          rms(c)
DAV:   1    -0.101352054524E+03    0.12713E-02   -0.20021E-01    96   0.114E+00    0.134E-01
DAV:   2    -0.101352849453E+03   -0.79493E-03   -0.95008E-03   132   0.268E-01    0.821E-02
DAV:   3    -0.101352827294E+03    0.22159E-04   -0.13063E-04   132   0.383E-02    0.445E-02
DAV:   4    -0.101352801632E+03    0.25662E-04   -0.54595E-05   132   0.265E-02    0.737E-03
DAV:   5    -0.101352796407E+03    0.52247E-05   -0.97505E-06   144   0.119E-02    0.467E-03
DAV:   6    -0.101352800089E+03   -0.36815E-05   -0.41701E-06   132   0.594E-03    0.244E-03
DAV:   7    -0.101352809496E+03   -0.94070E-05   -0.11372E-06   120   0.344E-03    0.136E-03
DAV:   8    -0.101352823544E+03   -0.14048E-04   -0.11412E-06   120   0.263E-03    0.685E-04
DAV:   9    -0.101352834522E+03   -0.10978E-04   -0.92845E-07   120   0.206E-03    0.574E-04
DAV:  10    -0.101352844188E+03   -0.96660E-05   -0.76410E-07   120   0.165E-03    0.234E-04
DAV:  11    -0.101352847899E+03   -0.37107E-05   -0.15968E-07   108   0.818E-04    0.191E-04
DAV:  12    -0.101352850584E+03   -0.26852E-05   -0.14084E-07   108   0.688E-04    0.838E-05
DAV:  13    -0.101352851462E+03   -0.87843E-06   -0.23716E-08   108   0.337E-04
  58 F= -.10135285E+03 E0= -.10135285E+03  d E =-.258666E-10
       N       E                     dE             d eps       ncg     rms          rms(c)
DAV:   1    -0.101351075875E+03    0.17747E-02   -0.40155E-01    96   0.164E+00    0.186E-01
DAV:   2    -0.101352580037E+03   -0.15042E-02   -0.18716E-02   132   0.381E-01    0.111E-01
DAV:   3    -0.101352499453E+03    0.80584E-04   -0.27591E-04   132   0.547E-02    0.586E-02
DAV:   4    -0.101352439197E+03    0.60255E-04   -0.82037E-05   132   0.352E-02    0.103E-02
DAV:   5    -0.101352426990E+03    0.12207E-04   -0.18816E-05   132   0.169E-02    0.658E-03
DAV:   6    -0.101352430843E+03   -0.38529E-05   -0.78129E-06   132   0.868E-03    0.361E-03
DAV:   7    -0.101352445829E+03   -0.14986E-04   -0.21020E-06   132   0.516E-03    0.206E-03
DAV:   8    -0.101352471496E+03   -0.25667E-04   -0.17593E-06   120   0.386E-03    0.116E-03
DAV:   9    -0.101352494270E+03   -0.22774E-04   -0.16323E-06   120   0.305E-03    0.924E-04
DAV:  10    -0.101352514301E+03   -0.20032E-04   -0.93403E-07   120   0.209E-03    0.391E-04
DAV:  11    -0.101352523902E+03   -0.96004E-05   -0.23361E-07   108   0.104E-03    0.331E-04
DAV:  12    -0.101352531112E+03   -0.72102E-05   -0.18228E-07   108   0.816E-04    0.143E-04
DAV:  13    -0.101352534364E+03   -0.32523E-05   -0.50445E-08   108   0.458E-04    0.750E-05
DAV:  14    -0.101352536069E+03   -0.17050E-05   -0.12134E-08   108   0.300E-04    0.567E-05
DAV:  15    -0.101352536717E+03   -0.64798E-06   -0.88599E-10   108   0.180E-04
  59 F= -.10135254E+03 E0= -.10135254E+03  d E =-.798276E-11
       N       E                     dE             d eps       ncg     rms          rms(c)
DAV:   1    -0.101351207881E+03    0.13282E-02   -0.20174E-01   108   0.110E+00    0.144E-01
DAV:   2    -0.101351988812E+03   -0.78093E-03   -0.97268E-03   132   0.276E-01    0.870E-02
DAV:   3    -0.101351933143E+03    0.55669E-04   -0.13704E-04   132   0.410E-02    0.461E-02
DAV:   4    -0.101351900466E+03    0.32677E-04   -0.61575E-05   132   0.304E-02    0.749E-03
DAV:   5    -0.101351897673E+03    0.27932E-05   -0.14432E-05   132   0.138E-02    0.551E-03
DAV:   6    -0.101351902890E+03   -0.52170E-05   -0.53033E-06   132   0.602E-03    0.313E-03
DAV:   7    -0.101351914273E+03   -0.11383E-04   -0.66923E-07   108   0.264E-03    0.163E-03
DAV:   8    -0.101351936850E+03   -0.22578E-04   -0.26739E-06   120   0.332E-03    0.995E-04
DAV:   9    -0.101351948495E+03   -0.11645E-04   -0.64548E-07   108   0.191E-03    0.699E-04
DAV:  10    -0.101351961519E+03   -0.13024E-04   -0.11475E-06   120   0.191E-03    0.288E-04
DAV:  11    -0.101351966850E+03   -0.53307E-05   -0.21128E-07   108   0.105E-03    0.292E-04
DAV:  12    -0.101351969736E+03   -0.28861E-05   -0.87389E-08   108   0.649E-04    0.163E-04
DAV:  13    -0.101351971272E+03   -0.15356E-05   -0.38486E-08   108   0.426E-04    0.826E-05
DAV:  14    -0.101351971961E+03   -0.68924E-06   -0.26687E-09   108   0.236E-04
  60 F= -.10135197E+03 E0= -.10135197E+03  d E =-.488565E-11
       N       E                     dE             d eps       ncg     rms          rms(c)
DAV:   1    -0.101350532878E+03    0.14384E-02   -0.40233E-01   120   0.158E+00    0.202E-01
DAV:   2    -0.101352243428E+03   -0.17105E-02   -0.21224E-02   132   0.399E-01    0.131E-01
DAV:   3    -0.101352126368E+03    0.11706E-03   -0.27231E-04   132   0.564E-02    0.770E-02
DAV:   4    -0.101352059617E+03    0.66752E-04   -0.16817E-04   132   0.477E-02    0.111E-02
DAV:   5    -0.101352058141E+03    0.14760E-05   -0.39180E-05   132   0.224E-02    0.856E-03
DAV:   6    -0.101352070864E+03   -0.12723E-04   -0.14591E-05   132   0.964E-03    0.508E-03
DAV:   7    -0.101352096769E+03   -0.25905E-04   -0.28983E-06   132   0.503E-03    0.260E-03
DAV:   8    -0.101352144523E+03   -0.47754E-04   -0.63418E-06   132   0.522E-03    0.138E-03
DAV:   9    -0.101352166424E+03   -0.21901E-04   -0.17004E-06   120   0.282E-03    0.116E-03
DAV:  10    -0.101352191199E+03   -0.24774E-04   -0.22703E-06   120   0.292E-03    0.452E-04
DAV:  11    -0.101352200984E+03   -0.97858E-05   -0.55414E-07   108   0.154E-03    0.355E-04
DAV:  12    -0.101352206422E+03   -0.54372E-05   -0.29477E-07   108   0.103E-03    0.187E-04
DAV:  13    -0.101352208594E+03   -0.21720E-05   -0.62284E-08   108   0.544E-04    0.909E-05
DAV:  14    -0.101352209960E+03   -0.13669E-05   -0.22424E-08   108   0.365E-04    0.612E-05
DAV:  15    -0.101352210356E+03   -0.39520E-06   -0.17565E-10   108   0.175E-04
  61 F= -.10135221E+03 E0= -.10135221E+03  d E =-.374219E-10
       N       E                     dE             d eps       ncg     rms          rms(c)
DAV:   1    -0.101355375846E+03   -0.31659E-02   -0.21699E-01    96   0.136E+00    0.123E-01
DAV:   2    -0.101355702139E+03   -0.32629E-03   -0.54198E-03   132   0.216E-01    0.792E-02
DAV:   3    -0.101355637124E+03    0.65015E-04   -0.13438E-04   132   0.392E-02    0.363E-02
DAV:   4    -0.101355622060E+03    0.15063E-04   -0.60344E-05   132   0.264E-02    0.692E-03
DAV:   5    -0.101355619016E+03    0.30440E-05   -0.73700E-06   132   0.103E-02    0.484E-03
DAV:   6    -0.101355619845E+03   -0.82828E-06   -0.30820E-06   132   0.510E-03
  62 F= -.10135562E+03 E0= -.10135562E+03  d E =-.757134E-10
       N       E                     dE             d eps       ncg     rms          rms(c)
DAV:   1    -0.101355660011E+03   -0.40995E-04   -0.52792E-01    96   0.208E+00    0.175E-01
DAV:   2    -0.101355513925E+03    0.14609E-03   -0.26153E-03   132   0.160E-01    0.983E-02
DAV:   3    -0.101355379421E+03    0.13450E-03   -0.43401E-04   132   0.608E-02    0.183E-02
DAV:   4    -0.101355385741E+03   -0.63193E-05   -0.65998E-05   132   0.256E-02    0.946E-03
DAV:   5    -0.101355388363E+03   -0.26226E-05   -0.35272E-06   132   0.635E-03    0.599E-03
DAV:   6    -0.101355395292E+03   -0.69291E-05   -0.22616E-06   132   0.469E-03    0.140E-03
DAV:   7    -0.101355400211E+03   -0.49184E-05   -0.55637E-07   108   0.246E-03    0.110E-03
DAV:   8    -0.101355406098E+03   -0.58870E-05   -0.23065E-07   108   0.163E-03    0.536E-04
DAV:   9    -0.101355412467E+03   -0.63688E-05   -0.33961E-07   108   0.170E-03    0.411E-04
DAV:  10    -0.101355415871E+03   -0.34047E-05   -0.15548E-07   108   0.990E-04    0.207E-04
DAV:  11    -0.101355418145E+03   -0.22737E-05   -0.78875E-08   108   0.616E-04    0.206E-04
DAV:  12    -0.101355419233E+03   -0.10877E-05   -0.25316E-08   108   0.384E-04    0.853E-05
DAV:  13    -0.101355419998E+03   -0.76483E-06   -0.13201E-08   108   0.283E-04
  63 F= -.10135542E+03 E0= -.10135542E+03  d E =-.592613E-10
       N       E                     dE             d eps       ncg     rms          rms(c)
DAV:   1    -0.101354814450E+03    0.60478E-03   -0.27342E-01    96   0.151E+00    0.147E-01
DAV:   2    -0.101354750285E+03    0.64165E-04   -0.21326E-03   120   0.132E-01    0.796E-02
DAV:   3    -0.101354653337E+03    0.96948E-04   -0.25926E-04   132   0.413E-02    0.217E-02
DAV:   4    -0.101354647239E+03    0.60978E-05   -0.43388E-05   132   0.181E-02    0.779E-03
DAV:   5    -0.101354645965E+03    0.12746E-05   -0.40496E-06   132   0.688E-03    0.315E-03
DAV:   6    -0.101354647764E+03   -0.17996E-05   -0.19182E-06   132   0.418E-03    0.140E-03
DAV:   7    -0.101354651036E+03   -0.32717E-05   -0.40462E-07   108   0.214E-03    0.786E-04
DAV:   8    -0.101354654002E+03   -0.29659E-05   -0.17998E-07   108   0.136E-03    0.534E-04
DAV:   9    -0.101354658651E+03   -0.46492E-05   -0.30782E-07   108   0.135E-03    0.235E-04
DAV:  10    -0.101354661103E+03   -0.24517E-05   -0.12388E-07   108   0.855E-04    0.157E-04
DAV:  11    -0.101354662174E+03   -0.10714E-05   -0.14139E-08   120   0.356E-04    0.131E-04
DAV:  12    -0.101354664304E+03   -0.21299E-05   -0.46362E-08   108   0.423E-04    0.596E-05
DAV:  13    -0.101354664820E+03   -0.51606E-06   -0.58060E-09   108   0.211E-04
  64 F= -.10135466E+03 E0= -.10135466E+03  d E =-.625114E-10
       N       E                     dE             d eps       ncg     rms          rms(c)
DAV:   1    -0.101354608631E+03    0.55673E-04   -0.53868E-01    96   0.208E+00    0.197E-01
DAV:   2    -0.101354446511E+03    0.16212E-03   -0.36399E-03   120   0.169E-01    0.107E-01
DAV:   3    -0.101354243948E+03    0.20256E-03   -0.48437E-04   132   0.543E-02    0.276E-02
DAV:   4    -0.101354233710E+03    0.10238E-04   -0.65920E-05   132   0.232E-02    0.107E-02
DAV:   5    -0.101354237523E+03   -0.38136E-05   -0.71576E-06   132   0.897E-03    0.428E-03
DAV:   6    -0.101354246169E+03   -0.86457E-05   -0.32128E-06   132   0.528E-03    0.172E-03
DAV:   7    -0.101354257782E+03   -0.11613E-04   -0.97579E-07   120   0.294E-03    0.100E-03
DAV:   8    -0.101354266467E+03   -0.86848E-05   -0.48590E-07   108   0.201E-03    0.627E-04
DAV:   9    -0.101354277363E+03   -0.10896E-04   -0.11412E-06   108   0.214E-03    0.277E-04
DAV:  10    -0.101354280851E+03   -0.34880E-05   -0.18433E-07   108   0.113E-03    0.218E-04
DAV:  11    -0.101354282284E+03   -0.14338E-05   -0.43893E-08   120   0.486E-04    0.182E-04
DAV:  12    -0.101354285156E+03   -0.28719E-05   -0.13746E-07   108   0.711E-04    0.106E-04
DAV:  13    -0.101354285546E+03   -0.38931E-06   -0.14835E-08   120   0.286E-04
  65 F= -.10135429E+03 E0= -.10135429E+03  d E =-.609366E-10
       N       E                     dE             d eps       ncg     rms          rms(c)
DAV:   1    -0.101355778329E+03   -0.14932E-02   -0.27240E-01   108   0.146E+00    0.144E-01
DAV:   2    -0.101355693106E+03    0.85223E-04   -0.20181E-03   132   0.126E-01    0.786E-02
DAV:   3    -0.101355595118E+03    0.97988E-04   -0.28689E-04   132   0.441E-02    0.210E-02
DAV:   4    -0.101355592571E+03    0.25467E-05   -0.48242E-05   132   0.199E-02    0.785E-03
DAV:   5    -0.101355591862E+03    0.70868E-06   -0.29992E-06   120   0.589E-03
  66 F= -.10135559E+03 E0= -.10135559E+03  d E =-.699511E-10
       N       E                     dE             d eps       ncg     rms          rms(c)
DAV:   1    -0.101355830062E+03   -0.23749E-03   -0.53519E-01    96   0.203E+00    0.171E-01
DAV:   2    -0.101355672718E+03    0.15734E-03   -0.26556E-03   132   0.144E-01    0.976E-02
DAV:   3    -0.101355533080E+03    0.13964E-03   -0.47892E-04   132   0.593E-02    0.168E-02
DAV:   4    -0.101355538823E+03   -0.57433E-05   -0.73038E-05   132   0.251E-02    0.900E-03
DAV:   5    -0.101355538369E+03    0.45461E-06   -0.29524E-06   132   0.540E-03
  67 F= -.10135554E+03 E0= -.10135554E+03  d E =-.703431E-10
       N       E                     dE             d eps       ncg     rms          rms(c)
DAV:   1    -0.101356170447E+03   -0.63162E-03   -0.26511E-01    96   0.152E+00    0.119E-01
DAV:   2    -0.101356150138E+03    0.20309E-04   -0.14552E-03   132   0.116E-01    0.687E-02
DAV:   3    -0.101356092961E+03    0.57177E-04   -0.14816E-04   132   0.350E-02    0.108E-02
DAV:   4    -0.101356094597E+03   -0.16359E-05   -0.21635E-05   132   0.144E-02    0.453E-03
DAV:   5    -0.101356094859E+03   -0.26181E-06   -0.67286E-07   108   0.306E-03
[...]
DAV:   8    -0.101353903037E+03   -0.67175E-05   -0.38223E-07   108   0.185E-03    0.643E-04
DAV:   9    -0.101353911301E+03   -0.82642E-05   -0.68780E-07   120   0.183E-03    0.328E-04
DAV:  10    -0.101353915170E+03   -0.38689E-05   -0.21984E-07   108   0.116E-03    0.182E-04
DAV:  11    -0.101353917390E+03   -0.22204E-05   -0.10723E-07   108   0.685E-04    0.123E-04
DAV:  12    -0.101353918962E+03   -0.15721E-05   -0.51340E-08   108   0.478E-04    0.754E-05
DAV:  13    -0.101353919669E+03   -0.70708E-06   -0.15365E-08   108   0.308E-04
 129 F= -.10135392E+03 E0= -.10135392E+03  d E =-.553552E-10
       N       E                     dE             d eps       ncg     rms          rms(c)
DAV:   1    -0.101356361965E+03   -0.24430E-02   -0.26852E-01    96   0.167E+00    0.132E-01
DAV:   2    -0.101356316157E+03    0.45808E-04   -0.18269E-03   120   0.138E-01    0.733E-02
DAV:   3    -0.101356238462E+03    0.77694E-04   -0.23927E-04   132   0.434E-02    0.179E-02
DAV:   4    -0.101356236465E+03    0.19979E-05   -0.39235E-05   132   0.190E-02    0.763E-03
DAV:   5    -0.101356235804E+03    0.66002E-06   -0.22781E-06   120   0.573E-03
 130 F= -.10135624E+03 E0= -.10135624E+03  d E =-.483656E-10
       N       E                     dE             d eps       ncg     rms          rms(c)
DAV:   1    -0.101356110435E+03    0.12603E-03   -0.52520E-01    96   0.234E+00    0.155E-01
DAV:   2    -0.101356018363E+03    0.92072E-04   -0.20684E-03   132   0.148E-01    0.906E-02
DAV:   3    -0.101355927284E+03    0.91078E-04   -0.35300E-04   132   0.576E-02    0.113E-02
DAV:   4    -0.101355933379E+03   -0.60944E-05   -0.51130E-05   132   0.232E-02    0.754E-03
DAV:   5    -0.101355934185E+03   -0.80686E-06   -0.16660E-06   120   0.440E-03
 131 F= -.10135593E+03 E0= -.10135593E+03  d E =-.867482E-10
       N       E                     dE             d eps       ncg     rms          rms(c)
DAV:   1    -0.101355606683E+03    0.32670E-03   -0.26175E-01    96   0.165E+00    0.110E-01
DAV:   2    -0.101355557113E+03    0.49570E-04   -0.10408E-03   132   0.109E-01    0.637E-02
DAV:   3    -0.101355511896E+03    0.45217E-04   -0.16905E-04   132   0.414E-02    0.859E-03
DAV:   4    -0.101355514601E+03   -0.27042E-05   -0.25164E-05   132   0.167E-02    0.587E-03
DAV:   5    -0.101355514895E+03   -0.29439E-06   -0.76748E-07   108   0.320E-03
 132 F= -.10135551E+03 E0= -.10135551E+03  d E =-.734733E-10
       N       E                     dE             d eps       ncg     rms          rms(c)
DAV:   1    -0.101356023001E+03   -0.50840E-03   -0.52777E-01    96   0.235E+00    0.167E-01
DAV:   2    -0.101355927510E+03    0.95491E-04   -0.24969E-03   132   0.168E-01    0.949E-02
DAV:   3    -0.101355813675E+03    0.11383E-03   -0.37957E-04   132   0.603E-02    0.180E-02
DAV:   4    -0.101355817250E+03   -0.35753E-05   -0.65158E-05   120   0.262E-02    0.968E-03
DAV:   5    -0.101355816833E+03    0.41681E-06   -0.26547E-06   132   0.588E-03
 133 F= -.10135582E+03 E0= -.10135582E+03  d E =-.614018E-10
       N       E                     dE             d eps       ncg     rms          rms(c)
DAV:   1    -0.101355628003E+03    0.18925E-03   -0.27100E-01    96   0.208E+00    0.144E-01
DAV:   2    -0.101355575057E+03    0.52946E-04   -0.18745E-03   132   0.164E-01    0.780E-02
DAV:   3    -0.101355503507E+03    0.71550E-04   -0.17327E-04   132   0.430E-02    0.240E-02
DAV:   4    -0.101355503766E+03   -0.25854E-06   -0.47489E-05   132   0.217E-02    0.661E-03
DAV:   5    -0.101355503049E+03    0.71686E-06   -0.31556E-06   132   0.685E-03
 134 F= -.10135550E+03 E0= -.10135550E+03  d E =-.665861E-10
       N       E                     dE             d eps       ncg     rms          rms(c)
DAV:   1    -0.101355816016E+03   -0.31225E-03   -0.55363E-01    96   0.270E+00    0.235E-01
DAV:   2    -0.101355471465E+03    0.34455E-03   -0.32154E-03   132   0.211E-01    0.121E-01
DAV:   3    -0.101355257363E+03    0.21410E-03   -0.45936E-04   132   0.653E-02    0.386E-02
DAV:   4    -0.101355250399E+03    0.69636E-05   -0.10626E-04   132   0.320E-02    0.126E-02
DAV:   5    -0.101355250807E+03   -0.40785E-06   -0.68947E-06   132   0.109E-02
 135 F= -.10135525E+03 E0= -.10135525E+03  d E =-.618210E-10
       N       E                     dE             d eps       ncg     rms          rms(c)
DAV:   1    -0.101354610897E+03    0.63950E-03   -0.29014E-01   108   0.203E+00    0.213E-01
DAV:   2    -0.101354386120E+03    0.22478E-03   -0.25936E-03   132   0.190E-01    0.103E-01
DAV:   3    -0.101354239764E+03    0.14636E-03   -0.38510E-04   132   0.664E-02    0.374E-02
DAV:   4    -0.101354239306E+03    0.45813E-06   -0.12655E-04   132   0.364E-02    0.142E-02
DAV:   5    -0.101354237887E+03    0.14194E-05   -0.63090E-06   132   0.106E-02    0.637E-03
DAV:   6    -0.101354238020E+03   -0.13373E-06   -0.28481E-06   132   0.639E-03
 136 F= -.10135424E+03 E0= -.10135424E+03  d E =-.693227E-10
       N       E                     dE             d eps       ncg     rms          rms(c)
DAV:   1    -0.101355266816E+03   -0.10289E-02   -0.57411E-01    96   0.282E+00    0.276E-01
DAV:   2    -0.101354735915E+03    0.53090E-03   -0.46672E-03   132   0.263E-01    0.137E-01
DAV:   3    -0.101354439488E+03    0.29643E-03   -0.80646E-04   132   0.947E-02    0.462E-02
DAV:   4    -0.101354438570E+03    0.91814E-06   -0.20945E-04   132   0.484E-02    0.205E-02
DAV:   5    -0.101354438157E+03    0.41274E-06   -0.82903E-06   132   0.117E-02
 137 F= -.10135444E+03 E0= -.10135444E+03  d E =-.590111E-10
       N       E                     dE             d eps       ncg     rms          rms(c)
DAV:   1    -0.101355995024E+03   -0.15565E-02   -0.28835E-01    96   0.196E+00    0.206E-01
DAV:   2    -0.101355744859E+03    0.25017E-03   -0.24105E-03   132   0.185E-01    0.101E-01
DAV:   3    -0.101355604118E+03    0.14074E-03   -0.39057E-04   132   0.662E-02    0.345E-02
DAV:   4    -0.101355605627E+03   -0.15086E-05   -0.11336E-04   144   0.347E-02    0.134E-02
DAV:   5    -0.101355604815E+03    0.81166E-06   -0.50583E-06   132   0.953E-03
 138 F= -.10135560E+03 E0= -.10135560E+03  d E =-.671187E-10
       N       E                     dE             d eps       ncg     rms          rms(c)
DAV:   1    -0.101356013161E+03   -0.40753E-03   -0.54735E-01    96   0.273E+00    0.226E-01
DAV:   2    -0.101355701349E+03    0.31181E-03   -0.33728E-03   120   0.218E-01    0.120E-01
DAV:   3    -0.101355501915E+03    0.19943E-03   -0.48919E-04   132   0.702E-02    0.343E-02
DAV:   4    -0.101355504618E+03   -0.27027E-05   -0.94298E-05   144   0.314E-02    0.118E-02
DAV:   5    -0.101355504751E+03   -0.13280E-06   -0.55232E-06   132   0.952E-03
 139 F= -.10135550E+03 E0= -.10135550E+03  d E =-.664708E-10
       N       E                     dE             d eps       ncg     rms          rms(c)
DAV:   1    -0.101355431015E+03    0.73603E-04   -0.27643E-01    96   0.202E+00    0.167E-01
DAV:   2    -0.101355324305E+03    0.10671E-03   -0.18464E-03   132   0.154E-01    0.874E-02
DAV:   3    -0.101355231308E+03    0.92997E-04   -0.25588E-04   132   0.463E-02    0.273E-02
DAV:   4    -0.101355228196E+03    0.31128E-05   -0.43003E-05   144   0.197E-02    0.101E-02
DAV:   5    -0.101355226600E+03    0.15958E-05   -0.24785E-06   132   0.729E-03    0.493E-03
DAV:   6    -0.101355226582E+03    0.17475E-07   -0.22347E-06   132   0.587E-03
 140 F= -.10135523E+03 E0= -.10135523E+03  d E =-.633714E-10
       N       E                     dE             d eps       ncg     rms          rms(c)
DAV:   1    -0.101355663409E+03   -0.43681E-03   -0.55651E-01    96   0.272E+00    0.246E-01
DAV:   2    -0.101355310209E+03    0.35320E-03   -0.35274E-03   120   0.209E-01    0.124E-01
DAV:   3    -0.101355088801E+03    0.22141E-03   -0.48773E-04   132   0.663E-02    0.422E-02
DAV:   4    -0.101355078265E+03    0.10536E-04   -0.12025E-04   132   0.335E-02    0.128E-02
DAV:   5    -0.101355078510E+03   -0.24433E-06   -0.78290E-06   132   0.116E-02
 141 F= -.10135508E+03 E0= -.10135508E+03  d E =-.641628E-10
       N       E                     dE             d eps       ncg     rms          rms(c)
DAV:   1    -0.101354429011E+03    0.64925E-03   -0.27313E-01    96   0.186E+00    0.139E-01
DAV:   2    -0.101354294061E+03    0.13495E-03   -0.14789E-03   132   0.136E-01    0.787E-02
DAV:   3    -0.101354206911E+03    0.87150E-04   -0.25995E-04   132   0.529E-02    0.166E-02
DAV:   4    -0.101354212030E+03   -0.51186E-05   -0.49349E-05   132   0.237E-02    0.866E-03
DAV:   5    -0.101354212569E+03   -0.53938E-06   -0.10635E-06   108   0.435E-03
 142 F= -.10135421E+03 E0= -.10135421E+03  d E =-.677464E-10
       N       E                     dE             d eps       ncg     rms          rms(c)
DAV:   1    -0.101354734643E+03   -0.52261E-03   -0.58112E-01    96   0.276E+00    0.288E-01
DAV:   2    -0.101354198774E+03    0.53587E-03   -0.49101E-03   132   0.266E-01    0.143E-01
DAV:   3    -0.101353890280E+03    0.30849E-03   -0.85149E-04   132   0.982E-02    0.481E-02
DAV:   4    -0.101353890972E+03   -0.69244E-06   -0.23781E-04   132   0.503E-02    0.197E-02
DAV:   5    -0.101353888845E+03    0.21278E-05   -0.91895E-06   132   0.127E-02    0.824E-03
DAV:   6    -0.101353889169E+03   -0.32418E-06   -0.53043E-06   132   0.888E-03
 143 F= -.10135389E+03 E0= -.10135389E+03  d E =-.606305E-10
       N       E                     dE             d eps       ncg     rms          rms(c)
DAV:   1    -0.101356402683E+03   -0.25138E-02   -0.28150E-01    96   0.194E+00    0.168E-01
DAV:   2    -0.101356186793E+03    0.21589E-03   -0.19074E-03   132   0.162E-01    0.893E-02
DAV:   3    -0.101356072390E+03    0.11440E-03   -0.33059E-04   132   0.612E-02    0.252E-02
DAV:   4    -0.101356078083E+03   -0.56934E-05   -0.80868E-05   132   0.299E-02    0.116E-02
DAV:   5    -0.101356078345E+03   -0.26166E-06   -0.28306E-06   132   0.687E-03
 144 F= -.10135608E+03 E0= -.10135608E+03  d E =-.786811E-10
       N       E                     dE             d eps       ncg     rms          rms(c)
DAV:   1    -0.101356467613E+03   -0.38953E-03   -0.54202E-01    96   0.271E+00    0.201E-01
DAV:   2    -0.101356202859E+03    0.26475E-03   -0.29067E-03   132   0.186E-01    0.112E-01
DAV:   3    -0.101356026875E+03    0.17598E-03   -0.44504E-04   132   0.668E-02    0.241E-02
DAV:   4    -0.101356033145E+03   -0.62703E-05   -0.75721E-05   132   0.282E-02    0.890E-03
DAV:   5    -0.101356033512E+03   -0.36678E-06   -0.33120E-06   132   0.677E-03
 145 F= -.10135603E+03 E0= -.10135603E+03  d E =-.589279E-10
       N       E                     dE             d eps       ncg     rms          rms(c)
DAV:   1    -0.101355317224E+03    0.71592E-03   -0.27026E-01    96   0.201E+00    0.135E-01
DAV:   2    -0.101355258097E+03    0.59127E-04   -0.18589E-03   132   0.157E-01    0.763E-02
DAV:   3    -0.101355182942E+03    0.75155E-04   -0.22644E-04   132   0.492E-02    0.182E-02
DAV:   4    -0.101355186169E+03   -0.32270E-05   -0.46753E-05   132   0.222E-02    0.728E-03
DAV:   5    -0.101355186133E+03    0.36619E-07   -0.16171E-06   108   0.511E-03
 146 F= -.10135519E+03 E0= -.10135519E+03  d E =-.671606E-10
       N       E                     dE             d eps       ncg     rms          rms(c)
DAV:   1    -0.101355654845E+03   -0.46868E-03   -0.53539E-01    96   0.235E+00    0.177E-01
DAV:   2    -0.101355529176E+03    0.12567E-03   -0.32513E-03   120   0.173E-01    0.101E-01
DAV:   3    -0.101355370819E+03    0.15836E-03   -0.47421E-04   132   0.614E-02    0.202E-02
DAV:   4    -0.101355373363E+03   -0.25447E-05   -0.85174E-05   132   0.277E-02    0.101E-02
DAV:   5    -0.101355372351E+03    0.10124E-05   -0.28735E-06   132   0.566E-03    0.596E-03
DAV:   6    -0.101355373174E+03   -0.82319E-06   -0.23180E-06   132   0.481E-03
 147 F= -.10135537E+03 E0= -.10135537E+03  d E =-.579743E-10
       N       E                     dE             d eps       ncg     rms          rms(c)
DAV:   1    -0.101354177600E+03    0.11948E-02   -0.26376E-01    96   0.162E+00    0.111E-01
DAV:   2    -0.101354112600E+03    0.65000E-04   -0.98933E-04   120   0.979E-02    0.642E-02
DAV:   3    -0.101354053873E+03    0.58727E-04   -0.16976E-04   132   0.380E-02    0.987E-03
DAV:   4    -0.101354056693E+03   -0.28198E-05   -0.25233E-05   132   0.159E-02    0.570E-03
DAV:   5    -0.101354058003E+03   -0.13100E-05   -0.93152E-07   108   0.349E-03    0.363E-03
DAV:   6    -0.101354061025E+03   -0.30218E-05   -0.92344E-07   108   0.320E-03    0.698E-04
DAV:   7    -0.101354062780E+03   -0.17556E-05   -0.22323E-07   108   0.163E-03    0.642E-04
DAV:   8    -0.101354066160E+03   -0.33793E-05   -0.20785E-07    96   0.152E-03    0.268E-04
DAV:   9    -0.101354067850E+03   -0.16903E-05   -0.10926E-07   108   0.924E-04    0.232E-04
DAV:  10    -0.101354069993E+03   -0.21432E-05   -0.71875E-08   108   0.629E-04    0.105E-04
DAV:  11    -0.101354070905E+03   -0.91183E-06   -0.27962E-08   108   0.365E-04
 148 F= -.10135407E+03 E0= -.10135407E+03  d E =-.540375E-10
       N       E                     dE             d eps       ncg     rms          rms(c)
DAV:   1    -0.101354591901E+03   -0.52191E-03   -0.54314E-01    96   0.240E+00    0.202E-01
DAV:   2    -0.101354479486E+03    0.11242E-03   -0.39597E-03   132   0.192E-01    0.111E-01
DAV:   3    -0.101354286138E+03    0.19335E-03   -0.48988E-04   132   0.585E-02    0.292E-02
DAV:   4    -0.101354276790E+03    0.93484E-05   -0.86284E-05   132   0.261E-02    0.109E-02
DAV:   5    -0.101354274360E+03    0.24300E-05   -0.59138E-06   132   0.909E-03    0.517E-03
DAV:   6    -0.101354276868E+03   -0.25085E-05   -0.38094E-06   132   0.644E-03    0.182E-03
DAV:   7    -0.101354281411E+03   -0.45431E-05   -0.10204E-06   132   0.333E-03    0.133E-03
DAV:   8    -0.101354286991E+03   -0.55794E-05   -0.29596E-07   108   0.183E-03    0.652E-04
DAV:   9    -0.101354292542E+03   -0.55515E-05   -0.31624E-07   108   0.140E-03    0.343E-04
DAV:  10    -0.101354298364E+03   -0.58220E-05   -0.29731E-07   108   0.115E-03    0.240E-04
DAV:  11    -0.101354301416E+03   -0.30513E-05   -0.68423E-08   108   0.629E-04    0.132E-04
DAV:  12    -0.101354303844E+03   -0.24280E-05   -0.47508E-08   108   0.444E-04    0.108E-04
DAV:  13    -0.101354304577E+03   -0.73344E-06   -0.44420E-09   108   0.220E-04
 149 F= -.10135430E+03 E0= -.10135430E+03  d E =-.699174E-10
       N       E                     dE             d eps       ncg     rms          rms(c)
DAV:   1    -0.101356309796E+03   -0.20060E-02   -0.26658E-01    96   0.165E+00    0.127E-01
DAV:   2    -0.101356221414E+03    0.88382E-04   -0.14033E-03   120   0.121E-01    0.713E-02
DAV:   3    -0.101356148629E+03    0.72785E-04   -0.21715E-04   132   0.431E-02    0.148E-02
DAV:   4    -0.101356149064E+03   -0.43539E-06   -0.32164E-05   132   0.180E-02    0.710E-03
DAV:   5    -0.101356149582E+03   -0.51754E-06   -0.15772E-06   120   0.461E-03
 150 F= -.10135615E+03 E0= -.10135615E+03  d E =-.646244E-10
       N       E                     dE             d eps       ncg     rms          rms(c)
DAV:   1    -0.101356247390E+03   -0.98326E-04   -0.52551E-01    96   0.240E+00    0.159E-01
DAV:   2    -0.101356128405E+03    0.11899E-03   -0.21507E-03   132   0.144E-01    0.924E-02
DAV:   3    -0.101356017789E+03    0.11062E-03   -0.36064E-04   132   0.586E-02    0.120E-02
DAV:   4    -0.101356024661E+03   -0.68720E-05   -0.55822E-05   132   0.242E-02    0.777E-03
DAV:   5    -0.101356025836E+03   -0.11753E-05   -0.17139E-06   120   0.454E-03    0.560E-03
DAV:   6    -0.101356029832E+03   -0.39960E-05   -0.16627E-06   120   0.414E-03    0.104E-03
DAV:   7    -0.101356032188E+03   -0.23558E-05   -0.42467E-07   108   0.211E-03    0.103E-03
DAV:   8    -0.101356035289E+03   -0.31011E-05   -0.13637E-07   108   0.149E-03    0.477E-04
DAV:   9    -0.101356039277E+03   -0.39883E-05   -0.25090E-07   108   0.180E-03    0.472E-04
DAV:  10    -0.101356041519E+03   -0.22416E-05   -0.12144E-07   108   0.102E-03    0.193E-04
DAV:  11    -0.101356042777E+03   -0.12583E-05   -0.39650E-08   108   0.479E-04    0.236E-04
DAV:  12    -0.101356043466E+03   -0.68908E-06   -0.11275E-08   108   0.334E-04
 151 F= -.10135604E+03 E0= -.10135604E+03  d E =-.564513E-10
       N       E                     dE             d eps       ncg     rms          rms(c)
DAV:   1    -0.101354075110E+03    0.19677E-02   -0.26713E-01    96   0.167E+00    0.130E-01
DAV:   2    -0.101354007395E+03    0.67714E-04   -0.17868E-03   132   0.134E-01    0.714E-02
DAV:   3    -0.101353927294E+03    0.80102E-04   -0.23323E-04   132   0.466E-02    0.176E-02
DAV:   4    -0.101353928579E+03   -0.12857E-05   -0.48983E-05   132   0.213E-02    0.684E-03
DAV:   5    -0.101353929056E+03   -0.47692E-06   -0.22506E-06   132   0.534E-03
 152 F= -.10135393E+03 E0= -.10135393E+03  d E =-.601711E-10
       N       E                     dE             d eps       ncg     rms          rms(c)
DAV:   1    -0.101354275858E+03   -0.34728E-03   -0.54660E-01    96   0.238E+00    0.204E-01
DAV:   2    -0.101354117794E+03    0.15806E-03   -0.41231E-03   132   0.205E-01    0.114E-01
DAV:   3    -0.101353913429E+03    0.20436E-03   -0.62060E-04   132   0.686E-02    0.267E-02
DAV:   4    -0.101353911947E+03    0.14825E-05   -0.10953E-04   132   0.305E-02    0.116E-02
DAV:   5    -0.101353909482E+03    0.24651E-05   -0.54493E-06   132   0.823E-03    0.585E-03
DAV:   6    -0.101353910315E+03   -0.83344E-06   -0.38648E-06   132   0.654E-03
 153 F= -.10135391E+03 E0= -.10135391E+03  d E =-.701420E-10
       N       E                     dE             d eps       ncg     rms          rms(c)
DAV:   1    -0.101355982541E+03   -0.20731E-02   -0.26953E-01    96   0.165E+00    0.140E-01
DAV:   2    -0.101355904888E+03    0.77652E-04   -0.17770E-03   120   0.133E-01    0.761E-02
DAV:   3    -0.101355830416E+03    0.74473E-04   -0.23792E-04   120   0.403E-02    0.199E-02
DAV:   4    -0.101355828447E+03    0.19690E-05   -0.33850E-05   132   0.171E-02    0.771E-03
DAV:   5    -0.101355827622E+03    0.82421E-06   -0.28715E-06   132   0.599E-03
 154 F= -.10135583E+03 E0= -.10135583E+03  d E =-.642970E-10
       N       E                     dE             d eps       ncg     rms          rms(c)
DAV:   1    -0.101356436957E+03   -0.60851E-03   -0.53109E-01    96   0.232E+00    0.160E-01
DAV:   2    -0.101356330484E+03    0.10647E-03   -0.20479E-03   132   0.141E-01    0.925E-02
DAV:   3    -0.101356220729E+03    0.10976E-03   -0.35407E-04   120   0.542E-02    0.137E-02
DAV:   4    -0.101356223725E+03   -0.29968E-05   -0.49727E-05   132   0.221E-02    0.761E-03
DAV:   5    -0.101356223114E+03    0.61094E-06   -0.17417E-06   132   0.458E-03
 155 F= -.10135622E+03 E0= -.10135622E+03  d E =-.628746E-10
       N       E                     dE             d eps       ncg     rms          rms(c)
DAV:   1    -0.101355772901E+03    0.45082E-03   -0.26447E-01    96   0.167E+00    0.115E-01
DAV:   2    -0.101355706353E+03    0.66547E-04   -0.10830E-03   132   0.108E-01    0.667E-02
DAV:   3    -0.101355655964E+03    0.50389E-04   -0.19610E-04   132   0.445E-02    0.850E-03
DAV:   4    -0.101355659715E+03   -0.37510E-05   -0.32943E-05   132   0.186E-02    0.617E-03
DAV:   5    -0.101355660109E+03   -0.39382E-06   -0.76343E-07   108   0.330E-03
 156 F= -.10135566E+03 E0= -.10135566E+03  d E =-.628394E-10
       N       E                     dE             d eps       ncg     rms          rms(c)
DAV:   1    -0.101355790046E+03   -0.13033E-03   -0.52728E-01    96   0.243E+00    0.173E-01
DAV:   2    -0.101355682497E+03    0.10755E-03   -0.26670E-03   120   0.161E-01    0.972E-02
DAV:   3    -0.101355551059E+03    0.13144E-03   -0.37645E-04   132   0.559E-02    0.194E-02
DAV:   4    -0.101355551927E+03   -0.86789E-06   -0.55380E-05   132   0.231E-02    0.905E-03
DAV:   5    -0.101355552177E+03   -0.25067E-06   -0.30597E-06   132   0.598E-03
 157 F= -.10135555E+03 E0= -.10135555E+03  d E =-.673349E-10
