       N       E                     dE             d eps       ncg     rms          rms(c)
DAV:   1     0.204245443529E+03    0.20425E+03   -0.10480E+04   116   0.546E+02
DAV:   2    -0.266402274533E+02   -0.23089E+03   -0.21621E+03   144   0.103E+02
DAV:   3    -0.101342817750E+03   -0.74703E+02   -0.74518E+02   104   0.546E+01
DAV:   4    -0.105694914890E+03   -0.43521E+01   -0.43353E+01   112   0.191E+01
DAV:   5    -0.105770213366E+03   -0.75298E-01   -0.75239E-01   136   0.260E+00    0.147E+01
DAV:   6    -0.102590808286E+03    0.31794E+01   -0.15525E+00    96   0.453E+00    0.854E+00
DAV:   7    -0.100920754120E+03    0.16701E+01   -0.40752E+00   104   0.671E+00    0.122E+00
DAV:   8    -0.100868891365E+03    0.51863E-01   -0.27021E-01   112   0.218E+00    0.610E-01
DAV:   9    -0.100833876155E+03    0.35015E-01   -0.68400E-02   112   0.745E-01    0.332E-01
DAV:  10    -0.100833875074E+03    0.10810E-05   -0.26422E-03   112   0.202E-01    0.153E-01
DAV:  11    -0.100833602093E+03    0.27298E-03   -0.70031E-03   104   0.243E-01    0.844E-02
DAV:  12    -0.100837431369E+03   -0.38293E-02   -0.93545E-04   104   0.918E-02    0.596E-02
DAV:  13    -0.100842691398E+03   -0.52600E-02   -0.18252E-03   112   0.112E-01    0.352E-02
DAV:  14    -0.100846182095E+03   -0.34907E-02   -0.27019E-04   112   0.479E-02    0.176E-02
DAV:  15    -0.100850938044E+03   -0.47559E-02   -0.60361E-04   112   0.642E-02    0.165E-02
DAV:  16    -0.100852072948E+03   -0.11349E-02   -0.64844E-05   112   0.238E-02    0.736E-03
DAV:  17    -0.100853144827E+03   -0.10719E-02   -0.10000E-04   104   0.240E-02    0.340E-03
DAV:  18    -0.100853350022E+03   -0.20519E-03   -0.58951E-06   120   0.741E-03    0.201E-03
DAV:  19    -0.100853540575E+03   -0.19055E-03   -0.74821E-06   104   0.658E-03    0.167E-03
DAV:  20    -0.100853584783E+03   -0.44208E-04   -0.73575E-07    88   0.287E-03    0.507E-04
DAV:  21    -0.100853613302E+03   -0.28518E-04   -0.86766E-07    80   0.241E-03    0.469E-04
DAV:  22    -0.100853621840E+03   -0.85383E-05   -0.20254E-07    88   0.129E-03    0.199E-04
DAV:  23    -0.100853625035E+03   -0.31948E-05   -0.69948E-08    88   0.678E-04    0.164E-04
DAV:  24    -0.100853627658E+03   -0.26232E-05   -0.42115E-08    80   0.512E-04    0.646E-05
DAV:  25    -0.100853628067E+03   -0.40908E-06   -0.79084E-09    88   0.248E-04
   1 F= -.10085363E+03 E0= -.10085363E+03  d E =-.100854E+03
       N       E                     dE             d eps       ncg     rms          rms(c)
DAV:   1    -0.100985529919E+03   -0.13190E+00   -0.56487E+00    84   0.976E+00    0.107E+00
DAV:   2    -0.101011099860E+03   -0.25570E-01   -0.30485E-01   120   0.217E+00    0.549E-01
DAV:   3    -0.101007259990E+03    0.38399E-02   -0.10966E-02   120   0.430E-01    0.281E-01
DAV:   4    -0.101006409410E+03    0.85058E-03   -0.57023E-03   112   0.273E-01    0.649E-02
DAV:   5    -0.101006244282E+03    0.16513E-03   -0.55667E-04   112   0.101E-01    0.387E-02
DAV:   6    -0.101006264399E+03   -0.20116E-04   -0.11283E-04   120   0.399E-02    0.241E-02
DAV:   7    -0.101006420885E+03   -0.15649E-03   -0.45838E-05   112   0.285E-02    0.689E-03
DAV:   8    -0.101006507136E+03   -0.86252E-04   -0.19524E-05   112   0.183E-02    0.778E-03
DAV:   9    -0.101006588791E+03   -0.81655E-04   -0.46290E-06   112   0.757E-03    0.567E-03
DAV:  10    -0.101006765815E+03   -0.17702E-03   -0.14491E-05   110   0.891E-03    0.286E-03
DAV:  11    -0.101006810276E+03   -0.44461E-04   -0.15672E-06    96   0.364E-03    0.181E-03
DAV:  12    -0.101006881444E+03   -0.71169E-04   -0.43556E-06   104   0.503E-03    0.836E-04
DAV:  13    -0.101006895728E+03   -0.14284E-04   -0.35957E-07    96   0.216E-03    0.611E-04
DAV:  14    -0.101006920279E+03   -0.24551E-04   -0.68435E-07    88   0.210E-03    0.406E-04
DAV:  15    -0.101006925957E+03   -0.56774E-05   -0.15065E-07    88   0.101E-03    0.359E-04
DAV:  16    -0.101006932060E+03   -0.61039E-05   -0.81404E-08    88   0.749E-04    0.180E-04
DAV:  17    -0.101006933390E+03   -0.13291E-05   -0.23362E-08    88   0.387E-04    0.180E-04
DAV:  18    -0.101006934510E+03   -0.11205E-05   -0.10849E-08    88   0.302E-04    0.492E-05
DAV:  19    -0.101006935029E+03   -0.51847E-06   -0.56043E-09    88   0.205E-04
   2 F= -.10100694E+03 E0= -.10100694E+03  d E =-.153307E+00
       N       E                     dE             d eps       ncg     rms          rms(c)
DAV:   1    -0.101009110215E+03   -0.21757E-02   -0.66260E-02    84   0.107E+00    0.110E-01
DAV:   2    -0.101009399824E+03   -0.28961E-03   -0.36049E-03   120   0.237E-01    0.618E-02
DAV:   3    -0.101009347205E+03    0.52619E-04   -0.13844E-04   120   0.485E-02    0.307E-02
DAV:   4    -0.101009331673E+03    0.15532E-04   -0.68800E-05   112   0.300E-02    0.782E-03
DAV:   5    -0.101009328169E+03    0.35043E-05   -0.62953E-06   112   0.109E-02    0.425E-03
DAV:   6    -0.101009330287E+03   -0.21176E-05   -0.15089E-06    88   0.469E-03    0.232E-03
DAV:   7    -0.101009336361E+03   -0.60740E-05   -0.77102E-07    86   0.363E-03    0.717E-04
DAV:   8    -0.101009339547E+03   -0.31859E-05   -0.39394E-07    88   0.234E-03    0.926E-04
DAV:   9    -0.101009342886E+03   -0.33395E-05   -0.15299E-07    88   0.129E-03    0.416E-04
DAV:  10    -0.101009348094E+03   -0.52081E-05   -0.43766E-07    88   0.145E-03    0.357E-04
DAV:  11    -0.101009349506E+03   -0.14119E-05   -0.61330E-08    88   0.675E-04    0.146E-04
DAV:  12    -0.101009351001E+03   -0.14952E-05   -0.70941E-08    88   0.624E-04    0.831E-05
DAV:  13    -0.101009351807E+03   -0.80567E-06   -0.28295E-08    88   0.394E-04
   3 F= -.10100935E+03 E0= -.10100935E+03  d E =-.155724E+00
       N       E                     dE             d eps       ncg     rms          rms(c)
DAV:   1    -0.101037339874E+03   -0.27989E-01   -0.88451E-01    92   0.391E+00    0.400E-01
DAV:   2    -0.101041617509E+03   -0.42776E-02   -0.50116E-02   120   0.833E-01    0.189E-01
DAV:   3    -0.101041264027E+03    0.35348E-03   -0.20811E-03   128   0.180E-01    0.103E-01
DAV:   4    -0.101041232360E+03    0.31666E-04   -0.63217E-04   112   0.941E-02    0.343E-02
DAV:   5    -0.101041217817E+03    0.14543E-04   -0.64436E-05   112   0.348E-02    0.168E-02
DAV:   6    -0.101041221802E+03   -0.39849E-05   -0.14049E-05   112   0.150E-02    0.920E-03
DAV:   7    -0.101041242554E+03   -0.20753E-04   -0.72141E-06   112   0.111E-02    0.248E-03
DAV:   8    -0.101041250949E+03   -0.83946E-05   -0.18325E-06   104   0.559E-03    0.242E-03
DAV:   9    -0.101041257817E+03   -0.68678E-05   -0.20341E-07    88   0.165E-03    0.137E-03
DAV:  10    -0.101041280688E+03   -0.22872E-04   -0.21475E-06    96   0.389E-03    0.105E-03
DAV:  11    -0.101041286530E+03   -0.58412E-05   -0.34589E-07    88   0.187E-03    0.545E-04
DAV:  12    -0.101041293002E+03   -0.64720E-05   -0.33996E-07    88   0.151E-03    0.303E-04
DAV:  13    -0.101041296001E+03   -0.29991E-05   -0.11393E-07    88   0.908E-04    0.212E-04
DAV:  14    -0.101041298335E+03   -0.23343E-05   -0.79941E-08    88   0.786E-04    0.143E-04
DAV:  15    -0.101041299112E+03   -0.77738E-06   -0.30055E-08    88   0.464E-04
   4 F= -.10104130E+03 E0= -.10104130E+03  d E =-.319473E-01
       N       E                     dE             d eps       ncg     rms          rms(c)
DAV:   1    -0.101041670179E+03   -0.37184E-03   -0.15222E-02    84   0.512E-01    0.514E-02
DAV:   2    -0.101041742976E+03   -0.72796E-04   -0.86177E-04   120   0.109E-01    0.249E-02
DAV:   3    -0.101041737493E+03    0.54822E-05   -0.36703E-05   120   0.239E-02    0.134E-02
DAV:   4    -0.101041737096E+03    0.39719E-06   -0.10895E-05   112   0.124E-02    0.474E-03
DAV:   5    -0.101041736190E+03    0.90620E-06   -0.95951E-07    88   0.447E-03
   5 F= -.10104174E+03 E0= -.10104174E+03  d E =-.323844E-01
       N       E                     dE             d eps       ncg     rms          rms(c)
DAV:   1    -0.101048869637E+03   -0.71325E-02   -0.16237E-01    84   0.186E+00    0.124E-01
DAV:   2    -0.101049101097E+03   -0.23146E-03   -0.39128E-03   120   0.250E-01    0.666E-02
DAV:   3    -0.101049053038E+03    0.48058E-04   -0.18636E-04   120   0.536E-02    0.335E-02
DAV:   4    -0.101049045978E+03    0.70603E-05   -0.66374E-05   112   0.270E-02    0.855E-03
DAV:   5    -0.101049043830E+03    0.21485E-05   -0.51828E-06   112   0.953E-03    0.528E-03
DAV:   6    -0.101049044340E+03   -0.51091E-06   -0.14480E-06    88   0.518E-03
   6 F= -.10104904E+03 E0= -.10104904E+03  d E =-.730815E-02
       N       E                     dE             d eps       ncg     rms          rms(c)
DAV:   1    -0.101052136349E+03   -0.30925E-02   -0.27305E-01    84   0.241E+00    0.161E-01
DAV:   2    -0.101052520806E+03   -0.38446E-03   -0.66552E-03   120   0.326E-01    0.869E-02
DAV:   3    -0.101052429986E+03    0.90820E-04   -0.31390E-04   128   0.697E-02    0.439E-02
DAV:   4    -0.101052416055E+03    0.13931E-04   -0.11293E-04   112   0.353E-02    0.111E-02
DAV:   5    -0.101052417298E+03   -0.12429E-05   -0.91212E-06   112   0.126E-02    0.695E-03
DAV:   6    -0.101052424682E+03   -0.73844E-05   -0.29118E-06   104   0.691E-03    0.262E-03
DAV:   7    -0.101052436612E+03   -0.11930E-04   -0.13397E-06    88   0.446E-03    0.112E-03
DAV:   8    -0.101052449246E+03   -0.12634E-04   -0.74182E-07    96   0.264E-03    0.934E-04
DAV:   9    -0.101052464588E+03   -0.15341E-04   -0.90504E-07    96   0.227E-03    0.420E-04
DAV:  10    -0.101052471437E+03   -0.68489E-05   -0.30130E-07    88   0.136E-03    0.313E-04
DAV:  11    -0.101052477553E+03   -0.61160E-05   -0.31446E-07    88   0.134E-03    0.244E-04
DAV:  12    -0.101052479234E+03   -0.16815E-05   -0.49171E-08    88   0.681E-04    0.132E-04
DAV:  13    -0.101052480242E+03   -0.10084E-05   -0.16776E-08    88   0.417E-04    0.978E-05
DAV:  14    -0.101052481699E+03   -0.14568E-05   -0.40844E-08    88   0.441E-04    0.422E-05
DAV:  15    -0.101052481997E+03   -0.29828E-06   -0.33061E-09    88   0.179E-04
   7 F= -.10105248E+03 E0= -.10105248E+03  d E =-.107458E-01
       N       E                     dE             d eps       ncg     rms          rms(c)
DAV:   1    -0.101057256350E+03   -0.47747E-02   -0.11951E-01    88   0.161E+00    0.938E-02
DAV:   2    -0.101057360560E+03   -0.10421E-03   -0.21949E-03   120   0.191E-01    0.521E-02
DAV:   3    -0.101057330302E+03    0.30258E-04   -0.13068E-04   120   0.470E-02    0.237E-02
DAV:   4    -0.101057334377E+03   -0.40748E-05   -0.47710E-05   120   0.255E-02    0.676E-03
DAV:   5    -0.101057335028E+03   -0.65066E-06   -0.36574E-06   104   0.773E-03
   8 F= -.10105734E+03 E0= -.10105734E+03  d E =-.485303E-02
       N       E                     dE             d eps       ncg     rms          rms(c)
DAV:   1    -0.101060197355E+03   -0.28630E-02   -0.32507E-01    88   0.266E+00    0.155E-01
DAV:   2    -0.101060487839E+03   -0.29048E-03   -0.60213E-03   120   0.317E-01    0.860E-02
DAV:   3    -0.101060403544E+03    0.84294E-04   -0.35243E-04   120   0.775E-02    0.393E-02
DAV:   4    -0.101060413199E+03   -0.96553E-05   -0.13122E-04   120   0.423E-02    0.111E-02
DAV:   5    -0.101060415163E+03   -0.19637E-05   -0.10592E-05   112   0.130E-02    0.664E-03
DAV:   6    -0.101060416730E+03   -0.15665E-05   -0.14398E-06    88   0.479E-03    0.196E-03
DAV:   7    -0.101060418261E+03   -0.15310E-05   -0.51680E-07    88   0.291E-03    0.568E-04
DAV:   8    -0.101060420126E+03   -0.18658E-05   -0.17570E-07    88   0.166E-03    0.443E-04
DAV:   9    -0.101060421732E+03   -0.16052E-05   -0.65438E-08    88   0.106E-03    0.176E-04
DAV:  10    -0.101060423637E+03   -0.19053E-05   -0.75754E-08    88   0.884E-04    0.186E-04
DAV:  11    -0.101060424222E+03   -0.58460E-06   -0.18372E-08    88   0.515E-04
   9 F= -.10106042E+03 E0= -.10106042E+03  d E =-.794222E-02
       N       E                     dE             d eps       ncg     rms          rms(c)
DAV:   1    -0.101063145153E+03   -0.27215E-02   -0.73481E-02    84   0.124E+00    0.747E-02
DAV:   2    -0.101063228046E+03   -0.82893E-04   -0.15298E-03   120   0.159E-01    0.412E-02
DAV:   3    -0.101063203318E+03    0.24728E-04   -0.76296E-05   128   0.353E-02    0.193E-02
DAV:   4    -0.101063200063E+03    0.32552E-05   -0.25456E-05   112   0.183E-02    0.459E-03
DAV:   5    -0.101063199283E+03    0.78004E-06   -0.21931E-06    96   0.663E-03
  10 F= -.10106320E+03 E0= -.10106320E+03  d E =-.277506E-02
       N       E                     dE             d eps       ncg     rms          rms(c)
DAV:   1    -0.101064992748E+03   -0.17927E-02   -0.57585E-01    84   0.346E+00    0.210E-01
DAV:   2    -0.101065665692E+03   -0.67294E-03   -0.12098E-02   120   0.448E-01    0.116E-01
DAV:   3    -0.101065474440E+03    0.19125E-03   -0.58861E-04   128   0.983E-02    0.545E-02
DAV:   4    -0.101065453265E+03    0.21175E-04   -0.20098E-04   112   0.516E-02    0.129E-02
DAV:   5    -0.101065450838E+03    0.24277E-05   -0.18890E-05   112   0.191E-02    0.760E-03
DAV:   6    -0.101065455639E+03   -0.48014E-05   -0.58951E-06   112   0.104E-02    0.357E-03
DAV:   7    -0.101065466217E+03   -0.10578E-04   -0.11376E-06    88   0.564E-03    0.138E-03
DAV:   8    -0.101065477963E+03   -0.11746E-04   -0.82706E-07    88   0.429E-03    0.113E-03
DAV:   9    -0.101065493746E+03   -0.15783E-04   -0.11430E-06    88   0.363E-03    0.406E-04
DAV:  10    -0.101065502470E+03   -0.87243E-05   -0.50431E-07    88   0.233E-03    0.328E-04
DAV:  11    -0.101065506493E+03   -0.40223E-05   -0.16180E-07    88   0.131E-03    0.253E-04
DAV:  12    -0.101065510695E+03   -0.42025E-05   -0.13997E-07    88   0.948E-04    0.144E-04
DAV:  13    -0.101065513038E+03   -0.23427E-05   -0.83863E-08    88   0.658E-04    0.870E-05
DAV:  14    -0.101065514461E+03   -0.14232E-05   -0.34490E-08    88   0.411E-04    0.542E-05
DAV:  15    -0.101065514878E+03   -0.41712E-06   -0.67175E-09    88   0.216E-04
  11 F= -.10106551E+03 E0= -.10106551E+03  d E =-.509066E-02
       N       E                     dE             d eps       ncg     rms          rms(c)
DAV:   1    -0.101065675256E+03   -0.16079E-03   -0.26239E-02    84   0.740E-01    0.447E-02
DAV:   2    -0.101065706960E+03   -0.31704E-04   -0.55157E-04   120   0.958E-02    0.247E-02
DAV:   3    -0.101065699438E+03    0.75221E-05   -0.27201E-05   128   0.211E-02    0.115E-02
DAV:   4    -0.101065699126E+03    0.31125E-06   -0.90424E-06   112   0.109E-02
  12 F= -.10106570E+03 E0= -.10106570E+03  d E =-.527490E-02
       N       E                     dE             d eps       ncg     rms          rms(c)
DAV:   1    -0.101067907544E+03   -0.22081E-02   -0.13696E-01    84   0.167E+00    0.105E-01
DAV:   2    -0.101068161008E+03   -0.25346E-03   -0.37915E-03   120   0.245E-01    0.623E-02
DAV:   3    -0.101068105762E+03    0.55246E-04   -0.17410E-04   128   0.552E-02    0.295E-02
DAV:   4    -0.101068103744E+03    0.20178E-05   -0.69873E-05   112   0.305E-02    0.796E-03
DAV:   5    -0.101068103691E+03    0.53210E-07   -0.55259E-06   112   0.991E-03
  13 F= -.10106810E+03 E0= -.10106810E+03  d E =-.240456E-02
       N       E                     dE             d eps       ncg     rms          rms(c)
DAV:   1    -0.101068471766E+03   -0.36802E-03   -0.84099E-02    84   0.131E+00    0.826E-02
DAV:   2    -0.101068628765E+03   -0.15700E-03   -0.23558E-03   120   0.193E-01    0.488E-02
DAV:   3    -0.101068593488E+03    0.35277E-04   -0.10556E-04   120   0.433E-02    0.232E-02
DAV:   4    -0.101068591937E+03    0.15512E-05   -0.43077E-05   120   0.243E-02    0.624E-03
DAV:   5    -0.101068593079E+03   -0.11422E-05   -0.37932E-06   112   0.828E-03    0.305E-03
DAV:   6    -0.101068594692E+03   -0.16132E-05   -0.85504E-07    88   0.362E-03    0.138E-03
DAV:   7    -0.101068597471E+03   -0.27782E-05   -0.25988E-07    88   0.210E-03    0.413E-04
DAV:   8    -0.101068599619E+03   -0.21487E-05   -0.12585E-07    88   0.138E-03    0.412E-04
DAV:   9    -0.101068603624E+03   -0.40048E-05   -0.21471E-07    80   0.145E-03    0.321E-04
DAV:  10    -0.101068604701E+03   -0.10770E-05   -0.69325E-08    88   0.832E-04    0.205E-04
DAV:  11    -0.101068605425E+03   -0.72415E-06   -0.23785E-08    88   0.518E-04
  14 F= -.10106861E+03 E0= -.10106861E+03  d E =-.290630E-02
       N       E                     dE             d eps       ncg     rms          rms(c)
DAV:   1    -0.101069626377E+03   -0.10217E-02   -0.17081E-01    84   0.187E+00    0.129E-01
DAV:   2    -0.101069811333E+03   -0.18496E-03   -0.36902E-03   120   0.242E-01    0.712E-02
DAV:   3    -0.101069732208E+03    0.79125E-04   -0.18374E-04   120   0.517E-02    0.333E-02
DAV:   4    -0.101069720852E+03    0.11356E-04   -0.70029E-05   112   0.270E-02    0.858E-03
DAV:   5    -0.101069722060E+03   -0.12079E-05   -0.44038E-06   112   0.863E-03    0.418E-03
DAV:   6    -0.101069724618E+03   -0.25584E-05   -0.13726E-06    88   0.423E-03    0.155E-03
DAV:   7    -0.101069728331E+03   -0.37124E-05   -0.42545E-07    88   0.245E-03    0.579E-04
DAV:   8    -0.101069731643E+03   -0.33124E-05   -0.18554E-07    88   0.139E-03    0.465E-04
DAV:   9    -0.101069735240E+03   -0.35967E-05   -0.16980E-07    88   0.107E-03    0.160E-04
DAV:  10    -0.101069738275E+03   -0.30350E-05   -0.19333E-07    88   0.923E-04    0.194E-04
DAV:  11    -0.101069739381E+03   -0.11066E-05   -0.38663E-08    88   0.522E-04    0.677E-05
DAV:  12    -0.101069740007E+03   -0.62596E-06   -0.19816E-08    88   0.353E-04
  15 F= -.10106974E+03 E0= -.10106974E+03  d E =-.113458E-02
       N       E                     dE             d eps       ncg     rms          rms(c)
DAV:   1    -0.101069777826E+03   -0.38444E-04   -0.43844E-03    84   0.300E-01    0.206E-02
DAV:   2    -0.101069784246E+03   -0.64209E-05   -0.94552E-05   120   0.387E-02    0.114E-02
DAV:   3    -0.101069783471E+03    0.77568E-06   -0.46843E-06   112   0.826E-03
  16 F= -.10106978E+03 E0= -.10106978E+03  d E =-.117805E-02
       N       E                     dE             d eps       ncg     rms          rms(c)
DAV:   1    -0.101070116298E+03   -0.33205E-03   -0.12931E-02    84   0.494E-01    0.402E-02
DAV:   2    -0.101070162389E+03   -0.46091E-04   -0.60039E-04   112   0.885E-02    0.212E-02
DAV:   3    -0.101070156627E+03    0.57616E-05   -0.19375E-05   120   0.176E-02    0.116E-02
DAV:   4    -0.101070154530E+03    0.20969E-05   -0.73805E-06   112   0.103E-02    0.292E-03
DAV:   5    -0.101070153994E+03    0.53662E-06   -0.80789E-07    96   0.456E-03
  17 F= -.10107015E+03 E0= -.10107015E+03  d E =-.370523E-03
