       N       E                     dE             d eps       ncg     rms          rms(c)
DAV:   1     0.204108909950E+03    0.20411E+03   -0.10482E+04   116   0.546E+02
DAV:   2    -0.270709938273E+02   -0.23118E+03   -0.21633E+03   144   0.103E+02
DAV:   3    -0.101729632547E+03   -0.74659E+02   -0.74481E+02   112   0.547E+01
DAV:   4    -0.105970820341E+03   -0.42412E+01   -0.42243E+01   104   0.181E+01
DAV:   5    -0.106048706947E+03   -0.77887E-01   -0.77827E-01   136   0.269E+00    0.149E+01
DAV:   6    -0.102830792714E+03    0.32179E+01   -0.16205E+00   112   0.460E+00    0.860E+00
DAV:   7    -0.101150053953E+03    0.16807E+01   -0.40803E+00   112   0.674E+00    0.121E+00
DAV:   8    -0.101097987677E+03    0.52066E-01   -0.27488E-01   104   0.221E+00    0.615E-01
DAV:   9    -0.101061982850E+03    0.36005E-01   -0.78958E-02   112   0.796E-01    0.328E-01
DAV:  10    -0.101061894865E+03    0.87984E-04   -0.30018E-03   112   0.225E-01    0.163E-01
DAV:  11    -0.101062048270E+03   -0.15340E-03   -0.61300E-03   104   0.233E-01    0.792E-02
DAV:  12    -0.101066288780E+03   -0.42405E-02   -0.11428E-03   104   0.998E-02    0.562E-02
DAV:  13    -0.101070870080E+03   -0.45813E-02   -0.19190E-03   112   0.110E-01    0.347E-02
DAV:  14    -0.101075581412E+03   -0.47113E-02   -0.43998E-04   112   0.608E-02    0.149E-02
DAV:  15    -0.101079613200E+03   -0.40318E-02   -0.47668E-04   112   0.576E-02    0.149E-02
DAV:  16    -0.101080594245E+03   -0.98105E-03   -0.53891E-05   112   0.213E-02    0.621E-03
DAV:  17    -0.101081628806E+03   -0.10346E-02   -0.87600E-05   104   0.226E-02    0.318E-03
DAV:  18    -0.101081871644E+03   -0.24284E-03   -0.76258E-06   104   0.780E-03    0.175E-03
DAV:  19    -0.101082021701E+03   -0.15006E-03   -0.51350E-06   104   0.564E-03    0.150E-03
DAV:  20    -0.101082079727E+03   -0.58026E-04   -0.13454E-06    88   0.379E-03    0.627E-04
DAV:  21    -0.101082097990E+03   -0.18263E-04   -0.56561E-07    80   0.199E-03    0.558E-04
DAV:  22    -0.101082105754E+03   -0.77641E-05   -0.19069E-07    88   0.147E-03    0.247E-04
DAV:  23    -0.101082108461E+03   -0.27076E-05   -0.65031E-08    88   0.773E-04    0.185E-04
DAV:  24    -0.101082110915E+03   -0.24537E-05   -0.31565E-08    80   0.487E-04    0.110E-04
DAV:  25    -0.101082111748E+03   -0.83306E-06   -0.15013E-08    80   0.325E-04
   1 F= -.10108211E+03 E0= -.10108211E+03  d E =-.101082E+03
       N       E                     dE             d eps       ncg     rms          rms(c)
DAV:   1    -0.101258817254E+03   -0.17671E+00   -0.76947E+00    84   0.115E+01    0.123E+00
DAV:   2    -0.101288804445E+03   -0.29987E-01   -0.37484E-01   120   0.242E+00    0.622E-01
DAV:   3    -0.101283801398E+03    0.50030E-02   -0.14787E-02   120   0.481E-01    0.310E-01
DAV:   4    -0.101282731130E+03    0.10703E-02   -0.68950E-03   112   0.292E-01    0.702E-02
DAV:   5    -0.101282545275E+03    0.18585E-03   -0.66743E-04   112   0.109E-01    0.425E-02
DAV:   6    -0.101282589241E+03   -0.43965E-04   -0.17367E-04   120   0.460E-02    0.240E-02
DAV:   7    -0.101282792212E+03   -0.20297E-03   -0.55967E-05   110   0.303E-02    0.849E-03
DAV:   8    -0.101282901088E+03   -0.10888E-03   -0.25319E-05   112   0.196E-02    0.858E-03
DAV:   9    -0.101283027486E+03   -0.12640E-03   -0.69548E-06   112   0.918E-03    0.537E-03
DAV:  10    -0.101283216208E+03   -0.18872E-03   -0.15600E-05   112   0.928E-03    0.300E-03
DAV:  11    -0.101283265250E+03   -0.49042E-04   -0.15408E-06    96   0.389E-03    0.163E-03
DAV:  12    -0.101283348981E+03   -0.83730E-04   -0.52939E-06   104   0.534E-03    0.863E-04
DAV:  13    -0.101283363158E+03   -0.14177E-04   -0.27371E-07    88   0.213E-03    0.856E-04
DAV:  14    -0.101283393850E+03   -0.30692E-04   -0.93258E-07    96   0.219E-03    0.438E-04
DAV:  15    -0.101283398348E+03   -0.44977E-05   -0.83939E-08    88   0.904E-04    0.473E-04
DAV:  16    -0.101283405636E+03   -0.72883E-05   -0.10759E-07    88   0.802E-04    0.134E-04
DAV:  17    -0.101283407143E+03   -0.15075E-05   -0.20807E-08    88   0.379E-04    0.215E-04
DAV:  18    -0.101283408506E+03   -0.13621E-05   -0.18198E-08    80   0.371E-04    0.368E-05
DAV:  19    -0.101283408940E+03   -0.43428E-06   -0.64497E-09    80   0.216E-04
   2 F= -.10128341E+03 E0= -.10128341E+03  d E =-.201297E+00
       N       E                     dE             d eps       ncg     rms          rms(c)
DAV:   1    -0.101286197591E+03   -0.27891E-02   -0.87519E-02    84   0.123E+00    0.124E-01
DAV:   2    -0.101286506823E+03   -0.30923E-03   -0.41807E-03   112   0.256E-01    0.686E-02
DAV:   3    -0.101286439505E+03    0.67318E-04   -0.18004E-04   120   0.532E-02    0.328E-02
DAV:   4    -0.101286421749E+03    0.17755E-04   -0.75890E-05   112   0.308E-02    0.870E-03
DAV:   5    -0.101286419819E+03    0.19299E-05   -0.70375E-06   112   0.113E-02    0.442E-03
DAV:   6    -0.101286423988E+03   -0.41687E-05   -0.23785E-06    88   0.538E-03    0.215E-03
DAV:   7    -0.101286432516E+03   -0.85281E-05   -0.73167E-07    78   0.326E-03    0.779E-04
DAV:   8    -0.101286436826E+03   -0.43102E-05   -0.35753E-07    88   0.215E-03    0.870E-04
DAV:   9    -0.101286442612E+03   -0.57859E-05   -0.26911E-07    88   0.149E-03    0.340E-04
DAV:  10    -0.101286447967E+03   -0.53552E-05   -0.38642E-07    88   0.137E-03    0.308E-04
DAV:  11    -0.101286449707E+03   -0.17395E-05   -0.67547E-08    88   0.701E-04    0.117E-04
DAV:  12    -0.101286451454E+03   -0.17465E-05   -0.86172E-08    86   0.681E-04    0.749E-05
DAV:  13    -0.101286452159E+03   -0.70522E-06   -0.24421E-08    88   0.369E-04
   3 F= -.10128645E+03 E0= -.10128645E+03  d E =-.204340E+00
       N       E                     dE             d eps       ncg     rms          rms(c)
DAV:   1    -0.101318135197E+03   -0.31684E-01   -0.79192E-01    96   0.383E+00    0.356E-01
DAV:   2    -0.101321442406E+03   -0.33072E-02   -0.41889E-02   120   0.736E-01    0.160E-01
DAV:   3    -0.101321161822E+03    0.28058E-03   -0.17930E-03   120   0.162E-01    0.861E-02
DAV:   4    -0.101321109715E+03    0.52107E-04   -0.42418E-04   112   0.756E-02    0.288E-02
DAV:   5    -0.101321101805E+03    0.79106E-05   -0.46192E-05   120   0.289E-02    0.143E-02
DAV:   6    -0.101321110661E+03   -0.88559E-05   -0.11282E-05   112   0.135E-02    0.719E-03
DAV:   7    -0.101321137275E+03   -0.26615E-04   -0.58802E-06   104   0.914E-03    0.256E-03
DAV:   8    -0.101321146931E+03   -0.96551E-05   -0.95791E-07    88   0.424E-03    0.203E-03
DAV:   9    -0.101321161941E+03   -0.15010E-04   -0.73272E-07    80   0.256E-03    0.758E-04
DAV:  10    -0.101321180449E+03   -0.18508E-04   -0.16478E-06    96   0.328E-03    0.881E-04
DAV:  11    -0.101321188362E+03   -0.79132E-05   -0.42529E-07    88   0.189E-03    0.286E-04
DAV:  12    -0.101321192991E+03   -0.46294E-05   -0.25027E-07    88   0.119E-03    0.306E-04
DAV:  13    -0.101321195608E+03   -0.26169E-05   -0.72373E-08    88   0.741E-04    0.143E-04
DAV:  14    -0.101321197502E+03   -0.18938E-05   -0.80268E-08    88   0.667E-04    0.101E-04
DAV:  15    -0.101321197953E+03   -0.45115E-06   -0.12391E-08    88   0.294E-04
   4 F= -.10132120E+03 E0= -.10132120E+03  d E =-.347458E-01
       N       E                     dE             d eps       ncg     rms          rms(c)
DAV:   1    -0.101323201881E+03   -0.20044E-02   -0.90786E-02    88   0.130E+00    0.119E-01
DAV:   2    -0.101323583775E+03   -0.38189E-03   -0.48571E-03   120   0.251E-01    0.545E-02
DAV:   3    -0.101323551967E+03    0.31809E-04   -0.20920E-04   120   0.555E-02    0.293E-02
DAV:   4    -0.101323544401E+03    0.75662E-05   -0.48839E-05   112   0.257E-02    0.101E-02
DAV:   5    -0.101323541336E+03    0.30647E-05   -0.53114E-06   112   0.982E-03    0.483E-03
DAV:   6    -0.101323541936E+03   -0.60022E-06   -0.12149E-06    96   0.460E-03
   5 F= -.10132354E+03 E0= -.10132354E+03  d E =-.370898E-01
       N       E                     dE             d eps       ncg     rms          rms(c)
DAV:   1    -0.101333336569E+03   -0.97952E-02   -0.25759E-01    84   0.233E+00    0.166E-01
DAV:   2    -0.101333655728E+03   -0.31916E-03   -0.79563E-03   120   0.337E-01    0.870E-02
DAV:   3    -0.101333550016E+03    0.10571E-03   -0.44881E-04   128   0.786E-02    0.467E-02
DAV:   4    -0.101333517796E+03    0.32220E-04   -0.96811E-05   112   0.355E-02    0.126E-02
DAV:   5    -0.101333513494E+03    0.43015E-05   -0.10859E-05   112   0.132E-02    0.747E-03
DAV:   6    -0.101333521947E+03   -0.84524E-05   -0.31578E-06   104   0.780E-03    0.218E-03
DAV:   7    -0.101333534418E+03   -0.12472E-04   -0.16283E-06    96   0.449E-03    0.161E-03
DAV:   8    -0.101333546432E+03   -0.12013E-04   -0.37547E-07    88   0.205E-03    0.901E-04
DAV:   9    -0.101333565429E+03   -0.18998E-04   -0.12033E-06    80   0.247E-03    0.595E-04
DAV:  10    -0.101333575781E+03   -0.10352E-04   -0.54608E-07    88   0.173E-03    0.350E-04
DAV:  11    -0.101333582853E+03   -0.70718E-05   -0.28331E-07    88   0.125E-03    0.154E-04
DAV:  12    -0.101333586100E+03   -0.32465E-05   -0.76706E-08    88   0.697E-04    0.136E-04
DAV:  13    -0.101333588414E+03   -0.23146E-05   -0.70032E-08    80   0.574E-04    0.580E-05
DAV:  14    -0.101333589052E+03   -0.63770E-06   -0.10472E-08    88   0.272E-04
   6 F= -.10133359E+03 E0= -.10133359E+03  d E =-.100471E-01
       N       E                     dE             d eps       ncg     rms          rms(c)
DAV:   1    -0.101335346591E+03   -0.17582E-02   -0.10278E-01    84   0.147E+00    0.105E-01
DAV:   2    -0.101335478817E+03   -0.13223E-03   -0.32015E-03   120   0.214E-01    0.553E-02
DAV:   3    -0.101335437317E+03    0.41500E-04   -0.17773E-04   128   0.495E-02    0.297E-02
DAV:   4    -0.101335422783E+03    0.14534E-04   -0.38777E-05   112   0.224E-02    0.795E-03
DAV:   5    -0.101335419190E+03    0.35927E-05   -0.43276E-06   112   0.836E-03    0.470E-03
DAV:   6    -0.101335420649E+03   -0.14591E-05   -0.11024E-06    88   0.488E-03    0.136E-03
DAV:   7    -0.101335425077E+03   -0.44276E-05   -0.77368E-07    88   0.301E-03    0.100E-03
DAV:   8    -0.101335430717E+03   -0.56403E-05   -0.21307E-07    80   0.154E-03    0.500E-04
DAV:   9    -0.101335438099E+03   -0.73819E-05   -0.43838E-07    80   0.151E-03    0.383E-04
DAV:  10    -0.101335442818E+03   -0.47185E-05   -0.22053E-07    88   0.110E-03    0.231E-04
DAV:  11    -0.101335446397E+03   -0.35790E-05   -0.13607E-07    80   0.849E-04    0.886E-05
DAV:  12    -0.101335447798E+03   -0.14011E-05   -0.37576E-08    88   0.451E-04    0.106E-04
DAV:  13    -0.101335448942E+03   -0.11445E-05   -0.31341E-08    80   0.395E-04    0.403E-05
DAV:  14    -0.101335449311E+03   -0.36850E-06   -0.68520E-09    88   0.214E-04
   7 F= -.10133545E+03 E0= -.10133545E+03  d E =-.119074E-01
       N       E                     dE             d eps       ncg     rms          rms(c)
DAV:   1    -0.101343025192E+03   -0.75762E-02   -0.27368E-01    88   0.245E+00    0.150E-01
DAV:   2    -0.101343147954E+03   -0.12276E-03   -0.45175E-03   112   0.273E-01    0.802E-02
DAV:   3    -0.101343042757E+03    0.10520E-03   -0.36828E-04   128   0.756E-02    0.355E-02
DAV:   4    -0.101343044808E+03   -0.20510E-05   -0.12490E-04   112   0.402E-02    0.106E-02
DAV:   5    -0.101343045176E+03   -0.36836E-06   -0.74976E-06   112   0.113E-02
   8 F= -.10134305E+03 E0= -.10134305E+03  d E =-.759587E-02
       N       E                     dE             d eps       ncg     rms          rms(c)
DAV:   1    -0.101345673466E+03   -0.26287E-02   -0.29162E-01    88   0.253E+00    0.156E-01
DAV:   2    -0.101345808378E+03   -0.13491E-03   -0.48468E-03   112   0.283E-01    0.826E-02
DAV:   3    -0.101345696413E+03    0.11197E-03   -0.38600E-04   128   0.777E-02    0.367E-02
DAV:   4    -0.101345700256E+03   -0.38435E-05   -0.13221E-04   120   0.415E-02    0.109E-02
DAV:   5    -0.101345703562E+03   -0.33051E-05   -0.82920E-06   112   0.119E-02    0.569E-03
DAV:   6    -0.101345708313E+03   -0.47515E-05   -0.15202E-06    96   0.463E-03    0.199E-03
DAV:   7    -0.101345714602E+03   -0.62889E-05   -0.50519E-07    80   0.279E-03    0.703E-04
DAV:   8    -0.101345721259E+03   -0.66570E-05   -0.33070E-07    88   0.194E-03    0.687E-04
DAV:   9    -0.101345728005E+03   -0.67464E-05   -0.31084E-07    80   0.168E-03    0.314E-04
DAV:  10    -0.101345732989E+03   -0.49835E-05   -0.30571E-07    88   0.138E-03    0.243E-04
DAV:  11    -0.101345734807E+03   -0.18182E-05   -0.62202E-08    88   0.774E-04    0.130E-04
DAV:  12    -0.101345736083E+03   -0.12756E-05   -0.37518E-08    88   0.511E-04    0.107E-04
DAV:  13    -0.101345736762E+03   -0.67981E-06   -0.15176E-08    88   0.314E-04
   9 F= -.10134574E+03 E0= -.10134574E+03  d E =-.102875E-01
       N       E                     dE             d eps       ncg     rms          rms(c)
DAV:   1    -0.101349181289E+03   -0.34452E-02   -0.13568E-01    84   0.168E+00    0.107E-01
DAV:   2    -0.101349330379E+03   -0.14909E-03   -0.29504E-03   120   0.211E-01    0.576E-02
DAV:   3    -0.101349273503E+03    0.56876E-04   -0.16030E-04   128   0.513E-02    0.270E-02
DAV:   4    -0.101349269598E+03    0.39054E-05   -0.62871E-05   120   0.286E-02    0.792E-03
DAV:   5    -0.101349269197E+03    0.40078E-06   -0.49334E-06   112   0.967E-03
  10 F= -.10134927E+03 E0= -.10134927E+03  d E =-.353243E-02
       N       E                     dE             d eps       ncg     rms          rms(c)
DAV:   1    -0.101350808729E+03   -0.15391E-02   -0.43775E-01    84   0.302E+00    0.192E-01
DAV:   2    -0.101351302561E+03   -0.49383E-03   -0.95954E-03   120   0.381E-01    0.104E-01
DAV:   3    -0.101351119704E+03    0.18286E-03   -0.51223E-04   128   0.920E-02    0.488E-02
DAV:   4    -0.101351109626E+03    0.10078E-04   -0.20441E-04   120   0.517E-02    0.143E-02
DAV:   5    -0.101351112522E+03   -0.28964E-05   -0.16882E-05   112   0.180E-02    0.785E-03
DAV:   6    -0.101351119097E+03   -0.65753E-05   -0.46538E-06   120   0.860E-03    0.309E-03
DAV:   7    -0.101351128554E+03   -0.94565E-05   -0.58188E-07    80   0.381E-03    0.109E-03
DAV:   8    -0.101351137747E+03   -0.91930E-05   -0.45996E-07    88   0.292E-03    0.879E-04
DAV:   9    -0.101351152069E+03   -0.14322E-04   -0.10074E-06    88   0.328E-03    0.624E-04
DAV:  10    -0.101351156080E+03   -0.40106E-05   -0.25413E-07    88   0.179E-03    0.319E-04
DAV:  11    -0.101351157901E+03   -0.18216E-05   -0.53826E-08    88   0.833E-04    0.229E-04
DAV:  12    -0.101351160970E+03   -0.30690E-05   -0.92768E-08    80   0.775E-04    0.139E-04
DAV:  13    -0.101351163084E+03   -0.21141E-05   -0.87711E-08    88   0.667E-04    0.104E-04
DAV:  14    -0.101351163765E+03   -0.68047E-06   -0.14377E-08    88   0.318E-04
  11 F= -.10135116E+03 E0= -.10135116E+03  d E =-.542700E-02
       N       E                     dE             d eps       ncg     rms          rms(c)
DAV:   1    -0.101353239432E+03   -0.20763E-02   -0.12151E-01    84   0.157E+00    0.973E-02
DAV:   2    -0.101353439115E+03   -0.19968E-03   -0.30968E-03   120   0.226E-01    0.598E-02
DAV:   3    -0.101353391671E+03    0.47444E-04   -0.12887E-04   128   0.478E-02    0.274E-02
DAV:   4    -0.101353389784E+03    0.18868E-05   -0.55992E-05   112   0.268E-02    0.685E-03
DAV:   5    -0.101353389357E+03    0.42722E-06   -0.53626E-06   112   0.980E-03
  12 F= -.10135339E+03 E0= -.10135339E+03  d E =-.222559E-02
       N       E                     dE             d eps       ncg     rms          rms(c)
DAV:   1    -0.101353962309E+03   -0.57252E-03   -0.22968E-01    84   0.215E+00    0.134E-01
DAV:   2    -0.101354342522E+03   -0.38021E-03   -0.58757E-03   120   0.311E-01    0.822E-02
DAV:   3    -0.101354251923E+03    0.90599E-04   -0.24235E-04   120   0.655E-02    0.378E-02
DAV:   4    -0.101354248801E+03    0.31218E-05   -0.10586E-04   120   0.369E-02    0.948E-03
DAV:   5    -0.101354250214E+03   -0.14122E-05   -0.10345E-05   112   0.136E-02    0.400E-03
DAV:   6    -0.101354252855E+03   -0.26410E-05   -0.24935E-06   112   0.576E-03    0.205E-03
DAV:   7    -0.101354257354E+03   -0.44994E-05   -0.24878E-07    88   0.230E-03    0.805E-04
DAV:   8    -0.101354262418E+03   -0.50638E-05   -0.31896E-07    88   0.223E-03    0.553E-04
DAV:   9    -0.101354267743E+03   -0.53252E-05   -0.27806E-07    88   0.172E-03    0.335E-04
DAV:  10    -0.101354271825E+03   -0.40819E-05   -0.22561E-07    88   0.131E-03    0.188E-04
DAV:  11    -0.101354273075E+03   -0.12500E-05   -0.49969E-08    96   0.707E-04    0.157E-04
DAV:  12    -0.101354274338E+03   -0.12632E-05   -0.27926E-08    88   0.437E-04    0.103E-04
DAV:  13    -0.101354275596E+03   -0.12580E-05   -0.36186E-08    88   0.410E-04    0.583E-05
DAV:  14    -0.101354276283E+03   -0.68674E-06   -0.14009E-08    88   0.268E-04
  13 F= -.10135428E+03 E0= -.10135428E+03  d E =-.311252E-02
       N       E                     dE             d eps       ncg     rms          rms(c)
DAV:   1    -0.101355565314E+03   -0.12897E-02   -0.59747E-02    84   0.107E+00    0.861E-02
DAV:   2    -0.101355716157E+03   -0.15084E-03   -0.22288E-03   120   0.168E-01    0.419E-02
DAV:   3    -0.101355690968E+03    0.25188E-04   -0.92677E-05   128   0.380E-02    0.222E-02
DAV:   4    -0.101355687037E+03    0.39308E-05   -0.33719E-05   112   0.212E-02    0.648E-03
DAV:   5    -0.101355687000E+03    0.37052E-07   -0.24052E-06    96   0.686E-03
  14 F= -.10135569E+03 E0= -.10135569E+03  d E =-.141072E-02
       N       E                     dE             d eps       ncg     rms          rms(c)
DAV:   1    -0.101355775566E+03   -0.88528E-04   -0.84294E-03    84   0.403E-01    0.328E-02
DAV:   2    -0.101355796615E+03   -0.21049E-04   -0.32366E-04   120   0.643E-02    0.157E-02
DAV:   3    -0.101355792303E+03    0.43122E-05   -0.12872E-05   128   0.141E-02    0.834E-03
DAV:   4    -0.101355791914E+03    0.38895E-06   -0.48434E-06   104   0.794E-03
  15 F= -.10135579E+03 E0= -.10135579E+03  d E =-.151563E-02
       N       E                     dE             d eps       ncg     rms          rms(c)
DAV:   1    -0.101356116600E+03   -0.32430E-03   -0.69606E-03    84   0.365E-01    0.334E-02
DAV:   2    -0.101356139176E+03   -0.22575E-04   -0.33922E-04   120   0.684E-02    0.165E-02
DAV:   3    -0.101356137178E+03    0.19974E-05   -0.14954E-05   128   0.157E-02    0.878E-03
DAV:   4    -0.101356136930E+03    0.24802E-06   -0.22191E-06    88   0.833E-03
  16 F= -.10135614E+03 E0= -.10135614E+03  d E =-.345016E-03
       N       E                     dE             d eps       ncg     rms          rms(c)
DAV:   1    -0.101356188249E+03   -0.51071E-04   -0.27939E-03    84   0.232E-01    0.212E-02
DAV:   2    -0.101356197293E+03   -0.90434E-05   -0.14010E-04   120   0.437E-02    0.103E-02
DAV:   3    -0.101356196340E+03    0.95228E-06   -0.57564E-06   128   0.961E-03
  17 F= -.10135620E+03 E0= -.10135620E+03  d E =-.404427E-03
       N       E                     dE             d eps       ncg     rms          rms(c)
DAV:   1    -0.101356358853E+03   -0.16156E-03   -0.74754E-03    84   0.389E-01    0.339E-02
DAV:   2    -0.101356382507E+03   -0.23653E-04   -0.34795E-04   120   0.722E-02    0.177E-02
DAV:   3    -0.101356378978E+03    0.35286E-05   -0.13917E-05   120   0.148E-02    0.974E-03
DAV:   4    -0.101356378378E+03    0.59985E-06   -0.54554E-06   120   0.912E-03
  18 F= -.10135638E+03 E0= -.10135638E+03  d E =-.182038E-03
