       N       E                     dE             d eps       ncg     rms          rms(c)
DAV:   1     0.245240277592E+03    0.24524E+03   -0.10192E+04   120   0.484E+02
DAV:   2    -0.217067662574E+02   -0.26695E+03   -0.25282E+03   156   0.915E+01
DAV:   3    -0.102463307561E+03   -0.80757E+02   -0.80542E+02   120   0.552E+01
DAV:   4    -0.106460808965E+03   -0.39975E+01   -0.39849E+01   120   0.177E+01
DAV:   5    -0.106536789325E+03   -0.75980E-01   -0.75907E-01   168   0.275E+00    0.153E+01
DAV:   6    -0.103073704987E+03    0.34631E+01   -0.16003E+00   108   0.437E+00    0.884E+00
DAV:   7    -0.101312731991E+03    0.17610E+01   -0.42751E+00   120   0.638E+00    0.131E+00
DAV:   8    -0.101257073559E+03    0.55658E-01   -0.34783E-01   132   0.224E+00    0.690E-01
DAV:   9    -0.101223569399E+03    0.33504E-01   -0.61919E-02   132   0.675E-01    0.356E-01
DAV:  10    -0.101221912476E+03    0.16569E-02   -0.34598E-03   120   0.200E-01    0.145E-01
DAV:  11    -0.101220715213E+03    0.11973E-02   -0.61732E-03   120   0.212E-01    0.106E-01
DAV:  12    -0.101226416990E+03   -0.57018E-02   -0.16784E-03   120   0.110E-01    0.498E-02
DAV:  13    -0.101229771589E+03   -0.33546E-02   -0.17654E-03   132   0.105E-01    0.434E-02
DAV:  14    -0.101232932522E+03   -0.31609E-02   -0.18473E-04   132   0.463E-02    0.207E-02
DAV:  15    -0.101237768347E+03   -0.48358E-02   -0.52740E-04   108   0.554E-02    0.132E-02
DAV:  16    -0.101239307560E+03   -0.15392E-02   -0.92475E-05   132   0.277E-02    0.800E-03
DAV:  17    -0.101240668961E+03   -0.13614E-02   -0.12683E-04   120   0.240E-02    0.666E-03
DAV:  18    -0.101240985188E+03   -0.31623E-03   -0.97750E-06   132   0.789E-03    0.223E-03
DAV:  19    -0.101241200033E+03   -0.21485E-03   -0.91465E-06   108   0.662E-03    0.186E-03
DAV:  20    -0.101241256119E+03   -0.56086E-04   -0.95341E-07    96   0.308E-03    0.592E-04
DAV:  21    -0.101241286767E+03   -0.30648E-04   -0.74515E-07    84   0.208E-03    0.435E-04
DAV:  22    -0.101241298051E+03   -0.11284E-04   -0.25198E-07   108   0.118E-03    0.213E-04
DAV:  23    -0.101241302236E+03   -0.41852E-05   -0.66257E-08    96   0.607E-04    0.145E-04
DAV:  24    -0.101241305776E+03   -0.35403E-05   -0.51989E-08    84   0.524E-04    0.916E-05
DAV:  25    -0.101241306465E+03   -0.68927E-06   -0.63047E-09    96   0.269E-04
   1 F= -.10124131E+03 E0= -.10124131E+03  d E =-.697007E-10
       N       E                     dE             d eps       ncg     rms          rms(c)
DAV:   1    -0.101237920852E+03    0.33849E-02   -0.82227E-02    96   0.840E-01    0.128E-01
DAV:   2    -0.101238276598E+03   -0.35575E-03   -0.39948E-03   120   0.213E-01    0.562E-02
DAV:   3    -0.101238263437E+03    0.13161E-04   -0.14382E-04   132   0.449E-02    0.297E-02
DAV:   4    -0.101238266183E+03   -0.27462E-05   -0.35001E-05   108   0.223E-02    0.835E-03
DAV:   5    -0.101238265407E+03    0.77598E-06   -0.65995E-06   132   0.101E-02
   2 F= -.10123827E+03 E0= -.10123827E+03  d E =-.692695E-10
       N       E                     dE             d eps       ncg     rms          rms(c)
DAV:   1    -0.101236812259E+03    0.14539E-02   -0.32802E-01    96   0.168E+00    0.263E-01
DAV:   2    -0.101238223673E+03   -0.14114E-02   -0.15862E-02   120   0.427E-01    0.113E-01
DAV:   3    -0.101238175007E+03    0.48666E-04   -0.56550E-04   132   0.885E-02    0.607E-02
DAV:   4    -0.101238190719E+03   -0.15712E-04   -0.14232E-04   108   0.445E-02    0.169E-02
DAV:   5    -0.101238188014E+03    0.27051E-05   -0.26883E-05   132   0.201E-02    0.100E-02
DAV:   6    -0.101238187625E+03    0.38837E-06   -0.49917E-06   132   0.770E-03
   3 F= -.10123819E+03 E0= -.10123819E+03  d E =-.933470E-10
       N       E                     dE             d eps       ncg     rms          rms(c)
DAV:   1    -0.101237518760E+03    0.66925E-03   -0.16697E-01    96   0.120E+00    0.160E-01
DAV:   2    -0.101238220924E+03   -0.70216E-03   -0.76336E-03   120   0.290E-01    0.759E-02
DAV:   3    -0.101238207526E+03    0.13398E-04   -0.25949E-04   120   0.607E-02    0.393E-02
DAV:   4    -0.101238219918E+03   -0.12392E-04   -0.62768E-05   108   0.295E-02    0.112E-02
DAV:   5    -0.101238219600E+03    0.31719E-06   -0.10596E-05   132   0.129E-02    0.615E-03
DAV:   6    -0.101238220029E+03   -0.42896E-06   -0.28127E-06   120   0.574E-03
   4 F= -.10123822E+03 E0= -.10123822E+03  d E =-.771296E-10
       N       E                     dE             d eps       ncg     rms          rms(c)
DAV:   1    -0.101236915369E+03    0.13042E-02   -0.33385E-01    96   0.168E+00    0.239E-01
DAV:   2    -0.101238323529E+03   -0.14082E-02   -0.15407E-02   120   0.421E-01    0.111E-01
DAV:   3    -0.101238288055E+03    0.35473E-04   -0.53935E-04   108   0.884E-02    0.576E-02
DAV:   4    -0.101238304639E+03   -0.16584E-04   -0.13749E-04   132   0.442E-02    0.159E-02
DAV:   5    -0.101238300354E+03    0.42848E-05   -0.25542E-05   120   0.199E-02    0.907E-03
DAV:   6    -0.101238299858E+03    0.49633E-06   -0.57820E-06   132   0.826E-03
   5 F= -.10123830E+03 E0= -.10123830E+03  d E =-.894518E-10
       N       E                     dE             d eps       ncg     rms          rms(c)
DAV:   1    -0.101236067486E+03    0.22329E-02   -0.16318E-01    96   0.122E+00    0.163E-01
DAV:   2    -0.101236995504E+03   -0.92802E-03   -0.98808E-03   120   0.337E-01    0.929E-02
DAV:   3    -0.101236955159E+03    0.40345E-04   -0.29118E-04   120   0.682E-02    0.496E-02
DAV:   4    -0.101236962785E+03   -0.76264E-05   -0.11989E-04   108   0.414E-02    0.117E-02
DAV:   5    -0.101236961394E+03    0.13912E-05   -0.22798E-05   132   0.181E-02    0.769E-03
DAV:   6    -0.101236963202E+03   -0.18081E-05   -0.37010E-06   108   0.620E-03    0.489E-03
DAV:   7    -0.101236968729E+03   -0.55263E-05   -0.46031E-07   108   0.252E-03    0.179E-03
DAV:   8    -0.101236974299E+03   -0.55700E-05   -0.52532E-07    84   0.259E-03    0.705E-04
DAV:   9    -0.101236979977E+03   -0.56782E-05   -0.40570E-07    96   0.193E-03    0.592E-04
DAV:  10    -0.101236986782E+03   -0.68055E-05   -0.50018E-07    84   0.167E-03    0.517E-04
DAV:  11    -0.101236988056E+03   -0.12742E-05   -0.66992E-08   108   0.795E-04    0.367E-04
DAV:  12    -0.101236989544E+03   -0.14880E-05   -0.35384E-08    84   0.550E-04    0.204E-04
DAV:  13    -0.101236991313E+03   -0.17682E-05   -0.71910E-08    96   0.567E-04    0.114E-04
DAV:  14    -0.101236992240E+03   -0.92778E-06   -0.18880E-08    84   0.320E-04
   6 F= -.10123699E+03 E0= -.10123699E+03  d E =-.824468E-10
       N       E                     dE             d eps       ncg     rms          rms(c)
DAV:   1    -0.101234715038E+03    0.22763E-02   -0.33480E-01    96   0.175E+00    0.267E-01
DAV:   2    -0.101237044970E+03   -0.23299E-02   -0.25161E-02   120   0.523E-01    0.169E-01
DAV:   3    -0.101236870601E+03    0.17437E-03   -0.67049E-04   132   0.109E-01    0.891E-02
DAV:   4    -0.101236868933E+03    0.16682E-05   -0.45243E-04   132   0.770E-02    0.171E-02
DAV:   5    -0.101236860227E+03    0.87063E-05   -0.74616E-05   132   0.319E-02    0.126E-02
DAV:   6    -0.101236860307E+03   -0.80091E-07   -0.11557E-05   132   0.951E-03    0.845E-03
DAV:   7    -0.101236870910E+03   -0.10604E-04   -0.91749E-07   108   0.349E-03    0.372E-03
DAV:   8    -0.101236890053E+03   -0.19142E-04   -0.24042E-06   132   0.551E-03    0.165E-03
DAV:   9    -0.101236903564E+03   -0.13512E-04   -0.11990E-06   132   0.289E-03    0.160E-03
DAV:  10    -0.101236922636E+03   -0.19072E-04   -0.82485E-07    96   0.204E-03    0.986E-04
DAV:  11    -0.101236929769E+03   -0.71327E-05   -0.27715E-07   108   0.122E-03    0.666E-04
DAV:  12    -0.101236938372E+03   -0.86033E-05   -0.28923E-07    84   0.116E-03    0.303E-04
DAV:  13    -0.101236941519E+03   -0.31463E-05   -0.80720E-08   108   0.599E-04    0.237E-04
DAV:  14    -0.101236943686E+03   -0.21676E-05   -0.18525E-08    84   0.370E-04    0.121E-04
DAV:  15    -0.101236945207E+03   -0.15202E-05   -0.26753E-08    84   0.349E-04    0.882E-05
DAV:  16    -0.101236945793E+03   -0.58601E-06    0.20039E-09   108   0.180E-04
   7 F= -.10123695E+03 E0= -.10123695E+03  d E =-.563011E-10
       N       E                     dE             d eps       ncg     rms          rms(c)
DAV:   1    -0.101235987233E+03    0.95797E-03   -0.19080E-01    96   0.134E+00    0.189E-01
DAV:   2    -0.101237361171E+03   -0.13739E-02   -0.14334E-02   120   0.423E-01    0.120E-01
DAV:   3    -0.101237277580E+03    0.83591E-04   -0.38334E-04   132   0.844E-02    0.648E-02
DAV:   4    -0.101237278117E+03   -0.53720E-06   -0.23020E-04   120   0.595E-02    0.120E-02
DAV:   5    -0.101237273038E+03    0.50792E-05   -0.45932E-05   132   0.248E-02    0.994E-03
DAV:   6    -0.101237273729E+03   -0.69172E-06   -0.47026E-06   132   0.683E-03
   8 F= -.10123727E+03 E0= -.10123727E+03  d E =-.713207E-10
       N       E                     dE             d eps       ncg     rms          rms(c)
DAV:   1    -0.101235401982E+03    0.18711E-02   -0.33486E-01    96   0.175E+00    0.264E-01
DAV:   2    -0.101237417371E+03   -0.20154E-02   -0.20754E-02   108   0.481E-01    0.153E-01
DAV:   3    -0.101237343903E+03    0.73468E-04   -0.55865E-04   120   0.914E-02    0.813E-02
DAV:   4    -0.101237342373E+03    0.15306E-05   -0.23260E-04   108   0.570E-02    0.157E-02
DAV:   5    -0.101237332919E+03    0.94537E-05   -0.42444E-05   132   0.245E-02    0.110E-02
DAV:   6    -0.101237331871E+03    0.10474E-05   -0.77248E-06   120   0.983E-03    0.656E-03
DAV:   7    -0.101237342796E+03   -0.10924E-04   -0.31142E-06   120   0.730E-03    0.218E-03
DAV:   8    -0.101237358046E+03   -0.15250E-04   -0.14772E-06   108   0.525E-03    0.154E-03
DAV:   9    -0.101237369951E+03   -0.11905E-04   -0.86481E-07   120   0.305E-03    0.178E-03
DAV:  10    -0.101237378268E+03   -0.83166E-05   -0.17955E-07    84   0.113E-03    0.943E-04
DAV:  11    -0.101237394145E+03   -0.15877E-04   -0.12355E-06   108   0.214E-03    0.652E-04
DAV:  12    -0.101237396812E+03   -0.26675E-05   -0.40161E-08   120   0.610E-04    0.436E-04
DAV:  13    -0.101237403985E+03   -0.71725E-05   -0.18259E-07    84   0.100E-03    0.346E-04
DAV:  14    -0.101237406237E+03   -0.22517E-05   -0.56810E-08    96   0.568E-04    0.313E-04
DAV:  15    -0.101237407086E+03   -0.84998E-06   -0.16535E-09   108   0.374E-04
   9 F= -.10123741E+03 E0= -.10123741E+03  d E =-.709733E-10
       N       E                     dE             d eps       ncg     rms          rms(c)
DAV:   1    -0.101235395091E+03    0.20111E-02   -0.16905E-01    96   0.122E+00    0.187E-01
DAV:   2    -0.101236465058E+03   -0.10700E-02   -0.11112E-02   120   0.356E-01    0.116E-01
DAV:   3    -0.101236413767E+03    0.51291E-04   -0.29428E-04   132   0.701E-02    0.616E-02
DAV:   4    -0.101236410499E+03    0.32672E-05   -0.16207E-04   132   0.480E-02    0.122E-02
DAV:   5    -0.101236406003E+03    0.44965E-05   -0.31354E-05   132   0.208E-02    0.892E-03
DAV:   6    -0.101236408366E+03   -0.23633E-05   -0.72786E-06   132   0.831E-03    0.535E-03
DAV:   7    -0.101236419076E+03   -0.10709E-04   -0.13161E-06   120   0.419E-03    0.209E-03
DAV:   8    -0.101236432068E+03   -0.12992E-04   -0.12053E-06   108   0.310E-03    0.858E-04
DAV:   9    -0.101236446510E+03   -0.14442E-04   -0.13396E-06   120   0.282E-03    0.101E-03
DAV:  10    -0.101236456861E+03   -0.10351E-04   -0.68272E-07    84   0.195E-03    0.459E-04
DAV:  11    -0.101236462258E+03   -0.53971E-05   -0.39420E-07    96   0.126E-03    0.191E-04
DAV:  12    -0.101236465875E+03   -0.36167E-05   -0.15143E-07    84   0.795E-04    0.174E-04
DAV:  13    -0.101236467341E+03   -0.14658E-05   -0.42419E-08    96   0.456E-04    0.138E-04
DAV:  14    -0.101236468314E+03   -0.97339E-06   -0.18641E-08    84   0.319E-04
  10 F= -.10123647E+03 E0= -.10123647E+03  d E =-.707244E-10
       N       E                     dE             d eps       ncg     rms          rms(c)
DAV:   1    -0.101233996674E+03    0.24707E-02   -0.34309E-01    96   0.172E+00    0.267E-01
DAV:   2    -0.101236538276E+03   -0.25416E-02   -0.26119E-02   132   0.537E-01    0.183E-01
DAV:   3    -0.101236383584E+03    0.15469E-03   -0.66391E-04   132   0.111E-01    0.892E-02
DAV:   4    -0.101236404911E+03   -0.21326E-04   -0.47700E-04   132   0.787E-02    0.192E-02
DAV:   5    -0.101236390635E+03    0.14275E-04   -0.72399E-05   132   0.310E-02    0.126E-02
DAV:   6    -0.101236393107E+03   -0.24716E-05   -0.19203E-05   132   0.117E-02    0.639E-03
DAV:   7    -0.101236409780E+03   -0.16673E-04   -0.16830E-06   132   0.434E-03    0.290E-03
DAV:   8    -0.101236439263E+03   -0.29483E-04   -0.38872E-06   108   0.522E-03    0.144E-03
DAV:   9    -0.101236457140E+03   -0.17877E-04   -0.13931E-06   132   0.285E-03    0.153E-03
DAV:  10    -0.101236479269E+03   -0.22130E-04   -0.18241E-06   108   0.293E-03    0.453E-04
DAV:  11    -0.101236485459E+03   -0.61896E-05   -0.18241E-07   108   0.117E-03    0.360E-04
DAV:  12    -0.101236493128E+03   -0.76690E-05   -0.32438E-07    84   0.115E-03    0.193E-04
DAV:  13    -0.101236495319E+03   -0.21910E-05   -0.48828E-08   108   0.481E-04    0.140E-04
DAV:  14    -0.101236497707E+03   -0.23875E-05   -0.38873E-08    84   0.438E-04    0.498E-05
DAV:  15    -0.101236498255E+03   -0.54853E-06   -0.40060E-09   108   0.207E-04
  11 F= -.10123650E+03 E0= -.10123650E+03  d E =-.691706E-10
       N       E                     dE             d eps       ncg     rms          rms(c)
DAV:   1    -0.101236752869E+03   -0.25516E-03   -0.17033E-01    96   0.122E+00    0.187E-01
DAV:   2    -0.101237866030E+03   -0.11132E-02   -0.11590E-02   132   0.369E-01    0.120E-01
DAV:   3    -0.101237806731E+03    0.59299E-04   -0.31989E-04   156   0.756E-02    0.600E-02
DAV:   4    -0.101237812556E+03   -0.58251E-05   -0.18814E-04   120   0.508E-02    0.125E-02
DAV:   5    -0.101237805888E+03    0.66676E-05   -0.33392E-05   132   0.214E-02    0.825E-03
DAV:   6    -0.101237808026E+03   -0.21380E-05   -0.78870E-06   132   0.787E-03    0.492E-03
DAV:   7    -0.101237817084E+03   -0.90579E-05   -0.63650E-07   108   0.294E-03    0.222E-03
DAV:   8    -0.101237830975E+03   -0.13891E-04   -0.17177E-06   108   0.367E-03    0.950E-04
DAV:   9    -0.101237840166E+03   -0.91908E-05   -0.61942E-07   108   0.229E-03    0.901E-04
DAV:  10    -0.101237853064E+03   -0.12898E-04   -0.13485E-06   108   0.234E-03    0.516E-04
DAV:  11    -0.101237855886E+03   -0.28218E-05   -0.74356E-08   108   0.893E-04    0.333E-04
DAV:  12    -0.101237858938E+03   -0.30517E-05   -0.84876E-08    84   0.693E-04    0.160E-04
DAV:  13    -0.101237861449E+03   -0.25116E-05   -0.83625E-08    96   0.592E-04    0.170E-04
DAV:  14    -0.101237862616E+03   -0.11663E-05   -0.18247E-08   108   0.321E-04    0.118E-04
DAV:  15    -0.101237863332E+03   -0.71682E-06   -0.86248E-09    84   0.252E-04
  12 F= -.10123786E+03 E0= -.10123786E+03  d E =-.675692E-10
       N       E                     dE             d eps       ncg     rms          rms(c)
DAV:   1    -0.101236375368E+03    0.14872E-02   -0.33042E-01    96   0.168E+00    0.269E-01
DAV:   2    -0.101237980696E+03   -0.16053E-02   -0.17162E-02   132   0.435E-01    0.132E-01
DAV:   3    -0.101237934098E+03    0.46598E-04   -0.55046E-04   132   0.892E-02    0.703E-02
DAV:   4    -0.101237945607E+03   -0.11509E-04   -0.18305E-04   132   0.549E-02    0.161E-02
DAV:   5    -0.101237939913E+03    0.56941E-05   -0.45499E-05   132   0.257E-02    0.115E-02
DAV:   6    -0.101237939410E+03    0.50324E-06   -0.70420E-06   144   0.916E-03
  13 F= -.10123794E+03 E0= -.10123794E+03  d E =-.890641E-10
       N       E                     dE             d eps       ncg     rms          rms(c)
DAV:   1    -0.101235596868E+03    0.23430E-02   -0.16832E-01    96   0.129E+00    0.194E-01
DAV:   2    -0.101236892826E+03   -0.12960E-02   -0.13397E-02   132   0.400E-01    0.114E-01
DAV:   3    -0.101236839311E+03    0.53515E-04   -0.35897E-04   132   0.772E-02    0.663E-02
DAV:   4    -0.101236858092E+03   -0.18781E-04   -0.20039E-04   108   0.572E-02    0.131E-02
DAV:   5    -0.101236857891E+03    0.20128E-06   -0.56765E-05   132   0.278E-02    0.107E-02
DAV:   6    -0.101236856554E+03    0.13362E-05   -0.55939E-06   108   0.811E-03    0.738E-03
DAV:   7    -0.101236859677E+03   -0.31223E-05   -0.19751E-06   120   0.529E-03    0.292E-03
DAV:   8    -0.101236864778E+03   -0.51011E-05   -0.58123E-07    96   0.354E-03    0.778E-04
DAV:   9    -0.101236870796E+03   -0.60187E-05   -0.56079E-07    96   0.249E-03    0.107E-03
DAV:  10    -0.101236879267E+03   -0.84701E-05   -0.42756E-07    84   0.180E-03    0.344E-04
DAV:  11    -0.101236881783E+03   -0.25161E-05   -0.11991E-07   108   0.941E-04    0.299E-04
DAV:  12    -0.101236884902E+03   -0.31191E-05   -0.70010E-08    84   0.676E-04    0.164E-04
DAV:  13    -0.101236887628E+03   -0.27266E-05   -0.95313E-08    84   0.641E-04    0.135E-04
DAV:  14    -0.101236888730E+03   -0.11015E-05   -0.16248E-08   108   0.311E-04    0.953E-05
DAV:  15    -0.101236889596E+03   -0.86603E-06   -0.92883E-09    84   0.258E-04
  14 F= -.10123689E+03 E0= -.10123689E+03  d E =-.728573E-10
       N       E                     dE             d eps       ncg     rms          rms(c)
DAV:   1    -0.101234442680E+03    0.24460E-02   -0.35811E-01    96   0.179E+00    0.265E-01
DAV:   2    -0.101236740202E+03   -0.22975E-02   -0.23527E-02   108   0.550E-01    0.170E-01
DAV:   3    -0.101236628403E+03    0.11180E-03   -0.57522E-04   144   0.102E-01    0.883E-02
DAV:   4    -0.101236634576E+03   -0.61732E-05   -0.35898E-04   120   0.718E-02    0.167E-02
DAV:   5    -0.101236624660E+03    0.99156E-05   -0.77568E-05   132   0.322E-02    0.113E-02
DAV:   6    -0.101236631294E+03   -0.66339E-05   -0.14558E-05   120   0.108E-02    0.698E-03
DAV:   7    -0.101236652673E+03   -0.21379E-04   -0.15699E-06   108   0.432E-03    0.303E-03
DAV:   8    -0.101236680224E+03   -0.27551E-04   -0.30337E-06   120   0.489E-03    0.126E-03
DAV:   9    -0.101236700038E+03   -0.19814E-04   -0.18761E-06   120   0.353E-03    0.141E-03
DAV:  10    -0.101236720345E+03   -0.20307E-04   -0.17719E-06   108   0.300E-03    0.626E-04
DAV:  11    -0.101236725175E+03   -0.48298E-05   -0.17623E-07   108   0.121E-03    0.452E-04
DAV:  12    -0.101236731492E+03   -0.63173E-05   -0.23664E-07    84   0.109E-03    0.176E-04
DAV:  13    -0.101236734464E+03   -0.29722E-05   -0.12540E-07   108   0.738E-04    0.244E-04
DAV:  14    -0.101236736558E+03   -0.20937E-05   -0.45246E-08    84   0.505E-04    0.118E-04
DAV:  15    -0.101236737114E+03   -0.55541E-06   -0.61070E-09   108   0.255E-04
  15 F= -.10123674E+03 E0= -.10123674E+03  d E =-.712569E-10
       N       E                     dE             d eps       ncg     rms          rms(c)
DAV:   1    -0.101236098187E+03    0.63837E-03   -0.17896E-01    96   0.128E+00    0.196E-01
DAV:   2    -0.101237277795E+03   -0.11796E-02   -0.12120E-02   108   0.395E-01    0.125E-01
DAV:   3    -0.101237210211E+03    0.67585E-04   -0.31765E-04   144   0.768E-02    0.608E-02
DAV:   4    -0.101237215622E+03   -0.54115E-05   -0.20161E-04   108   0.523E-02    0.128E-02
DAV:   5    -0.101237207669E+03    0.79535E-05   -0.35965E-05   132   0.220E-02    0.803E-03
DAV:   6    -0.101237211121E+03   -0.34524E-05   -0.69166E-06   132   0.723E-03    0.370E-03
DAV:   7    -0.101237222250E+03   -0.11129E-04   -0.62414E-07    84   0.244E-03    0.173E-03
DAV:   8    -0.101237239190E+03   -0.16940E-04   -0.23306E-06   120   0.394E-03    0.124E-03
DAV:   9    -0.101237253717E+03   -0.14526E-04   -0.93532E-07    84   0.258E-03    0.517E-04
DAV:  10    -0.101237262725E+03   -0.90081E-05   -0.77842E-07   108   0.179E-03    0.340E-04
DAV:  11    -0.101237266742E+03   -0.40175E-05   -0.92491E-08    84   0.792E-04    0.199E-04
DAV:  12    -0.101237270472E+03   -0.37301E-05   -0.13342E-07    96   0.750E-04    0.122E-04
DAV:  13    -0.101237272063E+03   -0.15903E-05   -0.32835E-08    84   0.420E-04    0.864E-05
DAV:  14    -0.101237273077E+03   -0.10140E-05   -0.86333E-09    96   0.265E-04    0.515E-05
DAV:  15    -0.101237273462E+03   -0.38557E-06    0.23481E-09   108   0.146E-04
  16 F= -.10123727E+03 E0= -.10123727E+03  d E =-.915390E-10
       N       E                     dE             d eps       ncg     rms          rms(c)
DAV:   1    -0.101235310342E+03    0.19627E-02   -0.34590E-01    96   0.181E+00    0.258E-01
DAV:   2    -0.101237407643E+03   -0.20973E-02   -0.21558E-02   108   0.515E-01    0.154E-01
DAV:   3    -0.101237313223E+03    0.94420E-04   -0.51446E-04   144   0.935E-02    0.823E-02
DAV:   4    -0.101237318699E+03   -0.54762E-05   -0.31321E-04   132   0.674E-02    0.161E-02
DAV:   5    -0.101237308946E+03    0.97531E-05   -0.68212E-05   132   0.308E-02    0.121E-02
DAV:   6    -0.101237307530E+03    0.14162E-05   -0.12026E-05   132   0.110E-02    0.747E-03
DAV:   7    -0.101237316632E+03   -0.91018E-05   -0.23877E-06   132   0.590E-03    0.282E-03
DAV:   8    -0.101237330843E+03   -0.14212E-04   -0.14362E-06   132   0.448E-03    0.119E-03
DAV:   9    -0.101237346759E+03   -0.15915E-04   -0.10759E-06   120   0.299E-03    0.129E-03
DAV:  10    -0.101237363545E+03   -0.16786E-04   -0.87002E-07    84   0.233E-03    0.463E-04
DAV:  11    -0.101237369847E+03   -0.63022E-05   -0.26237E-07   108   0.124E-03    0.291E-04
DAV:  12    -0.101237377197E+03   -0.73495E-05   -0.20427E-07    84   0.955E-04    0.159E-04
DAV:  13    -0.101237380135E+03   -0.29381E-05   -0.73708E-08   108   0.558E-04    0.161E-04
DAV:  14    -0.101237382497E+03   -0.23626E-05   -0.33024E-08    84   0.404E-04    0.959E-05
DAV:  15    -0.101237383311E+03   -0.81396E-06   -0.51548E-09   108   0.242E-04
  17 F= -.10123738E+03 E0= -.10123738E+03  d E =-.557932E-10
       N       E                     dE             d eps       ncg     rms          rms(c)
DAV:   1    -0.101236603494E+03    0.77900E-03   -0.17394E-01    96   0.129E+00    0.169E-01
DAV:   2    -0.101237712584E+03   -0.11091E-02   -0.11399E-02   108   0.377E-01    0.116E-01
DAV:   3    -0.101237662461E+03    0.50123E-04   -0.25137E-04   132   0.649E-02    0.630E-02
DAV:   4    -0.101237646348E+03    0.16113E-04   -0.14127E-04   120   0.442E-02    0.108E-02
DAV:   5    -0.101237643534E+03    0.28134E-05   -0.22671E-05   132   0.177E-02    0.789E-03
DAV:   6    -0.101237648244E+03   -0.47100E-05   -0.71479E-06   132   0.909E-03    0.446E-03
DAV:   7    -0.101237664436E+03   -0.16192E-04   -0.27867E-06   132   0.586E-03    0.170E-03
DAV:   8    -0.101237683201E+03   -0.18765E-04   -0.13858E-06   120   0.382E-03    0.970E-04
DAV:   9    -0.101237701078E+03   -0.17877E-04   -0.16677E-06    96   0.319E-03    0.949E-04
DAV:  10    -0.101237714715E+03   -0.13637E-04   -0.11923E-06    96   0.233E-03    0.393E-04
DAV:  11    -0.101237719337E+03   -0.46222E-05   -0.18084E-07   108   0.987E-04    0.199E-04
DAV:  12    -0.101237722960E+03   -0.36230E-05   -0.19148E-07    84   0.874E-04    0.133E-04
DAV:  13    -0.101237724488E+03   -0.15281E-05   -0.45754E-08    96   0.483E-04    0.635E-05
DAV:  14    -0.101237725079E+03   -0.59094E-06   -0.62118E-09    96   0.251E-04
  18 F= -.10123773E+03 E0= -.10123773E+03  d E =-.616940E-10
       N       E                     dE             d eps       ncg     rms          rms(c)
DAV:   1    -0.101235720013E+03    0.20045E-02   -0.33417E-01    96   0.177E+00    0.213E-01
DAV:   2    -0.101237647181E+03   -0.19272E-02   -0.19663E-02   132   0.483E-01    0.142E-01
DAV:   3    -0.101237593427E+03    0.53754E-04   -0.44871E-04   132   0.856E-02    0.735E-02
DAV:   4    -0.101237588504E+03    0.49233E-05   -0.19745E-04   132   0.551E-02    0.140E-02
DAV:   5    -0.101237578254E+03    0.10250E-04   -0.40103E-05   132   0.246E-02    0.939E-03
DAV:   6    -0.101237579965E+03   -0.17106E-05   -0.81178E-06   132   0.942E-03    0.570E-03
DAV:   7    -0.101237592251E+03   -0.12287E-04   -0.20104E-06   132   0.662E-03    0.203E-03
DAV:   8    -0.101237607796E+03   -0.15545E-04   -0.19665E-06    96   0.596E-03    0.172E-03
DAV:   9    -0.101237622605E+03   -0.14808E-04   -0.10059E-06   108   0.359E-03    0.146E-03
DAV:  10    -0.101237638586E+03   -0.15981E-04   -0.71984E-07    84   0.208E-03    0.511E-04
DAV:  11    -0.101237647979E+03   -0.93935E-05   -0.44078E-07    96   0.151E-03    0.457E-04
DAV:  12    -0.101237654597E+03   -0.66182E-05   -0.14288E-07    84   0.106E-03    0.287E-04
DAV:  13    -0.101237659848E+03   -0.52506E-05   -0.17420E-07    84   0.884E-04    0.256E-04
DAV:  14    -0.101237660861E+03   -0.10134E-05   -0.10889E-08   120   0.415E-04    0.121E-04
DAV:  15    -0.101237663031E+03   -0.21694E-05   -0.34515E-08    84   0.427E-04    0.133E-04
DAV:  16    -0.101237663486E+03   -0.45567E-06    0.33733E-10   108   0.230E-04
  19 F= -.10123766E+03 E0= -.10123766E+03  d E =-.786499E-10
       N       E                     dE             d eps       ncg     rms          rms(c)
DAV:   1    -0.101235920432E+03    0.17426E-02   -0.16663E-01    96   0.129E+00    0.159E-01
DAV:   2    -0.101237210220E+03   -0.12898E-02   -0.13394E-02   120   0.403E-01    0.111E-01
DAV:   3    -0.101237150176E+03    0.60044E-04   -0.31704E-04   144   0.726E-02    0.631E-02
DAV:   4    -0.101237132317E+03    0.17859E-04   -0.15779E-04   120   0.503E-02    0.109E-02
DAV:   5    -0.101237126426E+03    0.58913E-05   -0.37926E-05   132   0.230E-02    0.870E-03
DAV:   6    -0.101237126668E+03   -0.24185E-06   -0.49396E-06   132   0.770E-03
  20 F= -.10123713E+03 E0= -.10123713E+03  d E =-.449185E-11
       N       E                     dE             d eps       ncg     rms          rms(c)
DAV:   1    -0.101234911125E+03    0.22153E-02   -0.32956E-01    96   0.176E+00    0.259E-01
DAV:   2    -0.101237229253E+03   -0.23181E-02   -0.24647E-02   132   0.521E-01    0.164E-01
DAV:   3    -0.101237082872E+03    0.14638E-03   -0.65673E-04   132   0.105E-01    0.881E-02
DAV:   4    -0.101237101673E+03   -0.18801E-04   -0.41140E-04   132   0.741E-02    0.168E-02
DAV:   5    -0.101237095954E+03    0.57191E-05   -0.74594E-05   132   0.315E-02    0.127E-02
DAV:   6    -0.101237094710E+03    0.12436E-05   -0.10323E-05   132   0.960E-03    0.877E-03
DAV:   7    -0.101237100848E+03   -0.61376E-05   -0.12230E-06   120   0.397E-03    0.346E-03
DAV:   8    -0.101237111193E+03   -0.10345E-04   -0.14217E-06   120   0.449E-03    0.111E-03
DAV:   9    -0.101237119978E+03   -0.87859E-05   -0.78208E-07   120   0.239E-03    0.132E-03
DAV:  10    -0.101237134794E+03   -0.14816E-04   -0.79806E-07    96   0.196E-03    0.550E-04
DAV:  11    -0.101237138838E+03   -0.40437E-05   -0.12465E-07   108   0.944E-04    0.424E-04
DAV:  12    -0.101237145425E+03   -0.65876E-05   -0.22122E-07    84   0.100E-03    0.233E-04
DAV:  13    -0.101237147595E+03   -0.21699E-05   -0.58675E-08   108   0.517E-04    0.170E-04
DAV:  14    -0.101237149408E+03   -0.18128E-05   -0.19560E-08    84   0.371E-04    0.905E-05
DAV:  15    -0.101237150333E+03   -0.92532E-06   -0.10558E-08    96   0.257E-04
  21 F= -.10123715E+03 E0= -.10123715E+03  d E =-.611253E-10
       N       E                     dE             d eps       ncg     rms          rms(c)
DAV:   1    -0.101237428450E+03   -0.27904E-03   -0.16830E-01    96   0.122E+00    0.191E-01
DAV:   2    -0.101238414295E+03   -0.98585E-03   -0.10734E-02   108   0.355E-01    0.106E-01
DAV:   3    -0.101238347595E+03    0.66700E-04   -0.32344E-04   132   0.720E-02    0.584E-02
DAV:   4    -0.101238346543E+03    0.10513E-05   -0.15506E-04   108   0.456E-02    0.130E-02
DAV:   5    -0.101238342482E+03    0.40618E-05   -0.25492E-05   132   0.185E-02    0.867E-03
DAV:   6    -0.101238343059E+03   -0.57787E-06   -0.38579E-06   132   0.636E-03
  22 F= -.10123834E+03 E0= -.10123834E+03  d E =-.884413E-10
       N       E                     dE             d eps       ncg     rms          rms(c)
DAV:   1    -0.101236846647E+03    0.14958E-02   -0.33006E-01    96   0.167E+00    0.230E-01
DAV:   2    -0.101238237417E+03   -0.13908E-02   -0.15127E-02   108   0.411E-01    0.109E-01
DAV:   3    -0.101238208235E+03    0.29182E-04   -0.53306E-04   132   0.878E-02    0.560E-02
DAV:   4    -0.101238233111E+03   -0.24876E-04   -0.13028E-04   108   0.430E-02    0.158E-02
DAV:   5    -0.101238232811E+03    0.29966E-06   -0.23020E-05   120   0.192E-02    0.856E-03
DAV:   6    -0.101238233744E+03   -0.93327E-06   -0.57702E-06   132   0.824E-03
  23 F= -.10123823E+03 E0= -.10123823E+03  d E =-.813808E-10
       N       E                     dE             d eps       ncg     rms          rms(c)
DAV:   1    -0.101237359580E+03    0.87323E-03   -0.16694E-01    96   0.120E+00    0.182E-01
DAV:   2    -0.101238096021E+03   -0.73644E-03   -0.81591E-03   120   0.301E-01    0.806E-02
DAV:   3    -0.101238073912E+03    0.22109E-04   -0.29108E-04   108   0.637E-02    0.427E-02
DAV:   4    -0.101238086626E+03   -0.12714E-04   -0.74235E-05   108   0.322E-02    0.122E-02
DAV:   5    -0.101238086559E+03    0.67312E-07   -0.13619E-05   132   0.145E-02    0.694E-03
DAV:   6    -0.101238086878E+03   -0.31934E-06   -0.26015E-06   120   0.567E-03
  24 F= -.10123809E+03 E0= -.10123809E+03  d E =-.657309E-10
       N       E                     dE             d eps       ncg     rms          rms(c)
DAV:   1    -0.101236420833E+03    0.16657E-02   -0.33239E-01    96   0.170E+00    0.277E-01
DAV:   2    -0.101237923042E+03   -0.15022E-02   -0.16909E-02   120   0.454E-01    0.125E-01
DAV:   3    -0.101237853300E+03    0.69742E-04   -0.55624E-04   120   0.903E-02    0.711E-02
DAV:   4    -0.101237865357E+03   -0.12057E-04   -0.18997E-04   108   0.517E-02    0.187E-02
DAV:   5    -0.101237861324E+03    0.40334E-05   -0.34842E-05   132   0.222E-02    0.106E-02
DAV:   6    -0.101237860821E+03    0.50275E-06   -0.50678E-06   120   0.777E-03
  25 F= -.10123786E+03 E0= -.10123786E+03  d E =-.448742E-11
       N       E                     dE             d eps       ncg     rms          rms(c)
DAV:   1    -0.101237040570E+03    0.82075E-03   -0.15565E-01    96   0.123E+00    0.165E-01
DAV:   2    -0.101237983123E+03   -0.94255E-03   -0.10024E-02   132   0.347E-01    0.921E-02
DAV:   3    -0.101237960722E+03    0.22401E-04   -0.30245E-04   120   0.708E-02    0.493E-02
DAV:   4    -0.101237974719E+03   -0.13998E-04   -0.10963E-04   108   0.442E-02    0.110E-02
DAV:   5    -0.101237975143E+03   -0.42407E-06   -0.29464E-05   132   0.206E-02    0.775E-03
DAV:   6    -0.101237976129E+03   -0.98571E-06   -0.36643E-06   120   0.611E-03
  26 F= -.10123798E+03 E0= -.10123798E+03  d E =-.778693E-10
       N       E                     dE             d eps       ncg     rms          rms(c)
DAV:   1    -0.101235928881E+03    0.20463E-02   -0.33589E-01    96   0.173E+00    0.230E-01
DAV:   2    -0.101237723290E+03   -0.17944E-02   -0.18109E-02   144   0.471E-01    0.134E-01
DAV:   3    -0.101237695103E+03    0.28186E-04   -0.47155E-04   108   0.890E-02    0.684E-02
DAV:   4    -0.101237716024E+03   -0.20920E-04   -0.21234E-04   132   0.576E-02    0.147E-02
DAV:   5    -0.101237707834E+03    0.81896E-05   -0.45162E-05   132   0.258E-02    0.945E-03
DAV:   6    -0.101237706748E+03    0.10858E-05   -0.82058E-06   132   0.913E-03    0.572E-03
DAV:   7    -0.101237709719E+03   -0.29713E-05   -0.89341E-07   108   0.410E-03    0.241E-03
DAV:   8    -0.101237715152E+03   -0.54324E-05   -0.13633E-06    96   0.449E-03    0.118E-03
DAV:   9    -0.101237723172E+03   -0.80200E-05   -0.63640E-07   108   0.296E-03    0.819E-04
DAV:  10    -0.101237730521E+03   -0.73490E-05   -0.48671E-07    84   0.213E-03    0.510E-04
DAV:  11    -0.101237734142E+03   -0.36210E-05   -0.15177E-07    96   0.124E-03    0.444E-04
DAV:  12    -0.101237737463E+03   -0.33215E-05   -0.67919E-08    84   0.715E-04    0.216E-04
DAV:  13    -0.101237740339E+03   -0.28753E-05   -0.89406E-08    96   0.628E-04    0.165E-04
DAV:  14    -0.101237741758E+03   -0.14189E-05   -0.20577E-08    84   0.346E-04    0.103E-04
DAV:  15    -0.101237742763E+03   -0.10055E-05   -0.14967E-08    96   0.291E-04    0.521E-05
DAV:  16    -0.101237743243E+03   -0.47946E-06    0.84075E-11    84   0.179E-04
  27 F= -.10123774E+03 E0= -.10123774E+03  d E =-.772325E-10
       N       E                     dE             d eps       ncg     rms          rms(c)
DAV:   1    -0.101236429287E+03    0.13135E-02   -0.17186E-01    96   0.120E+00    0.166E-01
DAV:   2    -0.101237166159E+03   -0.73687E-03   -0.76329E-03   108   0.286E-01    0.821E-02
DAV:   3    -0.101237159009E+03    0.71503E-05   -0.22828E-04   132   0.589E-02    0.429E-02
DAV:   4    -0.101237169723E+03   -0.10714E-04   -0.74548E-05   120   0.360E-02    0.102E-02
DAV:   5    -0.101237167909E+03    0.18141E-05   -0.20407E-05   132   0.170E-02    0.710E-03
DAV:   6    -0.101237167974E+03   -0.65729E-07   -0.28666E-06   132   0.545E-03
  28 F= -.10123717E+03 E0= -.10123717E+03  d E =-.686816E-10
       N       E                     dE             d eps       ncg     rms          rms(c)
DAV:   1    -0.101234841430E+03    0.23265E-02   -0.34904E-01    96   0.180E+00    0.262E-01
DAV:   2    -0.101237156482E+03   -0.23151E-02   -0.23577E-02   120   0.542E-01    0.163E-01
DAV:   3    -0.101237065379E+03    0.91103E-04   -0.50893E-04   132   0.931E-02    0.954E-02
DAV:   4    -0.101237064689E+03    0.68965E-06   -0.34105E-04   108   0.724E-02    0.158E-02
DAV:   5    -0.101237058407E+03    0.62822E-05   -0.87569E-05   132   0.342E-02    0.131E-02
DAV:   6    -0.101237059523E+03   -0.11162E-05   -0.14122E-05   132   0.121E-02    0.861E-03
DAV:   7    -0.101237074492E+03   -0.14969E-04   -0.37053E-06   132   0.666E-03    0.339E-03
DAV:   8    -0.101237093987E+03   -0.19494E-04   -0.16690E-06   120   0.404E-03    0.117E-03
DAV:   9    -0.101237113995E+03   -0.20008E-04   -0.20807E-06   120   0.359E-03    0.134E-03
DAV:  10    -0.101237130874E+03   -0.16879E-04   -0.16183E-06    96   0.284E-03    0.763E-04
DAV:  11    -0.101237137787E+03   -0.69127E-05   -0.37320E-07   108   0.144E-03    0.235E-04
DAV:  12    -0.101237142189E+03   -0.44023E-05   -0.23689E-07    84   0.975E-04    0.208E-04
DAV:  13    -0.101237144048E+03   -0.18589E-05   -0.54553E-08    96   0.516E-04    0.163E-04
DAV:  14    -0.101237145181E+03   -0.11333E-05   -0.22087E-08    84   0.367E-04    0.848E-05
DAV:  15    -0.101237145688E+03   -0.50637E-06   -0.28470E-09   108   0.215E-04
  29 F= -.10123715E+03 E0= -.10123715E+03  d E =-.925425E-10
       N       E                     dE             d eps       ncg     rms          rms(c)
DAV:   1    -0.101235723814E+03    0.14214E-02   -0.17170E-01    96   0.128E+00    0.183E-01
DAV:   2    -0.101236780100E+03   -0.10563E-02   -0.10949E-02   108   0.364E-01    0.110E-01
DAV:   3    -0.101236734377E+03    0.45723E-04   -0.25373E-04   132   0.631E-02    0.598E-02
DAV:   4    -0.101236723311E+03    0.11066E-04   -0.12114E-04   132   0.413E-02    0.110E-02
DAV:   5    -0.101236716855E+03    0.64556E-05   -0.22757E-05   132   0.178E-02    0.746E-03
DAV:   6    -0.101236716540E+03    0.31528E-06   -0.42411E-06   132   0.737E-03
  30 F= -.10123672E+03 E0= -.10123672E+03  d E =-.445942E-11
       N       E                     dE             d eps       ncg     rms          rms(c)
DAV:   1    -0.101234493677E+03    0.22232E-02   -0.35562E-01    96   0.179E+00    0.252E-01
DAV:   2    -0.101236800403E+03   -0.23067E-02   -0.23154E-02   132   0.534E-01    0.168E-01
DAV:   3    -0.101236735686E+03    0.64717E-04   -0.53833E-04   132   0.967E-02    0.890E-02
DAV:   4    -0.101236728346E+03    0.73401E-05   -0.33023E-04   108   0.671E-02    0.168E-02
DAV:   5    -0.101236717750E+03    0.10595E-04   -0.60936E-05   132   0.284E-02    0.119E-02
DAV:   6    -0.101236720416E+03   -0.26658E-05   -0.16786E-05   132   0.122E-02    0.668E-03
DAV:   7    -0.101236739894E+03   -0.19478E-04   -0.32867E-06   132   0.634E-03    0.263E-03
DAV:   8    -0.101236766208E+03   -0.26314E-04   -0.27270E-06   120   0.493E-03    0.115E-03
DAV:   9    -0.101236788653E+03   -0.22445E-04   -0.23914E-06   120   0.368E-03    0.133E-03
DAV:  10    -0.101236806477E+03   -0.17824E-04   -0.14340E-06   108   0.267E-03    0.483E-04
DAV:  11    -0.101236812942E+03   -0.64645E-05   -0.29728E-07   108   0.127E-03    0.301E-04
DAV:  12    -0.101236818869E+03   -0.59266E-05   -0.33689E-07    84   0.115E-03    0.171E-04
DAV:  13    -0.101236820504E+03   -0.16350E-05   -0.52131E-08   108   0.512E-04    0.125E-04
DAV:  14    -0.101236822008E+03   -0.15046E-05   -0.34088E-08    84   0.439E-04    0.571E-05
DAV:  15    -0.101236822537E+03   -0.52905E-06   -0.58022E-09   108   0.234E-04
  31 F= -.10123682E+03 E0= -.10123682E+03  d E =-.653526E-10
       N       E                     dE             d eps       ncg     rms          rms(c)
DAV:   1    -0.101235864100E+03    0.95791E-03   -0.18550E-01    96   0.136E+00    0.170E-01
DAV:   2    -0.101237142802E+03   -0.12787E-02   -0.14396E-02   120   0.411E-01    0.110E-01
DAV:   3    -0.101237082580E+03    0.60222E-04   -0.27598E-04   144   0.636E-02    0.653E-02
DAV:   4    -0.101237051128E+03    0.31452E-04   -0.12646E-04   108   0.444E-02    0.102E-02
DAV:   5    -0.101237041368E+03    0.97604E-05   -0.32423E-05   132   0.208E-02    0.724E-03
DAV:   6    -0.101237039905E+03    0.14627E-05   -0.60526E-06   132   0.809E-03    0.475E-03
DAV:   7    -0.101237050922E+03   -0.11017E-04   -0.21935E-06   108   0.532E-03    0.180E-03
DAV:   8    -0.101237067696E+03   -0.16774E-04   -0.14004E-06   108   0.413E-03    0.123E-03
DAV:   9    -0.101237084092E+03   -0.16395E-04   -0.91400E-07   108   0.279E-03    0.111E-03
DAV:  10    -0.101237100077E+03   -0.15986E-04   -0.82194E-07    84   0.210E-03    0.339E-04
DAV:  11    -0.101237107091E+03   -0.70135E-05   -0.22412E-07   108   0.105E-03    0.293E-04
DAV:  12    -0.101237113524E+03   -0.64335E-05   -0.15009E-07    84   0.884E-04    0.130E-04
DAV:  13    -0.101237115590E+03   -0.20659E-05   -0.43225E-08   108   0.475E-04    0.114E-04
DAV:  14    -0.101237117607E+03   -0.20172E-05   -0.19372E-08    84   0.372E-04    0.660E-05
DAV:  15    -0.101237118429E+03   -0.82110E-06   -0.74989E-09   108   0.249E-04
  32 F= -.10123712E+03 E0= -.10123712E+03  d E =-.790467E-10
       N       E                     dE             d eps       ncg     rms          rms(c)
DAV:   1    -0.101235585424E+03    0.15322E-02   -0.40782E-01   120   0.188E+00    0.217E-01
DAV:   2    -0.101237084501E+03   -0.14991E-02   -0.18543E-02   108   0.452E-01    0.125E-01
DAV:   3    -0.101236973437E+03    0.11106E-03   -0.32382E-04   132   0.643E-02    0.648E-02
DAV:   4    -0.101236916980E+03    0.56457E-04   -0.11987E-04   132   0.429E-02    0.112E-02
DAV:   5    -0.101236912362E+03    0.46176E-05   -0.24713E-05   132   0.189E-02    0.781E-03
DAV:   6    -0.101236925324E+03   -0.12962E-04   -0.10268E-05   132   0.922E-03    0.442E-03
DAV:   7    -0.101236949082E+03   -0.23757E-04   -0.15999E-06   120   0.403E-03    0.219E-03
DAV:   8    -0.101236986187E+03   -0.37105E-04   -0.39999E-06    96   0.450E-03    0.131E-03
DAV:   9    -0.101237009716E+03   -0.23529E-04   -0.17704E-06   120   0.304E-03    0.907E-04
DAV:  10    -0.101237030117E+03   -0.20401E-04   -0.17076E-06    96   0.267E-03    0.350E-04
DAV:  11    -0.101237038326E+03   -0.82087E-05   -0.30693E-07    96   0.131E-03    0.332E-04
DAV:  12    -0.101237044532E+03   -0.62063E-05   -0.31543E-07    96   0.112E-03    0.158E-04
DAV:  13    -0.101237046055E+03   -0.15222E-05   -0.40112E-08   108   0.471E-04    0.101E-04
DAV:  14    -0.101237047397E+03   -0.13420E-05   -0.15194E-08    84   0.348E-04    0.636E-05
DAV:  15    -0.101237047956E+03   -0.55946E-06   -0.27552E-09   108   0.212E-04
  33 F= -.10123705E+03 E0= -.10123705E+03  d E =-.615982E-10
       N       E                     dE             d eps       ncg     rms          rms(c)
DAV:   1    -0.101236649002E+03    0.39839E-03   -0.20367E-01    96   0.134E+00    0.150E-01
DAV:   2    -0.101237399869E+03   -0.75087E-03   -0.91963E-03   108   0.308E-01    0.788E-02
DAV:   3    -0.101237355757E+03    0.44112E-04   -0.16351E-04   132   0.444E-02    0.419E-02
DAV:   4    -0.101237328334E+03    0.27423E-04   -0.47968E-05   132   0.275E-02    0.838E-03
DAV:   5    -0.101237321805E+03    0.65291E-05   -0.10218E-05   132   0.128E-02    0.541E-03
DAV:   6    -0.101237322584E+03   -0.77879E-06   -0.34346E-06   132   0.652E-03
  34 F= -.10123732E+03 E0= -.10123732E+03  d E =-.764572E-10
       N       E                     dE             d eps       ncg     rms          rms(c)
DAV:   1    -0.101236097094E+03    0.12247E-02   -0.40381E-01    96   0.187E+00    0.219E-01
DAV:   2    -0.101237604792E+03   -0.15077E-02   -0.18222E-02   108   0.423E-01    0.115E-01
DAV:   3    -0.101237530593E+03    0.74199E-04   -0.31416E-04   132   0.609E-02    0.598E-02
DAV:   4    -0.101237471973E+03    0.58621E-04   -0.94850E-05   108   0.362E-02    0.113E-02
DAV:   5    -0.101237465613E+03    0.63600E-05   -0.15121E-05   132   0.160E-02    0.632E-03
DAV:   6    -0.101237479279E+03   -0.13667E-04   -0.82817E-06   132   0.983E-03    0.322E-03
DAV:   7    -0.101237502139E+03   -0.22860E-04   -0.32140E-06   132   0.598E-03    0.203E-03
DAV:   8    -0.101237528501E+03   -0.26362E-04   -0.20578E-06   120   0.362E-03    0.979E-04
DAV:   9    -0.101237548831E+03   -0.20330E-04   -0.18135E-06   120   0.304E-03    0.790E-04
DAV:  10    -0.101237567779E+03   -0.18948E-04   -0.19413E-06    96   0.273E-03    0.289E-04
DAV:  11    -0.101237573531E+03   -0.57519E-05   -0.25295E-07   108   0.119E-03    0.256E-04
DAV:  12    -0.101237577765E+03   -0.42336E-05   -0.19144E-07    84   0.873E-04    0.112E-04
DAV:  13    -0.101237579197E+03   -0.14318E-05   -0.49112E-08   108   0.458E-04    0.671E-05
DAV:  14    -0.101237580020E+03   -0.82336E-06   -0.83581E-09    96   0.278E-04
  35 F= -.10123758E+03 E0= -.10123758E+03  d E =-.937753E-10
       N       E                     dE             d eps       ncg     rms          rms(c)
DAV:   1    -0.101237753018E+03   -0.17382E-03   -0.20511E-01   108   0.131E+00    0.144E-01
DAV:   2    -0.101238438561E+03   -0.68554E-03   -0.82719E-03   108   0.280E-01    0.697E-02
DAV:   3    -0.101238411426E+03    0.27136E-04   -0.15975E-04   132   0.450E-02    0.367E-02
DAV:   4    -0.101238398404E+03    0.13021E-04   -0.45952E-05   108   0.305E-02    0.773E-03
DAV:   5    -0.101238395792E+03    0.26117E-05   -0.15718E-05   132   0.148E-02    0.575E-03
DAV:   6    -0.101238396181E+03   -0.38825E-06   -0.24723E-06   132   0.514E-03
  36 F= -.10123840E+03 E0= -.10123840E+03  d E =-.590528E-10
       N       E                     dE             d eps       ncg     rms          rms(c)
DAV:   1    -0.101236930479E+03    0.14653E-02   -0.41306E-01    96   0.179E+00    0.186E-01
DAV:   2    -0.101238259583E+03   -0.13291E-02   -0.15988E-02   108   0.381E-01    0.919E-02
DAV:   3    -0.101238223526E+03    0.36057E-04   -0.31769E-04   132   0.617E-02    0.481E-02
DAV:   4    -0.101238205871E+03    0.17655E-04   -0.77903E-05   132   0.398E-02    0.101E-02
DAV:   5    -0.101238203039E+03    0.28320E-05   -0.24964E-05   132   0.193E-02    0.772E-03
DAV:   6    -0.101238205362E+03   -0.23229E-05   -0.42736E-06   132   0.709E-03    0.492E-03
DAV:   7    -0.101238212411E+03   -0.70494E-05   -0.83810E-07   108   0.438E-03    0.180E-03
DAV:   8    -0.101238222304E+03   -0.98929E-05   -0.12140E-06   120   0.397E-03    0.123E-03
DAV:   9    -0.101238238831E+03   -0.16527E-04   -0.11915E-06    96   0.356E-03    0.599E-04
DAV:  10    -0.101238245796E+03   -0.69652E-05   -0.40634E-07   108   0.201E-03    0.582E-04
DAV:  11    -0.101238249837E+03   -0.40403E-05   -0.88187E-08    96   0.928E-04    0.386E-04
DAV:  12    -0.101238256619E+03   -0.67821E-05   -0.27678E-07    84   0.110E-03    0.269E-04
DAV:  13    -0.101238257826E+03   -0.12076E-05   -0.27800E-08   108   0.444E-04    0.213E-04
DAV:  14    -0.101238259942E+03   -0.21160E-05   -0.44411E-08    84   0.457E-04    0.534E-05
DAV:  15    -0.101238260559E+03   -0.61661E-06   -0.41740E-09    96   0.234E-04
  37 F= -.10123826E+03 E0= -.10123826E+03  d E =-.654083E-11
       N       E                     dE             d eps       ncg     rms          rms(c)
DAV:   1    -0.101237333105E+03    0.92684E-03   -0.20285E-01   108   0.131E+00    0.134E-01
DAV:   2    -0.101238250799E+03   -0.91769E-03   -0.11099E-02   120   0.305E-01    0.686E-02
DAV:   3    -0.101238222541E+03    0.28259E-04   -0.22510E-04   144   0.506E-02    0.384E-02
DAV:   4    -0.101238199069E+03    0.23472E-04   -0.42939E-05   120   0.315E-02    0.842E-03
DAV:   5    -0.101238194660E+03    0.44088E-05   -0.19563E-05   132   0.170E-02    0.581E-03
DAV:   6    -0.101238195923E+03   -0.12638E-05   -0.25039E-06   132   0.561E-03    0.404E-03
DAV:   7    -0.101238201411E+03   -0.54874E-05   -0.65015E-07   108   0.339E-03    0.170E-03
DAV:   8    -0.101238210050E+03   -0.86388E-05   -0.91038E-07    96   0.336E-03    0.956E-04
DAV:   9    -0.101238223337E+03   -0.13287E-04   -0.10750E-06   108   0.288E-03    0.601E-04
DAV:  10    -0.101238229311E+03   -0.59742E-05   -0.30906E-07    96   0.160E-03    0.505E-04
DAV:  11    -0.101238233154E+03   -0.38429E-05   -0.11895E-07    96   0.896E-04    0.234E-04
DAV:  12    -0.101238236246E+03   -0.30917E-05   -0.10082E-07    84   0.685E-04    0.179E-04
DAV:  13    -0.101238237820E+03   -0.15747E-05   -0.27637E-08   108   0.398E-04    0.762E-05
DAV:  14    -0.101238238931E+03   -0.11105E-05   -0.27014E-08    84   0.341E-04    0.535E-05
DAV:  15    -0.101238239382E+03   -0.45112E-06    0.84182E-11   108   0.179E-04
  38 F= -.10123824E+03 E0= -.10123824E+03  d E =-.604644E-10
       N       E                     dE             d eps       ncg     rms          rms(c)
DAV:   1    -0.101236837339E+03    0.14016E-02   -0.41050E-01    96   0.176E+00    0.182E-01
DAV:   2    -0.101238271567E+03   -0.14342E-02   -0.17063E-02   132   0.383E-01    0.957E-02
DAV:   3    -0.101238196545E+03    0.75023E-04   -0.28824E-04   132   0.619E-02    0.508E-02
DAV:   4    -0.101238164809E+03    0.31736E-04   -0.10080E-04   132   0.422E-02    0.104E-02
DAV:   5    -0.101238160380E+03    0.44294E-05   -0.27577E-05   132   0.197E-02    0.703E-03
DAV:   6    -0.101238164501E+03   -0.41213E-05   -0.51840E-06   132   0.760E-03    0.402E-03
DAV:   7    -0.101238174849E+03   -0.10348E-04   -0.10923E-06   120   0.372E-03    0.169E-03
DAV:   8    -0.101238187777E+03   -0.12928E-04   -0.90904E-07    96   0.298E-03    0.938E-04
DAV:   9    -0.101238203845E+03   -0.16068E-04   -0.12803E-06   108   0.291E-03    0.583E-04
DAV:  10    -0.101238215713E+03   -0.11868E-04   -0.10137E-06    96   0.229E-03    0.383E-04
DAV:  11    -0.101238219792E+03   -0.40788E-05   -0.10961E-07   108   0.104E-03    0.222E-04
DAV:  12    -0.101238223450E+03   -0.36577E-05   -0.14549E-07    84   0.817E-04    0.145E-04
DAV:  13    -0.101238225084E+03   -0.16342E-05   -0.44761E-08   108   0.452E-04    0.932E-05
DAV:  14    -0.101238226009E+03   -0.92492E-06   -0.88372E-09    84   0.266E-04
  39 F= -.10123823E+03 E0= -.10123823E+03  d E =-.841620E-11
       N       E                     dE             d eps       ncg     rms          rms(c)
DAV:   1    -0.101237319305E+03    0.90578E-03   -0.20658E-01    96   0.122E+00    0.121E-01
DAV:   2    -0.101237955423E+03   -0.63612E-03   -0.75700E-03   108   0.252E-01    0.570E-02
DAV:   3    -0.101237931255E+03    0.24168E-04   -0.14720E-04   132   0.430E-02    0.289E-02
DAV:   4    -0.101237921583E+03    0.96717E-05   -0.35008E-05   132   0.257E-02    0.720E-03
DAV:   5    -0.101237918891E+03    0.26924E-05   -0.10160E-05   132   0.126E-02    0.449E-03
DAV:   6    -0.101237919369E+03   -0.47760E-06   -0.22543E-06   120   0.528E-03
  40 F= -.10123792E+03 E0= -.10123792E+03  d E =-.603570E-10
       N       E                     dE             d eps       ncg     rms          rms(c)
DAV:   1    -0.101235906645E+03    0.20122E-02   -0.39849E-01    96   0.177E+00    0.194E-01
DAV:   2    -0.101237426086E+03   -0.15194E-02   -0.18461E-02   120   0.411E-01    0.113E-01
DAV:   3    -0.101237330176E+03    0.95910E-04   -0.32618E-04   120   0.664E-02    0.573E-02
DAV:   4    -0.101237292575E+03    0.37601E-04   -0.12388E-04   120   0.429E-02    0.110E-02
DAV:   5    -0.101237281963E+03    0.10613E-04   -0.22912E-05   132   0.182E-02    0.711E-03
DAV:   6    -0.101237282772E+03   -0.80947E-06   -0.67440E-06   132   0.797E-03
  41 F= -.10123728E+03 E0= -.10123728E+03  d E =-.803384E-11
       N       E                     dE             d eps       ncg     rms          rms(c)
DAV:   1    -0.101237772289E+03   -0.49033E-03   -0.20371E-01    96   0.126E+00    0.136E-01
DAV:   2    -0.101238493111E+03   -0.72082E-03   -0.83603E-03   132   0.278E-01    0.686E-02
DAV:   3    -0.101238476499E+03    0.16611E-04   -0.14779E-04   108   0.433E-02    0.361E-02
DAV:   4    -0.101238485057E+03   -0.85573E-05   -0.50604E-05   108   0.285E-02    0.802E-03
DAV:   5    -0.101238487127E+03   -0.20702E-05   -0.11332E-05   132   0.129E-02    0.525E-03
DAV:   6    -0.101238488677E+03   -0.15505E-05   -0.23393E-06   108   0.534E-03    0.279E-03
DAV:   7    -0.101238491019E+03   -0.23413E-05   -0.42687E-07   108   0.258E-03    0.107E-03
DAV:   8    -0.101238493255E+03   -0.22364E-05   -0.23102E-07    84   0.180E-03    0.510E-04
DAV:   9    -0.101238496725E+03   -0.34697E-05   -0.22955E-07    96   0.156E-03    0.302E-04
DAV:  10    -0.101238499432E+03   -0.27075E-05   -0.18410E-07    84   0.116E-03    0.177E-04
DAV:  11    -0.101238500920E+03   -0.14882E-05   -0.43927E-08   108   0.628E-04    0.149E-04
DAV:  12    -0.101238502283E+03   -0.13621E-05   -0.40155E-08    84   0.471E-04    0.671E-05
DAV:  13    -0.101238502767E+03   -0.48391E-06   -0.66186E-09    96   0.241E-04
  42 F= -.10123850E+03 E0= -.10123850E+03  d E =-.364724E-10
       N       E                     dE             d eps       ncg     rms          rms(c)
DAV:   1    -0.101237427386E+03    0.10749E-02   -0.41863E-01   120   0.176E+00    0.209E-01
DAV:   2    -0.101238602390E+03   -0.11750E-02   -0.14231E-02   132   0.364E-01    0.821E-02
DAV:   3    -0.101238551043E+03    0.51347E-04   -0.31409E-04   132   0.631E-02    0.427E-02
DAV:   4    -0.101238533978E+03    0.17066E-04   -0.72875E-05   132   0.367E-02    0.117E-02
DAV:   5    -0.101238531182E+03    0.27955E-05   -0.20782E-05   132   0.179E-02    0.725E-03
DAV:   6    -0.101238532273E+03   -0.10907E-05   -0.38387E-06   132   0.697E-03    0.424E-03
DAV:   7    -0.101238536060E+03   -0.37875E-05   -0.34461E-07   108   0.255E-03    0.184E-03
DAV:   8    -0.101238541779E+03   -0.57190E-05   -0.41826E-07    96   0.253E-03    0.792E-04
DAV:   9    -0.101238550099E+03   -0.83199E-05   -0.58204E-07    96   0.264E-03    0.553E-04
DAV:  10    -0.101238555558E+03   -0.54591E-05   -0.43663E-07    96   0.192E-03    0.516E-04
DAV:  11    -0.101238557626E+03   -0.20681E-05   -0.64486E-08   108   0.941E-04    0.293E-04
DAV:  12    -0.101238559719E+03   -0.20924E-05   -0.48817E-08    84   0.613E-04    0.141E-04
DAV:  13    -0.101238560923E+03   -0.12041E-05   -0.22432E-08    96   0.378E-04    0.155E-04
DAV:  14    -0.101238562067E+03   -0.11441E-05   -0.22742E-08    84   0.338E-04    0.505E-05
DAV:  15    -0.101238562320E+03   -0.25348E-06    0.22039E-09   108   0.148E-04
  43 F= -.10123856E+03 E0= -.10123856E+03  d E =-.693413E-11
       N       E                     dE             d eps       ncg     rms          rms(c)
DAV:   1    -0.101237318904E+03    0.12432E-02   -0.20356E-01    96   0.129E+00    0.156E-01
DAV:   2    -0.101238215601E+03   -0.89670E-03   -0.10597E-02   108   0.289E-01    0.646E-02
DAV:   3    -0.101238188480E+03    0.27121E-04   -0.19985E-04   144   0.462E-02    0.356E-02
DAV:   4    -0.101238176746E+03    0.11734E-04   -0.44882E-05   120   0.248E-02    0.900E-03
DAV:   5    -0.101238174140E+03    0.26055E-05   -0.89588E-06   132   0.117E-02    0.520E-03
DAV:   6    -0.101238174695E+03   -0.55500E-06   -0.22107E-06   120   0.563E-03
  44 F= -.10123817E+03 E0= -.10123817E+03  d E =-.463819E-10
       N       E                     dE             d eps       ncg     rms          rms(c)
DAV:   1    -0.101237006598E+03    0.11675E-02   -0.41368E-01    96   0.178E+00    0.215E-01
DAV:   2    -0.101238368692E+03   -0.13621E-02   -0.16118E-02   144   0.391E-01    0.926E-02
DAV:   3    -0.101238309599E+03    0.59093E-04   -0.29249E-04   132   0.619E-02    0.491E-02
DAV:   4    -0.101238286149E+03    0.23450E-04   -0.10138E-04   108   0.408E-02    0.113E-02
DAV:   5    -0.101238279830E+03    0.63187E-05   -0.25265E-05   132   0.192E-02    0.720E-03
DAV:   6    -0.101238280023E+03   -0.19286E-06   -0.43374E-06   108   0.723E-03
  45 F= -.10123828E+03 E0= -.10123828E+03  d E =-.115967E-10
       N       E                     dE             d eps       ncg     rms          rms(c)
DAV:   1    -0.101236793224E+03    0.14866E-02   -0.20007E-01    96   0.126E+00    0.151E-01
DAV:   2    -0.101237562429E+03   -0.76920E-03   -0.92590E-03   132   0.294E-01    0.845E-02
DAV:   3    -0.101237514577E+03    0.47852E-04   -0.15634E-04   108   0.472E-02    0.431E-02
DAV:   4    -0.101237501210E+03    0.13367E-04   -0.75212E-05   120   0.326E-02    0.865E-03
DAV:   5    -0.101237495594E+03    0.56159E-05   -0.12757E-05   132   0.135E-02    0.529E-03
DAV:   6    -0.101237494702E+03    0.89181E-06   -0.30738E-06   132   0.529E-03
  46 F= -.10123749E+03 E0= -.10123749E+03  d E =-.794837E-11
       N       E                     dE             d eps       ncg     rms          rms(c)
DAV:   1    -0.101236561995E+03    0.93360E-03   -0.39981E-01    96   0.176E+00    0.193E-01
DAV:   2    -0.101238119512E+03   -0.15575E-02   -0.18548E-02   108   0.409E-01    0.111E-01
DAV:   3    -0.101238043775E+03    0.75737E-04   -0.30567E-04   120   0.632E-02    0.584E-02
DAV:   4    -0.101238001295E+03    0.42480E-04   -0.11706E-04   108   0.420E-02    0.110E-02
DAV:   5    -0.101237989198E+03    0.12097E-04   -0.23143E-05   132   0.183E-02    0.686E-03
DAV:   6    -0.101237990640E+03   -0.14418E-05   -0.60761E-06   132   0.785E-03    0.377E-03
DAV:   7    -0.101238000752E+03   -0.10112E-04   -0.14477E-06   132   0.388E-03    0.170E-03
DAV:   8    -0.101238013195E+03   -0.12444E-04   -0.94970E-07    96   0.259E-03    0.895E-04
DAV:   9    -0.101238026467E+03   -0.13272E-04   -0.10341E-06   108   0.225E-03    0.689E-04
DAV:  10    -0.101238040552E+03   -0.14084E-04   -0.14453E-06    96   0.230E-03    0.323E-04
DAV:  11    -0.101238043475E+03   -0.29238E-05   -0.75684E-08   108   0.833E-04    0.232E-04
DAV:  12    -0.101238047594E+03   -0.41189E-05   -0.16905E-07    84   0.864E-04    0.120E-04
DAV:  13    -0.101238049259E+03   -0.16651E-05   -0.62567E-08    96   0.499E-04    0.954E-05
DAV:  14    -0.101238050172E+03   -0.91271E-06   -0.73803E-09    84   0.280E-04
  47 F= -.10123805E+03 E0= -.10123805E+03  d E =-.502972E-10
       N       E                     dE             d eps       ncg     rms          rms(c)
DAV:   1    -0.101237697140E+03    0.35212E-03   -0.19965E-01    96   0.124E+00    0.136E-01
DAV:   2    -0.101238472257E+03   -0.77512E-03   -0.95044E-03    96   0.295E-01    0.813E-02
DAV:   3    -0.101238416319E+03    0.55938E-04   -0.16054E-04   144   0.471E-02    0.420E-02
DAV:   4    -0.101238389413E+03    0.26906E-04   -0.64840E-05   132   0.313E-02    0.790E-03
DAV:   5    -0.101238383737E+03    0.56758E-05   -0.13421E-05   132   0.137E-02    0.537E-03
DAV:   6    -0.101238384899E+03   -0.11620E-05   -0.35361E-06   132   0.574E-03    0.288E-03
DAV:   7    -0.101238391975E+03   -0.70756E-05   -0.70474E-07   108   0.296E-03    0.128E-03
DAV:   8    -0.101238403877E+03   -0.11902E-04   -0.92403E-07    96   0.253E-03    0.871E-04
DAV:   9    -0.101238414780E+03   -0.10903E-04   -0.49490E-07    96   0.174E-03    0.577E-04
DAV:  10    -0.101238424968E+03   -0.10188E-04   -0.57723E-07    84   0.145E-03    0.273E-04
DAV:  11    -0.101238428611E+03   -0.36432E-05   -0.88093E-08   108   0.697E-04    0.202E-04
DAV:  12    -0.101238432791E+03   -0.41802E-05   -0.96358E-08    84   0.683E-04    0.922E-05
DAV:  13    -0.101238434273E+03   -0.14816E-05   -0.26299E-08    96   0.371E-04    0.732E-05
DAV:  14    -0.101238435363E+03   -0.10897E-05   -0.62517E-09    84   0.254E-04    0.308E-05
DAV:  15    -0.101238435889E+03   -0.52667E-06   -0.22784E-10   108   0.171E-04
  48 F= -.10123844E+03 E0= -.10123844E+03  d E =-.887293E-10
       N       E                     dE             d eps       ncg     rms          rms(c)
DAV:   1    -0.101237068305E+03    0.13671E-02   -0.41252E-01    96   0.177E+00    0.183E-01
DAV:   2    -0.101238345192E+03   -0.12769E-02   -0.15391E-02   132   0.373E-01    0.901E-02
DAV:   3    -0.101238280715E+03    0.64477E-04   -0.29285E-04   132   0.621E-02    0.464E-02
DAV:   4    -0.101238254384E+03    0.26331E-04   -0.88715E-05   144   0.400E-02    0.107E-02
DAV:   5    -0.101238250590E+03    0.37940E-05   -0.22001E-05   132   0.180E-02    0.718E-03
DAV:   6    -0.101238253866E+03   -0.32757E-05   -0.44616E-06   132   0.736E-03    0.388E-03
DAV:   7    -0.101238262511E+03   -0.86451E-05   -0.89202E-07   108   0.374E-03    0.155E-03
DAV:   8    -0.101238273340E+03   -0.10828E-04   -0.80614E-07    96   0.289E-03    0.903E-04
DAV:   9    -0.101238289684E+03   -0.16345E-04   -0.13500E-06   108   0.314E-03    0.455E-04
DAV:  10    -0.101238298066E+03   -0.83817E-05   -0.57264E-07   108   0.200E-03    0.339E-04
DAV:  11    -0.101238301853E+03   -0.37865E-05   -0.14550E-07    84   0.101E-03    0.231E-04
DAV:  12    -0.101238305754E+03   -0.39011E-05   -0.15771E-07    84   0.864E-04    0.119E-04
DAV:  13    -0.101238307088E+03   -0.13347E-05   -0.41027E-08   108   0.451E-04    0.904E-05
DAV:  14    -0.101238308100E+03   -0.10111E-05   -0.16822E-08    84   0.308E-04    0.399E-05
DAV:  15    -0.101238308534E+03   -0.43480E-06   -0.13454E-09   108   0.194E-04
  49 F= -.10123831E+03 E0= -.10123831E+03  d E =-.433562E-11
       N       E                     dE             d eps       ncg     rms          rms(c)
DAV:   1    -0.101236073616E+03    0.22345E-02   -0.19725E-01   108   0.130E+00    0.143E-01
DAV:   2    -0.101237202117E+03   -0.11285E-02   -0.13799E-02   108   0.335E-01    0.773E-02
DAV:   3    -0.101237169932E+03    0.32185E-04   -0.25237E-04   144   0.508E-02    0.437E-02
DAV:   4    -0.101237143414E+03    0.26519E-04   -0.52584E-05   120   0.296E-02    0.928E-03
DAV:   5    -0.101237135110E+03    0.83035E-05   -0.13716E-05   132   0.143E-02    0.531E-03
DAV:   6    -0.101237135368E+03   -0.25832E-06   -0.31138E-06   132   0.663E-03
  50 F= -.10123714E+03 E0= -.10123714E+03  d E =-.105245E-10
       N       E                     dE             d eps       ncg     rms          rms(c)
DAV:   1    -0.101236059063E+03    0.10760E-02   -0.40217E-01    96   0.178E+00    0.195E-01
DAV:   2    -0.101237532190E+03   -0.14731E-02   -0.18063E-02   132   0.403E-01    0.115E-01
DAV:   3    -0.101237461361E+03    0.70829E-04   -0.26568E-04   108   0.529E-02    0.586E-02
DAV:   4    -0.101237382905E+03    0.78455E-04   -0.87505E-05   120   0.325E-02    0.104E-02
DAV:   5    -0.101237372460E+03    0.10446E-04   -0.13324E-05   132   0.146E-02    0.578E-03
DAV:   6    -0.101237387798E+03   -0.15338E-04   -0.10480E-05   132   0.106E-02    0.302E-03
DAV:   7    -0.101237411997E+03   -0.24198E-04   -0.37824E-06   132   0.614E-03    0.217E-03
DAV:   8    -0.101237440065E+03   -0.28069E-04   -0.20241E-06   120   0.329E-03    0.102E-03
DAV:   9    -0.101237466667E+03   -0.26602E-04   -0.27267E-06    96   0.347E-03    0.837E-04
DAV:  10    -0.101237487167E+03   -0.20501E-04   -0.20833E-06   120   0.285E-03    0.330E-04
DAV:  11    -0.101237491830E+03   -0.46627E-05   -0.17169E-07   108   0.106E-03    0.322E-04
DAV:  12    -0.101237495852E+03   -0.40221E-05   -0.13743E-07   108   0.803E-04    0.126E-04
DAV:  13    -0.101237497907E+03   -0.20550E-05   -0.62228E-08   108   0.516E-04    0.102E-04
DAV:  14    -0.101237498858E+03   -0.95086E-06   -0.71029E-09   108   0.291E-04
  51 F= -.10123750E+03 E0= -.10123750E+03  d E =-.406703E-10
       N       E                     dE             d eps       ncg     rms          rms(c)
DAV:   1    -0.101237852923E+03   -0.35502E-03   -0.20249E-01   120   0.125E+00    0.132E-01
DAV:   2    -0.101238595108E+03   -0.74219E-03   -0.91381E-03    96   0.281E-01    0.739E-02
DAV:   3    -0.101238565745E+03    0.29363E-04   -0.16898E-04   144   0.436E-02    0.392E-02
DAV:   4    -0.101238541973E+03    0.23772E-04   -0.42877E-05   120   0.281E-02    0.697E-03
DAV:   5    -0.101238537357E+03    0.46156E-05   -0.12364E-05   132   0.135E-02    0.544E-03
DAV:   6    -0.101238538228E+03   -0.87056E-06   -0.32882E-06   108   0.574E-03
  52 F= -.10123854E+03 E0= -.10123854E+03  d E =-.631461E-11
       N       E                     dE             d eps       ncg     rms          rms(c)
DAV:   1    -0.101237312020E+03    0.12253E-02   -0.41102E-01    96   0.169E+00    0.168E-01
DAV:   2    -0.101238555011E+03   -0.12430E-02   -0.14746E-02   132   0.337E-01    0.821E-02
DAV:   3    -0.101238548256E+03    0.67551E-05   -0.29983E-04   132   0.620E-02    0.427E-02
DAV:   4    -0.101238547934E+03    0.32227E-06   -0.66751E-05   120   0.428E-02    0.879E-03
DAV:   5    -0.101238550584E+03   -0.26500E-05   -0.32732E-05   132   0.213E-02    0.816E-03
DAV:   6    -0.101238552012E+03   -0.14282E-05   -0.27580E-06   132   0.531E-03    0.650E-03
DAV:   7    -0.101238556040E+03   -0.40283E-05   -0.73655E-07    96   0.319E-03    0.257E-03
DAV:   8    -0.101238560807E+03   -0.47671E-05   -0.91458E-07    96   0.354E-03    0.155E-03
DAV:   9    -0.101238571342E+03   -0.10535E-04   -0.96646E-07    84   0.433E-03    0.121E-03
DAV:  10    -0.101238575131E+03   -0.37887E-05   -0.52238E-07   108   0.229E-03    0.126E-03
DAV:  11    -0.101238576582E+03   -0.14508E-05   -0.46930E-08   108   0.883E-04    0.905E-04
DAV:  12    -0.101238579492E+03   -0.29103E-05   -0.73157E-08    84   0.851E-04    0.293E-04
DAV:  13    -0.101238582105E+03   -0.26131E-05   -0.83256E-08    96   0.739E-04    0.227E-04
DAV:  14    -0.101238583751E+03   -0.16459E-05   -0.37868E-08    84   0.455E-04    0.197E-04
DAV:  15    -0.101238584245E+03   -0.49342E-06   -0.16144E-09    96   0.213E-04
  53 F= -.10123858E+03 E0= -.10123858E+03  d E =-.498768E-11
       N       E                     dE             d eps       ncg     rms          rms(c)
DAV:   1    -0.101236222535E+03    0.23612E-02   -0.20438E-01   120   0.123E+00    0.126E-01
DAV:   2    -0.101236903094E+03   -0.68056E-03   -0.82531E-03   108   0.265E-01    0.675E-02
DAV:   3    -0.101236881686E+03    0.21408E-04   -0.17172E-04   156   0.439E-02    0.354E-02
DAV:   4    -0.101236868080E+03    0.13605E-04   -0.36935E-05   120   0.292E-02    0.643E-03
DAV:   5    -0.101236865523E+03    0.25575E-05   -0.15554E-05   132   0.146E-02    0.496E-03
DAV:   6    -0.101236865899E+03   -0.37597E-06   -0.24568E-06   120   0.506E-03
  54 F= -.10123687E+03 E0= -.10123687E+03  d E =-.679087E-11
       N       E                     dE             d eps       ncg     rms          rms(c)
DAV:   1    -0.101235696217E+03    0.11693E-02   -0.40318E-01    96   0.175E+00    0.203E-01
DAV:   2    -0.101237222600E+03   -0.15264E-02   -0.18671E-02   132   0.414E-01    0.125E-01
DAV:   3    -0.101237129001E+03    0.93599E-04   -0.28934E-04   108   0.577E-02    0.636E-02
DAV:   4    -0.101237071219E+03    0.57782E-04   -0.12544E-04   132   0.411E-02    0.109E-02
DAV:   5    -0.101237062434E+03    0.87852E-05   -0.22037E-05   132   0.174E-02    0.677E-03
DAV:   6    -0.101237073332E+03   -0.10898E-04   -0.11877E-05   108   0.935E-03    0.364E-03
DAV:   7    -0.101237093631E+03   -0.20299E-04   -0.18577E-06   132   0.435E-03    0.209E-03
DAV:   8    -0.101237126439E+03   -0.32808E-04   -0.35479E-06    96   0.407E-03    0.102E-03
DAV:   9    -0.101237145944E+03   -0.19505E-04   -0.15316E-06   108   0.265E-03    0.822E-04
DAV:  10    -0.101237166755E+03   -0.20811E-04   -0.20313E-06    96   0.272E-03    0.341E-04
DAV:  11    -0.101237173040E+03   -0.62849E-05   -0.26415E-07   108   0.115E-03    0.286E-04
DAV:  12    -0.101237178300E+03   -0.52603E-05   -0.29571E-07    84   0.106E-03    0.133E-04
DAV:  13    -0.101237179346E+03   -0.10458E-05   -0.29459E-08   108   0.415E-04    0.796E-05
DAV:  14    -0.101237180391E+03   -0.10444E-05   -0.12003E-08    84   0.311E-04    0.436E-05
DAV:  15    -0.101237180819E+03   -0.42851E-06   -0.11922E-09    96   0.189E-04
  55 F= -.10123718E+03 E0= -.10123718E+03  d E =-.576748E-10
       N       E                     dE             d eps       ncg     rms          rms(c)
DAV:   1    -0.101237478008E+03   -0.29762E-03   -0.20199E-01    96   0.133E+00    0.144E-01
DAV:   2    -0.101238451179E+03   -0.97317E-03   -0.11801E-02   108   0.330E-01    0.791E-02
DAV:   3    -0.101238413061E+03    0.38118E-04   -0.22163E-04   144   0.492E-02    0.445E-02
DAV:   4    -0.101238380121E+03    0.32940E-04   -0.51276E-05   132   0.315E-02    0.839E-03
DAV:   5    -0.101238371617E+03    0.85038E-05   -0.17910E-05   132   0.161E-02    0.632E-03
DAV:   6    -0.101238372815E+03   -0.11978E-05   -0.39110E-06   132   0.652E-03    0.432E-03
DAV:   7    -0.101238381540E+03   -0.87246E-05   -0.87686E-07   108   0.385E-03    0.181E-03
DAV:   8    -0.101238396557E+03   -0.15017E-04   -0.18053E-06   120   0.406E-03    0.133E-03
DAV:   9    -0.101238415073E+03   -0.18516E-04   -0.12874E-06    96   0.321E-03    0.717E-04
DAV:  10    -0.101238423727E+03   -0.86547E-05   -0.41251E-07   108   0.175E-03    0.560E-04
DAV:  11    -0.101238429187E+03   -0.54597E-05   -0.13902E-07   108   0.962E-04    0.301E-04
DAV:  12    -0.101238435365E+03   -0.61776E-05   -0.28940E-07    84   0.109E-03    0.256E-04
DAV:  13    -0.101238436281E+03   -0.91682E-06   -0.20975E-08   108   0.419E-04
  56 F= -.10123844E+03 E0= -.10123844E+03  d E =-.590800E-10
       N       E                     dE             d eps       ncg     rms          rms(c)
DAV:   1    -0.101236771891E+03    0.16635E-02   -0.41336E-01   120   0.179E+00    0.194E-01
DAV:   2    -0.101238175855E+03   -0.14040E-02   -0.16867E-02   108   0.394E-01    0.943E-02
DAV:   3    -0.101238133879E+03    0.41976E-04   -0.34605E-04   132   0.647E-02    0.500E-02
DAV:   4    -0.101238110193E+03    0.23685E-04   -0.80695E-05   132   0.417E-02    0.106E-02
DAV:   5    -0.101238105188E+03    0.50053E-05   -0.28410E-05   132   0.205E-02    0.833E-03
DAV:   6    -0.101238106255E+03   -0.10670E-05   -0.44606E-06   132   0.700E-03    0.569E-03
DAV:   7    -0.101238112521E+03   -0.62657E-05   -0.77077E-07   108   0.385E-03    0.217E-03
DAV:   8    -0.101238122291E+03   -0.97704E-05   -0.11212E-06   108   0.373E-03    0.124E-03
DAV:   9    -0.101238139090E+03   -0.16799E-04   -0.14325E-06   108   0.387E-03    0.861E-04
DAV:  10    -0.101238146673E+03   -0.75831E-05   -0.51820E-07   108   0.229E-03    0.773E-04
DAV:  11    -0.101238148950E+03   -0.22770E-05   -0.77635E-08    96   0.975E-04    0.604E-04
DAV:  12    -0.101238155158E+03   -0.62077E-05   -0.21438E-07    96   0.119E-03    0.235E-04
DAV:  13    -0.101238156925E+03   -0.17668E-05   -0.57773E-08   108   0.602E-04    0.309E-04
DAV:  14    -0.101238158309E+03   -0.13846E-05   -0.17079E-08    84   0.407E-04    0.908E-05
DAV:  15    -0.101238159615E+03   -0.13057E-05   -0.27221E-08    96   0.368E-04    0.693E-05
DAV:  16    -0.101238160221E+03   -0.60577E-06   -0.15346E-09   108   0.210E-04
  57 F= -.10123816E+03 E0= -.10123816E+03  d E =-.485719E-11
       N       E                     dE             d eps       ncg     rms          rms(c)
DAV:   1    -0.101236896525E+03    0.12631E-02   -0.20166E-01    96   0.132E+00    0.139E-01
DAV:   2    -0.101237643288E+03   -0.74676E-03   -0.92819E-03   108   0.299E-01    0.821E-02
DAV:   3    -0.101237591907E+03    0.51381E-04   -0.15309E-04   132   0.426E-02    0.427E-02
DAV:   4    -0.101237553349E+03    0.38558E-04   -0.47059E-05   132   0.266E-02    0.772E-03
DAV:   5    -0.101237550646E+03    0.27034E-05   -0.84991E-06   132   0.121E-02    0.481E-03
DAV:   6    -0.101237560752E+03   -0.10106E-04   -0.47977E-06   132   0.721E-03    0.253E-03
DAV:   7    -0.101237576435E+03   -0.15683E-04   -0.17000E-06   120   0.440E-03    0.151E-03
DAV:   8    -0.101237597543E+03   -0.21108E-04   -0.16961E-06   120   0.325E-03    0.783E-04
DAV:   9    -0.101237612748E+03   -0.15204E-04   -0.13167E-06   108   0.261E-03    0.625E-04
DAV:  10    -0.101237625475E+03   -0.12727E-04   -0.11238E-06    96   0.213E-03    0.260E-04
DAV:  11    -0.101237629429E+03   -0.39543E-05   -0.14936E-07   108   0.887E-04    0.225E-04
DAV:  12    -0.101237632775E+03   -0.33462E-05   -0.16402E-07    84   0.798E-04    0.887E-05
DAV:  13    -0.101237633654E+03   -0.87896E-06   -0.24454E-08   108   0.357E-04
  58 F= -.10123763E+03 E0= -.10123763E+03  d E =-.450510E-11
       N       E                     dE             d eps       ncg     rms          rms(c)
DAV:   1    -0.101236071001E+03    0.15618E-02   -0.40399E-01    96   0.186E+00    0.214E-01
DAV:   2    -0.101237553761E+03   -0.14828E-02   -0.18265E-02   108   0.428E-01    0.113E-01
DAV:   3    -0.101237464534E+03    0.89228E-04   -0.31741E-04   132   0.616E-02    0.579E-02
DAV:   4    -0.101237408202E+03    0.56332E-04   -0.90442E-05   132   0.365E-02    0.114E-02
DAV:   5    -0.101237395565E+03    0.12637E-04   -0.16295E-05   132   0.169E-02    0.626E-03
DAV:   6    -0.101237399922E+03   -0.43574E-05   -0.74701E-06   132   0.979E-03    0.334E-03
DAV:   7    -0.101237415892E+03   -0.15970E-04   -0.24516E-06   132   0.587E-03    0.197E-03
DAV:   8    -0.101237439115E+03   -0.23223E-04   -0.14434E-06   120   0.379E-03    0.108E-03
DAV:   9    -0.101237458627E+03   -0.19512E-04   -0.11736E-06   120   0.275E-03    0.828E-04
DAV:  10    -0.101237477394E+03   -0.18767E-04   -0.86568E-07   120   0.198E-03    0.344E-04
DAV:  11    -0.101237486264E+03   -0.88707E-05   -0.20950E-07   108   0.104E-03    0.276E-04
DAV:  12    -0.101237494513E+03   -0.82483E-05   -0.21869E-07    84   0.922E-04    0.123E-04
DAV:  13    -0.101237496906E+03   -0.23936E-05   -0.43605E-08   108   0.450E-04    0.839E-05
DAV:  14    -0.101237498386E+03   -0.14796E-05   -0.85988E-09    84   0.288E-04    0.426E-05
DAV:  15    -0.101237499234E+03   -0.84800E-06   -0.44895E-09    96   0.213E-04
  59 F= -.10123750E+03 E0= -.10123750E+03  d E =-.536370E-10
       N       E                     dE             d eps       ncg     rms          rms(c)
DAV:   1    -0.101236179913E+03    0.13185E-02   -0.20237E-01    96   0.132E+00    0.153E-01
DAV:   2    -0.101236962512E+03   -0.78260E-03   -0.96286E-03   108   0.318E-01    0.885E-02
DAV:   3    -0.101236905334E+03    0.57178E-04   -0.15599E-04   132   0.442E-02    0.471E-02
DAV:   4    -0.101236874507E+03    0.30827E-04   -0.66948E-05   132   0.315E-02    0.784E-03
DAV:   5    -0.101236870302E+03    0.42048E-05   -0.15065E-05   132   0.144E-02    0.523E-03
DAV:   6    -0.101236875176E+03   -0.48735E-05   -0.52793E-06   132   0.657E-03    0.303E-03
DAV:   7    -0.101236886466E+03   -0.11291E-04   -0.69467E-07   108   0.282E-03    0.157E-03
DAV:   8    -0.101236906900E+03   -0.20434E-04   -0.22089E-06   108   0.328E-03    0.883E-04
DAV:   9    -0.101236918959E+03   -0.12059E-04   -0.68737E-07   108   0.205E-03    0.655E-04
DAV:  10    -0.101236931711E+03   -0.12752E-04   -0.11440E-06    96   0.200E-03    0.272E-04
DAV:  11    -0.101236936502E+03   -0.47909E-05   -0.16554E-07    96   0.996E-04    0.234E-04
DAV:  12    -0.101236939580E+03   -0.30775E-05   -0.93904E-08   108   0.667E-04    0.130E-04
DAV:  13    -0.101236941066E+03   -0.14864E-05   -0.38701E-08    84   0.421E-04    0.878E-05
DAV:  14    -0.101236941885E+03   -0.81899E-06   -0.43355E-09    96   0.246E-04
  60 F= -.10123694E+03 E0= -.10123694E+03  d E =-.513240E-11
       N       E                     dE             d eps       ncg     rms          rms(c)
DAV:   1    -0.101235589809E+03    0.13513E-02   -0.40516E-01    96   0.187E+00    0.208E-01
DAV:   2    -0.101237148902E+03   -0.15591E-02   -0.19398E-02   132   0.442E-01    0.128E-01
DAV:   3    -0.101237033292E+03    0.11561E-03   -0.30278E-04   132   0.625E-02    0.678E-02
DAV:   4    -0.101236973315E+03    0.59977E-04   -0.13724E-04   132   0.449E-02    0.110E-02
DAV:   5    -0.101236971593E+03    0.17225E-05   -0.27802E-05   132   0.199E-02    0.768E-03
DAV:   6    -0.101236987693E+03   -0.16100E-04   -0.12135E-05   132   0.987E-03    0.414E-03
DAV:   7    -0.101237014841E+03   -0.27148E-04   -0.23118E-06   132   0.478E-03    0.220E-03
DAV:   8    -0.101237057859E+03   -0.43018E-04   -0.51439E-06   132   0.508E-03    0.128E-03
DAV:   9    -0.101237081630E+03   -0.23772E-04   -0.18683E-06   120   0.307E-03    0.848E-04
DAV:  10    -0.101237103518E+03   -0.21888E-04   -0.20110E-06   108   0.283E-03    0.457E-04
DAV:  11    -0.101237112276E+03   -0.87580E-05   -0.42009E-07   108   0.144E-03    0.281E-04
DAV:  12    -0.101237117277E+03   -0.50007E-05   -0.27188E-07    84   0.102E-03    0.162E-04
DAV:  13    -0.101237119025E+03   -0.17484E-05   -0.39107E-08    96   0.488E-04    0.797E-05
DAV:  14    -0.101237120062E+03   -0.10372E-05   -0.11747E-08    84   0.308E-04    0.490E-05
DAV:  15    -0.101237120537E+03   -0.47499E-06   -0.60611E-10   108   0.180E-04
  61 F= -.10123712E+03 E0= -.10123712E+03  d E =-.488483E-10
       N       E                     dE             d eps       ncg     rms          rms(c)
DAV:   1    -0.101240145295E+03   -0.30252E-02   -0.21762E-01    96   0.165E+00    0.124E-01
DAV:   2    -0.101240471584E+03   -0.32629E-03   -0.52472E-03   108   0.245E-01    0.797E-02
DAV:   3    -0.101240404001E+03    0.67584E-04   -0.14346E-04   132   0.409E-02    0.352E-02
DAV:   4    -0.101240390096E+03    0.13905E-04   -0.59021E-05   132   0.265E-02    0.697E-03
DAV:   5    -0.101240386918E+03    0.31783E-05   -0.68078E-06   132   0.102E-02    0.452E-03
DAV:   6    -0.101240387742E+03   -0.82464E-06   -0.30319E-06   120   0.590E-03
  62 F= -.10124039E+03 E0= -.10124039E+03  d E =-.498720E-11
       N       E                     dE             d eps       ncg     rms          rms(c)
DAV:   1    -0.101240615313E+03   -0.22840E-03   -0.52731E-01    96   0.265E+00    0.175E-01
DAV:   2    -0.101240548522E+03    0.66791E-04   -0.31783E-03   108   0.198E-01    0.989E-02
DAV:   3    -0.101240414463E+03    0.13406E-03   -0.38172E-04   108   0.603E-02    0.215E-02
DAV:   4    -0.101240419333E+03   -0.48708E-05   -0.70672E-05   132   0.260E-02    0.923E-03
DAV:   5    -0.101240421695E+03   -0.23613E-05   -0.34572E-06   132   0.666E-03    0.579E-03
DAV:   6    -0.101240428279E+03   -0.65843E-05   -0.23749E-06   108   0.523E-03    0.137E-03
DAV:   7    -0.101240433103E+03   -0.48242E-05   -0.70345E-07   108   0.288E-03    0.106E-03
DAV:   8    -0.101240438428E+03   -0.53250E-05   -0.19349E-07    84   0.146E-03    0.577E-04
DAV:   9    -0.101240445377E+03   -0.69486E-05   -0.38093E-07    96   0.167E-03    0.375E-04
DAV:  10    -0.101240448306E+03   -0.29288E-05   -0.14028E-07   108   0.961E-04    0.201E-04
DAV:  11    -0.101240450819E+03   -0.25132E-05   -0.98306E-08    84   0.707E-04    0.190E-04
DAV:  12    -0.101240451923E+03   -0.11041E-05   -0.30436E-08    96   0.427E-04    0.109E-04
DAV:  13    -0.101240452726E+03   -0.80336E-06   -0.15147E-08    84   0.322E-04
  63 F= -.10124045E+03 E0= -.10124045E+03  d E =-.551543E-10
       N       E                     dE             d eps       ncg     rms          rms(c)
DAV:   1    -0.101239693099E+03    0.75882E-03   -0.27283E-01    96   0.190E+00    0.147E-01
DAV:   2    -0.101239679086E+03    0.14012E-04   -0.24542E-03   108   0.167E-01    0.806E-02
DAV:   3    -0.101239574833E+03    0.10425E-03   -0.24487E-04   132   0.458E-02    0.240E-02
DAV:   4    -0.101239568461E+03    0.63719E-05   -0.58496E-05   132   0.218E-02    0.759E-03
DAV:   5    -0.101239567127E+03    0.13332E-05   -0.38231E-06   120   0.795E-03    0.346E-03
DAV:   6    -0.101239568901E+03   -0.17739E-05   -0.25647E-06   132   0.551E-03    0.143E-03
DAV:   7    -0.101239571965E+03   -0.30639E-05   -0.63302E-07   108   0.282E-03    0.822E-04
DAV:   8    -0.101239575118E+03   -0.31525E-05   -0.21038E-07   108   0.171E-03    0.491E-04
DAV:   9    -0.101239579001E+03   -0.38837E-05   -0.25864E-07    84   0.136E-03    0.253E-04
DAV:  10    -0.101239582086E+03   -0.30847E-05   -0.16488E-07    96   0.946E-04    0.148E-04
DAV:  11    -0.101239583813E+03   -0.17268E-05   -0.30016E-08    84   0.445E-04    0.935E-05
DAV:  12    -0.101239585185E+03   -0.13725E-05   -0.22240E-08    96   0.327E-04    0.551E-05
DAV:  13    -0.101239585754E+03   -0.56902E-06   -0.31392E-09    84   0.193E-04
  64 F= -.10123959E+03 E0= -.10123959E+03  d E =-.673158E-10
       N       E                     dE             d eps       ncg     rms          rms(c)
DAV:   1    -0.101239470028E+03    0.11516E-03   -0.53948E-01    96   0.268E+00    0.199E-01
DAV:   2    -0.101239370794E+03    0.99233E-04   -0.41354E-03    96   0.219E-01    0.107E-01
DAV:   3    -0.101239172731E+03    0.19806E-03   -0.45919E-04   132   0.607E-02    0.312E-02
DAV:   4    -0.101239159643E+03    0.13088E-04   -0.79206E-05   132   0.267E-02    0.109E-02
DAV:   5    -0.101239162857E+03   -0.32140E-05   -0.62067E-06   132   0.990E-03    0.506E-03
DAV:   6    -0.101239171527E+03   -0.86695E-05   -0.36686E-06   132   0.659E-03    0.165E-03
DAV:   7    -0.101239179677E+03   -0.81504E-05   -0.89693E-07   108   0.332E-03    0.112E-03
DAV:   8    -0.101239189513E+03   -0.98360E-05   -0.66915E-07   120   0.219E-03    0.575E-04
DAV:   9    -0.101239197641E+03   -0.81276E-05   -0.50991E-07   108   0.190E-03    0.354E-04
DAV:  10    -0.101239203895E+03   -0.62546E-05   -0.58806E-07    96   0.154E-03    0.193E-04
DAV:  11    -0.101239205401E+03   -0.15060E-05   -0.34979E-08   108   0.572E-04    0.157E-04
DAV:  12    -0.101239207540E+03   -0.21388E-05   -0.73507E-08    84   0.576E-04    0.758E-05
DAV:  13    -0.101239208393E+03   -0.85295E-06   -0.27179E-08   108   0.342E-04
  65 F= -.10123921E+03 E0= -.10123921E+03  d E =-.700919E-10
       N       E                     dE             d eps       ncg     rms          rms(c)
DAV:   1    -0.101240673153E+03   -0.14656E-02   -0.27247E-01    96   0.189E+00    0.143E-01
DAV:   2    -0.101240609329E+03    0.63824E-04   -0.21418E-03   108   0.166E-01    0.787E-02
DAV:   3    -0.101240508698E+03    0.10063E-03   -0.28191E-04   132   0.520E-02    0.211E-02
DAV:   4    -0.101240507416E+03    0.12829E-05   -0.62068E-05   132   0.246E-02    0.784E-03
DAV:   5    -0.101240506535E+03    0.88067E-06   -0.29492E-06   120   0.697E-03
  66 F= -.10124051E+03 E0= -.10124051E+03  d E =-.678819E-10
       N       E                     dE             d eps       ncg     rms          rms(c)
DAV:   1    -0.101240790957E+03   -0.28354E-03   -0.53420E-01    96   0.265E+00    0.170E-01
DAV:   2    -0.101240643726E+03    0.14723E-03   -0.27785E-03   108   0.187E-01    0.973E-02
DAV:   3    -0.101240509772E+03    0.13395E-03   -0.46640E-04   120   0.682E-02    0.167E-02
DAV:   4    -0.101240515731E+03   -0.59598E-05   -0.75464E-05   120   0.292E-02    0.880E-03
DAV:   5    -0.101240515360E+03    0.37183E-06   -0.25609E-06   132   0.580E-03
  67 F= -.10124052E+03 E0= -.10124052E+03  d E =-.944373E-10
       N       E                     dE             d eps       ncg     rms          rms(c)
DAV:   1    -0.101241055711E+03   -0.53998E-03   -0.26610E-01    96   0.195E+00    0.119E-01
DAV:   2    -0.101241036209E+03    0.19502E-04   -0.14459E-03   108   0.137E-01    0.685E-02
DAV:   3    -0.101240980851E+03    0.55359E-04   -0.13984E-04   132   0.369E-02    0.104E-02
DAV:   4    -0.101240982318E+03   -0.14672E-05   -0.19780E-05   132   0.144E-02    0.454E-03
DAV:   5    -0.101240982578E+03   -0.26016E-06   -0.50802E-07   108   0.278E-03
  68 F= -.10124098E+03 E0= -.10124098E+03  d E =-.829875E-10
[...]
DAV:  11    -0.101238953304E+03   -0.12549E-05   -0.87367E-08    96   0.816E-04    0.310E-04
DAV:  12    -0.101238953700E+03   -0.39529E-06   -0.47271E-09   108   0.344E-04
 129 F= -.10123895E+03 E0= -.10123895E+03  d E =-.646585E-10
       N       E                     dE             d eps       ncg     rms          rms(c)
DAV:   1    -0.101241354177E+03   -0.24009E-02   -0.28284E-01    96   0.173E+00    0.186E-01
DAV:   2    -0.101241144604E+03    0.20957E-03   -0.20595E-03   108   0.154E-01    0.930E-02
DAV:   3    -0.101241027739E+03    0.11686E-03   -0.34828E-04   132   0.551E-02    0.309E-02
DAV:   4    -0.101241025451E+03    0.22885E-05   -0.75346E-05   108   0.262E-02    0.121E-02
DAV:   5    -0.101241024261E+03    0.11904E-05   -0.36020E-06   132   0.818E-03    0.505E-03
DAV:   6    -0.101241025041E+03   -0.78078E-06   -0.25287E-06   108   0.547E-03
 130 F= -.10124103E+03 E0= -.10124103E+03  d E =-.764664E-10
       N       E                     dE             d eps       ncg     rms          rms(c)
DAV:   1    -0.101241322678E+03   -0.29842E-03   -0.54400E-01    96   0.241E+00    0.196E-01
DAV:   2    -0.101241082807E+03    0.23987E-03   -0.27472E-03   108   0.180E-01    0.111E-01
DAV:   3    -0.101240924048E+03    0.15876E-03   -0.45001E-04   132   0.655E-02    0.230E-02
DAV:   4    -0.101240931558E+03   -0.75098E-05   -0.69139E-05   132   0.272E-02    0.943E-03
DAV:   5    -0.101240932316E+03   -0.75841E-06   -0.29032E-06   132   0.625E-03
 131 F= -.10124093E+03 E0= -.10124093E+03  d E =-.859204E-10
       N       E                     dE             d eps       ncg     rms          rms(c)
DAV:   1    -0.101240810384E+03    0.12117E-03   -0.27058E-01    96   0.169E+00    0.139E-01
DAV:   2    -0.101240695477E+03    0.11491E-03   -0.14582E-03   120   0.129E-01    0.781E-02
DAV:   3    -0.101240620175E+03    0.75303E-04   -0.21390E-04   120   0.458E-02    0.177E-02
DAV:   4    -0.101240623278E+03   -0.31029E-05   -0.35692E-05   132   0.193E-02    0.730E-03
DAV:   5    -0.101240623613E+03   -0.33484E-06   -0.13463E-06   108   0.460E-03
 132 F= -.10124062E+03 E0= -.10124062E+03  d E =-.770521E-10
       N       E                     dE             d eps       ncg     rms          rms(c)
DAV:   1    -0.101240915808E+03   -0.29253E-03   -0.54986E-01    96   0.243E+00    0.222E-01
DAV:   2    -0.101240610892E+03    0.30492E-03   -0.31107E-03   108   0.189E-01    0.118E-01
DAV:   3    -0.101240431331E+03    0.17956E-03   -0.48260E-04   132   0.668E-02    0.345E-02
DAV:   4    -0.101240433940E+03   -0.26083E-05   -0.10154E-04   120   0.311E-02    0.125E-02
DAV:   5    -0.101240432985E+03    0.95407E-06   -0.50013E-06   120   0.893E-03
 133 F= -.10124043E+03 E0= -.10124043E+03  d E =-.707091E-10
       N       E                     dE             d eps       ncg     rms          rms(c)
DAV:   1    -0.101240644293E+03   -0.21035E-03   -0.27588E-01    96   0.201E+00    0.160E-01
DAV:   2    -0.101240545415E+03    0.98878E-04   -0.21073E-03    96   0.167E-01    0.853E-02
DAV:   3    -0.101240457195E+03    0.88220E-04   -0.21459E-04   120   0.476E-02    0.270E-02
DAV:   4    -0.101240456769E+03    0.42585E-06   -0.55270E-05   120   0.235E-02    0.855E-03
DAV:   5    -0.101240456065E+03    0.70432E-06   -0.34770E-06   132   0.725E-03
 134 F= -.10124046E+03 E0= -.10124046E+03  d E =-.807454E-10
       N       E                     dE             d eps       ncg     rms          rms(c)
DAV:   1    -0.101240716711E+03   -0.25994E-03   -0.55277E-01    96   0.251E+00    0.233E-01
DAV:   2    -0.101240358550E+03    0.35816E-03   -0.30676E-03   120   0.184E-01    0.120E-01
DAV:   3    -0.101240146756E+03    0.21179E-03   -0.48589E-04   120   0.620E-02    0.366E-02
DAV:   4    -0.101240141722E+03    0.50338E-05   -0.94962E-05   120   0.292E-02    0.122E-02
DAV:   5    -0.101240141890E+03   -0.16779E-06   -0.55991E-06   132   0.959E-03
 135 F= -.10124014E+03 E0= -.10124014E+03  d E =-.786472E-10
       N       E                     dE             d eps       ncg     rms          rms(c)
DAV:   1    -0.101239607016E+03    0.53471E-03   -0.29005E-01    96   0.183E+00    0.211E-01
DAV:   2    -0.101239342015E+03    0.26500E-03   -0.23092E-03   120   0.162E-01    0.103E-01
DAV:   3    -0.101239198094E+03    0.14392E-03   -0.40781E-04   120   0.611E-02    0.351E-02
DAV:   4    -0.101239198890E+03   -0.79678E-06   -0.11510E-04   120   0.324E-02    0.143E-02
DAV:   5    -0.101239197251E+03    0.16396E-05   -0.48556E-06   108   0.922E-03    0.567E-03
DAV:   6    -0.101239197387E+03   -0.13588E-06   -0.27735E-06   132   0.582E-03
 136 F= -.10123920E+03 E0= -.10123920E+03  d E =-.697050E-10
       N       E                     dE             d eps       ncg     rms          rms(c)
DAV:   1    -0.101240202325E+03   -0.10051E-02   -0.57273E-01   108   0.253E+00    0.272E-01
DAV:   2    -0.101239635006E+03    0.56732E-03   -0.43261E-03   108   0.230E-01    0.138E-01
DAV:   3    -0.101239337472E+03    0.29753E-03   -0.83392E-04   120   0.878E-02    0.442E-02
DAV:   4    -0.101239338954E+03   -0.14829E-05   -0.19937E-04   132   0.439E-02    0.198E-02
DAV:   5    -0.101239338163E+03    0.79125E-06   -0.69286E-06   108   0.106E-02
 137 F= -.10123934E+03 E0= -.10123934E+03  d E =-.820515E-10
       N       E                     dE             d eps       ncg     rms          rms(c)
DAV:   1    -0.101240982155E+03   -0.16432E-02   -0.28820E-01    96   0.183E+00    0.205E-01
DAV:   2    -0.101240712343E+03    0.26981E-03   -0.21938E-03   120   0.160E-01    0.100E-01
DAV:   3    -0.101240571129E+03    0.14121E-03   -0.40083E-04   120   0.610E-02    0.337E-02
DAV:   4    -0.101240572102E+03   -0.97266E-06   -0.10564E-04   108   0.313E-02    0.132E-02
DAV:   5    -0.101240571083E+03    0.10192E-05   -0.43532E-06   132   0.852E-03    0.583E-03
DAV:   6    -0.101240571318E+03   -0.23483E-06   -0.25103E-06   108   0.564E-03
 138 F= -.10124057E+03 E0= -.10124057E+03  d E =-.731180E-10
       N       E                     dE             d eps       ncg     rms          rms(c)
DAV:   1    -0.101240880859E+03   -0.30978E-03   -0.54728E-01    96   0.252E+00    0.226E-01
DAV:   2    -0.101240560422E+03    0.32044E-03   -0.32673E-03   108   0.194E-01    0.119E-01
DAV:   3    -0.101240360530E+03    0.19989E-03   -0.48533E-04   120   0.669E-02    0.344E-02
DAV:   4    -0.101240361649E+03   -0.11193E-05   -0.93375E-05   132   0.303E-02    0.125E-02
DAV:   5    -0.101240362069E+03   -0.41939E-06   -0.50203E-06   132   0.876E-03
 139 F= -.10124036E+03 E0= -.10124036E+03  d E =-.783325E-10
       N       E                     dE             d eps       ncg     rms          rms(c)
DAV:   1    -0.101240455107E+03   -0.93458E-04   -0.27628E-01    96   0.179E+00    0.167E-01
DAV:   2    -0.101240341878E+03    0.11323E-03   -0.18288E-03   120   0.137E-01    0.870E-02
DAV:   3    -0.101240253858E+03    0.88020E-04   -0.25751E-04   108   0.432E-02    0.267E-02
DAV:   4    -0.101240250727E+03    0.31313E-05   -0.39654E-05   132   0.180E-02    0.100E-02
DAV:   5    -0.101240249084E+03    0.16427E-05   -0.24898E-06   108   0.684E-03    0.473E-03
DAV:   6    -0.101240249050E+03    0.33654E-07   -0.19707E-06   120   0.511E-03
 140 F= -.10124025E+03 E0= -.10124025E+03  d E =-.753770E-10
       N       E                     dE             d eps       ncg     rms          rms(c)
DAV:   1    -0.101240519639E+03   -0.27056E-03   -0.55669E-01    96   0.251E+00    0.243E-01
DAV:   2    -0.101240142631E+03    0.37701E-03   -0.33159E-03   108   0.192E-01    0.124E-01
DAV:   3    -0.101239919495E+03    0.22314E-03   -0.53184E-04   120   0.652E-02    0.391E-02
DAV:   4    -0.101239912135E+03    0.73604E-05   -0.10874E-04   132   0.311E-02    0.133E-02
DAV:   5    -0.101239912091E+03    0.43994E-07   -0.63730E-06   132   0.104E-02
 141 F= -.10123991E+03 E0= -.10123991E+03  d E =-.788843E-10
       N       E                     dE             d eps       ncg     rms          rms(c)
DAV:   1    -0.101239276536E+03    0.63560E-03   -0.27245E-01    96   0.177E+00    0.139E-01
DAV:   2    -0.101239144027E+03    0.13251E-03   -0.14706E-03   120   0.127E-01    0.784E-02
DAV:   3    -0.101239058899E+03    0.85128E-04   -0.25652E-04   108   0.490E-02    0.167E-02
DAV:   4    -0.101239063626E+03   -0.47270E-05   -0.46444E-05   132   0.218E-02    0.845E-03
DAV:   5    -0.101239064295E+03   -0.66909E-06   -0.10428E-06    96   0.423E-03
 142 F= -.10123906E+03 E0= -.10123906E+03  d E =-.739074E-10
       N       E                     dE             d eps       ncg     rms          rms(c)
DAV:   1    -0.101239784126E+03   -0.72050E-03   -0.57982E-01   108   0.259E+00    0.286E-01
DAV:   2    -0.101239228626E+03    0.55550E-03   -0.46344E-03   108   0.235E-01    0.142E-01
DAV:   3    -0.101238915894E+03    0.31273E-03   -0.81733E-04   120   0.882E-02    0.471E-02
DAV:   4    -0.101238918100E+03   -0.22059E-05   -0.23304E-04   120   0.459E-02    0.188E-02
DAV:   5    -0.101238915640E+03    0.24596E-05   -0.91849E-06   132   0.122E-02    0.821E-03
DAV:   6    -0.101238915933E+03   -0.29242E-06   -0.50525E-06   108   0.779E-03
 143 F= -.10123892E+03 E0= -.10123892E+03  d E =-.739303E-10
       N       E                     dE             d eps       ncg     rms          rms(c)
DAV:   1    -0.101241381648E+03   -0.24660E-02   -0.28062E-01   108   0.178E+00    0.167E-01
DAV:   2    -0.101241159904E+03    0.22174E-03   -0.17768E-03   108   0.145E-01    0.892E-02
DAV:   3    -0.101241046300E+03    0.11360E-03   -0.33165E-04   120   0.564E-02    0.253E-02
DAV:   4    -0.101241051342E+03   -0.50420E-05   -0.75026E-05   120   0.271E-02    0.116E-02
DAV:   5    -0.101241051486E+03   -0.14340E-06   -0.25125E-06   132   0.623E-03
 144 F= -.10124105E+03 E0= -.10124105E+03  d E =-.767870E-10
       N       E                     dE             d eps       ncg     rms          rms(c)
DAV:   1    -0.101241335054E+03   -0.28371E-03   -0.54046E-01    96   0.250E+00    0.200E-01
DAV:   2    -0.101241053804E+03    0.28125E-03   -0.27148E-03   108   0.174E-01    0.112E-01
DAV:   3    -0.101240886252E+03    0.16755E-03   -0.43220E-04   120   0.645E-02    0.241E-02
DAV:   4    -0.101240891517E+03   -0.52655E-05   -0.70172E-05   132   0.270E-02    0.998E-03
DAV:   5    -0.101240891951E+03   -0.43308E-06   -0.30391E-06   132   0.645E-03
 145 F= -.10124089E+03 E0= -.10124089E+03  d E =-.786003E-10
       N       E                     dE             d eps       ncg     rms          rms(c)
DAV:   1    -0.101240300131E+03    0.59139E-03   -0.26978E-01    96   0.201E+00    0.135E-01
DAV:   2    -0.101240239701E+03    0.60430E-04   -0.18667E-03   120   0.157E-01    0.759E-02
DAV:   3    -0.101240165371E+03    0.74330E-04   -0.21617E-04   120   0.494E-02    0.187E-02
DAV:   4    -0.101240168455E+03   -0.30847E-05   -0.48166E-05   120   0.224E-02    0.761E-03
DAV:   5    -0.101240168301E+03    0.15439E-06   -0.15288E-06   108   0.510E-03
 146 F= -.10124017E+03 E0= -.10124017E+03  d E =-.753996E-10
       N       E                     dE             d eps       ncg     rms          rms(c)
DAV:   1    -0.101240485255E+03   -0.31680E-03   -0.53479E-01    96   0.266E+00    0.178E-01
DAV:   2    -0.101240378302E+03    0.10695E-03   -0.34867E-03   108   0.205E-01    0.101E-01
DAV:   3    -0.101240221498E+03    0.15680E-03   -0.44789E-04   120   0.675E-02    0.219E-02
DAV:   4    -0.101240223611E+03   -0.21133E-05   -0.89808E-05   132   0.302E-02    0.950E-03
DAV:   5    -0.101240222524E+03    0.10865E-05   -0.33632E-06   132   0.666E-03    0.543E-03
DAV:   6    -0.101240223454E+03   -0.92918E-06   -0.24441E-06   120   0.532E-03
 147 F= -.10124022E+03 E0= -.10124022E+03  d E =-.718523E-10
       N       E                     dE             d eps       ncg     rms          rms(c)
DAV:   1    -0.101239059068E+03    0.11635E-02   -0.26419E-01    96   0.185E+00    0.111E-01
DAV:   2    -0.101238996819E+03    0.62249E-04   -0.10096E-03   108   0.107E-01    0.641E-02
DAV:   3    -0.101238938566E+03    0.58253E-04   -0.17457E-04   120   0.408E-02    0.101E-02
DAV:   4    -0.101238941304E+03   -0.27378E-05   -0.24627E-05   132   0.167E-02    0.580E-03
DAV:   5    -0.101238942537E+03   -0.12332E-05   -0.90768E-07   108   0.355E-03    0.384E-03
DAV:   6    -0.101238945607E+03   -0.30703E-05   -0.84686E-07   108   0.342E-03    0.693E-04
DAV:   7    -0.101238947428E+03   -0.18205E-05   -0.33254E-07   108   0.196E-03    0.690E-04
DAV:   8    -0.101238950666E+03   -0.32386E-05   -0.19803E-07    84   0.163E-03    0.249E-04
DAV:   9    -0.101238952607E+03   -0.19410E-05   -0.14703E-07   108   0.108E-03    0.239E-04
DAV:  10    -0.101238954422E+03   -0.18150E-05   -0.60340E-08    84   0.715E-04    0.149E-04
DAV:  11    -0.101238955511E+03   -0.10889E-05   -0.44162E-08   108   0.460E-04    0.822E-05
DAV:  12    -0.101238956087E+03   -0.57603E-06   -0.10151E-08    96   0.270E-04
 148 F= -.10123896E+03 E0= -.10123896E+03  d E =-.677614E-10
       N       E                     dE             d eps       ncg     rms          rms(c)
DAV:   1    -0.101239539021E+03   -0.58351E-03   -0.54464E-01    96   0.267E+00    0.203E-01
DAV:   2    -0.101239482504E+03    0.56517E-04   -0.43349E-03    96   0.224E-01    0.111E-01
DAV:   3    -0.101239286522E+03    0.19598E-03   -0.47600E-04   132   0.642E-02    0.324E-02
DAV:   4    -0.101239274904E+03    0.11619E-04   -0.10088E-04   132   0.294E-02    0.107E-02
DAV:   5    -0.101239272295E+03    0.26089E-05   -0.63766E-06   132   0.105E-02    0.511E-03
DAV:   6    -0.101239274979E+03   -0.26844E-05   -0.42420E-06   132   0.746E-03    0.186E-03
DAV:   7    -0.101239279155E+03   -0.41759E-05   -0.10414E-06   108   0.372E-03    0.122E-03
DAV:   8    -0.101239285111E+03   -0.59558E-05   -0.38604E-07   108   0.210E-03    0.595E-04
DAV:   9    -0.101239290558E+03   -0.54470E-05   -0.33775E-07   108   0.169E-03    0.368E-04
DAV:  10    -0.101239296714E+03   -0.61566E-05   -0.33960E-07    84   0.135E-03    0.185E-04
DAV:  11    -0.101239299558E+03   -0.28433E-05   -0.75429E-08   108   0.713E-04    0.153E-04
DAV:  12    -0.101239301832E+03   -0.22740E-05   -0.37637E-08    96   0.443E-04    0.833E-05
DAV:  13    -0.101239302940E+03   -0.11088E-05   -0.16263E-08    84   0.293E-04    0.474E-05
DAV:  14    -0.101239303748E+03   -0.80749E-06   -0.32161E-09   108   0.204E-04
 149 F= -.10123930E+03 E0= -.10123930E+03  d E =-.673806E-10
       N       E                     dE             d eps       ncg     rms          rms(c)
DAV:   1    -0.101241142228E+03   -0.18393E-02   -0.26697E-01    96   0.188E+00    0.127E-01
DAV:   2    -0.101241059316E+03    0.82911E-04   -0.13960E-03    96   0.136E-01    0.711E-02
DAV:   3    -0.101240986575E+03    0.72742E-04   -0.22078E-04   132   0.462E-02    0.151E-02
DAV:   4    -0.101240987275E+03   -0.69999E-06   -0.36205E-05   120   0.197E-02    0.712E-03
DAV:   5    -0.101240987750E+03   -0.47517E-06   -0.15112E-06   108   0.483E-03
 150 F= -.10124099E+03 E0= -.10124099E+03  d E =-.461374E-11
       N       E                     dE             d eps       ncg     rms          rms(c)
DAV:   1    -0.101241252794E+03   -0.26552E-03   -0.52534E-01    96   0.263E+00    0.159E-01
DAV:   2    -0.101241128940E+03    0.12385E-03   -0.21049E-03    96   0.161E-01    0.922E-02
DAV:   3    -0.101241018705E+03    0.11023E-03   -0.36250E-04   120   0.602E-02    0.124E-02
DAV:   4    -0.101241025259E+03   -0.65541E-05   -0.56001E-05   132   0.248E-02    0.752E-03
DAV:   5    -0.101241026424E+03   -0.11646E-05   -0.16996E-06   108   0.474E-03    0.518E-03
DAV:   6    -0.101241030428E+03   -0.40040E-05   -0.19288E-06   120   0.459E-03    0.951E-04
DAV:   7    -0.101241032920E+03   -0.24923E-05   -0.47315E-07   108   0.229E-03    0.834E-04
DAV:   8    -0.101241036316E+03   -0.33955E-05   -0.18093E-07    96   0.167E-03    0.472E-04
DAV:   9    -0.101241040018E+03   -0.37018E-05   -0.23725E-07    84   0.166E-03    0.253E-04
DAV:  10    -0.101241042762E+03   -0.27447E-05   -0.15769E-07    96   0.105E-03    0.177E-04
DAV:  11    -0.101241043807E+03   -0.10448E-05   -0.28220E-08    96   0.447E-04    0.108E-04
DAV:  12    -0.101241044632E+03   -0.82534E-06   -0.16354E-08    84   0.316E-04
 151 F= -.10124104E+03 E0= -.10124104E+03  d E =-.522835E-10
       N       E                     dE             d eps       ncg     rms          rms(c)
DAV:   1    -0.101239031908E+03    0.20119E-02   -0.26682E-01   108   0.196E+00    0.131E-01
DAV:   2    -0.101238986125E+03    0.45783E-04   -0.19764E-03    96   0.161E-01    0.712E-02
DAV:   3    -0.101238906547E+03    0.79578E-04   -0.22405E-04   120   0.501E-02    0.194E-02
DAV:   4    -0.101238907573E+03   -0.10252E-05   -0.57654E-05   132   0.242E-02    0.681E-03
DAV:   5    -0.101238907975E+03   -0.40221E-06   -0.27215E-06   132   0.613E-03
 152 F= -.10123891E+03 E0= -.10123891E+03  d E =-.786901E-10
       N       E                     dE             d eps       ncg     rms          rms(c)
DAV:   1    -0.101239048778E+03   -0.14121E-03   -0.54580E-01   108   0.273E+00    0.207E-01
DAV:   2    -0.101238958456E+03    0.90322E-04   -0.46735E-03   120   0.244E-01    0.114E-01
DAV:   3    -0.101238749641E+03    0.20881E-03   -0.56908E-04   108   0.758E-02    0.301E-02
DAV:   4    -0.101238747856E+03    0.17851E-05   -0.13207E-04   132   0.356E-02    0.113E-02
DAV:   5    -0.101238745369E+03    0.24870E-05   -0.56593E-06   132   0.949E-03    0.606E-03
DAV:   6    -0.101238746256E+03   -0.88680E-06   -0.46641E-06   132   0.798E-03
 153 F= -.10123875E+03 E0= -.10123875E+03  d E =-.816349E-10
       N       E                     dE             d eps       ncg     rms          rms(c)
DAV:   1    -0.101240992584E+03   -0.22472E-02   -0.26887E-01   108   0.191E+00    0.140E-01
DAV:   2    -0.101240942001E+03    0.50583E-04   -0.19560E-03    96   0.154E-01    0.764E-02
DAV:   3    -0.101240864780E+03    0.77220E-04   -0.23674E-04   108   0.449E-02    0.202E-02
DAV:   4    -0.101240863183E+03    0.15976E-05   -0.38126E-05   120   0.191E-02    0.773E-03
DAV:   5    -0.101240862373E+03    0.80927E-06   -0.27692E-06   132   0.639E-03
 154 F= -.10124086E+03 E0= -.10124086E+03  d E =-.812062E-10
       N       E                     dE             d eps       ncg     rms          rms(c)
DAV:   1    -0.101241250139E+03   -0.38696E-03   -0.53113E-01    96   0.265E+00    0.160E-01
DAV:   2    -0.101241147546E+03    0.10259E-03   -0.21199E-03   108   0.163E-01    0.923E-02
DAV:   3    -0.101241039357E+03    0.10819E-03   -0.35501E-04   108   0.583E-02    0.142E-02
DAV:   4    -0.101241042380E+03   -0.30235E-05   -0.51208E-05   132   0.238E-02    0.785E-03
DAV:   5    -0.101241041754E+03    0.62677E-06   -0.18913E-06   108   0.494E-03
 155 F= -.10124104E+03 E0= -.10124104E+03  d E =-.745714E-10
       N       E                     dE             d eps       ncg     rms          rms(c)
DAV:   1    -0.101240604708E+03    0.43767E-03   -0.26495E-01    96   0.190E+00    0.115E-01
DAV:   2    -0.101240547659E+03    0.57049E-04   -0.11794E-03   120   0.125E-01    0.667E-02
DAV:   3    -0.101240496859E+03    0.50800E-04   -0.19113E-04   132   0.461E-02    0.941E-03
DAV:   4    -0.101240500683E+03   -0.38240E-05   -0.33090E-05   120   0.193E-02    0.622E-03
DAV:   5    -0.101240501064E+03   -0.38119E-06   -0.81824E-07   108   0.346E-03
 156 F= -.10124050E+03 E0= -.10124050E+03  d E =-.839549E-10
       N       E                     dE             d eps       ncg     rms          rms(c)
DAV:   1    -0.101240787901E+03   -0.28722E-03   -0.52962E-01    96   0.269E+00    0.173E-01
DAV:   2    -0.101240700229E+03    0.87672E-04   -0.28296E-03   120   0.192E-01    0.972E-02
DAV:   3    -0.101240567958E+03    0.13227E-03   -0.38337E-04   120   0.606E-02    0.199E-02
DAV:   4    -0.101240568727E+03   -0.76909E-06   -0.60197E-05   132   0.249E-02    0.924E-03
DAV:   5    -0.101240568810E+03   -0.82789E-07   -0.32171E-06   132   0.640E-03
 157 F= -.10124057E+03 E0= -.10124057E+03  d E =-.755497E-10
