       N       E                     dE             d eps       ncg     rms          rms(c)
DAV:   1     0.207041495375E+03    0.20704E+03   -0.10472E+04   116   0.546E+02
DAV:   2    -0.253033665667E+02   -0.23234E+03   -0.21771E+03   144   0.103E+02
DAV:   3    -0.100544838190E+03   -0.75241E+02   -0.75077E+02   112   0.550E+01
DAV:   4    -0.104825669769E+03   -0.42808E+01   -0.42649E+01   104   0.181E+01
DAV:   5    -0.104899774836E+03   -0.74105E-01   -0.74060E-01   144   0.257E+00    0.146E+01
DAV:   6    -0.101703346764E+03    0.31964E+01   -0.16185E+00   112   0.458E+00    0.844E+00
DAV:   7    -0.100040317321E+03    0.16630E+01   -0.40356E+00   112   0.670E+00    0.121E+00
DAV:   8    -0.999858497993E+02    0.54468E-01   -0.28536E-01   112   0.223E+00    0.604E-01
DAV:   9    -0.999504271270E+02    0.35423E-01   -0.68778E-02   112   0.752E-01    0.326E-01
DAV:  10    -0.999500665692E+02    0.36056E-03   -0.27512E-03   112   0.207E-01    0.149E-01
DAV:  11    -0.999501004795E+02   -0.33910E-04   -0.61298E-03   104   0.230E-01    0.824E-02
DAV:  12    -0.999547146040E+02   -0.46141E-02   -0.12099E-03   102   0.102E-01    0.564E-02
DAV:  13    -0.999590555295E+02   -0.43409E-02   -0.17530E-03   112   0.108E-01    0.350E-02
DAV:  14    -0.999637253291E+02   -0.46698E-02   -0.39972E-04   112   0.595E-02    0.144E-02
DAV:  15    -0.999673347411E+02   -0.36094E-02   -0.37647E-04   112   0.514E-02    0.138E-02
DAV:  16    -0.999688085115E+02   -0.14738E-02   -0.10560E-04   112   0.278E-02    0.644E-03
DAV:  17    -0.999697645758E+02   -0.95606E-03   -0.82873E-05   104   0.219E-02    0.393E-03
DAV:  18    -0.999700539660E+02   -0.28939E-03   -0.10396E-05   104   0.828E-03    0.182E-03
DAV:  19    -0.999701631288E+02   -0.10916E-03   -0.30344E-06    96   0.467E-03    0.161E-03
DAV:  20    -0.999702100214E+02   -0.46893E-04   -0.10163E-06    88   0.322E-03    0.473E-04
DAV:  21    -0.999702262422E+02   -0.16221E-04   -0.49174E-07    88   0.185E-03    0.484E-04
DAV:  22    -0.999702338161E+02   -0.75739E-05   -0.17815E-07    88   0.127E-03    0.156E-04
DAV:  23    -0.999702357671E+02   -0.19510E-05   -0.41689E-08    88   0.596E-04    0.110E-04
DAV:  24    -0.999702380419E+02   -0.22748E-05   -0.31710E-08    78   0.452E-04    0.527E-05
DAV:  25    -0.999702384954E+02   -0.45347E-06   -0.68478E-09    88   0.235E-04
   1 F= -.99970238E+02 E0= -.99970238E+02  d E =-.999702E+02
       N       E                     dE             d eps       ncg     rms          rms(c)
DAV:   1    -0.100132740680E+03   -0.16250E+00   -0.75187E+00    84   0.111E+01    0.122E+00
DAV:   2    -0.100163208518E+03   -0.30468E-01   -0.37301E-01   120   0.239E+00    0.619E-01
DAV:   3    -0.100158723197E+03    0.44853E-02   -0.13690E-02   120   0.455E-01    0.314E-01
DAV:   4    -0.100157663168E+03    0.10600E-02   -0.59729E-03   112   0.270E-01    0.673E-02
DAV:   5    -0.100157488700E+03    0.17447E-03   -0.71421E-04   112   0.107E-01    0.403E-02
DAV:   6    -0.100157552024E+03   -0.63324E-04   -0.16539E-04   120   0.429E-02    0.226E-02
DAV:   7    -0.100157794051E+03   -0.24203E-03   -0.58148E-05   102   0.290E-02    0.893E-03
DAV:   8    -0.100157916650E+03   -0.12260E-03   -0.35973E-05   112   0.218E-02    0.858E-03
DAV:   9    -0.100158055001E+03   -0.13835E-03   -0.85207E-06   112   0.106E-02    0.574E-03
DAV:  10    -0.100158240691E+03   -0.18569E-03   -0.14092E-05   112   0.912E-03    0.244E-03
DAV:  11    -0.100158302887E+03   -0.62197E-04   -0.26720E-06    96   0.446E-03    0.162E-03
DAV:  12    -0.100158388273E+03   -0.85386E-04   -0.53055E-06   104   0.516E-03    0.919E-04
DAV:  13    -0.100158399486E+03   -0.11213E-04   -0.22106E-07    88   0.168E-03    0.817E-04
DAV:  14    -0.100158431738E+03   -0.32251E-04   -0.10895E-06    88   0.222E-03    0.621E-04
DAV:  15    -0.100158433889E+03   -0.21517E-05   -0.35314E-08    88   0.594E-04    0.478E-04
DAV:  16    -0.100158442110E+03   -0.82204E-05   -0.15767E-07    80   0.942E-04    0.280E-04
DAV:  17    -0.100158442925E+03   -0.81559E-06   -0.19094E-08    88   0.366E-04
   2 F= -.10015844E+03 E0= -.10015844E+03  d E =-.188204E+00
       N       E                     dE             d eps       ncg     rms          rms(c)
DAV:   1    -0.100163304896E+03   -0.48628E-02   -0.14631E-01    84   0.155E+00    0.158E-01
DAV:   2    -0.100163845396E+03   -0.54050E-03   -0.70700E-03   112   0.330E-01    0.893E-02
DAV:   3    -0.100163744575E+03    0.10082E-03   -0.28672E-04   120   0.659E-02    0.434E-02
DAV:   4    -0.100163715519E+03    0.29056E-04   -0.10923E-04   112   0.368E-02    0.112E-02
DAV:   5    -0.100163713272E+03    0.22471E-05   -0.12187E-05   112   0.141E-02    0.542E-03
DAV:   6    -0.100163721721E+03   -0.84495E-05   -0.41352E-06   104   0.669E-03    0.264E-03
DAV:   7    -0.100163738963E+03   -0.17241E-04   -0.15695E-06    88   0.414E-03    0.130E-03
DAV:   8    -0.100163744853E+03   -0.58908E-05   -0.57110E-07    88   0.281E-03    0.106E-03
DAV:   9    -0.100163753296E+03   -0.84427E-05   -0.44849E-07    88   0.188E-03    0.614E-04
DAV:  10    -0.100163761455E+03   -0.81593E-05   -0.57452E-07    88   0.172E-03    0.340E-04
DAV:  11    -0.100163764180E+03   -0.27247E-05   -0.12398E-07    88   0.857E-04    0.188E-04
DAV:  12    -0.100163767481E+03   -0.33012E-05   -0.19375E-07    86   0.971E-04    0.120E-04
DAV:  13    -0.100163768082E+03   -0.60019E-06   -0.23248E-08    88   0.416E-04
   3 F= -.10016377E+03 E0= -.10016377E+03  d E =-.193530E+00
       N       E                     dE             d eps       ncg     rms          rms(c)
DAV:   1    -0.100191806142E+03   -0.28039E-01   -0.65713E-01   104   0.359E+00    0.284E-01
DAV:   2    -0.100193591198E+03   -0.17851E-02   -0.27145E-02   112   0.559E-01    0.127E-01
DAV:   3    -0.100193314775E+03    0.27642E-03   -0.12902E-03   120   0.128E-01    0.660E-02
DAV:   4    -0.100193255251E+03    0.59525E-04   -0.30100E-04   112   0.588E-02    0.226E-02
DAV:   5    -0.100193252355E+03    0.28958E-05   -0.22037E-05   110   0.189E-02    0.104E-02
DAV:   6    -0.100193267113E+03   -0.14758E-04   -0.80177E-06   112   0.107E-02    0.389E-03
DAV:   7    -0.100193295793E+03   -0.28681E-04   -0.45298E-06   104   0.708E-03    0.257E-03
DAV:   8    -0.100193305551E+03   -0.97576E-05   -0.45616E-07    96   0.275E-03    0.152E-03
DAV:   9    -0.100193327943E+03   -0.22392E-04   -0.19140E-06    88   0.331E-03    0.105E-03
DAV:  10    -0.100193335286E+03   -0.73430E-05   -0.38023E-07    96   0.179E-03    0.574E-04
DAV:  11    -0.100193342263E+03   -0.69779E-05   -0.40450E-07    88   0.154E-03    0.377E-04
DAV:  12    -0.100193346358E+03   -0.40948E-05   -0.22700E-07    88   0.111E-03    0.181E-04
DAV:  13    -0.100193348393E+03   -0.20347E-05   -0.52145E-08    88   0.607E-04    0.181E-04
DAV:  14    -0.100193349408E+03   -0.10147E-05   -0.51089E-08    88   0.509E-04    0.946E-05
DAV:  15    -0.100193349683E+03   -0.27551E-06   -0.52222E-09    88   0.213E-04
   4 F= -.10019335E+03 E0= -.10019335E+03  d E =-.295816E-01
       N       E                     dE             d eps       ncg     rms          rms(c)
DAV:   1    -0.100196843804E+03   -0.34944E-02   -0.17352E-01   104   0.184E+00    0.144E-01
DAV:   2    -0.100197309593E+03   -0.46579E-03   -0.71175E-03   112   0.287E-01    0.649E-02
DAV:   3    -0.100197235380E+03    0.74213E-04   -0.33745E-04   120   0.655E-02    0.338E-02
DAV:   4    -0.100197217067E+03    0.18313E-04   -0.77661E-05   112   0.299E-02    0.115E-02
DAV:   5    -0.100197214509E+03    0.25583E-05   -0.58265E-06   112   0.971E-03    0.522E-03
DAV:   6    -0.100197218376E+03   -0.38668E-05   -0.19781E-06    96   0.538E-03    0.198E-03
DAV:   7    -0.100197226738E+03   -0.83621E-05   -0.10351E-06    78   0.357E-03    0.110E-03
DAV:   8    -0.100197230656E+03   -0.39176E-05   -0.21932E-07    88   0.172E-03    0.732E-04
DAV:   9    -0.100197238724E+03   -0.80685E-05   -0.55317E-07    80   0.184E-03    0.578E-04
DAV:  10    -0.100197241486E+03   -0.27622E-05   -0.16389E-07    96   0.105E-03    0.323E-04
DAV:  11    -0.100197244569E+03   -0.30823E-05   -0.16851E-07    80   0.104E-03    0.295E-04
DAV:  12    -0.100197245410E+03   -0.84142E-06   -0.44942E-08    96   0.595E-04
   5 F= -.10019725E+03 E0= -.10019725E+03  d E =-.334773E-01
       N       E                     dE             d eps       ncg     rms          rms(c)
DAV:   1    -0.100208223083E+03   -0.10979E-01   -0.30314E-01    84   0.247E+00    0.170E-01
DAV:   2    -0.100208811357E+03   -0.58827E-03   -0.11511E-02   112   0.384E-01    0.917E-02
DAV:   3    -0.100208665348E+03    0.14601E-03   -0.57310E-04   128   0.876E-02    0.479E-02
DAV:   4    -0.100208630677E+03    0.34671E-04   -0.12541E-04   112   0.417E-02    0.138E-02
DAV:   5    -0.100208620836E+03    0.98407E-05   -0.12185E-05   112   0.144E-02    0.628E-03
DAV:   6    -0.100208627237E+03   -0.64017E-05   -0.37356E-06   104   0.692E-03    0.224E-03
DAV:   7    -0.100208640767E+03   -0.13530E-04   -0.10243E-06    80   0.346E-03    0.133E-03
DAV:   8    -0.100208658515E+03   -0.17748E-04   -0.88407E-07    80   0.234E-03    0.684E-04
DAV:   9    -0.100208678381E+03   -0.19866E-04   -0.15572E-06    88   0.263E-03    0.739E-04
DAV:  10    -0.100208685434E+03   -0.70526E-05   -0.22972E-07    88   0.136E-03    0.202E-04
DAV:  11    -0.100208690541E+03   -0.51067E-05   -0.15702E-07    88   0.938E-04    0.237E-04
DAV:  12    -0.100208692890E+03   -0.23495E-05   -0.57150E-08    88   0.557E-04    0.904E-05
DAV:  13    -0.100208694615E+03   -0.17246E-05   -0.38186E-08    88   0.429E-04    0.410E-05
DAV:  14    -0.100208695000E+03   -0.38501E-06   -0.50265E-09    88   0.180E-04
   6 F= -.10020869E+03 E0= -.10020869E+03  d E =-.114496E-01
       N       E                     dE             d eps       ncg     rms          rms(c)
DAV:   1    -0.100211595126E+03   -0.29005E-02   -0.24842E-01    84   0.224E+00    0.154E-01
DAV:   2    -0.100212079097E+03   -0.48397E-03   -0.94790E-03   120   0.349E-01    0.835E-02
DAV:   3    -0.100211957991E+03    0.12111E-03   -0.46766E-04   120   0.792E-02    0.435E-02
DAV:   4    -0.100211929636E+03    0.28354E-04   -0.10331E-04   112   0.378E-02    0.126E-02
DAV:   5    -0.100211921215E+03    0.84213E-05   -0.97034E-06   112   0.129E-02    0.566E-03
DAV:   6    -0.100211926236E+03   -0.50211E-05   -0.29116E-06   104   0.620E-03    0.199E-03
DAV:   7    -0.100211937101E+03   -0.10865E-04   -0.86010E-07    78   0.323E-03    0.118E-03
DAV:   8    -0.100211952248E+03   -0.15147E-04   -0.78423E-07    80   0.227E-03    0.628E-04
DAV:   9    -0.100211969303E+03   -0.17054E-04   -0.13252E-06    88   0.249E-03    0.636E-04
DAV:  10    -0.100211975729E+03   -0.64264E-05   -0.21507E-07    88   0.135E-03    0.186E-04
DAV:  11    -0.100211979723E+03   -0.39941E-05   -0.11205E-07    88   0.851E-04    0.201E-04
DAV:  12    -0.100211982018E+03   -0.22946E-05   -0.62422E-08    88   0.570E-04    0.809E-05
DAV:  13    -0.100211983310E+03   -0.12921E-05   -0.25079E-08    88   0.365E-04    0.304E-05
DAV:  14    -0.100211983763E+03   -0.45263E-06   -0.56638E-09    88   0.190E-04
   7 F= -.10021198E+03 E0= -.10021198E+03  d E =-.147384E-01
       N       E                     dE             d eps       ncg     rms          rms(c)
DAV:   1    -0.100219636014E+03   -0.76527E-02   -0.18863E-01    88   0.203E+00    0.118E-01
DAV:   2    -0.100219636112E+03   -0.98004E-07   -0.23895E-03   112   0.200E-01    0.636E-02
DAV:   3    -0.100219545471E+03    0.90642E-04   -0.26628E-04   112   0.625E-02    0.236E-02
DAV:   4    -0.100219548013E+03   -0.25425E-05   -0.76811E-05   120   0.313E-02    0.858E-03
DAV:   5    -0.100219549634E+03   -0.16214E-05   -0.39145E-06   112   0.809E-03    0.371E-03
DAV:   6    -0.100219552015E+03   -0.23809E-05   -0.10065E-06    80   0.369E-03    0.114E-03
DAV:   7    -0.100219555566E+03   -0.35504E-05   -0.24173E-07    80   0.195E-03    0.447E-04
DAV:   8    -0.100219558608E+03   -0.30417E-05   -0.13830E-07    80   0.128E-03    0.382E-04
DAV:   9    -0.100219562632E+03   -0.40240E-05   -0.22563E-07    80   0.132E-03    0.264E-04
DAV:  10    -0.100219564325E+03   -0.16938E-05   -0.86875E-08    88   0.743E-04    0.150E-04
DAV:  11    -0.100219565256E+03   -0.93088E-06   -0.29726E-08    88   0.467E-04
   8 F= -.10021957E+03 E0= -.10021957E+03  d E =-.758149E-02
       N       E                     dE             d eps       ncg     rms          rms(c)
DAV:   1    -0.100227748095E+03   -0.81838E-02   -0.11479E+00    88   0.501E+00    0.291E-01
DAV:   2    -0.100227791666E+03   -0.43571E-04   -0.14660E-02   112   0.494E-01    0.157E-01
DAV:   3    -0.100227262530E+03    0.52914E-03   -0.16017E-03   120   0.154E-01    0.582E-02
DAV:   4    -0.100227287968E+03   -0.25438E-04   -0.46910E-04   120   0.774E-02    0.212E-02
DAV:   5    -0.100227297720E+03   -0.97517E-05   -0.24122E-05   112   0.202E-02    0.919E-03
DAV:   6    -0.100227310098E+03   -0.12379E-04   -0.70159E-06   102   0.922E-03    0.286E-03
DAV:   7    -0.100227325369E+03   -0.15271E-04   -0.88212E-07    80   0.352E-03    0.106E-03
DAV:   8    -0.100227337733E+03   -0.12364E-04   -0.65031E-07    88   0.256E-03    0.912E-04
DAV:   9    -0.100227354426E+03   -0.16694E-04   -0.11850E-06    88   0.287E-03    0.624E-04
DAV:  10    -0.100227360590E+03   -0.61641E-05   -0.35309E-07    88   0.158E-03    0.408E-04
DAV:  11    -0.100227365145E+03   -0.45547E-05   -0.18259E-07    88   0.108E-03    0.195E-04
DAV:  12    -0.100227367004E+03   -0.18587E-05   -0.57281E-08    88   0.592E-04    0.112E-04
DAV:  13    -0.100227369031E+03   -0.20276E-05   -0.65610E-08    80   0.556E-04    0.490E-05
DAV:  14    -0.100227369478E+03   -0.44718E-06   -0.12459E-08    88   0.253E-04
   9 F= -.10022737E+03 E0= -.10022737E+03  d E =-.153857E-01
       N       E                     dE             d eps       ncg     rms          rms(c)
DAV:   1    -0.100228960386E+03   -0.15914E-02   -0.23781E-02    84   0.677E-01    0.471E-02
DAV:   2    -0.100228988328E+03   -0.27942E-04   -0.62852E-04   120   0.978E-02    0.276E-02
DAV:   3    -0.100228976863E+03    0.11465E-04   -0.30078E-05   120   0.219E-02    0.126E-02
DAV:   4    -0.100228975882E+03    0.98086E-06   -0.91732E-06   112   0.107E-02
  10 F= -.10022898E+03 E0= -.10022898E+03  d E =-.160640E-02
       N       E                     dE             d eps       ncg     rms          rms(c)
DAV:   1    -0.100232084996E+03   -0.31081E-02   -0.21417E-01    84   0.203E+00    0.141E-01
DAV:   2    -0.100232364659E+03   -0.27966E-03   -0.57031E-03   120   0.294E-01    0.831E-02
DAV:   3    -0.100232277276E+03    0.87383E-04   -0.26947E-04   120   0.657E-02    0.380E-02
DAV:   4    -0.100232277346E+03   -0.70454E-07   -0.83395E-05   112   0.323E-02    0.124E-02
DAV:   5    -0.100232280628E+03   -0.32821E-05   -0.64746E-06   104   0.988E-03    0.387E-03
DAV:   6    -0.100232283351E+03   -0.27231E-05   -0.24774E-06   112   0.519E-03    0.111E-03
DAV:   7    -0.100232285134E+03   -0.17832E-05   -0.15979E-07    88   0.168E-03    0.581E-04
DAV:   8    -0.100232288387E+03   -0.32527E-05   -0.16424E-07    88   0.113E-03    0.269E-04
DAV:   9    -0.100232291842E+03   -0.34547E-05   -0.14171E-07    88   0.880E-04    0.149E-04
DAV:  10    -0.100232294436E+03   -0.25943E-05   -0.12063E-07    88   0.720E-04    0.960E-05
DAV:  11    -0.100232295874E+03   -0.14382E-05   -0.47954E-08    88   0.470E-04    0.480E-05
DAV:  12    -0.100232296358E+03   -0.48401E-06   -0.11692E-08    88   0.249E-04
  11 F= -.10023230E+03 E0= -.10023230E+03  d E =-.492688E-02
       N       E                     dE             d eps       ncg     rms          rms(c)
DAV:   1    -0.100231353721E+03    0.94215E-03   -0.85436E-01    84   0.406E+00    0.279E-01
DAV:   2    -0.100232493971E+03   -0.11402E-02   -0.22651E-02   120   0.586E-01    0.166E-01
DAV:   3    -0.100232163779E+03    0.33019E-03   -0.10664E-03   120   0.131E-01    0.756E-02
DAV:   4    -0.100232168663E+03   -0.48836E-05   -0.33208E-04   112   0.644E-02    0.250E-02
DAV:   5    -0.100232175886E+03   -0.72229E-05   -0.26248E-05   112   0.198E-02    0.774E-03
DAV:   6    -0.100232182785E+03   -0.68994E-05   -0.95283E-06   112   0.101E-02    0.216E-03
DAV:   7    -0.100232187119E+03   -0.43342E-05   -0.55032E-07    88   0.317E-03    0.114E-03
DAV:   8    -0.100232194898E+03   -0.77783E-05   -0.54466E-07    88   0.214E-03    0.497E-04
DAV:   9    -0.100232201962E+03   -0.70643E-05   -0.32405E-07    88   0.145E-03    0.278E-04
DAV:  10    -0.100232207961E+03   -0.59996E-05   -0.34777E-07    88   0.125E-03    0.178E-04
DAV:  11    -0.100232210550E+03   -0.25888E-05   -0.85250E-08    88   0.702E-04    0.993E-05
DAV:  12    -0.100232212677E+03   -0.21264E-05   -0.89980E-08    88   0.620E-04    0.695E-05
DAV:  13    -0.100232213490E+03   -0.81341E-06   -0.21044E-08    88   0.338E-04
  12 F= -.10023221E+03 E0= -.10023221E+03  d E =-.484401E-02
       N       E                     dE             d eps       ncg     rms          rms(c)
DAV:   1    -0.100233115028E+03   -0.90235E-03   -0.21603E-01    84   0.204E+00    0.142E-01
DAV:   2    -0.100233424431E+03   -0.30940E-03   -0.56772E-03   120   0.294E-01    0.828E-02
DAV:   3    -0.100233357568E+03    0.66864E-04   -0.26935E-04   120   0.655E-02    0.378E-02
DAV:   4    -0.100233364241E+03   -0.66739E-05   -0.83019E-05   112   0.322E-02    0.119E-02
DAV:   5    -0.100233363072E+03    0.11697E-05   -0.62705E-06   104   0.971E-03    0.384E-03
DAV:   6    -0.100233363488E+03   -0.41609E-06   -0.24288E-06   112   0.512E-03
  13 F= -.10023336E+03 E0= -.10023336E+03  d E =-.599401E-02
       N       E                     dE             d eps       ncg     rms          rms(c)
DAV:   1    -0.100233505768E+03   -0.14270E-03   -0.64971E-02    84   0.113E+00    0.737E-02
DAV:   2    -0.100233679323E+03   -0.17355E-03   -0.21914E-03   120   0.187E-01    0.447E-02
DAV:   3    -0.100233657038E+03    0.22285E-04   -0.57287E-05   120   0.317E-02    0.248E-02
DAV:   4    -0.100233646530E+03    0.10508E-04   -0.32775E-05   104   0.207E-02    0.401E-03
DAV:   5    -0.100233645933E+03    0.59698E-06   -0.46124E-06   112   0.905E-03
  14 F= -.10023365E+03 E0= -.10023365E+03  d E =-.282445E-03
       N       E                     dE             d eps       ncg     rms          rms(c)
DAV:   1    -0.100233831745E+03   -0.18522E-03   -0.10299E-02    84   0.448E-01    0.290E-02
DAV:   2    -0.100233863992E+03   -0.32246E-04   -0.33775E-04   120   0.732E-02    0.177E-02
DAV:   3    -0.100233865658E+03   -0.16659E-05   -0.90812E-06   120   0.127E-02    0.982E-03
DAV:   4    -0.100233870709E+03   -0.50516E-05   -0.54621E-06   104   0.849E-03    0.153E-03
DAV:   5    -0.100233872427E+03   -0.17176E-05   -0.75043E-07    88   0.370E-03    0.883E-04
DAV:   6    -0.100233873540E+03   -0.11133E-05   -0.15439E-07    88   0.144E-03    0.551E-04
DAV:   7    -0.100233874559E+03   -0.10191E-05   -0.39623E-08    88   0.746E-04    0.194E-04
DAV:   8    -0.100233875174E+03   -0.61437E-06   -0.24703E-08    88   0.561E-04
  15 F= -.10023388E+03 E0= -.10023388E+03  d E =-.511686E-03
       N       E                     dE             d eps       ncg     rms          rms(c)
DAV:   1    -0.100234276946E+03   -0.40239E-03   -0.17363E-02    84   0.604E-01    0.358E-02
DAV:   2    -0.100234307463E+03   -0.30517E-04   -0.43534E-04   112   0.768E-02    0.205E-02
DAV:   3    -0.100234305065E+03    0.23987E-05   -0.14588E-05   120   0.139E-02    0.976E-03
DAV:   4    -0.100234306194E+03   -0.11291E-05   -0.44398E-06   104   0.708E-03    0.206E-03
DAV:   5    -0.100234306230E+03   -0.36486E-07   -0.26924E-07    88   0.214E-03
  16 F= -.10023431E+03 E0= -.10023431E+03  d E =-.431057E-03
