       N       E                     dE             d eps       ncg     rms          rms(c)
DAV:   1     0.203989832333E+03    0.20399E+03   -0.10480E+04   116   0.546E+02
DAV:   2    -0.252619092368E+02   -0.22925E+03   -0.21554E+03   136   0.103E+02
DAV:   3    -0.101314009569E+03   -0.76052E+02   -0.75871E+02   112   0.561E+01
DAV:   4    -0.105694262404E+03   -0.43803E+01   -0.43641E+01   104   0.188E+01
DAV:   5    -0.105769381775E+03   -0.75119E-01   -0.75060E-01   136   0.274E+00    0.147E+01
DAV:   6    -0.102590234420E+03    0.31791E+01   -0.15906E+00   104   0.454E+00    0.854E+00
DAV:   7    -0.100922101775E+03    0.16681E+01   -0.40269E+00   104   0.667E+00    0.122E+00
DAV:   8    -0.100868746632E+03    0.53355E-01   -0.25674E-01   104   0.215E+00    0.608E-01
DAV:   9    -0.100833256630E+03    0.35490E-01   -0.75918E-02   120   0.775E-01    0.324E-01
DAV:  10    -0.100833433851E+03   -0.17722E-03   -0.26611E-03   112   0.210E-01    0.155E-01
DAV:  11    -0.100833217193E+03    0.21666E-03   -0.66931E-03   104   0.241E-01    0.799E-02
DAV:  12    -0.100837314418E+03   -0.40972E-02   -0.10518E-03    96   0.962E-02    0.568E-02
DAV:  13    -0.100842281707E+03   -0.49673E-02   -0.19280E-03   112   0.112E-01    0.344E-02
DAV:  14    -0.100846170485E+03   -0.38888E-02   -0.30611E-04   112   0.518E-02    0.156E-02
DAV:  15    -0.100850737570E+03   -0.45671E-02   -0.56974E-04   112   0.617E-02    0.146E-02
DAV:  16    -0.100851606955E+03   -0.86939E-03   -0.40780E-05   112   0.189E-02    0.637E-03
DAV:  17    -0.100852692166E+03   -0.10852E-02   -0.92188E-05   104   0.228E-02    0.307E-03
DAV:  18    -0.100852952849E+03   -0.26068E-03   -0.83413E-06   104   0.807E-03    0.177E-03
DAV:  19    -0.100853125164E+03   -0.17231E-03   -0.63192E-06    96   0.627E-03    0.172E-03
DAV:  20    -0.100853175516E+03   -0.50352E-04   -0.85894E-07    88   0.322E-03    0.547E-04
DAV:  21    -0.100853205718E+03   -0.30202E-04   -0.10219E-06    80   0.257E-03    0.583E-04
DAV:  22    -0.100853213084E+03   -0.73652E-05   -0.17674E-07    88   0.135E-03    0.204E-04
DAV:  23    -0.100853217097E+03   -0.40134E-05   -0.11348E-07    80   0.855E-04    0.180E-04
DAV:  24    -0.100853219443E+03   -0.23458E-05   -0.34988E-08    88   0.528E-04    0.663E-05
DAV:  25    -0.100853220082E+03   -0.63885E-06   -0.13459E-08    88   0.301E-04
   1 F= -.10085322E+03 E0= -.10085322E+03  d E =-.100853E+03
       N       E                     dE             d eps       ncg     rms          rms(c)
DAV:   1    -0.100979166664E+03   -0.12595E+00   -0.56149E+00    84   0.981E+00    0.107E+00
DAV:   2    -0.101004375403E+03   -0.25209E-01   -0.30221E-01   120   0.218E+00    0.547E-01
DAV:   3    -0.101000554714E+03    0.38207E-02   -0.10530E-02   120   0.428E-01    0.283E-01
DAV:   4    -0.100999664334E+03    0.89038E-03   -0.59461E-03   112   0.281E-01    0.621E-02
DAV:   5    -0.100999510705E+03    0.15363E-03   -0.59373E-04   112   0.108E-01    0.412E-02
DAV:   6    -0.100999520417E+03   -0.97122E-05   -0.11690E-04   120   0.427E-02    0.245E-02
DAV:   7    -0.100999660080E+03   -0.13966E-03   -0.47648E-05   104   0.338E-02    0.657E-03
DAV:   8    -0.100999752589E+03   -0.92509E-04   -0.29019E-05   112   0.225E-02    0.944E-03
DAV:   9    -0.100999800192E+03   -0.47603E-04   -0.38087E-06   112   0.733E-03    0.785E-03
DAV:  10    -0.100999974483E+03   -0.17429E-03   -0.12490E-05   112   0.899E-03    0.355E-03
DAV:  11    -0.101000034782E+03   -0.60299E-04   -0.30431E-06   104   0.524E-03    0.322E-03
DAV:  12    -0.101000100872E+03   -0.66090E-04   -0.29822E-06    96   0.531E-03    0.119E-03
DAV:  13    -0.101000135769E+03   -0.34897E-04   -0.14049E-06    88   0.330E-03    0.748E-04
DAV:  14    -0.101000161235E+03   -0.25466E-04   -0.59249E-07    88   0.207E-03    0.440E-04
DAV:  15    -0.101000171931E+03   -0.10696E-04   -0.25849E-07    88   0.117E-03    0.521E-04
DAV:  16    -0.101000178723E+03   -0.67923E-05   -0.85143E-08    88   0.813E-04    0.257E-04
DAV:  17    -0.101000180998E+03   -0.22743E-05   -0.46812E-08    88   0.522E-04    0.308E-04
DAV:  18    -0.101000182443E+03   -0.14451E-05   -0.14841E-08    88   0.414E-04    0.541E-05
DAV:  19    -0.101000183152E+03   -0.70915E-06   -0.90135E-09    88   0.262E-04
   2 F= -.10100018E+03 E0= -.10100018E+03  d E =-.146963E+00
       N       E                     dE             d eps       ncg     rms          rms(c)
DAV:   1    -0.101003036864E+03   -0.28544E-02   -0.86395E-02    84   0.123E+00    0.127E-01
DAV:   2    -0.101003421708E+03   -0.38484E-03   -0.47736E-03   120   0.274E-01    0.706E-02
DAV:   3    -0.101003352797E+03    0.68910E-04   -0.17455E-04   120   0.552E-02    0.359E-02
DAV:   4    -0.101003332316E+03    0.20481E-04   -0.95556E-05   112   0.357E-02    0.848E-03
DAV:   5    -0.101003328568E+03    0.37478E-05   -0.92388E-06   112   0.135E-02    0.526E-03
DAV:   6    -0.101003330867E+03   -0.22989E-05   -0.20803E-06    96   0.566E-03    0.286E-03
DAV:   7    -0.101003338025E+03   -0.71583E-05   -0.89265E-07    78   0.440E-03    0.728E-04
DAV:   8    -0.101003342224E+03   -0.41991E-05   -0.60410E-07    88   0.306E-03    0.113E-03
DAV:   9    -0.101003344780E+03   -0.25555E-05   -0.13941E-07    88   0.146E-03    0.794E-04
DAV:  10    -0.101003352179E+03   -0.73996E-05   -0.59350E-07    80   0.183E-03    0.478E-04
DAV:  11    -0.101003353520E+03   -0.13408E-05   -0.76387E-08    88   0.779E-04    0.318E-04
DAV:  12    -0.101003355816E+03   -0.22960E-05   -0.10533E-07    88   0.862E-04    0.939E-05
DAV:  13    -0.101003357030E+03   -0.12143E-05   -0.57523E-08    88   0.576E-04    0.115E-04
DAV:  14    -0.101003357770E+03   -0.73921E-06   -0.19757E-08    88   0.413E-04
   3 F= -.10100336E+03 E0= -.10100336E+03  d E =-.150138E+00
       N       E                     dE             d eps       ncg     rms          rms(c)
DAV:   1    -0.101033646005E+03   -0.30289E-01   -0.84990E-01    84   0.392E+00    0.399E-01
DAV:   2    -0.101037427898E+03   -0.37819E-02   -0.45751E-02   120   0.800E-01    0.183E-01
DAV:   3    -0.101037067344E+03    0.36055E-03   -0.19102E-03   128   0.175E-01    0.978E-02
DAV:   4    -0.101037020646E+03    0.46698E-04   -0.58650E-04   112   0.923E-02    0.319E-02
DAV:   5    -0.101037008972E+03    0.11674E-04   -0.55341E-05   112   0.343E-02    0.178E-02
DAV:   6    -0.101037011142E+03   -0.21699E-05   -0.13708E-05   120   0.169E-02    0.909E-03
DAV:   7    -0.101037028753E+03   -0.17611E-04   -0.87308E-06   104   0.129E-02    0.259E-03
DAV:   8    -0.101037039316E+03   -0.10563E-04   -0.23177E-06   104   0.646E-03    0.280E-03
DAV:   9    -0.101037045559E+03   -0.62427E-05   -0.21866E-07    88   0.176E-03    0.164E-03
DAV:  10    -0.101037067072E+03   -0.21514E-04   -0.20895E-06    88   0.407E-03    0.126E-03
DAV:  11    -0.101037069281E+03   -0.22084E-05   -0.18828E-07    88   0.158E-03    0.825E-04
DAV:  12    -0.101037077094E+03   -0.78133E-05   -0.37394E-07    80   0.174E-03    0.364E-04
DAV:  13    -0.101037081305E+03   -0.42113E-05   -0.25085E-07    88   0.120E-03    0.285E-04
DAV:  14    -0.101037082680E+03   -0.13750E-05   -0.29488E-08    88   0.652E-04    0.224E-04
DAV:  15    -0.101037084750E+03   -0.20697E-05   -0.80217E-08    78   0.668E-04    0.111E-04
DAV:  16    -0.101037085118E+03   -0.36821E-06   -0.11256E-08    88   0.303E-04
   4 F= -.10103709E+03 E0= -.10103709E+03  d E =-.337273E-01
       N       E                     dE             d eps       ncg     rms          rms(c)
DAV:   1    -0.101038452957E+03   -0.13682E-02   -0.64072E-02    84   0.108E+00    0.107E-01
DAV:   2    -0.101038736453E+03   -0.28350E-03   -0.34607E-03   120   0.220E-01    0.504E-02
DAV:   3    -0.101038710019E+03    0.26433E-04   -0.14802E-04   128   0.488E-02    0.265E-02
DAV:   4    -0.101038707060E+03    0.29598E-05   -0.45054E-05   112   0.255E-02    0.910E-03
DAV:   5    -0.101038704779E+03    0.22801E-05   -0.41249E-06   112   0.939E-03    0.497E-03
DAV:   6    -0.101038704409E+03    0.37094E-06   -0.11159E-06   104   0.481E-03
   5 F= -.10103870E+03 E0= -.10103870E+03  d E =-.353466E-01
       N       E                     dE             d eps       ncg     rms          rms(c)
DAV:   1    -0.101047833192E+03   -0.91284E-02   -0.25027E-01    84   0.225E+00    0.185E-01
DAV:   2    -0.101048524344E+03   -0.69115E-03   -0.93301E-03   120   0.370E-01    0.918E-02
DAV:   3    -0.101048449181E+03    0.75163E-04   -0.37460E-04   120   0.756E-02    0.497E-02
DAV:   4    -0.101048443773E+03    0.54078E-05   -0.12249E-04   112   0.382E-02    0.132E-02
DAV:   5    -0.101048442390E+03    0.13834E-05   -0.11503E-05   112   0.135E-02    0.841E-03
DAV:   6    -0.101048442987E+03   -0.59705E-06   -0.26789E-06    96   0.673E-03
   6 F= -.10104844E+03 E0= -.10104844E+03  d E =-.973858E-02
       N       E                     dE             d eps       ncg     rms          rms(c)
DAV:   1    -0.101050211824E+03   -0.17694E-02   -0.13382E-01    84   0.165E+00    0.135E-01
DAV:   2    -0.101050582468E+03   -0.37064E-03   -0.50504E-03   120   0.272E-01    0.677E-02
DAV:   3    -0.101050539402E+03    0.43066E-04   -0.20128E-04   120   0.556E-02    0.368E-02
DAV:   4    -0.101050536980E+03    0.24221E-05   -0.66603E-05   120   0.283E-02    0.975E-03
DAV:   5    -0.101050539467E+03   -0.24877E-05   -0.64551E-06   112   0.100E-02    0.625E-03
DAV:   6    -0.101050544333E+03   -0.48658E-05   -0.15806E-06    96   0.509E-03    0.250E-03
DAV:   7    -0.101050551849E+03   -0.75160E-05   -0.94903E-07    88   0.363E-03    0.868E-04
DAV:   8    -0.101050558575E+03   -0.67260E-05   -0.34585E-07    88   0.204E-03    0.683E-04
DAV:   9    -0.101050565034E+03   -0.64593E-05   -0.25402E-07    88   0.131E-03    0.279E-04
DAV:  10    -0.101050570723E+03   -0.56883E-05   -0.33643E-07    88   0.124E-03    0.252E-04
DAV:  11    -0.101050573910E+03   -0.31873E-05   -0.14489E-07    88   0.923E-04    0.148E-04
DAV:  12    -0.101050575128E+03   -0.12180E-05   -0.43926E-08    88   0.540E-04    0.787E-05
DAV:  13    -0.101050575858E+03   -0.73020E-06   -0.14830E-08    88   0.327E-04
   7 F= -.10105058E+03 E0= -.10105058E+03  d E =-.118714E-01
       N       E                     dE             d eps       ncg     rms          rms(c)
DAV:   1    -0.101057658418E+03   -0.70833E-02   -0.32469E-01    86   0.267E+00    0.168E-01
DAV:   2    -0.101057834052E+03   -0.17563E-03   -0.59671E-03   120   0.317E-01    0.887E-02
DAV:   3    -0.101057712376E+03    0.12168E-03   -0.47719E-04   128   0.926E-02    0.421E-02
DAV:   4    -0.101057714171E+03   -0.17950E-05   -0.18319E-04   120   0.538E-02    0.143E-02
DAV:   5    -0.101057718079E+03   -0.39075E-05   -0.21086E-05   112   0.189E-02    0.990E-03
DAV:   6    -0.101057720026E+03   -0.19466E-05   -0.16623E-06    96   0.510E-03    0.299E-03
DAV:   7    -0.101057722196E+03   -0.21709E-05   -0.59042E-07    88   0.307E-03    0.845E-04
DAV:   8    -0.101057724876E+03   -0.26797E-05   -0.21258E-07    88   0.194E-03    0.779E-04
DAV:   9    -0.101057727287E+03   -0.24111E-05   -0.94192E-08    88   0.139E-03    0.267E-04
DAV:  10    -0.101057730439E+03   -0.31519E-05   -0.15496E-07    88   0.128E-03    0.223E-04
DAV:  11    -0.101057731271E+03   -0.83176E-06   -0.36814E-08    88   0.703E-04
   8 F= -.10105773E+03 E0= -.10105773E+03  d E =-.715541E-02
       N       E                     dE             d eps       ncg     rms          rms(c)
DAV:   1    -0.101058702887E+03   -0.97245E-03   -0.93692E-02    86   0.143E+00    0.904E-02
DAV:   2    -0.101058753191E+03   -0.50304E-04   -0.17213E-03   120   0.170E-01    0.477E-02
DAV:   3    -0.101058718900E+03    0.34291E-04   -0.13828E-04   128   0.499E-02    0.226E-02
DAV:   4    -0.101058719945E+03   -0.10447E-05   -0.52734E-05   120   0.289E-02    0.775E-03
DAV:   5    -0.101058721323E+03   -0.13782E-05   -0.60205E-06   112   0.101E-02    0.532E-03
DAV:   6    -0.101058722226E+03   -0.90309E-06   -0.43830E-07    88   0.274E-03
   9 F= -.10105872E+03 E0= -.10105872E+03  d E =-.814637E-02
       N       E                     dE             d eps       ncg     rms          rms(c)
DAV:   1    -0.101063906485E+03   -0.51852E-02   -0.30343E-01    84   0.254E+00    0.151E-01
DAV:   2    -0.101064282187E+03   -0.37570E-03   -0.71364E-03   120   0.342E-01    0.877E-02
DAV:   3    -0.101064169648E+03    0.11254E-03   -0.36053E-04   128   0.760E-02    0.433E-02
DAV:   4    -0.101064146953E+03    0.22695E-04   -0.12546E-04   120   0.431E-02    0.975E-03
DAV:   5    -0.101064142061E+03    0.48921E-05   -0.17160E-05   120   0.178E-02    0.747E-03
DAV:   6    -0.101064143257E+03   -0.11962E-05   -0.33279E-06   120   0.783E-03    0.484E-03
DAV:   7    -0.101064150759E+03   -0.75019E-05   -0.58618E-07    88   0.487E-03    0.110E-03
DAV:   8    -0.101064157400E+03   -0.66408E-05   -0.79347E-07    88   0.418E-03    0.130E-03
DAV:   9    -0.101064172711E+03   -0.15311E-04   -0.11161E-06    78   0.424E-03    0.942E-04
DAV:  10    -0.101064177545E+03   -0.48341E-05   -0.51292E-07    88   0.255E-03    0.784E-04
DAV:  11    -0.101064178664E+03   -0.11188E-05   -0.73788E-08    88   0.116E-03    0.625E-04
DAV:  12    -0.101064180739E+03   -0.20749E-05   -0.37613E-08    86   0.707E-04    0.365E-04
DAV:  13    -0.101064185575E+03   -0.48362E-05   -0.21284E-07    78   0.128E-03    0.314E-04
DAV:  14    -0.101064186757E+03   -0.11817E-05   -0.52922E-08    88   0.638E-04    0.361E-04
DAV:  15    -0.101064187408E+03   -0.65163E-06   -0.12369E-08    88   0.428E-04
  10 F= -.10106419E+03 E0= -.10106419E+03  d E =-.546518E-02
       N       E                     dE             d eps       ncg     rms          rms(c)
DAV:   1    -0.101065125588E+03   -0.93883E-03   -0.13993E-01    84   0.172E+00    0.102E-01
DAV:   2    -0.101065299332E+03   -0.17374E-03   -0.32811E-03   120   0.232E-01    0.595E-02
DAV:   3    -0.101065247739E+03    0.51593E-04   -0.16646E-04   128   0.516E-02    0.293E-02
DAV:   4    -0.101065236500E+03    0.11239E-04   -0.57127E-05   120   0.290E-02    0.661E-03
DAV:   5    -0.101065233301E+03    0.31996E-05   -0.75896E-06   112   0.118E-02    0.501E-03
DAV:   6    -0.101065233026E+03    0.27516E-06   -0.12653E-06    96   0.532E-03
  11 F= -.10106523E+03 E0= -.10106523E+03  d E =-.651080E-02
       N       E                     dE             d eps       ncg     rms          rms(c)
DAV:   1    -0.101067066411E+03   -0.18331E-02   -0.17739E-01    84   0.188E+00    0.128E-01
DAV:   2    -0.101067521321E+03   -0.45491E-03   -0.61741E-03   120   0.306E-01    0.747E-02
DAV:   3    -0.101067452089E+03    0.69232E-04   -0.25179E-04   128   0.676E-02    0.380E-02
DAV:   4    -0.101067454398E+03   -0.23089E-05   -0.11343E-04   112   0.404E-02    0.966E-03
DAV:   5    -0.101067455806E+03   -0.14083E-05   -0.11337E-05   112   0.143E-02    0.547E-03
DAV:   6    -0.101067456734E+03   -0.92799E-06   -0.15455E-06    88   0.498E-03
  12 F= -.10106746E+03 E0= -.10106746E+03  d E =-.222371E-02
       N       E                     dE             d eps       ncg     rms          rms(c)
DAV:   1    -0.101067474432E+03   -0.18626E-04   -0.19029E-03    84   0.194E-01    0.133E-02
DAV:   2    -0.101067480028E+03   -0.55959E-05   -0.68868E-05   120   0.324E-02    0.789E-03
DAV:   3    -0.101067479881E+03    0.14665E-06   -0.25575E-06   104   0.712E-03
  13 F= -.10106748E+03 E0= -.10106748E+03  d E =-.224686E-02
       N       E                     dE             d eps       ncg     rms          rms(c)
DAV:   1    -0.101069201927E+03   -0.17219E-02   -0.16819E-01    84   0.186E+00    0.126E-01
DAV:   2    -0.101069383912E+03   -0.18199E-03   -0.37816E-03   120   0.244E-01    0.702E-02
DAV:   3    -0.101069311786E+03    0.72126E-04   -0.19840E-04   120   0.543E-02    0.332E-02
DAV:   4    -0.101069304180E+03    0.76061E-05   -0.68554E-05   112   0.281E-02    0.957E-03
DAV:   5    -0.101069304982E+03   -0.80190E-06   -0.48183E-06   112   0.938E-03
  14 F= -.10106930E+03 E0= -.10106930E+03  d E =-.182510E-02
       N       E                     dE             d eps       ncg     rms          rms(c)
DAV:   1    -0.101069351335E+03   -0.47155E-04   -0.71519E-03    84   0.383E-01    0.260E-02
DAV:   2    -0.101069358411E+03   -0.70758E-05   -0.16814E-04   120   0.514E-02    0.143E-02
DAV:   3    -0.101069354871E+03    0.35401E-05   -0.83466E-06   128   0.112E-02    0.698E-03
DAV:   4    -0.101069355960E+03   -0.10893E-05   -0.30793E-06   104   0.599E-03    0.198E-03
DAV:   5    -0.101069358252E+03   -0.22917E-05   -0.24249E-07    88   0.221E-03    0.914E-04
DAV:   6    -0.101069360644E+03   -0.23918E-05   -0.16131E-07    88   0.140E-03    0.391E-04
DAV:   7    -0.101069363631E+03   -0.29878E-05   -0.10264E-07    88   0.943E-04    0.202E-04
DAV:   8    -0.101069365517E+03   -0.18852E-05   -0.61683E-08    88   0.645E-04    0.190E-04
DAV:   9    -0.101069367623E+03   -0.21062E-05   -0.87044E-08    88   0.658E-04    0.638E-05
DAV:  10    -0.101069368283E+03   -0.66009E-06   -0.21794E-08    88   0.361E-04
  15 F= -.10106937E+03 E0= -.10106937E+03  d E =-.188840E-02
       N       E                     dE             d eps       ncg     rms          rms(c)
DAV:   1    -0.101069687694E+03   -0.32007E-03   -0.26861E-02    84   0.722E-01    0.559E-02
DAV:   2    -0.101069764719E+03   -0.77024E-04   -0.10594E-03   120   0.124E-01    0.301E-02
DAV:   3    -0.101069752389E+03    0.12329E-04   -0.39767E-05   120   0.265E-02    0.159E-02
DAV:   4    -0.101069750041E+03    0.23484E-05   -0.16745E-05   112   0.164E-02    0.415E-03
DAV:   5    -0.101069749776E+03    0.26483E-06   -0.22952E-06   112   0.680E-03
  16 F= -.10106975E+03 E0= -.10106975E+03  d E =-.381493E-03
       N       E                     dE             d eps       ncg     rms          rms(c)
DAV:   1    -0.101069749853E+03    0.18790E-06   -0.10022E-05   104   0.139E-02    0.200E-03
DAV:   2    -0.101069750046E+03   -0.19318E-06   -0.70150E-07    88   0.324E-03
  17 F= -.10106975E+03 E0= -.10106975E+03  d E =-.381763E-03
       N       E                     dE             d eps       ncg     rms          rms(c)
DAV:   1    -0.101069840699E+03   -0.90846E-04   -0.86083E-03    84   0.417E-01    0.297E-02
DAV:   2    -0.101069870017E+03   -0.29319E-04   -0.37503E-04   120   0.750E-02    0.175E-02
DAV:   3    -0.101069866789E+03    0.32286E-05   -0.11375E-05   120   0.141E-02    0.973E-03
DAV:   4    -0.101069865991E+03    0.79802E-06   -0.52492E-06   112   0.865E-03
  18 F= -.10106987E+03 E0= -.10106987E+03  d E =-.115945E-03
