       N       E                     dE             d eps       ncg     rms          rms(c)
DAV:   1     0.207448494536E+03    0.20745E+03   -0.10467E+04   116   0.546E+02
DAV:   2    -0.241199879898E+02   -0.23157E+03   -0.21616E+03   136   0.103E+02
DAV:   3    -0.100354098062E+03   -0.76234E+02   -0.76057E+02   112   0.566E+01
DAV:   4    -0.104689964391E+03   -0.43359E+01   -0.43198E+01   104   0.187E+01
DAV:   5    -0.104762864895E+03   -0.72901E-01   -0.72846E-01   128   0.264E+00    0.146E+01
DAV:   6    -0.101585331086E+03    0.31775E+01   -0.15942E+00   104   0.456E+00    0.841E+00
DAV:   7    -0.999288073307E+02    0.16565E+01   -0.39906E+00   112   0.666E+00    0.121E+00
DAV:   8    -0.998734149302E+02    0.55392E-01   -0.27175E-01   112   0.218E+00    0.602E-01
DAV:   9    -0.998381008600E+02    0.35314E-01   -0.67737E-02   112   0.743E-01    0.325E-01
DAV:  10    -0.998380452740E+02    0.55586E-04   -0.26133E-03   112   0.202E-01    0.145E-01
DAV:  11    -0.998378767657E+02    0.16851E-03   -0.65158E-03   104   0.234E-01    0.816E-02
DAV:  12    -0.998425242881E+02   -0.46475E-02   -0.11790E-03   102   0.101E-01    0.566E-02
DAV:  13    -0.998470487364E+02   -0.45244E-02   -0.16726E-03   112   0.106E-01    0.340E-02
DAV:  14    -0.998510969472E+02   -0.40482E-02   -0.30703E-04   112   0.519E-02    0.154E-02
DAV:  15    -0.998552075121E+02   -0.41106E-02   -0.45396E-04   112   0.555E-02    0.131E-02
DAV:  16    -0.998566272040E+02   -0.14197E-02   -0.96939E-05   112   0.260E-02    0.581E-03
DAV:  17    -0.998575458400E+02   -0.91864E-03   -0.73084E-05   112   0.205E-02    0.341E-03
DAV:  18    -0.998578589503E+02   -0.31311E-03   -0.11033E-05   104   0.864E-03    0.176E-03
DAV:  19    -0.998579706823E+02   -0.11173E-03   -0.37390E-06   104   0.509E-03    0.155E-03
DAV:  20    -0.998580186925E+02   -0.48010E-04   -0.78406E-07    88   0.297E-03    0.623E-04
DAV:  21    -0.998580422217E+02   -0.23529E-04   -0.69869E-07    88   0.212E-03    0.384E-04
DAV:  22    -0.998580503479E+02   -0.81261E-05   -0.16385E-07    88   0.112E-03    0.166E-04
DAV:  23    -0.998580538644E+02   -0.35165E-05   -0.99848E-08    88   0.772E-04    0.112E-04
DAV:  24    -0.998580560141E+02   -0.21497E-05   -0.32445E-08    88   0.466E-04    0.386E-05
DAV:  25    -0.998580566672E+02   -0.65307E-06   -0.11379E-08    88   0.283E-04
   1 F= -.99858057E+02 E0= -.99858057E+02  d E =-.998581E+02
       N       E                     dE             d eps       ncg     rms          rms(c)
DAV:   1    -0.999992971912E+02   -0.14124E+00   -0.69221E+00    84   0.106E+01    0.120E+00
DAV:   2    -0.100032452194E+03   -0.33155E-01   -0.38794E-01   120   0.243E+00    0.603E-01
DAV:   3    -0.100028153644E+03    0.42986E-02   -0.13892E-02   120   0.479E-01    0.319E-01
DAV:   4    -0.100027314239E+03    0.83941E-03   -0.72871E-03   112   0.311E-01    0.695E-02
DAV:   5    -0.100027150834E+03    0.16340E-03   -0.90433E-04   112   0.125E-01    0.462E-02
DAV:   6    -0.100027181510E+03   -0.30676E-04   -0.14420E-04   112   0.420E-02    0.270E-02
DAV:   7    -0.100027355033E+03   -0.17352E-03   -0.50615E-05   120   0.331E-02    0.736E-03
DAV:   8    -0.100027467495E+03   -0.11246E-03   -0.41047E-05   112   0.249E-02    0.968E-03
DAV:   9    -0.100027528900E+03   -0.61405E-04   -0.65908E-06   112   0.983E-03    0.828E-03
DAV:  10    -0.100027730668E+03   -0.20177E-03   -0.15595E-05   112   0.101E-02    0.444E-03
DAV:  11    -0.100027787203E+03   -0.56535E-04   -0.31487E-06   104   0.560E-03    0.320E-03
DAV:  12    -0.100027857860E+03   -0.70657E-04   -0.38822E-06   104   0.656E-03    0.278E-03
DAV:  13    -0.100027880930E+03   -0.23071E-04   -0.10437E-06    88   0.365E-03    0.697E-04
DAV:  14    -0.100027903819E+03   -0.22889E-04   -0.56636E-07    88   0.223E-03    0.799E-04
DAV:  15    -0.100027918464E+03   -0.14644E-04   -0.43170E-07    88   0.156E-03    0.437E-04
DAV:  16    -0.100027926005E+03   -0.75410E-05   -0.11023E-07    88   0.861E-04    0.164E-04
DAV:  17    -0.100027928214E+03   -0.22094E-05   -0.39807E-08    88   0.569E-04    0.237E-04
DAV:  18    -0.100027930079E+03   -0.18650E-05   -0.29106E-08    86   0.438E-04    0.972E-05
DAV:  19    -0.100027930555E+03   -0.47578E-06   -0.75252E-09    88   0.235E-04
   2 F= -.10002793E+03 E0= -.10002793E+03  d E =-.169874E+00
       N       E                     dE             d eps       ncg     rms          rms(c)
DAV:   1    -0.100033062116E+03   -0.51320E-02   -0.15669E-01    84   0.162E+00    0.172E-01
DAV:   2    -0.100033829332E+03   -0.76722E-03   -0.92361E-03   120   0.376E-01    0.949E-02
DAV:   3    -0.100033717725E+03    0.11161E-03   -0.33787E-04   120   0.751E-02    0.502E-02
DAV:   4    -0.100033691533E+03    0.26192E-04   -0.17660E-04   112   0.488E-02    0.119E-02
DAV:   5    -0.100033686966E+03    0.45672E-05   -0.23624E-05   112   0.201E-02    0.736E-03
DAV:   6    -0.100033691672E+03   -0.47058E-05   -0.38270E-06   112   0.668E-03    0.420E-03
DAV:   7    -0.100033705979E+03   -0.14307E-04   -0.14140E-06    80   0.549E-03    0.118E-03
DAV:   8    -0.100033712720E+03   -0.67410E-05   -0.14936E-06    88   0.445E-03    0.161E-03
DAV:   9    -0.100033714679E+03   -0.19598E-05   -0.25649E-07    88   0.212E-03    0.148E-03
DAV:  10    -0.100033723223E+03   -0.85433E-05   -0.38103E-07    88   0.182E-03    0.441E-04
DAV:  11    -0.100033730594E+03   -0.73709E-05   -0.67173E-07    88   0.186E-03    0.866E-04
DAV:  12    -0.100033733503E+03   -0.29098E-05   -0.14442E-07    88   0.123E-03    0.238E-04
DAV:  13    -0.100033734969E+03   -0.14659E-05   -0.72877E-08    88   0.747E-04    0.339E-04
DAV:  14    -0.100033735975E+03   -0.10055E-05   -0.29595E-08    88   0.505E-04    0.105E-04
DAV:  15    -0.100033736505E+03   -0.53068E-06   -0.16141E-08    88   0.322E-04
   3 F= -.10003374E+03 E0= -.10003374E+03  d E =-.175680E+00
       N       E                     dE             d eps       ncg     rms          rms(c)
DAV:   1    -0.100051591923E+03   -0.17856E-01   -0.52236E-01    94   0.313E+00    0.255E-01
DAV:   2    -0.100053762888E+03   -0.21710E-02   -0.27616E-02   112   0.567E-01    0.117E-01
DAV:   3    -0.100053562434E+03    0.20045E-03   -0.10760E-03   128   0.126E-01    0.646E-02
DAV:   4    -0.100053527491E+03    0.34943E-04   -0.32783E-04   112   0.683E-02    0.198E-02
DAV:   5    -0.100053531700E+03   -0.42089E-05   -0.34809E-05   112   0.236E-02    0.120E-02
DAV:   6    -0.100053539850E+03   -0.81502E-05   -0.40008E-06   112   0.877E-03    0.513E-03
DAV:   7    -0.100053552462E+03   -0.12611E-04   -0.31046E-06    96   0.667E-03    0.149E-03
DAV:   8    -0.100053560799E+03   -0.83376E-05   -0.58058E-07    88   0.324E-03    0.827E-04
DAV:   9    -0.100053568083E+03   -0.72833E-05   -0.33456E-07    88   0.167E-03    0.509E-04
DAV:  10    -0.100053577909E+03   -0.98268E-05   -0.56953E-07    88   0.203E-03    0.385E-04
DAV:  11    -0.100053581836E+03   -0.39262E-05   -0.19209E-07    88   0.110E-03    0.272E-04
DAV:  12    -0.100053584346E+03   -0.25106E-05   -0.98057E-08    88   0.776E-04    0.130E-04
DAV:  13    -0.100053585463E+03   -0.11170E-05   -0.26952E-08    88   0.449E-04    0.943E-05
DAV:  14    -0.100053586472E+03   -0.10091E-05   -0.31361E-08    88   0.416E-04    0.600E-05
DAV:  15    -0.100053586629E+03   -0.15652E-06   -0.22077E-09    80   0.157E-04
   4 F= -.10005359E+03 E0= -.10005359E+03  d E =-.198501E-01
       N       E                     dE             d eps       ncg     rms          rms(c)
DAV:   1    -0.100054243625E+03   -0.65715E-03   -0.29668E-02    86   0.746E-01    0.606E-02
DAV:   2    -0.100054367044E+03   -0.12342E-03   -0.15850E-03   112   0.136E-01    0.279E-02
DAV:   3    -0.100054355158E+03    0.11886E-04   -0.61349E-05   120   0.302E-02    0.154E-02
DAV:   4    -0.100054352094E+03    0.30641E-05   -0.18831E-05   112   0.163E-02    0.474E-03
DAV:   5    -0.100054351639E+03    0.45516E-06   -0.19271E-06    96   0.568E-03
   5 F= -.10005435E+03 E0= -.10005435E+03  d E =-.206151E-01
       N       E                     dE             d eps       ncg     rms          rms(c)
DAV:   1    -0.100064504909E+03   -0.10153E-01   -0.25751E-01    84   0.230E+00    0.153E-01
DAV:   2    -0.100064778860E+03   -0.27395E-03   -0.75627E-03   112   0.331E-01    0.861E-02
DAV:   3    -0.100064669421E+03    0.10944E-03   -0.48076E-04   128   0.837E-02    0.432E-02
DAV:   4    -0.100064652465E+03    0.16956E-04   -0.10311E-04   112   0.383E-02    0.128E-02
DAV:   5    -0.100064651719E+03    0.74565E-06   -0.96908E-06   112   0.126E-02
   6 F= -.10006465E+03 E0= -.10006465E+03  d E =-.103001E-01
       N       E                     dE             d eps       ncg     rms          rms(c)
DAV:   1    -0.100068722075E+03   -0.40696E-02   -0.48942E-01    84   0.318E+00    0.210E-01
DAV:   2    -0.100069250271E+03   -0.52820E-03   -0.14490E-02   112   0.459E-01    0.119E-01
DAV:   3    -0.100069038257E+03    0.21201E-03   -0.90936E-04   128   0.115E-01    0.598E-02
DAV:   4    -0.100069008850E+03    0.29408E-04   -0.19353E-04   104   0.528E-02    0.176E-02
DAV:   5    -0.100069018197E+03   -0.93479E-05   -0.18874E-05   112   0.176E-02    0.952E-03
DAV:   6    -0.100069043391E+03   -0.25193E-04   -0.55778E-06   112   0.877E-03    0.329E-03
DAV:   7    -0.100069072215E+03   -0.28824E-04   -0.21950E-06   104   0.459E-03    0.183E-03
DAV:   8    -0.100069102473E+03   -0.30258E-04   -0.11786E-06    88   0.309E-03    0.892E-04
DAV:   9    -0.100069130737E+03   -0.28264E-04   -0.17558E-06    96   0.289E-03    0.708E-04
DAV:  10    -0.100069151274E+03   -0.20537E-04   -0.10510E-06    88   0.239E-03    0.386E-04
DAV:  11    -0.100069159262E+03   -0.79874E-05   -0.36353E-07    88   0.133E-03    0.225E-04
DAV:  12    -0.100069163184E+03   -0.39225E-05   -0.86985E-08    88   0.780E-04    0.182E-04
DAV:  13    -0.100069167399E+03   -0.42146E-05   -0.13499E-07    88   0.815E-04    0.701E-05
DAV:  14    -0.100069168484E+03   -0.10857E-05   -0.24184E-08    88   0.362E-04    0.407E-05
DAV:  15    -0.100069169056E+03   -0.57152E-06   -0.65486E-09    88   0.222E-04
   7 F= -.10006917E+03 E0= -.10006917E+03  d E =-.148174E-01
       N       E                     dE             d eps       ncg     rms          rms(c)
DAV:   1    -0.100075400440E+03   -0.62320E-02   -0.23977E-01    84   0.223E+00    0.157E-01
DAV:   2    -0.100075507553E+03   -0.10711E-03   -0.43944E-03   112   0.267E-01    0.802E-02
DAV:   3    -0.100075388365E+03    0.11919E-03   -0.35045E-04   128   0.759E-02    0.371E-02
DAV:   4    -0.100075387937E+03    0.42725E-06   -0.13958E-04   112   0.438E-02    0.105E-02
DAV:   5    -0.100075391956E+03   -0.40183E-05   -0.11558E-05   112   0.140E-02    0.608E-03
DAV:   6    -0.100075394153E+03   -0.21971E-05   -0.10411E-06    88   0.397E-03    0.255E-03
DAV:   7    -0.100075397252E+03   -0.30989E-05   -0.44283E-07    88   0.267E-03    0.616E-04
DAV:   8    -0.100075399702E+03   -0.24501E-05   -0.18046E-07    88   0.162E-03    0.525E-04
DAV:   9    -0.100075401806E+03   -0.21047E-05   -0.66996E-08    88   0.997E-04    0.181E-04
DAV:  10    -0.100075404698E+03   -0.28920E-05   -0.13845E-07    88   0.916E-04    0.173E-04
DAV:  11    -0.100075405333E+03   -0.63488E-06   -0.17108E-08    88   0.451E-04
   8 F= -.10007541E+03 E0= -.10007541E+03  d E =-.623628E-02
       N       E                     dE             d eps       ncg     rms          rms(c)
DAV:   1    -0.100077339449E+03   -0.19348E-02   -0.23147E-01    84   0.219E+00    0.154E-01
DAV:   2    -0.100077442402E+03   -0.10295E-03   -0.42391E-03   112   0.262E-01    0.787E-02
DAV:   3    -0.100077327565E+03    0.11484E-03   -0.33685E-04   128   0.745E-02    0.363E-02
DAV:   4    -0.100077327168E+03    0.39676E-06   -0.13352E-04   112   0.429E-02    0.103E-02
DAV:   5    -0.100077331204E+03   -0.40355E-05   -0.11023E-05   112   0.137E-02    0.597E-03
DAV:   6    -0.100077333496E+03   -0.22924E-05   -0.10000E-06    88   0.389E-03    0.248E-03
DAV:   7    -0.100077336663E+03   -0.31667E-05   -0.42527E-07    88   0.261E-03    0.607E-04
DAV:   8    -0.100077339212E+03   -0.25489E-05   -0.17536E-07    88   0.160E-03    0.518E-04
DAV:   9    -0.100077341393E+03   -0.21817E-05   -0.66801E-08    88   0.986E-04    0.177E-04
DAV:  10    -0.100077344410E+03   -0.30167E-05   -0.14098E-07    88   0.918E-04    0.172E-04
DAV:  11    -0.100077345081E+03   -0.67129E-06   -0.17633E-08    88   0.453E-04
   9 F= -.10007735E+03 E0= -.10007735E+03  d E =-.817603E-02
       N       E                     dE             d eps       ncg     rms          rms(c)
DAV:   1    -0.100079805489E+03   -0.24611E-02   -0.42706E-02    84   0.915E-01    0.717E-02
DAV:   2    -0.100079861431E+03   -0.55942E-04   -0.11560E-03   112   0.130E-01    0.364E-02
DAV:   3    -0.100079837225E+03    0.24207E-04   -0.55777E-05   120   0.278E-02    0.176E-02
DAV:   4    -0.100079830714E+03    0.65104E-05   -0.20231E-05   112   0.150E-02    0.523E-03
DAV:   5    -0.100079830220E+03    0.49464E-06   -0.10817E-06    88   0.573E-03
  10 F= -.10007983E+03 E0= -.10007983E+03  d E =-.248514E-02
       N       E                     dE             d eps       ncg     rms          rms(c)
DAV:   1    -0.100081329128E+03   -0.14984E-02   -0.38409E-01    84   0.274E+00    0.214E-01
DAV:   2    -0.100081869871E+03   -0.54074E-03   -0.10551E-02   112   0.391E-01    0.109E-01
DAV:   3    -0.100081665876E+03    0.20399E-03   -0.49707E-04   120   0.832E-02    0.532E-02
DAV:   4    -0.100081623897E+03    0.41980E-04   -0.18476E-04   112   0.453E-02    0.159E-02
DAV:   5    -0.100081625306E+03   -0.14092E-05   -0.10044E-05   110   0.175E-02    0.763E-03
DAV:   6    -0.100081637437E+03   -0.12131E-04   -0.95675E-06   112   0.144E-02    0.278E-03
DAV:   7    -0.100081654132E+03   -0.16695E-04   -0.46665E-06   112   0.816E-03    0.234E-03
DAV:   8    -0.100081663288E+03   -0.91560E-05   -0.46354E-07    88   0.255E-03    0.152E-03
DAV:   9    -0.100081676269E+03   -0.12981E-04   -0.73038E-07    88   0.234E-03    0.679E-04
DAV:  10    -0.100081683379E+03   -0.71101E-05   -0.31008E-07    88   0.155E-03    0.334E-04
DAV:  11    -0.100081691786E+03   -0.84064E-05   -0.48762E-07    88   0.159E-03    0.289E-04
DAV:  12    -0.100081695040E+03   -0.32538E-05   -0.13375E-07    88   0.908E-04    0.120E-04
DAV:  13    -0.100081697512E+03   -0.24727E-05   -0.82771E-08    88   0.652E-04    0.123E-04
DAV:  14    -0.100081698086E+03   -0.57357E-06   -0.16058E-08    96   0.310E-04
  11 F= -.10008170E+03 E0= -.10008170E+03  d E =-.435300E-02
       N       E                     dE             d eps       ncg     rms          rms(c)
DAV:   1    -0.100081986175E+03   -0.28866E-03   -0.28953E-02    84   0.754E-01    0.593E-02
DAV:   2    -0.100082032533E+03   -0.46358E-04   -0.79666E-04   112   0.107E-01    0.298E-02
DAV:   3    -0.100082021560E+03    0.10973E-04   -0.37531E-05   120   0.229E-02    0.146E-02
DAV:   4    -0.100082020358E+03    0.12017E-05   -0.14058E-05   112   0.125E-02    0.428E-03
DAV:   5    -0.100082019749E+03    0.60882E-06   -0.71556E-07    88   0.472E-03
  12 F= -.10008202E+03 E0= -.10008202E+03  d E =-.467467E-02
       N       E                     dE             d eps       ncg     rms          rms(c)
DAV:   1    -0.100083024713E+03   -0.10044E-02   -0.84887E-02    86   0.123E+00    0.971E-02
DAV:   2    -0.100083411672E+03   -0.38696E-03   -0.46148E-03   120   0.257E-01    0.584E-02
DAV:   3    -0.100083385920E+03    0.25752E-04   -0.12944E-04   120   0.474E-02    0.327E-02
DAV:   4    -0.100083384758E+03    0.11620E-05   -0.50637E-05   112   0.281E-02    0.745E-03
DAV:   5    -0.100083385061E+03   -0.30338E-06   -0.83785E-06   112   0.113E-02
  13 F= -.10008339E+03 E0= -.10008339E+03  d E =-.136531E-02
       N       E                     dE             d eps       ncg     rms          rms(c)
DAV:   1    -0.100083388608E+03   -0.38505E-05   -0.23641E-04    86   0.651E-02    0.503E-03
DAV:   2    -0.100083390404E+03   -0.17952E-05   -0.11651E-05   120   0.130E-02    0.331E-03
DAV:   3    -0.100083391189E+03   -0.78540E-06   -0.26930E-07    88   0.239E-03
  14 F= -.10008339E+03 E0= -.10008339E+03  d E =-.137144E-02
       N       E                     dE             d eps       ncg     rms          rms(c)
DAV:   1    -0.100084037767E+03   -0.64736E-03   -0.16888E-02    84   0.579E-01    0.403E-02
DAV:   2    -0.100084050983E+03   -0.13216E-04   -0.43712E-04   112   0.790E-02    0.225E-02
DAV:   3    -0.100084042520E+03    0.84638E-05   -0.22666E-05   120   0.186E-02    0.113E-02
DAV:   4    -0.100084039276E+03    0.32438E-05   -0.51784E-06   112   0.981E-03    0.311E-03
DAV:   5    -0.100084038807E+03    0.46909E-06   -0.11376E-06    88   0.507E-03
  15 F= -.10008404E+03 E0= -.10008404E+03  d E =-.647618E-03
       N       E                     dE             d eps       ncg     rms          rms(c)
DAV:   1    -0.100084295166E+03   -0.25589E-03   -0.72035E-02    84   0.120E+00    0.832E-02
DAV:   2    -0.100084348819E+03   -0.53653E-04   -0.18801E-03   120   0.164E-01    0.465E-02
DAV:   3    -0.100084310187E+03    0.38632E-04   -0.96112E-05   120   0.383E-02    0.236E-02
DAV:   4    -0.100084294564E+03    0.15623E-04   -0.22569E-05   120   0.206E-02    0.641E-03
DAV:   5    -0.100084293728E+03    0.83579E-06   -0.59521E-06   120   0.108E-02
  16 F= -.10008429E+03 E0= -.10008429E+03  d E =-.902539E-03
       N       E                     dE             d eps       ncg     rms          rms(c)
DAV:   1    -0.100084355837E+03   -0.61273E-04   -0.62166E-03    84   0.352E-01    0.248E-02
DAV:   2    -0.100084368160E+03   -0.12323E-04   -0.15244E-04   120   0.468E-02    0.137E-02
DAV:   3    -0.100084372985E+03   -0.48259E-05   -0.81193E-06   120   0.108E-02    0.654E-03
DAV:   4    -0.100084378804E+03   -0.58186E-05   -0.16666E-06    88   0.525E-03    0.171E-03
DAV:   5    -0.100084382068E+03   -0.32636E-05   -0.39103E-07    88   0.272E-03    0.861E-04
DAV:   6    -0.100084384452E+03   -0.23847E-05   -0.13260E-07    88   0.140E-03    0.365E-04
DAV:   7    -0.100084386287E+03   -0.18349E-05   -0.70984E-08    88   0.850E-04    0.180E-04
DAV:   8    -0.100084387777E+03   -0.14897E-05   -0.36471E-08    88   0.552E-04    0.593E-05
DAV:   9    -0.100084388561E+03   -0.78378E-06   -0.17847E-08    88   0.368E-04
  17 F= -.10008439E+03 E0= -.10008439E+03  d E =-.997372E-03
       N       E                     dE             d eps       ncg     rms          rms(c)
DAV:   1    -0.100084349440E+03    0.38338E-04   -0.14145E-02    84   0.507E-01    0.429E-02
DAV:   2    -0.100084421717E+03   -0.72277E-04   -0.84334E-04   120   0.112E-01    0.261E-02
DAV:   3    -0.100084415736E+03    0.59805E-05   -0.22719E-05   120   0.203E-02    0.155E-02
DAV:   4    -0.100084413570E+03    0.21668E-05   -0.11878E-05   112   0.152E-02    0.261E-03
DAV:   5    -0.100084413347E+03    0.22214E-06   -0.33130E-06   104   0.769E-03
  18 F= -.10008441E+03 E0= -.10008441E+03  d E =-.247866E-04
       N       E                     dE             d eps       ncg     rms          rms(c)
DAV:   1    -0.100084483493E+03   -0.69923E-04   -0.30634E-03    84   0.236E-01    0.195E-02
DAV:   2    -0.100084499376E+03   -0.15883E-04   -0.17691E-04   120   0.517E-02    0.122E-02
DAV:   3    -0.100084498754E+03    0.62244E-06   -0.49952E-06   120   0.957E-03
  19 F= -.10008450E+03 E0= -.10008450E+03  d E =-.110193E-03
