       N       E                     dE             d eps       ncg     rms          rms(c)
DAV:   1     0.245931307608E+03    0.24593E+03   -0.10183E+04   120   0.484E+02
DAV:   2    -0.224328434185E+02   -0.26836E+03   -0.25459E+03   156   0.918E+01
DAV:   3    -0.102567509682E+03   -0.80135E+02   -0.79933E+02   120   0.553E+01
DAV:   4    -0.106470640489E+03   -0.39031E+01   -0.38907E+01   132   0.175E+01
DAV:   5    -0.106534026159E+03   -0.63386E-01   -0.63329E-01   156   0.248E+00    0.153E+01
DAV:   6    -0.103074600643E+03    0.34594E+01   -0.15960E+00   108   0.438E+00    0.883E+00
DAV:   7    -0.101312746793E+03    0.17619E+01   -0.42467E+00   120   0.637E+00    0.130E+00
DAV:   8    -0.101257149393E+03    0.55597E-01   -0.34655E-01   132   0.224E+00    0.691E-01
DAV:   9    -0.101223854826E+03    0.33295E-01   -0.61622E-02   144   0.675E-01    0.354E-01
DAV:  10    -0.101222062205E+03    0.17926E-02   -0.35094E-03   132   0.201E-01    0.143E-01
DAV:  11    -0.101221096444E+03    0.96576E-03   -0.58005E-03   120   0.207E-01    0.105E-01
DAV:  12    -0.101226943396E+03   -0.58470E-02   -0.18721E-03   132   0.114E-01    0.475E-02
DAV:  13    -0.101230051487E+03   -0.31081E-02   -0.16477E-03   132   0.102E-01    0.425E-02
DAV:  14    -0.101233281843E+03   -0.32304E-02   -0.19337E-04   120   0.475E-02    0.205E-02
DAV:  15    -0.101237955001E+03   -0.46732E-02   -0.49229E-04   108   0.529E-02    0.127E-02
DAV:  16    -0.101239574254E+03   -0.16193E-02   -0.96759E-05   132   0.266E-02    0.756E-03
DAV:  17    -0.101240953633E+03   -0.13794E-02   -0.12647E-04   132   0.240E-02    0.696E-03
DAV:  18    -0.101241292018E+03   -0.33839E-03   -0.11051E-05   108   0.854E-03    0.235E-03
DAV:  19    -0.101241488677E+03   -0.19666E-03   -0.81923E-06   120   0.641E-03    0.197E-03
DAV:  20    -0.101241549409E+03   -0.60732E-04   -0.11090E-06    84   0.325E-03    0.581E-04
DAV:  21    -0.101241577398E+03   -0.27989E-04   -0.72076E-07    96   0.207E-03    0.470E-04
DAV:  22    -0.101241588723E+03   -0.11325E-04   -0.23818E-07   108   0.119E-03    0.211E-04
DAV:  23    -0.101241592615E+03   -0.38919E-05   -0.61642E-08    84   0.599E-04    0.162E-04
DAV:  24    -0.101241596580E+03   -0.39655E-05   -0.68718E-08   108   0.593E-04    0.130E-04
DAV:  25    -0.101241597094E+03   -0.51405E-06   -0.44104E-09   108   0.269E-04
   1 F= -.10124160E+03 E0= -.10124160E+03  d E =-.498833E-11
       N       E                     dE             d eps       ncg     rms          rms(c)
DAV:   1    -0.101238209039E+03    0.33875E-02   -0.82064E-02    96   0.830E-01    0.125E-01
DAV:   2    -0.101238566434E+03   -0.35739E-03   -0.40085E-03   132   0.214E-01    0.564E-02
DAV:   3    -0.101238553359E+03    0.13075E-04   -0.14370E-04   132   0.447E-02    0.295E-02
DAV:   4    -0.101238556358E+03   -0.29988E-05   -0.35609E-05   132   0.223E-02    0.844E-03
DAV:   5    -0.101238555491E+03    0.86704E-06   -0.64023E-06   132   0.993E-03
   2 F= -.10123856E+03 E0= -.10123856E+03  d E =-.500672E-11
       N       E                     dE             d eps       ncg     rms          rms(c)
DAV:   1    -0.101237128875E+03    0.14275E-02   -0.32749E-01    96   0.166E+00    0.256E-01
DAV:   2    -0.101238528345E+03   -0.13995E-02   -0.15740E-02   132   0.423E-01    0.113E-01
DAV:   3    -0.101238479510E+03    0.48835E-04   -0.56675E-04   132   0.879E-02    0.595E-02
DAV:   4    -0.101238496572E+03   -0.17062E-04   -0.14417E-04   108   0.445E-02    0.168E-02
DAV:   5    -0.101238493459E+03    0.31134E-05   -0.25393E-05   132   0.195E-02    0.976E-03
DAV:   6    -0.101238493189E+03    0.26989E-06   -0.49093E-06   132   0.748E-03
   3 F= -.10123849E+03 E0= -.10123849E+03  d E =-.680654E-11
       N       E                     dE             d eps       ncg     rms          rms(c)
DAV:   1    -0.101237912638E+03    0.58082E-03   -0.16794E-01    96   0.118E+00    0.159E-01
DAV:   2    -0.101238633619E+03   -0.72098E-03   -0.78365E-03   120   0.292E-01    0.765E-02
DAV:   3    -0.101238618742E+03    0.14878E-04   -0.26283E-04   132   0.603E-02    0.401E-02
DAV:   4    -0.101238631034E+03   -0.12292E-04   -0.63234E-05   120   0.291E-02    0.118E-02
DAV:   5    -0.101238630777E+03    0.25754E-06   -0.10190E-05   132   0.127E-02    0.603E-03
DAV:   6    -0.101238631248E+03   -0.47082E-06   -0.28576E-06   120   0.574E-03
   4 F= -.10123863E+03 E0= -.10123863E+03  d E =-.534742E-11
       N       E                     dE             d eps       ncg     rms          rms(c)
DAV:   1    -0.101237041085E+03    0.15897E-02   -0.33426E-01    96   0.169E+00    0.238E-01
DAV:   2    -0.101238488436E+03   -0.14474E-02   -0.15756E-02   120   0.425E-01    0.112E-01
DAV:   3    -0.101238446958E+03    0.41478E-04   -0.52634E-04   120   0.880E-02    0.574E-02
DAV:   4    -0.101238463200E+03   -0.16242E-04   -0.14400E-04   120   0.448E-02    0.160E-02
DAV:   5    -0.101238458867E+03    0.43333E-05   -0.25781E-05   132   0.198E-02    0.906E-03
DAV:   6    -0.101238458527E+03    0.34020E-06   -0.58069E-06   132   0.824E-03
   5 F= -.10123846E+03 E0= -.10123846E+03  d E =-.685772E-11
       N       E                     dE             d eps       ncg     rms          rms(c)
DAV:   1    -0.101236552050E+03    0.19068E-02   -0.16412E-01    96   0.122E+00    0.161E-01
DAV:   2    -0.101237459143E+03   -0.90709E-03   -0.96700E-03   132   0.337E-01    0.926E-02
DAV:   3    -0.101237420037E+03    0.39106E-04   -0.28216E-04   132   0.674E-02    0.491E-02
DAV:   4    -0.101237427965E+03   -0.79279E-05   -0.11700E-04   120   0.406E-02    0.117E-02
DAV:   5    -0.101237426360E+03    0.16050E-05   -0.21406E-05   132   0.175E-02    0.749E-03
DAV:   6    -0.101237428258E+03   -0.18976E-05   -0.37209E-06   132   0.619E-03    0.476E-03
DAV:   7    -0.101237433969E+03   -0.57114E-05   -0.43945E-07   108   0.245E-03    0.162E-03
DAV:   8    -0.101237439297E+03   -0.53282E-05   -0.49001E-07   108   0.247E-03    0.705E-04
DAV:   9    -0.101237445216E+03   -0.59187E-05   -0.40796E-07   108   0.192E-03    0.569E-04
DAV:  10    -0.101237451939E+03   -0.67230E-05   -0.50901E-07    96   0.165E-03    0.518E-04
DAV:  11    -0.101237453072E+03   -0.11335E-05   -0.56941E-08   108   0.759E-04    0.356E-04
DAV:  12    -0.101237454701E+03   -0.16286E-05   -0.42394E-08   108   0.565E-04    0.170E-04
DAV:  13    -0.101237456304E+03   -0.16030E-05   -0.61751E-08   108   0.533E-04    0.120E-04
DAV:  14    -0.101237457231E+03   -0.92742E-06   -0.17756E-08   108   0.314E-04
   6 F= -.10123746E+03 E0= -.10123746E+03  d E =-.631115E-11
       N       E                     dE             d eps       ncg     rms          rms(c)
DAV:   1    -0.101234830746E+03    0.26256E-02   -0.33389E-01    96   0.174E+00    0.264E-01
DAV:   2    -0.101237183392E+03   -0.23526E-02   -0.25351E-02   120   0.521E-01    0.170E-01
DAV:   3    -0.101237008037E+03    0.17535E-03   -0.67169E-04   132   0.108E-01    0.909E-02
DAV:   4    -0.101237003237E+03    0.48001E-05   -0.44119E-04   120   0.758E-02    0.169E-02
DAV:   5    -0.101236994885E+03    0.83524E-05   -0.76494E-05   132   0.319E-02    0.127E-02
DAV:   6    -0.101236994859E+03    0.26047E-07   -0.11128E-05   132   0.939E-03    0.877E-03
DAV:   7    -0.101237005920E+03   -0.11061E-04   -0.10448E-06   120   0.361E-03    0.375E-03
DAV:   8    -0.101237024625E+03   -0.18705E-04   -0.21871E-06   132   0.533E-03    0.152E-03
DAV:   9    -0.101237038009E+03   -0.13383E-04   -0.11832E-06   132   0.281E-03    0.169E-03
DAV:  10    -0.101237058422E+03   -0.20413E-04   -0.94457E-07    96   0.217E-03    0.935E-04
DAV:  11    -0.101237064865E+03   -0.64434E-05   -0.24568E-07   108   0.119E-03    0.620E-04
DAV:  12    -0.101237073642E+03   -0.87770E-05   -0.28775E-07    96   0.117E-03    0.304E-04
DAV:  13    -0.101237076702E+03   -0.30603E-05   -0.84388E-08   108   0.603E-04    0.254E-04
DAV:  14    -0.101237078852E+03   -0.21498E-05   -0.18593E-08   108   0.378E-04    0.117E-04
DAV:  15    -0.101237080330E+03   -0.14784E-05   -0.23830E-08    96   0.346E-04    0.948E-05
DAV:  16    -0.101237080873E+03   -0.54249E-06    0.23147E-09   108   0.178E-04
   7 F= -.10123708E+03 E0= -.10123708E+03  d E =-.926629E-10
       N       E                     dE             d eps       ncg     rms          rms(c)
DAV:   1    -0.101236383491E+03    0.69684E-03   -0.19082E-01    96   0.131E+00    0.188E-01
DAV:   2    -0.101237762604E+03   -0.13791E-02   -0.14358E-02   120   0.412E-01    0.120E-01
DAV:   3    -0.101237678311E+03    0.84293E-04   -0.38323E-04   132   0.825E-02    0.650E-02
DAV:   4    -0.101237678551E+03   -0.24072E-06   -0.22704E-04   120   0.574E-02    0.120E-02
DAV:   5    -0.101237673506E+03    0.50451E-05   -0.44612E-05   132   0.239E-02    0.977E-03
DAV:   6    -0.101237674336E+03   -0.82925E-06   -0.44008E-06   132   0.645E-03
   8 F= -.10123767E+03 E0= -.10123767E+03  d E =-.571494E-11
       N       E                     dE             d eps       ncg     rms          rms(c)
DAV:   1    -0.101235675487E+03    0.19980E-02   -0.33576E-01    96   0.166E+00    0.257E-01
DAV:   2    -0.101237598683E+03   -0.19232E-02   -0.19865E-02   120   0.461E-01    0.153E-01
DAV:   3    -0.101237533960E+03    0.64723E-04   -0.56641E-04   120   0.913E-02    0.785E-02
DAV:   4    -0.101237534969E+03   -0.10091E-05   -0.21908E-04   132   0.532E-02    0.157E-02
DAV:   5    -0.101237524274E+03    0.10694E-04   -0.35258E-05   144   0.225E-02    0.989E-03
DAV:   6    -0.101237524924E+03   -0.65019E-06   -0.75415E-06   132   0.896E-03
   9 F= -.10123752E+03 E0= -.10123752E+03  d E =-.663517E-11
       N       E                     dE             d eps       ncg     rms          rms(c)
DAV:   1    -0.101235723830E+03    0.18004E-02   -0.16897E-01    96   0.118E+00    0.183E-01
DAV:   2    -0.101236858937E+03   -0.11351E-02   -0.11429E-02   132   0.346E-01    0.116E-01
DAV:   3    -0.101236834119E+03    0.24818E-04   -0.29469E-04   144   0.676E-02    0.615E-02
DAV:   4    -0.101236854018E+03   -0.19899E-04   -0.16610E-04   120   0.453E-02    0.120E-02
DAV:   5    -0.101236848483E+03    0.55353E-05   -0.33081E-05   132   0.202E-02    0.822E-03
DAV:   6    -0.101236849242E+03   -0.75911E-06   -0.67858E-06   132   0.718E-03
  10 F= -.10123685E+03 E0= -.10123685E+03  d E =-.557118E-11
       N       E                     dE             d eps       ncg     rms          rms(c)
DAV:   1    -0.101234035217E+03    0.28133E-02   -0.34316E-01    96   0.164E+00    0.260E-01
DAV:   2    -0.101236754934E+03   -0.27197E-02   -0.27462E-02   132   0.508E-01    0.186E-01
DAV:   3    -0.101236610105E+03    0.14483E-03   -0.64433E-04   144   0.102E-01    0.966E-02
DAV:   4    -0.101236637986E+03   -0.27881E-04   -0.48899E-04   132   0.764E-02    0.181E-02
DAV:   5    -0.101236622680E+03    0.15306E-04   -0.10379E-04   132   0.342E-02    0.127E-02
DAV:   6    -0.101236619664E+03    0.30165E-05   -0.19302E-05   132   0.109E-02    0.779E-03
DAV:   7    -0.101236631310E+03   -0.11646E-04   -0.19461E-06   132   0.434E-03    0.324E-03
DAV:   8    -0.101236648471E+03   -0.17161E-04   -0.28547E-06   120   0.465E-03    0.125E-03
DAV:   9    -0.101236663192E+03   -0.14721E-04   -0.14520E-06   132   0.278E-03    0.150E-03
DAV:  10    -0.101236679402E+03   -0.16210E-04   -0.13620E-06   108   0.246E-03    0.453E-04
DAV:  11    -0.101236684351E+03   -0.49485E-05   -0.14719E-07   108   0.101E-03    0.272E-04
DAV:  12    -0.101236691322E+03   -0.69717E-05   -0.34895E-07    96   0.109E-03    0.180E-04
DAV:  13    -0.101236693050E+03   -0.17273E-05   -0.45726E-08   108   0.426E-04    0.179E-04
DAV:  14    -0.101236695242E+03   -0.21925E-05   -0.43382E-08   108   0.445E-04    0.696E-05
DAV:  15    -0.101236695899E+03   -0.65676E-06   -0.88903E-09   108   0.243E-04
  11 F= -.10123670E+03 E0= -.10123670E+03  d E =-.515963E-11
       N       E                     dE             d eps       ncg     rms          rms(c)
DAV:   1    -0.101236990826E+03   -0.29558E-03   -0.16914E-01    96   0.115E+00    0.184E-01
DAV:   2    -0.101238253036E+03   -0.12622E-02   -0.12992E-02   132   0.374E-01    0.125E-01
DAV:   3    -0.101238181015E+03    0.72021E-04   -0.30416E-04   156   0.716E-02    0.673E-02
DAV:   4    -0.101238182443E+03   -0.14279E-05   -0.21189E-04   132   0.537E-02    0.127E-02
DAV:   5    -0.101238176374E+03    0.60682E-05   -0.50067E-05   132   0.251E-02    0.919E-03
DAV:   6    -0.101238176935E+03   -0.56014E-06   -0.84519E-06   132   0.808E-03
  12 F= -.10123818E+03 E0= -.10123818E+03  d E =-.638661E-11
       N       E                     dE             d eps       ncg     rms          rms(c)
DAV:   1    -0.101236481302E+03    0.16951E-02   -0.33014E-01    96   0.164E+00    0.267E-01
DAV:   2    -0.101238158202E+03   -0.16769E-02   -0.17656E-02   132   0.427E-01    0.134E-01
DAV:   3    -0.101238128642E+03    0.29561E-04   -0.57053E-04   132   0.888E-02    0.718E-02
DAV:   4    -0.101238158446E+03   -0.29804E-04   -0.19084E-04   132   0.549E-02    0.159E-02
DAV:   5    -0.101238155329E+03    0.31173E-05   -0.45812E-05   132   0.256E-02    0.112E-02
DAV:   6    -0.101238154757E+03    0.57205E-06   -0.68043E-06   132   0.883E-03
  13 F= -.10123815E+03 E0= -.10123815E+03  d E =-.633454E-11
       N       E                     dE             d eps       ncg     rms          rms(c)
DAV:   1    -0.101235823816E+03    0.23315E-02   -0.16773E-01    96   0.128E+00    0.194E-01
DAV:   2    -0.101237130537E+03   -0.13067E-02   -0.13532E-02   132   0.401E-01    0.115E-01
DAV:   3    -0.101237070787E+03    0.59750E-04   -0.35928E-04   132   0.773E-02    0.667E-02
DAV:   4    -0.101237082166E+03   -0.11379E-04   -0.19299E-04   120   0.567E-02    0.133E-02
DAV:   5    -0.101237079592E+03    0.25739E-05   -0.55025E-05   132   0.274E-02    0.107E-02
DAV:   6    -0.101237077189E+03    0.24026E-05   -0.56145E-06   132   0.812E-03    0.736E-03
DAV:   7    -0.101237080424E+03   -0.32347E-05   -0.18315E-06   132   0.510E-03    0.287E-03
DAV:   8    -0.101237087062E+03   -0.66380E-05   -0.54922E-07   108   0.339E-03    0.778E-04
DAV:   9    -0.101237095116E+03   -0.80542E-05   -0.59723E-07   108   0.248E-03    0.109E-03
DAV:  10    -0.101237105307E+03   -0.10191E-04   -0.52651E-07   108   0.189E-03    0.395E-04
DAV:  11    -0.101237108276E+03   -0.29691E-05   -0.12577E-07   108   0.941E-04    0.303E-04
DAV:  12    -0.101237111998E+03   -0.37220E-05   -0.94414E-08   108   0.727E-04    0.140E-04
DAV:  13    -0.101237114427E+03   -0.24283E-05   -0.73608E-08   108   0.574E-04    0.145E-04
DAV:  14    -0.101237115874E+03   -0.14474E-05   -0.24619E-08   108   0.352E-04    0.984E-05
DAV:  15    -0.101237116558E+03   -0.68401E-06   -0.37168E-09   108   0.219E-04
  14 F= -.10123712E+03 E0= -.10123712E+03  d E =-.640342E-11
       N       E                     dE             d eps       ncg     rms          rms(c)
DAV:   1    -0.101234521034E+03    0.25948E-02   -0.34941E-01    96   0.180E+00    0.261E-01
DAV:   2    -0.101237061253E+03   -0.25402E-02   -0.25810E-02   132   0.571E-01    0.174E-01
DAV:   3    -0.101236933724E+03    0.12753E-03   -0.58408E-04   132   0.103E-01    0.967E-02
DAV:   4    -0.101236932715E+03    0.10092E-05   -0.40902E-04   132   0.798E-02    0.172E-02
DAV:   5    -0.101236924708E+03    0.80070E-05   -0.10073E-04   132   0.371E-02    0.131E-02
DAV:   6    -0.101236927936E+03   -0.32277E-05   -0.17690E-05   132   0.125E-02    0.880E-03
DAV:   7    -0.101236947661E+03   -0.19725E-04   -0.27462E-06   132   0.585E-03    0.358E-03
DAV:   8    -0.101236973234E+03   -0.25573E-04   -0.24175E-06   132   0.446E-03    0.114E-03
DAV:   9    -0.101236997555E+03   -0.24321E-04   -0.26188E-06   132   0.392E-03    0.168E-03
DAV:  10    -0.101237017687E+03   -0.20132E-04   -0.16838E-06   132   0.298E-03    0.783E-04
DAV:  11    -0.101237025039E+03   -0.73518E-05   -0.31903E-07   108   0.135E-03    0.332E-04
DAV:  12    -0.101237031385E+03   -0.63455E-05   -0.31504E-07    96   0.111E-03    0.220E-04
DAV:  13    -0.101237033511E+03   -0.21269E-05   -0.62830E-08   108   0.524E-04    0.250E-04
DAV:  14    -0.101237035267E+03   -0.17558E-05   -0.33790E-08    84   0.441E-04    0.889E-05
DAV:  15    -0.101237035801E+03   -0.53380E-06   -0.42288E-09   108   0.237E-04
  15 F= -.10123704E+03 E0= -.10123704E+03  d E =-.429396E-11
       N       E                     dE             d eps       ncg     rms          rms(c)
DAV:   1    -0.101236446310E+03    0.58896E-03   -0.17560E-01    96   0.130E+00    0.187E-01
DAV:   2    -0.101237786009E+03   -0.13397E-02   -0.13615E-02   120   0.405E-01    0.130E-01
DAV:   3    -0.101237706856E+03    0.79153E-04   -0.29929E-04   144   0.740E-02    0.705E-02
DAV:   4    -0.101237709312E+03   -0.24563E-05   -0.24018E-04   120   0.590E-02    0.130E-02
DAV:   5    -0.101237702087E+03    0.72257E-05   -0.60537E-05   132   0.282E-02    0.946E-03
DAV:   6    -0.101237703277E+03   -0.11899E-05   -0.93426E-06   132   0.808E-03    0.571E-03
DAV:   7    -0.101237713029E+03   -0.97523E-05   -0.54660E-07   108   0.267E-03    0.292E-03
DAV:   8    -0.101237731766E+03   -0.18737E-04   -0.26029E-06   120   0.454E-03    0.128E-03
DAV:   9    -0.101237740619E+03   -0.88531E-05   -0.91127E-07   120   0.253E-03    0.141E-03
DAV:  10    -0.101237754122E+03   -0.13503E-04   -0.79527E-07    84   0.209E-03    0.502E-04
DAV:  11    -0.101237758559E+03   -0.44361E-05   -0.28805E-07    96   0.117E-03    0.299E-04
DAV:  12    -0.101237762246E+03   -0.36874E-05   -0.86084E-08    96   0.696E-04    0.123E-04
DAV:  13    -0.101237764993E+03   -0.27473E-05   -0.98250E-08    96   0.614E-04    0.129E-04
DAV:  14    -0.101237766164E+03   -0.11704E-05   -0.18719E-08   108   0.339E-04    0.100E-04
DAV:  15    -0.101237766823E+03   -0.65971E-06   -0.32149E-09    96   0.227E-04
  16 F= -.10123777E+03 E0= -.10123777E+03  d E =-.610527E-11
       N       E                     dE             d eps       ncg     rms          rms(c)
DAV:   1    -0.101235403285E+03    0.23629E-02   -0.34460E-01    96   0.179E+00    0.256E-01
DAV:   2    -0.101237490404E+03   -0.20871E-02   -0.21486E-02   120   0.511E-01    0.153E-01
DAV:   3    -0.101237398947E+03    0.91457E-04   -0.53466E-04   132   0.952E-02    0.810E-02
DAV:   4    -0.101237405707E+03   -0.67594E-05   -0.30280E-04   132   0.668E-02    0.159E-02
DAV:   5    -0.101237395232E+03    0.10475E-04   -0.64608E-05   132   0.305E-02    0.118E-02
DAV:   6    -0.101237394424E+03    0.80732E-06   -0.12022E-05   132   0.107E-02    0.743E-03
DAV:   7    -0.101237403603E+03   -0.91782E-05   -0.17578E-06   132   0.531E-03    0.296E-03
DAV:   8    -0.101237418321E+03   -0.14719E-04   -0.18542E-06   132   0.500E-03    0.129E-03
DAV:   9    -0.101237433882E+03   -0.15561E-04   -0.12167E-06   120   0.319E-03    0.151E-03
DAV:  10    -0.101237450195E+03   -0.16313E-04   -0.79545E-07   108   0.229E-03    0.542E-04
DAV:  11    -0.101237456230E+03   -0.60350E-05   -0.24487E-07   108   0.123E-03    0.332E-04
DAV:  12    -0.101237464154E+03   -0.79242E-05   -0.21839E-07   108   0.991E-04    0.175E-04
DAV:  13    -0.101237466999E+03   -0.28451E-05   -0.78642E-08   108   0.567E-04    0.229E-04
DAV:  14    -0.101237469314E+03   -0.23151E-05   -0.29203E-08   108   0.396E-04    0.110E-04
DAV:  15    -0.101237470263E+03   -0.94804E-06   -0.69345E-09   108   0.261E-04
  17 F= -.10123747E+03 E0= -.10123747E+03  d E =-.477658E-11
       N       E                     dE             d eps       ncg     rms          rms(c)
DAV:   1    -0.101236948703E+03    0.52061E-03   -0.17456E-01    96   0.129E+00    0.170E-01
DAV:   2    -0.101238002040E+03   -0.10533E-02   -0.10885E-02   132   0.368E-01    0.115E-01
DAV:   3    -0.101237955268E+03    0.46772E-04   -0.25934E-04   132   0.651E-02    0.608E-02
DAV:   4    -0.101237940745E+03    0.14524E-04   -0.12804E-04   132   0.419E-02    0.105E-02
DAV:   5    -0.101237937814E+03    0.29305E-05   -0.20225E-05   132   0.170E-02    0.724E-03
DAV:   6    -0.101237943536E+03   -0.57217E-05   -0.65753E-06   132   0.852E-03    0.418E-03
DAV:   7    -0.101237960981E+03   -0.17445E-04   -0.22109E-06   132   0.538E-03    0.156E-03
DAV:   8    -0.101237979723E+03   -0.18742E-04   -0.15195E-06   120   0.403E-03    0.998E-04
DAV:   9    -0.101237997189E+03   -0.17466E-04   -0.16823E-06   108   0.318E-03    0.958E-04
DAV:  10    -0.101238010570E+03   -0.13381E-04   -0.11792E-06   108   0.235E-03    0.334E-04
DAV:  11    -0.101238013743E+03   -0.31731E-05   -0.90007E-08   108   0.829E-04    0.210E-04
DAV:  12    -0.101238017950E+03   -0.42067E-05   -0.23641E-07   108   0.977E-04    0.135E-04
DAV:  13    -0.101238018956E+03   -0.10067E-05   -0.29286E-08   108   0.414E-04    0.966E-05
DAV:  14    -0.101238019879E+03   -0.92289E-06   -0.15271E-08   108   0.320E-04
  18 F= -.10123802E+03 E0= -.10123802E+03  d E =-.522117E-11
       N       E                     dE             d eps       ncg     rms          rms(c)
DAV:   1    -0.101236070824E+03    0.19481E-02   -0.33022E-01    96   0.175E+00    0.213E-01
DAV:   2    -0.101237955100E+03   -0.18843E-02   -0.19249E-02   132   0.474E-01    0.141E-01
DAV:   3    -0.101237909466E+03    0.45634E-04   -0.44762E-04   132   0.846E-02    0.732E-02
DAV:   4    -0.101237903970E+03    0.54952E-05   -0.17616E-04   132   0.530E-02    0.135E-02
DAV:   5    -0.101237893498E+03    0.10473E-04   -0.36988E-05   132   0.238E-02    0.870E-03
DAV:   6    -0.101237895889E+03   -0.23913E-05   -0.74813E-06   132   0.908E-03    0.558E-03
DAV:   7    -0.101237909217E+03   -0.13328E-04   -0.16607E-06   108   0.618E-03    0.196E-03
DAV:   8    -0.101237924663E+03   -0.15446E-04   -0.23774E-06   132   0.599E-03    0.182E-03
DAV:   9    -0.101237939816E+03   -0.15153E-04   -0.91424E-07   108   0.354E-03    0.117E-03
DAV:  10    -0.101237953293E+03   -0.13476E-04   -0.59364E-07   108   0.193E-03    0.623E-04
DAV:  11    -0.101237963409E+03   -0.10117E-04   -0.43362E-07    96   0.151E-03    0.345E-04
DAV:  12    -0.101237970903E+03   -0.74934E-05   -0.22231E-07    96   0.104E-03    0.203E-04
DAV:  13    -0.101237975692E+03   -0.47895E-05   -0.11989E-07    96   0.730E-04    0.162E-04
DAV:  14    -0.101237977591E+03   -0.18988E-05   -0.21022E-08   108   0.403E-04    0.902E-05
DAV:  15    -0.101237979057E+03   -0.14660E-05   -0.18213E-08    84   0.330E-04    0.969E-05
DAV:  16    -0.101237979536E+03   -0.47935E-06    0.12460E-09   108   0.202E-04
  19 F= -.10123798E+03 E0= -.10123798E+03  d E =-.512853E-11
       N       E                     dE             d eps       ncg     rms          rms(c)
DAV:   1    -0.101236291309E+03    0.16877E-02   -0.16520E-01    96   0.128E+00    0.160E-01
DAV:   2    -0.101237597476E+03   -0.13062E-02   -0.13543E-02   120   0.405E-01    0.112E-01
DAV:   3    -0.101237538640E+03    0.58837E-04   -0.31094E-04   144   0.724E-02    0.657E-02
DAV:   4    -0.101237518591E+03    0.20049E-04   -0.15824E-04   132   0.510E-02    0.110E-02
DAV:   5    -0.101237513000E+03    0.55903E-05   -0.41737E-05   132   0.237E-02    0.896E-03
DAV:   6    -0.101237512900E+03    0.99917E-07   -0.48284E-06   132   0.774E-03
  20 F= -.10123751E+03 E0= -.10123751E+03  d E =-.740115E-11
       N       E                     dE             d eps       ncg     rms          rms(c)
DAV:   1    -0.101235111494E+03    0.24015E-02   -0.33041E-01    96   0.175E+00    0.260E-01
DAV:   2    -0.101237397993E+03   -0.22865E-02   -0.24429E-02   132   0.511E-01    0.164E-01
DAV:   3    -0.101237250733E+03    0.14726E-03   -0.66179E-04   132   0.104E-01    0.877E-02
DAV:   4    -0.101237268957E+03   -0.18224E-04   -0.41233E-04   132   0.720E-02    0.171E-02
DAV:   5    -0.101237262556E+03    0.64014E-05   -0.69159E-05   132   0.301E-02    0.126E-02
DAV:   6    -0.101237261701E+03    0.85485E-06   -0.99265E-06   132   0.914E-03
  21 F= -.10123726E+03 E0= -.10123726E+03  d E =-.525434E-11
       N       E                     dE             d eps       ncg     rms          rms(c)
DAV:   1    -0.101237630965E+03   -0.36841E-03   -0.16788E-01    96   0.121E+00    0.160E-01
DAV:   2    -0.101238693187E+03   -0.10622E-02   -0.11132E-02   132   0.354E-01    0.106E-01
DAV:   3    -0.101238650885E+03    0.42301E-04   -0.31653E-04   132   0.725E-02    0.557E-02
DAV:   4    -0.101238675900E+03   -0.25015E-04   -0.16423E-04   132   0.465E-02    0.124E-02
DAV:   5    -0.101238673813E+03    0.20875E-05   -0.26764E-05   120   0.191E-02    0.841E-03
DAV:   6    -0.101238672732E+03    0.10808E-05   -0.45604E-06   132   0.655E-03    0.530E-03
DAV:   7    -0.101238673933E+03   -0.12011E-05   -0.40154E-07    84   0.255E-03    0.187E-03
DAV:   8    -0.101238675800E+03   -0.18667E-05   -0.34146E-07   108   0.239E-03    0.594E-04
DAV:   9    -0.101238678655E+03   -0.28552E-05   -0.30762E-07    96   0.172E-03    0.642E-04
DAV:  10    -0.101238682416E+03   -0.37608E-05   -0.21529E-07   108   0.130E-03    0.364E-04
DAV:  11    -0.101238683466E+03   -0.10500E-05   -0.49601E-08   108   0.673E-04    0.276E-04
DAV:  12    -0.101238684523E+03   -0.10573E-05   -0.18839E-08    96   0.409E-04    0.181E-04
DAV:  13    -0.101238685993E+03   -0.14700E-05   -0.56383E-08   108   0.494E-04    0.816E-05
DAV:  14    -0.101238686656E+03   -0.66259E-06   -0.12740E-08   108   0.275E-04
  22 F= -.10123869E+03 E0= -.10123869E+03  d E =-.475246E-11
       N       E                     dE             d eps       ncg     rms          rms(c)
DAV:   1    -0.101237067638E+03    0.16184E-02   -0.33447E-01    96   0.169E+00    0.241E-01
DAV:   2    -0.101238499414E+03   -0.14318E-02   -0.15787E-02   120   0.422E-01    0.110E-01
DAV:   3    -0.101238452950E+03    0.46465E-04   -0.51153E-04   132   0.858E-02    0.575E-02
DAV:   4    -0.101238463869E+03   -0.10920E-04   -0.13780E-04   132   0.440E-02    0.159E-02
DAV:   5    -0.101238460767E+03    0.31021E-05   -0.26570E-05   132   0.205E-02    0.935E-03
DAV:   6    -0.101238461708E+03   -0.94104E-06   -0.59714E-06   132   0.833E-03
  23 F= -.10123846E+03 E0= -.10123846E+03  d E =-.691353E-11
       N       E                     dE             d eps       ncg     rms          rms(c)
DAV:   1    -0.101237624376E+03    0.83639E-03   -0.16556E-01    96   0.120E+00    0.158E-01
DAV:   2    -0.101238349531E+03   -0.72515E-03   -0.78603E-03   132   0.295E-01    0.784E-02
DAV:   3    -0.101238334745E+03    0.14786E-04   -0.26317E-04   120   0.618E-02    0.406E-02
DAV:   4    -0.101238351088E+03   -0.16344E-04   -0.72959E-05   120   0.314E-02    0.113E-02
DAV:   5    -0.101238352147E+03   -0.10587E-05   -0.11826E-05   120   0.133E-02    0.624E-03
DAV:   6    -0.101238353481E+03   -0.13340E-05   -0.28426E-06   132   0.577E-03    0.342E-03
DAV:   7    -0.101238355867E+03   -0.23860E-05   -0.34884E-07    96   0.226E-03    0.115E-03
DAV:   8    -0.101238358382E+03   -0.25153E-05   -0.19850E-07   108   0.184E-03    0.513E-04
DAV:   9    -0.101238360815E+03   -0.24328E-05   -0.12771E-07    96   0.130E-03    0.384E-04
DAV:  10    -0.101238363946E+03   -0.31311E-05   -0.16627E-07    96   0.119E-03    0.229E-04
DAV:  11    -0.101238364668E+03   -0.72194E-06   -0.36473E-08   108   0.657E-04
  24 F= -.10123836E+03 E0= -.10123836E+03  d E =-.443604E-11
       N       E                     dE             d eps       ncg     rms          rms(c)
DAV:   1    -0.101236769666E+03    0.15943E-02   -0.33057E-01    96   0.168E+00    0.264E-01
DAV:   2    -0.101238322435E+03   -0.15528E-02   -0.17222E-02   120   0.451E-01    0.124E-01
DAV:   3    -0.101238251481E+03    0.70954E-04   -0.55497E-04   132   0.903E-02    0.700E-02
DAV:   4    -0.101238259812E+03   -0.83315E-05   -0.18743E-04   120   0.511E-02    0.185E-02
DAV:   5    -0.101238255772E+03    0.40396E-05   -0.34179E-05   132   0.220E-02    0.998E-03
DAV:   6    -0.101238256600E+03   -0.82718E-06   -0.54225E-06   132   0.797E-03
  25 F= -.10123826E+03 E0= -.10123826E+03  d E =-.782610E-11
       N       E                     dE             d eps       ncg     rms          rms(c)
DAV:   1    -0.101237321229E+03    0.93454E-03   -0.16364E-01    96   0.124E+00    0.167E-01
DAV:   2    -0.101238339564E+03   -0.10183E-02   -0.10612E-02   132   0.354E-01    0.916E-02
DAV:   3    -0.101238316071E+03    0.23493E-04   -0.32893E-04   144   0.727E-02    0.489E-02
DAV:   4    -0.101238334533E+03   -0.18462E-04   -0.11732E-04   120   0.439E-02    0.114E-02
DAV:   5    -0.101238335781E+03   -0.12480E-05   -0.27701E-05   132   0.199E-02    0.791E-03
DAV:   6    -0.101238336862E+03   -0.10807E-05   -0.34130E-06   132   0.598E-03    0.544E-03
DAV:   7    -0.101238340562E+03   -0.37004E-05   -0.49952E-07   108   0.284E-03    0.183E-03
DAV:   8    -0.101238343876E+03   -0.33138E-05   -0.45924E-07   108   0.254E-03    0.793E-04
DAV:   9    -0.101238348902E+03   -0.50258E-05   -0.33234E-07   108   0.224E-03    0.451E-04
DAV:  10    -0.101238351901E+03   -0.29990E-05   -0.24354E-07   108   0.150E-03    0.584E-04
DAV:  11    -0.101238353129E+03   -0.12274E-05   -0.46146E-08   108   0.801E-04    0.384E-04
DAV:  12    -0.101238354594E+03   -0.14654E-05   -0.43223E-08   108   0.546E-04    0.129E-04
DAV:  13    -0.101238355524E+03   -0.92989E-06   -0.23369E-08   108   0.367E-04
  26 F= -.10123836E+03 E0= -.10123836E+03  d E =-.601908E-11
       N       E                     dE             d eps       ncg     rms          rms(c)
DAV:   1    -0.101236403302E+03    0.19513E-02   -0.33594E-01    96   0.172E+00    0.225E-01
DAV:   2    -0.101238210253E+03   -0.18070E-02   -0.18512E-02   132   0.461E-01    0.131E-01
DAV:   3    -0.101238179052E+03    0.31201E-04   -0.46993E-04   132   0.873E-02    0.706E-02
DAV:   4    -0.101238192829E+03   -0.13777E-04   -0.19537E-04   132   0.584E-02    0.140E-02
DAV:   5    -0.101238186779E+03    0.60507E-05   -0.53512E-05   132   0.277E-02    0.105E-02
DAV:   6    -0.101238186354E+03    0.42474E-06   -0.77429E-06   132   0.905E-03
  27 F= -.10123819E+03 E0= -.10123819E+03  d E =-.688565E-11
       N       E                     dE             d eps       ncg     rms          rms(c)
DAV:   1    -0.101236484070E+03    0.17027E-02   -0.17160E-01    96   0.129E+00    0.161E-01
DAV:   2    -0.101237596727E+03   -0.11127E-02   -0.11148E-02   132   0.367E-01    0.113E-01
DAV:   3    -0.101237580889E+03    0.15838E-04   -0.24690E-04   132   0.649E-02    0.590E-02
DAV:   4    -0.101237584103E+03   -0.32138E-05   -0.13869E-04   120   0.435E-02    0.105E-02
DAV:   5    -0.101237577958E+03    0.61455E-05   -0.23983E-05   132   0.183E-02    0.713E-03
DAV:   6    -0.101237578934E+03   -0.97661E-06   -0.60505E-06   132   0.744E-03
  28 F= -.10123758E+03 E0= -.10123758E+03  d E =-.663089E-11
       N       E                     dE             d eps       ncg     rms          rms(c)
DAV:   1    -0.101235355491E+03    0.22225E-02   -0.34351E-01    96   0.179E+00    0.255E-01
DAV:   2    -0.101237376031E+03   -0.20205E-02   -0.20586E-02   132   0.503E-01    0.155E-01
DAV:   3    -0.101237317078E+03    0.58954E-04   -0.53054E-04   120   0.925E-02    0.793E-02
DAV:   4    -0.101237320612E+03   -0.35345E-05   -0.24502E-04   132   0.585E-02    0.150E-02
DAV:   5    -0.101237306332E+03    0.14280E-04   -0.41253E-05   132   0.247E-02    0.104E-02
DAV:   6    -0.101237302017E+03    0.43146E-05   -0.99232E-06   132   0.106E-02    0.618E-03
DAV:   7    -0.101237308232E+03   -0.62148E-05   -0.25441E-06   132   0.659E-03    0.208E-03
DAV:   8    -0.101237317193E+03   -0.89602E-05   -0.10853E-06   108   0.457E-03    0.127E-03
DAV:   9    -0.101237330870E+03   -0.13678E-04   -0.14000E-06   132   0.335E-03    0.134E-03
DAV:  10    -0.101237344909E+03   -0.14039E-04   -0.70641E-07   108   0.217E-03    0.391E-04
DAV:  11    -0.101237349188E+03   -0.42791E-05   -0.17323E-07   108   0.102E-03    0.308E-04
DAV:  12    -0.101237356976E+03   -0.77883E-05   -0.23029E-07    96   0.105E-03    0.149E-04
DAV:  13    -0.101237359718E+03   -0.27421E-05   -0.83129E-08   108   0.611E-04    0.147E-04
DAV:  14    -0.101237361869E+03   -0.21510E-05   -0.23867E-08    96   0.380E-04    0.813E-05
DAV:  15    -0.101237362839E+03   -0.96927E-06   -0.78958E-09   108   0.250E-04
  29 F= -.10123736E+03 E0= -.10123736E+03  d E =-.471234E-11
       N       E                     dE             d eps       ncg     rms          rms(c)
DAV:   1    -0.101235632545E+03    0.17293E-02   -0.17604E-01    96   0.126E+00    0.185E-01
DAV:   2    -0.101236923814E+03   -0.12913E-02   -0.13188E-02   120   0.396E-01    0.126E-01
DAV:   3    -0.101236854835E+03    0.68979E-04   -0.28390E-04   156   0.710E-02    0.707E-02
DAV:   4    -0.101236852528E+03    0.23073E-05   -0.21994E-04   132   0.580E-02    0.128E-02
DAV:   5    -0.101236847718E+03    0.48100E-05   -0.58869E-05   132   0.279E-02    0.945E-03
DAV:   6    -0.101236848057E+03   -0.33911E-06   -0.95944E-06   132   0.901E-03
  30 F= -.10123685E+03 E0= -.10123685E+03  d E =-.807009E-11
       N       E                     dE             d eps       ncg     rms          rms(c)
DAV:   1    -0.101234228726E+03    0.26190E-02   -0.35100E-01    96   0.179E+00    0.249E-01
DAV:   2    -0.101236916507E+03   -0.26878E-02   -0.26954E-02   132   0.578E-01    0.179E-01
DAV:   3    -0.101236801956E+03    0.11455E-03   -0.59243E-04   132   0.105E-01    0.969E-02
DAV:   4    -0.101236819206E+03   -0.17251E-04   -0.44332E-04   132   0.818E-02    0.176E-02
DAV:   5    -0.101236810408E+03    0.87979E-05   -0.10336E-04   132   0.377E-02    0.130E-02
DAV:   6    -0.101236812483E+03   -0.20749E-05   -0.19446E-05   132   0.126E-02    0.818E-03
DAV:   7    -0.101236830508E+03   -0.18025E-04   -0.26361E-06   132   0.572E-03    0.340E-03
DAV:   8    -0.101236853442E+03   -0.22934E-04   -0.25171E-06   132   0.466E-03    0.108E-03
DAV:   9    -0.101236874300E+03   -0.20858E-04   -0.26982E-06   132   0.401E-03    0.169E-03
DAV:  10    -0.101236891028E+03   -0.16728E-04   -0.14519E-06    96   0.291E-03    0.675E-04
DAV:  11    -0.101236897200E+03   -0.61720E-05   -0.33247E-07   108   0.138E-03    0.315E-04
DAV:  12    -0.101236902639E+03   -0.54391E-05   -0.30854E-07    84   0.110E-03    0.206E-04
DAV:  13    -0.101236904162E+03   -0.15231E-05   -0.50625E-08    96   0.484E-04    0.224E-04
DAV:  14    -0.101236905586E+03   -0.14238E-05   -0.29122E-08   108   0.417E-04    0.102E-04
DAV:  15    -0.101236906218E+03   -0.63204E-06   -0.92044E-09   108   0.277E-04
  31 F= -.10123691E+03 E0= -.10123691E+03  d E =-.943795E-10
       N       E                     dE             d eps       ncg     rms          rms(c)
DAV:   1    -0.101235849009E+03    0.10566E-02   -0.18441E-01    96   0.136E+00    0.166E-01
DAV:   2    -0.101237352822E+03   -0.15038E-02   -0.16425E-02   144   0.427E-01    0.115E-01
DAV:   3    -0.101237287174E+03    0.65649E-04   -0.28612E-04   144   0.667E-02    0.700E-02
DAV:   4    -0.101237264833E+03    0.22340E-04   -0.17741E-04   132   0.541E-02    0.107E-02
DAV:   5    -0.101237258475E+03    0.63585E-05   -0.53172E-05   132   0.268E-02    0.815E-03
DAV:   6    -0.101237255413E+03    0.30618E-05   -0.62753E-06   132   0.817E-03    0.551E-03
DAV:   7    -0.101237262735E+03   -0.73225E-05   -0.26360E-06   132   0.545E-03    0.207E-03
DAV:   8    -0.101237278163E+03   -0.15427E-04   -0.13401E-06   120   0.393E-03    0.119E-03
DAV:   9    -0.101237292339E+03   -0.14176E-04   -0.80303E-07   108   0.260E-03    0.123E-03
DAV:  10    -0.101237306542E+03   -0.14202E-04   -0.86519E-07   108   0.207E-03    0.301E-04
DAV:  11    -0.101237312399E+03   -0.58578E-05   -0.16442E-07   108   0.988E-04    0.287E-04
DAV:  12    -0.101237316939E+03   -0.45390E-05   -0.10642E-07   108   0.707E-04    0.152E-04
DAV:  13    -0.101237318909E+03   -0.19705E-05   -0.26261E-08   108   0.392E-04    0.107E-04
DAV:  14    -0.101237320703E+03   -0.17940E-05   -0.21410E-08   108   0.337E-04    0.333E-05
DAV:  15    -0.101237321255E+03   -0.55213E-06   -0.97389E-10   108   0.174E-04
  32 F= -.10123732E+03 E0= -.10123732E+03  d E =-.613386E-11
       N       E                     dE             d eps       ncg     rms          rms(c)
DAV:   1    -0.101235804246E+03    0.15165E-02   -0.40617E-01   120   0.186E+00    0.213E-01
DAV:   2    -0.101237511059E+03   -0.17068E-02   -0.20749E-02   120   0.472E-01    0.128E-01
DAV:   3    -0.101237398149E+03    0.11291E-03   -0.32967E-04   132   0.637E-02    0.697E-02
DAV:   4    -0.101237339540E+03    0.58609E-04   -0.14990E-04   144   0.464E-02    0.117E-02
DAV:   5    -0.101237332897E+03    0.66436E-05   -0.33141E-05   132   0.209E-02    0.772E-03
DAV:   6    -0.101237344247E+03   -0.11350E-04   -0.11035E-05   132   0.932E-03    0.443E-03
DAV:   7    -0.101237368153E+03   -0.23906E-04   -0.17565E-06   120   0.415E-03    0.224E-03
DAV:   8    -0.101237407114E+03   -0.38961E-04   -0.45980E-06   120   0.484E-03    0.130E-03
DAV:   9    -0.101237428745E+03   -0.21631E-04   -0.16175E-06   120   0.298E-03    0.105E-03
DAV:  10    -0.101237450049E+03   -0.21304E-04   -0.17299E-06    96   0.270E-03    0.346E-04
DAV:  11    -0.101237457425E+03   -0.73759E-05   -0.27121E-07   108   0.124E-03    0.368E-04
DAV:  12    -0.101237464342E+03   -0.69166E-05   -0.32574E-07    84   0.118E-03    0.155E-04
DAV:  13    -0.101237465926E+03   -0.15845E-05   -0.52335E-08   108   0.513E-04    0.119E-04
DAV:  14    -0.101237467351E+03   -0.14246E-05   -0.13989E-08   108   0.349E-04    0.476E-05
DAV:  15    -0.101237468066E+03   -0.71565E-06   -0.75556E-09   108   0.251E-04
  33 F= -.10123747E+03 E0= -.10123747E+03  d E =-.536601E-11
       N       E                     dE             d eps       ncg     rms          rms(c)
DAV:   1    -0.101236837941E+03    0.62941E-03   -0.20351E-01   108   0.135E+00    0.149E-01
DAV:   2    -0.101237599061E+03   -0.76112E-03   -0.93527E-03   120   0.309E-01    0.776E-02
DAV:   3    -0.101237559258E+03    0.39802E-04   -0.17023E-04   132   0.452E-02    0.406E-02
DAV:   4    -0.101237531890E+03    0.27368E-04   -0.46724E-05   132   0.263E-02    0.839E-03
DAV:   5    -0.101237525307E+03    0.65823E-05   -0.97744E-06   132   0.123E-02    0.505E-03
DAV:   6    -0.101237526091E+03   -0.78372E-06   -0.35531E-06   132   0.668E-03
  34 F= -.10123753E+03 E0= -.10123753E+03  d E =-.519830E-11
       N       E                     dE             d eps       ncg     rms          rms(c)
DAV:   1    -0.101236457295E+03    0.10680E-02   -0.40396E-01    96   0.193E+00    0.216E-01
DAV:   2    -0.101238017488E+03   -0.15602E-02   -0.18777E-02   132   0.433E-01    0.115E-01
DAV:   3    -0.101237946899E+03    0.70589E-04   -0.33587E-04   120   0.621E-02    0.603E-02
DAV:   4    -0.101237885564E+03    0.61335E-04   -0.96139E-05   120   0.357E-02    0.119E-02
DAV:   5    -0.101237877624E+03    0.79392E-05   -0.14214E-05   132   0.153E-02    0.677E-03
DAV:   6    -0.101237891037E+03   -0.13412E-04   -0.82895E-06   120   0.101E-02    0.310E-03
DAV:   7    -0.101237913409E+03   -0.22373E-04   -0.40796E-06   132   0.635E-03    0.212E-03
DAV:   8    -0.101237939176E+03   -0.25767E-04   -0.18401E-06    96   0.339E-03    0.106E-03
DAV:   9    -0.101237961347E+03   -0.22171E-04   -0.20222E-06   108   0.310E-03    0.776E-04
DAV:  10    -0.101237979731E+03   -0.18384E-04   -0.18376E-06   108   0.268E-03    0.323E-04
DAV:  11    -0.101237986812E+03   -0.70806E-05   -0.39197E-07   108   0.143E-03    0.282E-04
DAV:  12    -0.101237990151E+03   -0.33391E-05   -0.13764E-07   108   0.755E-04    0.141E-04
DAV:  13    -0.101237992078E+03   -0.19276E-05   -0.70499E-08   108   0.528E-04    0.624E-05
DAV:  14    -0.101237992873E+03   -0.79441E-06   -0.11378E-08   108   0.291E-04
  35 F= -.10123799E+03 E0= -.10123799E+03  d E =-.757062E-11
       N       E                     dE             d eps       ncg     rms          rms(c)
DAV:   1    -0.101237831638E+03    0.16044E-03   -0.20348E-01   108   0.132E+00    0.143E-01
DAV:   2    -0.101238599893E+03   -0.76825E-03   -0.92011E-03   120   0.297E-01    0.704E-02
DAV:   3    -0.101238574533E+03    0.25359E-04   -0.18461E-04   144   0.466E-02    0.372E-02
DAV:   4    -0.101238562194E+03    0.12340E-04   -0.42778E-05   120   0.293E-02    0.801E-03
DAV:   5    -0.101238558847E+03    0.33465E-05   -0.14886E-05   132   0.144E-02    0.534E-03
DAV:   6    -0.101238559285E+03   -0.43734E-06   -0.24292E-06   120   0.503E-03
  36 F= -.10123856E+03 E0= -.10123856E+03  d E =-.919476E-10
       N       E                     dE             d eps       ncg     rms          rms(c)
DAV:   1    -0.101237122032E+03    0.14368E-02   -0.41035E-01    96   0.184E+00    0.182E-01
DAV:   2    -0.101238626368E+03   -0.15043E-02   -0.17981E-02   132   0.407E-01    0.942E-02
DAV:   3    -0.101238593862E+03    0.32506E-04   -0.35800E-04   132   0.631E-02    0.498E-02
DAV:   4    -0.101238576824E+03    0.17038E-04   -0.83544E-05   144   0.389E-02    0.108E-02
DAV:   5    -0.101238573184E+03    0.36403E-05   -0.23727E-05   132   0.186E-02    0.731E-03
DAV:   6    -0.101238575957E+03   -0.27731E-05   -0.43466E-06   132   0.731E-03    0.422E-03
DAV:   7    -0.101238583645E+03   -0.76881E-05   -0.10366E-06   108   0.462E-03    0.156E-03
DAV:   8    -0.101238594014E+03   -0.10368E-04   -0.11665E-06   120   0.388E-03    0.119E-03
DAV:   9    -0.101238610379E+03   -0.16366E-04   -0.11396E-06   108   0.333E-03    0.454E-04
DAV:  10    -0.101238616880E+03   -0.65008E-05   -0.34484E-07   108   0.183E-03    0.481E-04
DAV:  11    -0.101238622082E+03   -0.52014E-05   -0.12414E-07    96   0.975E-04    0.264E-04
DAV:  12    -0.101238627132E+03   -0.50505E-05   -0.16937E-07    96   0.862E-04    0.172E-04
DAV:  13    -0.101238629279E+03   -0.21471E-05   -0.38603E-08   108   0.460E-04    0.971E-05
DAV:  14    -0.101238630786E+03   -0.15071E-05   -0.28818E-08    84   0.351E-04    0.514E-05
DAV:  15    -0.101238631527E+03   -0.74111E-06   -0.35073E-09   108   0.220E-04
  37 F= -.10123863E+03 E0= -.10123863E+03  d E =-.109870E-10
       N       E                     dE             d eps       ncg     rms          rms(c)
DAV:   1    -0.101237422378E+03    0.12084E-02   -0.20146E-01    96   0.133E+00    0.145E-01
DAV:   2    -0.101238426107E+03   -0.10037E-02   -0.12020E-02   144   0.313E-01    0.709E-02
DAV:   3    -0.101238395222E+03    0.30885E-04   -0.26232E-04   144   0.527E-02    0.396E-02
DAV:   4    -0.101238372794E+03    0.22427E-04   -0.49110E-05   132   0.308E-02    0.939E-03
DAV:   5    -0.101238368070E+03    0.47248E-05   -0.17304E-05   132   0.158E-02    0.575E-03
DAV:   6    -0.101238369503E+03   -0.14338E-05   -0.24647E-06   132   0.567E-03    0.365E-03
DAV:   7    -0.101238375426E+03   -0.59222E-05   -0.71336E-07   108   0.341E-03    0.141E-03
DAV:   8    -0.101238383866E+03   -0.84402E-05   -0.77536E-07   108   0.305E-03    0.894E-04
DAV:   9    -0.101238395865E+03   -0.11999E-04   -0.81941E-07    96   0.256E-03    0.456E-04
DAV:  10    -0.101238402105E+03   -0.62399E-05   -0.40381E-07    96   0.158E-03    0.368E-04
DAV:  11    -0.101238405509E+03   -0.34043E-05   -0.87486E-08   108   0.820E-04    0.192E-04
DAV:  12    -0.101238408461E+03   -0.29521E-05   -0.98352E-08    84   0.688E-04    0.139E-04
DAV:  13    -0.101238409764E+03   -0.13026E-05   -0.25720E-08    96   0.368E-04    0.801E-05
DAV:  14    -0.101238410781E+03   -0.10173E-05   -0.17183E-08    84   0.301E-04    0.331E-05
DAV:  15    -0.101238411211E+03   -0.42963E-06   -0.11566E-09   108   0.181E-04
  38 F= -.10123841E+03 E0= -.10123841E+03  d E =-.523067E-10
       N       E                     dE             d eps       ncg     rms          rms(c)
DAV:   1    -0.101237117856E+03    0.12929E-02   -0.40980E-01    96   0.173E+00    0.216E-01
DAV:   2    -0.101238529930E+03   -0.14121E-02   -0.16932E-02   144   0.375E-01    0.100E-01
DAV:   3    -0.101238443957E+03    0.85973E-04   -0.32159E-04   132   0.634E-02    0.527E-02
DAV:   4    -0.101238414414E+03    0.29543E-04   -0.10831E-04   132   0.405E-02    0.119E-02
DAV:   5    -0.101238408907E+03    0.55071E-05   -0.23556E-05   132   0.186E-02    0.719E-03
DAV:   6    -0.101238412498E+03   -0.35906E-05   -0.48943E-06   132   0.740E-03    0.389E-03
DAV:   7    -0.101238422323E+03   -0.98253E-05   -0.99696E-07   120   0.346E-03    0.157E-03
DAV:   8    -0.101238433807E+03   -0.11484E-04   -0.75119E-07   120   0.266E-03    0.869E-04
DAV:   9    -0.101238446887E+03   -0.13080E-04   -0.88932E-07   120   0.242E-03    0.561E-04
DAV:  10    -0.101238458688E+03   -0.11801E-04   -0.10241E-06   120   0.218E-03    0.318E-04
DAV:  11    -0.101238461629E+03   -0.29412E-05   -0.80079E-08   108   0.933E-04    0.226E-04
DAV:  12    -0.101238465110E+03   -0.34816E-05   -0.11738E-07   108   0.758E-04    0.123E-04
DAV:  13    -0.101238466815E+03   -0.17041E-05   -0.51728E-08   108   0.465E-04    0.954E-05
DAV:  14    -0.101238467776E+03   -0.96109E-06   -0.93387E-09   108   0.268E-04
  39 F= -.10123847E+03 E0= -.10123847E+03  d E =-.146444E-10
       N       E                     dE             d eps       ncg     rms          rms(c)
DAV:   1    -0.101237507916E+03    0.95890E-03   -0.20576E-01    96   0.123E+00    0.136E-01
DAV:   2    -0.101238148133E+03   -0.64022E-03   -0.76914E-03   120   0.247E-01    0.611E-02
DAV:   3    -0.101238117435E+03    0.30698E-04   -0.16460E-04   132   0.443E-02    0.311E-02
DAV:   4    -0.101238108805E+03    0.86307E-05   -0.41358E-05   132   0.259E-02    0.862E-03
DAV:   5    -0.101238106648E+03    0.21568E-05   -0.93425E-06   132   0.121E-02    0.506E-03
DAV:   6    -0.101238107171E+03   -0.52264E-06   -0.21638E-06   132   0.508E-03
  40 F= -.10123811E+03 E0= -.10123811E+03  d E =-.508381E-11
       N       E                     dE             d eps       ncg     rms          rms(c)
DAV:   1    -0.101236319527E+03    0.17871E-02   -0.39663E-01    96   0.170E+00    0.195E-01
DAV:   2    -0.101237903025E+03   -0.15835E-02   -0.19065E-02   120   0.387E-01    0.116E-01
DAV:   3    -0.101237800279E+03    0.10275E-03   -0.33614E-04   120   0.668E-02    0.602E-02
DAV:   4    -0.101237763706E+03    0.36573E-04   -0.13101E-04   120   0.427E-02    0.113E-02
DAV:   5    -0.101237751875E+03    0.11831E-04   -0.24146E-05   132   0.184E-02    0.723E-03
DAV:   6    -0.101237752298E+03   -0.42311E-06   -0.64334E-06   132   0.749E-03
  41 F= -.10123775E+03 E0= -.10123775E+03  d E =-.963824E-11
       N       E                     dE             d eps       ncg     rms          rms(c)
DAV:   1    -0.101238103181E+03   -0.35131E-03   -0.20361E-01    96   0.122E+00    0.137E-01
DAV:   2    -0.101238859327E+03   -0.75615E-03   -0.87544E-03   132   0.269E-01    0.705E-02
DAV:   3    -0.101238839398E+03    0.19929E-04   -0.16221E-04   132   0.451E-02    0.370E-02
DAV:   4    -0.101238848564E+03   -0.91659E-05   -0.52511E-05   120   0.284E-02    0.846E-03
DAV:   5    -0.101238850536E+03   -0.19719E-05   -0.10794E-05   132   0.128E-02    0.524E-03
DAV:   6    -0.101238851995E+03   -0.14589E-05   -0.23830E-06   132   0.531E-03    0.277E-03
DAV:   7    -0.101238854247E+03   -0.22520E-05   -0.42301E-07   108   0.249E-03    0.100E-03
DAV:   8    -0.101238856255E+03   -0.20087E-05   -0.21586E-07   108   0.174E-03    0.516E-04
DAV:   9    -0.101238859406E+03   -0.31505E-05   -0.20046E-07    96   0.149E-03    0.275E-04
DAV:  10    -0.101238861863E+03   -0.24573E-05   -0.16871E-07    96   0.112E-03    0.187E-04
DAV:  11    -0.101238863046E+03   -0.11825E-05   -0.33169E-08   108   0.604E-04    0.138E-04
DAV:  12    -0.101238864312E+03   -0.12667E-05   -0.35526E-08    84   0.445E-04    0.670E-05
DAV:  13    -0.101238864870E+03   -0.55746E-06   -0.95180E-09    96   0.254E-04
  42 F= -.10123886E+03 E0= -.10123886E+03  d E =-.677294E-10
       N       E                     dE             d eps       ncg     rms          rms(c)
DAV:   1    -0.101237670431E+03    0.11939E-02   -0.41460E-01    96   0.175E+00    0.212E-01
DAV:   2    -0.101238826514E+03   -0.11561E-02   -0.14158E-02   132   0.357E-01    0.863E-02
DAV:   3    -0.101238767139E+03    0.59375E-04   -0.33277E-04   132   0.643E-02    0.443E-02
DAV:   4    -0.101238751924E+03    0.15215E-04   -0.76541E-05   132   0.364E-02    0.127E-02
DAV:   5    -0.101238749153E+03    0.27715E-05   -0.19218E-05   132   0.175E-02    0.758E-03
DAV:   6    -0.101238750185E+03   -0.10322E-05   -0.36918E-06   132   0.691E-03    0.422E-03
DAV:   7    -0.101238753936E+03   -0.37516E-05   -0.37502E-07   108   0.268E-03    0.159E-03
DAV:   8    -0.101238758771E+03   -0.48342E-05   -0.33247E-07    96   0.243E-03    0.753E-04
DAV:   9    -0.101238766958E+03   -0.81878E-05   -0.56217E-07   108   0.271E-03    0.422E-04
DAV:  10    -0.101238771786E+03   -0.48278E-05   -0.41169E-07   108   0.187E-03    0.402E-04
DAV:  11    -0.101238773473E+03   -0.16872E-05   -0.53621E-08   108   0.879E-04    0.304E-04
DAV:  12    -0.101238775553E+03   -0.20798E-05   -0.45339E-08   108   0.613E-04    0.119E-04
DAV:  13    -0.101238776909E+03   -0.13560E-05   -0.33303E-08   108   0.438E-04    0.167E-04
DAV:  14    -0.101238777869E+03   -0.95952E-06   -0.13815E-08   108   0.331E-04
  43 F= -.10123878E+03 E0= -.10123878E+03  d E =-.941076E-11
       N       E                     dE             d eps       ncg     rms          rms(c)
DAV:   1    -0.101237692398E+03    0.10845E-02   -0.20173E-01    96   0.127E+00    0.146E-01
DAV:   2    -0.101238633712E+03   -0.94131E-03   -0.11137E-02   132   0.283E-01    0.642E-02
DAV:   3    -0.101238609605E+03    0.24107E-04   -0.21980E-04   144   0.467E-02    0.349E-02
DAV:   4    -0.101238598215E+03    0.11391E-04   -0.43317E-05   132   0.241E-02    0.949E-03
DAV:   5    -0.101238594974E+03    0.32410E-05   -0.76383E-06   132   0.111E-02    0.520E-03
DAV:   6    -0.101238595461E+03   -0.48679E-06   -0.23096E-06   132   0.582E-03
  44 F= -.10123860E+03 E0= -.10123860E+03  d E =-.672910E-11
       N       E                     dE             d eps       ncg     rms          rms(c)
DAV:   1    -0.101237262957E+03    0.13320E-02   -0.40982E-01    96   0.162E+00    0.175E-01
DAV:   2    -0.101238672828E+03   -0.14099E-02   -0.16662E-02   144   0.365E-01    0.889E-02
DAV:   3    -0.101238630044E+03    0.42784E-04   -0.27880E-04   144   0.584E-02    0.463E-02
DAV:   4    -0.101238604696E+03    0.25348E-04   -0.75956E-05   132   0.382E-02    0.994E-03
DAV:   5    -0.101238597954E+03    0.67422E-05   -0.25204E-05   132   0.192E-02    0.616E-03
DAV:   6    -0.101238599410E+03   -0.14565E-05   -0.44181E-06   132   0.701E-03    0.396E-03
DAV:   7    -0.101238605079E+03   -0.56690E-05   -0.53987E-07   108   0.267E-03    0.190E-03
DAV:   8    -0.101238613860E+03   -0.87812E-05   -0.84409E-07   120   0.286E-03    0.924E-04
DAV:   9    -0.101238624678E+03   -0.10817E-04   -0.81354E-07   120   0.258E-03    0.590E-04
DAV:  10    -0.101238632610E+03   -0.79318E-05   -0.55121E-07   108   0.196E-03    0.526E-04
DAV:  11    -0.101238635485E+03   -0.28749E-05   -0.12918E-07   108   0.103E-03    0.254E-04
DAV:  12    -0.101238638756E+03   -0.32714E-05   -0.12267E-07   108   0.792E-04    0.217E-04
DAV:  13    -0.101238640248E+03   -0.14920E-05   -0.50572E-08   108   0.467E-04    0.145E-04
DAV:  14    -0.101238641488E+03   -0.12406E-05   -0.31732E-08   108   0.359E-04    0.454E-05
DAV:  15    -0.101238641825E+03   -0.33611E-06   -0.11212E-10   108   0.175E-04
  45 F= -.10123864E+03 E0= -.10123864E+03  d E =-.169696E-10
       N       E                     dE             d eps       ncg     rms          rms(c)
DAV:   1    -0.101237009104E+03    0.16324E-02   -0.19994E-01    96   0.117E+00    0.136E-01
DAV:   2    -0.101237762637E+03   -0.75353E-03   -0.93964E-03   132   0.262E-01    0.816E-02
DAV:   3    -0.101237703042E+03    0.59594E-04   -0.14817E-04   132   0.434E-02    0.407E-02
DAV:   4    -0.101237675418E+03    0.27624E-04   -0.59642E-05   132   0.291E-02    0.774E-03
DAV:   5    -0.101237668908E+03    0.65098E-05   -0.12407E-05   132   0.130E-02    0.474E-03
DAV:   6    -0.101237670580E+03   -0.16723E-05   -0.35379E-06   132   0.528E-03    0.261E-03
DAV:   7    -0.101237678297E+03   -0.77161E-05   -0.58188E-07   108   0.247E-03    0.128E-03
DAV:   8    -0.101237691680E+03   -0.13383E-04   -0.99059E-07   120   0.229E-03    0.776E-04
DAV:   9    -0.101237703064E+03   -0.11384E-04   -0.57043E-07   120   0.166E-03    0.563E-04
DAV:  10    -0.101237713505E+03   -0.10441E-04   -0.47738E-07    96   0.138E-03    0.244E-04
DAV:  11    -0.101237716837E+03   -0.33316E-05   -0.91438E-08   108   0.659E-04    0.188E-04
DAV:  12    -0.101237721290E+03   -0.44531E-05   -0.12930E-07    96   0.721E-04    0.905E-05
DAV:  13    -0.101237722555E+03   -0.12651E-05   -0.23646E-08   108   0.354E-04    0.628E-05
DAV:  14    -0.101237723645E+03   -0.10895E-05   -0.81873E-09   108   0.251E-04    0.322E-05
DAV:  15    -0.101237724068E+03   -0.42305E-06    0.15804E-09   108   0.151E-04
  46 F= -.10123772E+03 E0= -.10123772E+03  d E =-.150926E-10
       N       E                     dE             d eps       ncg     rms          rms(c)
DAV:   1    -0.101236901439E+03    0.82221E-03   -0.39993E-01    96   0.161E+00    0.189E-01
DAV:   2    -0.101238399232E+03   -0.14978E-02   -0.18406E-02   132   0.375E-01    0.109E-01
DAV:   3    -0.101238303665E+03    0.95566E-04   -0.29249E-04   132   0.593E-02    0.566E-02
DAV:   4    -0.101238254619E+03    0.49047E-04   -0.10419E-04   132   0.396E-02    0.107E-02
DAV:   5    -0.101238248570E+03    0.60490E-05   -0.22858E-05   132   0.180E-02    0.654E-03
DAV:   6    -0.101238257519E+03   -0.89496E-05   -0.68360E-06   132   0.768E-03    0.347E-03
DAV:   7    -0.101238275062E+03   -0.17543E-04   -0.18002E-06   132   0.393E-03    0.188E-03
DAV:   8    -0.101238298202E+03   -0.23140E-04   -0.18176E-06   120   0.297E-03    0.919E-04
DAV:   9    -0.101238317582E+03   -0.19381E-04   -0.16514E-06   132   0.260E-03    0.821E-04
DAV:  10    -0.101238336484E+03   -0.18902E-04   -0.19396E-06   108   0.252E-03    0.308E-04
DAV:  11    -0.101238340117E+03   -0.36329E-05   -0.10392E-07   108   0.862E-04    0.283E-04
DAV:  12    -0.101238345496E+03   -0.53788E-05   -0.22251E-07    96   0.986E-04    0.140E-04
DAV:  13    -0.101238346758E+03   -0.12614E-05   -0.48917E-08   108   0.458E-04    0.102E-04
DAV:  14    -0.101238347642E+03   -0.88471E-06   -0.44590E-09   108   0.272E-04
  47 F= -.10123835E+03 E0= -.10123835E+03  d E =-.689949E-10
       N       E                     dE             d eps       ncg     rms          rms(c)
DAV:   1    -0.101237903972E+03    0.44279E-03   -0.19981E-01    96   0.116E+00    0.135E-01
DAV:   2    -0.101238645766E+03   -0.74179E-03   -0.91905E-03   132   0.268E-01    0.799E-02
DAV:   3    -0.101238588924E+03    0.56842E-04   -0.14637E-04   132   0.426E-02    0.404E-02
DAV:   4    -0.101238561628E+03    0.27296E-04   -0.57307E-05   132   0.289E-02    0.759E-03
DAV:   5    -0.101238555579E+03    0.60489E-05   -0.12774E-05   132   0.132E-02    0.480E-03
DAV:   6    -0.101238557168E+03   -0.15883E-05   -0.34576E-06   132   0.530E-03    0.273E-03
DAV:   7    -0.101238564690E+03   -0.75226E-05   -0.59323E-07   108   0.255E-03    0.132E-03
DAV:   8    -0.101238577591E+03   -0.12901E-04   -0.95658E-07   108   0.232E-03    0.776E-04
DAV:   9    -0.101238589050E+03   -0.11458E-04   -0.59873E-07   120   0.170E-03    0.610E-04
DAV:  10    -0.101238599351E+03   -0.10301E-04   -0.45397E-07    84   0.137E-03    0.232E-04
DAV:  11    -0.101238603137E+03   -0.37865E-05   -0.10695E-07   108   0.695E-04    0.185E-04
DAV:  12    -0.101238607362E+03   -0.42246E-05   -0.11494E-07    84   0.678E-04    0.961E-05
DAV:  13    -0.101238608701E+03   -0.13396E-05   -0.21950E-08   108   0.344E-04    0.596E-05
DAV:  14    -0.101238609806E+03   -0.11048E-05   -0.93546E-09    84   0.251E-04    0.322E-05
DAV:  15    -0.101238610209E+03   -0.40292E-06    0.21322E-09   108   0.142E-04
  48 F= -.10123861E+03 E0= -.10123861E+03  d E =-.704801E-11
       N       E                     dE             d eps       ncg     rms          rms(c)
DAV:   1    -0.101237415183E+03    0.11946E-02   -0.41165E-01    96   0.163E+00    0.173E-01
DAV:   2    -0.101238731859E+03   -0.13167E-02   -0.15943E-02   144   0.363E-01    0.871E-02
DAV:   3    -0.101238677075E+03    0.54785E-04   -0.28442E-04   132   0.607E-02    0.438E-02
DAV:   4    -0.101238650137E+03    0.26938E-04   -0.76252E-05   132   0.384E-02    0.999E-03
DAV:   5    -0.101238645763E+03    0.43740E-05   -0.21505E-05   132   0.180E-02    0.678E-03
DAV:   6    -0.101238649272E+03   -0.35092E-05   -0.45544E-06   132   0.716E-03    0.385E-03
DAV:   7    -0.101238657438E+03   -0.81659E-05   -0.67283E-07   108   0.321E-03    0.178E-03
DAV:   8    -0.101238669665E+03   -0.12227E-04   -0.94222E-07   108   0.297E-03    0.902E-04
DAV:   9    -0.101238686161E+03   -0.16495E-04   -0.13942E-06   108   0.311E-03    0.591E-04
DAV:  10    -0.101238695408E+03   -0.92474E-05   -0.66679E-07   120   0.203E-03    0.421E-04
DAV:  11    -0.101238699589E+03   -0.41804E-05   -0.94967E-08   108   0.923E-04    0.223E-04
DAV:  12    -0.101238702994E+03   -0.34051E-05   -0.12123E-07   108   0.747E-04    0.191E-04
DAV:  13    -0.101238704826E+03   -0.18322E-05   -0.47749E-08   108   0.462E-04    0.103E-04
DAV:  14    -0.101238705685E+03   -0.85885E-06   -0.84269E-09   108   0.259E-04
  49 F= -.10123871E+03 E0= -.10123871E+03  d E =-.868582E-11
       N       E                     dE             d eps       ncg     rms          rms(c)
DAV:   1    -0.101236348364E+03    0.23565E-02   -0.19637E-01   120   0.128E+00    0.141E-01
DAV:   2    -0.101237459513E+03   -0.11111E-02   -0.13655E-02   120   0.326E-01    0.767E-02
DAV:   3    -0.101237429890E+03    0.29623E-04   -0.25415E-04   144   0.498E-02    0.433E-02
DAV:   4    -0.101237403926E+03    0.25964E-04   -0.49361E-05   132   0.288E-02    0.931E-03
DAV:   5    -0.101237395577E+03    0.83489E-05   -0.12917E-05   132   0.140E-02    0.542E-03
DAV:   6    -0.101237395973E+03   -0.39602E-06   -0.29491E-06   132   0.630E-03
  50 F= -.10123740E+03 E0= -.10123740E+03  d E =-.156165E-10
       N       E                     dE             d eps       ncg     rms          rms(c)
DAV:   1    -0.101236183812E+03    0.12118E-02   -0.40043E-01    96   0.170E+00    0.193E-01
DAV:   2    -0.101237842589E+03   -0.16588E-02   -0.20050E-02   132   0.414E-01    0.119E-01
DAV:   3    -0.101237768285E+03    0.74305E-04   -0.27121E-04   132   0.527E-02    0.646E-02
DAV:   4    -0.101237690156E+03    0.78129E-04   -0.11061E-04   120   0.361E-02    0.106E-02
DAV:   5    -0.101237679543E+03    0.10612E-04   -0.18205E-05   132   0.163E-02    0.614E-03
DAV:   6    -0.101237692127E+03   -0.12584E-04   -0.10862E-05   120   0.101E-02    0.330E-03
DAV:   7    -0.101237715647E+03   -0.23520E-04   -0.33399E-06   132   0.576E-03    0.211E-03
DAV:   8    -0.101237745650E+03   -0.30003E-04   -0.25375E-06    96   0.374E-03    0.100E-03
DAV:   9    -0.101237770341E+03   -0.24691E-04   -0.24031E-06   108   0.326E-03    0.830E-04
DAV:  10    -0.101237791795E+03   -0.21454E-04   -0.21946E-06   108   0.279E-03    0.327E-04
DAV:  11    -0.101237797100E+03   -0.53047E-05   -0.18254E-07   108   0.995E-04    0.259E-04
DAV:  12    -0.101237801903E+03   -0.48029E-05   -0.22812E-07    96   0.911E-04    0.117E-04
DAV:  13    -0.101237803169E+03   -0.12665E-05   -0.26301E-08   108   0.376E-04    0.614E-05
DAV:  14    -0.101237804213E+03   -0.10442E-05   -0.12564E-08    96   0.300E-04    0.463E-05
DAV:  15    -0.101237804564E+03   -0.35071E-06    0.16075E-09   108   0.151E-04
  51 F= -.10123780E+03 E0= -.10123780E+03  d E =-.628635E-10
       N       E                     dE             d eps       ncg     rms          rms(c)
DAV:   1    -0.101238133887E+03   -0.32967E-03   -0.20138E-01   108   0.122E+00    0.131E-01
DAV:   2    -0.101238970349E+03   -0.83646E-03   -0.10155E-02   132   0.284E-01    0.742E-02
DAV:   3    -0.101238941264E+03    0.29085E-04   -0.16931E-04   144   0.424E-02    0.400E-02
DAV:   4    -0.101238917657E+03    0.23607E-04   -0.38125E-05   120   0.271E-02    0.733E-03
DAV:   5    -0.101238911659E+03    0.59971E-05   -0.13115E-05   144   0.137E-02    0.490E-03
DAV:   6    -0.101238912533E+03   -0.87368E-06   -0.30220E-06   132   0.550E-03
  52 F= -.10123891E+03 E0= -.10123891E+03  d E =-.444985E-11
       N       E                     dE             d eps       ncg     rms          rms(c)
DAV:   1    -0.101237322708E+03    0.15890E-02   -0.41049E-01    96   0.156E+00    0.172E-01
DAV:   2    -0.101238779034E+03   -0.14563E-02   -0.17145E-02   132   0.340E-01    0.817E-02
DAV:   3    -0.101238773679E+03    0.53554E-05   -0.30377E-04   132   0.596E-02    0.441E-02
DAV:   4    -0.101238772599E+03    0.10795E-05   -0.63032E-05   132   0.409E-02    0.853E-03
DAV:   5    -0.101238774937E+03   -0.23376E-05   -0.33055E-05   132   0.212E-02    0.733E-03
DAV:   6    -0.101238776644E+03   -0.17070E-05   -0.30561E-06   132   0.547E-03    0.557E-03
DAV:   7    -0.101238780812E+03   -0.41677E-05   -0.61980E-07    96   0.316E-03    0.239E-03
DAV:   8    -0.101238786475E+03   -0.56632E-05   -0.10434E-06    96   0.374E-03    0.139E-03
DAV:   9    -0.101238796819E+03   -0.10345E-04   -0.88787E-07    96   0.360E-03    0.957E-04
DAV:  10    -0.101238800451E+03   -0.36321E-05   -0.38054E-07   108   0.195E-03    0.954E-04
DAV:  11    -0.101238801955E+03   -0.15037E-05   -0.34050E-08   108   0.729E-04    0.671E-04
DAV:  12    -0.101238805696E+03   -0.37405E-05   -0.11570E-07   108   0.863E-04    0.181E-04
DAV:  13    -0.101238807569E+03   -0.18735E-05   -0.51432E-08   108   0.548E-04    0.245E-04
DAV:  14    -0.101238808976E+03   -0.14064E-05   -0.25871E-08   108   0.378E-04    0.160E-04
DAV:  15    -0.101238809434E+03   -0.45793E-06   -0.22494E-09   108   0.203E-04
  53 F= -.10123881E+03 E0= -.10123881E+03  d E =-.144568E-10
       N       E                     dE             d eps       ncg     rms          rms(c)
DAV:   1    -0.101236387528E+03    0.24214E-02   -0.20288E-01   120   0.117E+00    0.128E-01
DAV:   2    -0.101237188786E+03   -0.80126E-03   -0.96374E-03   132   0.273E-01    0.685E-02
DAV:   3    -0.101237167731E+03    0.21054E-04   -0.17186E-04   144   0.440E-02    0.366E-02
DAV:   4    -0.101237154155E+03    0.13576E-04   -0.37025E-05   132   0.289E-02    0.696E-03
DAV:   5    -0.101237150550E+03    0.36048E-05   -0.15338E-05   132   0.146E-02    0.507E-03
DAV:   6    -0.101237150940E+03   -0.39016E-06   -0.23912E-06   132   0.491E-03
  54 F= -.10123715E+03 E0= -.10123715E+03  d E =-.952514E-11
       N       E                     dE             d eps       ncg     rms          rms(c)
DAV:   1    -0.101235815087E+03    0.13355E-02   -0.40050E-01   120   0.170E+00    0.204E-01
DAV:   2    -0.101237498006E+03   -0.16829E-02   -0.20414E-02   120   0.422E-01    0.128E-01
DAV:   3    -0.101237403975E+03    0.94031E-04   -0.29583E-04   132   0.588E-02    0.682E-02
DAV:   4    -0.101237346636E+03    0.57339E-04   -0.13875E-04   120   0.433E-02    0.110E-02
DAV:   5    -0.101237337360E+03    0.92761E-05   -0.26187E-05   132   0.190E-02    0.720E-03
DAV:   6    -0.101237346800E+03   -0.94400E-05   -0.11999E-05   132   0.923E-03    0.397E-03
DAV:   7    -0.101237366896E+03   -0.20096E-04   -0.18169E-06   132   0.424E-03    0.218E-03
DAV:   8    -0.101237401163E+03   -0.34267E-04   -0.41099E-06   108   0.436E-03    0.113E-03
DAV:   9    -0.101237418828E+03   -0.17665E-04   -0.12970E-06   120   0.250E-03    0.929E-04
DAV:  10    -0.101237440135E+03   -0.21307E-04   -0.20493E-06    96   0.274E-03    0.336E-04
DAV:  11    -0.101237446400E+03   -0.62654E-05   -0.26397E-07   108   0.115E-03    0.332E-04
DAV:  12    -0.101237452021E+03   -0.56205E-05   -0.30831E-07    84   0.109E-03    0.120E-04
DAV:  13    -0.101237453186E+03   -0.11651E-05   -0.37284E-08   108   0.441E-04    0.894E-05
DAV:  14    -0.101237454332E+03   -0.11458E-05   -0.13684E-08    96   0.321E-04    0.485E-05
DAV:  15    -0.101237454794E+03   -0.46196E-06   -0.18512E-09   108   0.194E-04
  55 F= -.10123745E+03 E0= -.10123745E+03  d E =-.473122E-11
       N       E                     dE             d eps       ncg     rms          rms(c)
DAV:   1    -0.101237393365E+03    0.60967E-04   -0.19961E-01   108   0.133E+00    0.145E-01
DAV:   2    -0.101238504040E+03   -0.11107E-02   -0.13566E-02   132   0.357E-01    0.831E-02
DAV:   3    -0.101238459068E+03    0.44972E-04   -0.24563E-04   132   0.529E-02    0.483E-02
DAV:   4    -0.101238422548E+03    0.36520E-04   -0.71646E-05   144   0.358E-02    0.898E-03
DAV:   5    -0.101238413547E+03    0.90015E-05   -0.23313E-05   132   0.178E-02    0.666E-03
DAV:   6    -0.101238414163E+03   -0.61583E-06   -0.41912E-06   132   0.668E-03
  56 F= -.10123841E+03 E0= -.10123841E+03  d E =-.541365E-11
       N       E                     dE             d eps       ncg     rms          rms(c)
DAV:   1    -0.101236716610E+03    0.16969E-02   -0.40842E-01    96   0.185E+00    0.191E-01
DAV:   2    -0.101238424543E+03   -0.17079E-02   -0.19954E-02   132   0.435E-01    0.101E-01
DAV:   3    -0.101238397484E+03    0.27059E-04   -0.36367E-04   120   0.645E-02    0.548E-02
DAV:   4    -0.101238390958E+03    0.65261E-05   -0.97422E-05   144   0.420E-02    0.113E-02
DAV:   5    -0.101238387756E+03    0.32017E-05   -0.27754E-05   132   0.200E-02    0.755E-03
DAV:   6    -0.101238389294E+03   -0.15373E-05   -0.48731E-06   132   0.739E-03    0.447E-03
DAV:   7    -0.101238394853E+03   -0.55592E-05   -0.97760E-07   108   0.410E-03    0.178E-03
DAV:   8    -0.101238402693E+03   -0.78399E-05   -0.97045E-07    96   0.354E-03    0.102E-03
DAV:   9    -0.101238414938E+03   -0.12245E-04   -0.94690E-07    96   0.311E-03    0.567E-04
DAV:  10    -0.101238421578E+03   -0.66397E-05   -0.44267E-07    96   0.188E-03    0.452E-04
DAV:  11    -0.101238424864E+03   -0.32865E-05   -0.74930E-08   108   0.854E-04    0.335E-04
DAV:  12    -0.101238429236E+03   -0.43715E-05   -0.13925E-07    96   0.840E-04    0.191E-04
DAV:  13    -0.101238430777E+03   -0.15411E-05   -0.35513E-08   108   0.436E-04    0.152E-04
DAV:  14    -0.101238432077E+03   -0.13001E-05   -0.16439E-08    84   0.344E-04    0.503E-05
DAV:  15    -0.101238432704E+03   -0.62724E-06   -0.37653E-09    96   0.222E-04
  57 F= -.10123843E+03 E0= -.10123843E+03  d E =-.882769E-11
       N       E                     dE             d eps       ncg     rms          rms(c)
DAV:   1    -0.101236976521E+03    0.14556E-02   -0.20578E-01   108   0.132E+00    0.135E-01
DAV:   2    -0.101237674940E+03   -0.69842E-03   -0.83348E-03   120   0.265E-01    0.614E-02
DAV:   3    -0.101237661254E+03    0.13686E-04   -0.18054E-04   144   0.463E-02    0.321E-02
DAV:   4    -0.101237655444E+03    0.58097E-05   -0.35223E-05   120   0.283E-02    0.767E-03
DAV:   5    -0.101237654394E+03    0.10495E-05   -0.14587E-05   132   0.144E-02    0.530E-03
DAV:   6    -0.101237654700E+03   -0.30612E-06   -0.15234E-06   120   0.418E-03
  58 F= -.10123765E+03 E0= -.10123765E+03  d E =-.908005E-10
       N       E                     dE             d eps       ncg     rms          rms(c)
DAV:   1    -0.101236464799E+03    0.11896E-02   -0.40443E-01   108   0.189E+00    0.214E-01
DAV:   2    -0.101238070804E+03   -0.16060E-02   -0.19335E-02   120   0.443E-01    0.116E-01
DAV:   3    -0.101237991732E+03    0.79072E-04   -0.36117E-04   144   0.652E-02    0.614E-02
DAV:   4    -0.101237940922E+03    0.50810E-04   -0.99467E-05   120   0.393E-02    0.117E-02
DAV:   5    -0.101237933466E+03    0.74563E-05   -0.21933E-05   132   0.177E-02    0.730E-03
DAV:   6    -0.101237942334E+03   -0.88682E-05   -0.73064E-06   120   0.849E-03    0.386E-03
DAV:   7    -0.101237961232E+03   -0.18898E-04   -0.26032E-06   132   0.507E-03    0.198E-03
DAV:   8    -0.101237988081E+03   -0.26849E-04   -0.25489E-06    96   0.394E-03    0.105E-03
DAV:   9    -0.101238005782E+03   -0.17701E-04   -0.15227E-06   120   0.283E-03    0.868E-04
DAV:  10    -0.101238022827E+03   -0.17045E-04   -0.15633E-06    96   0.247E-03    0.330E-04
DAV:  11    -0.101238028441E+03   -0.56135E-05   -0.24648E-07   108   0.110E-03    0.315E-04
DAV:  12    -0.101238033462E+03   -0.50211E-05   -0.26246E-07    96   0.101E-03    0.115E-04
DAV:  13    -0.101238034981E+03   -0.15197E-05   -0.60881E-08   108   0.506E-04    0.905E-05
DAV:  14    -0.101238035986E+03   -0.10041E-05   -0.10133E-08   108   0.296E-04    0.445E-05
DAV:  15    -0.101238036437E+03   -0.45126E-06   -0.29129E-09   108   0.193E-04
  59 F= -.10123804E+03 E0= -.10123804E+03  d E =-.922108E-11
       N       E                     dE             d eps       ncg     rms          rms(c)
DAV:   1    -0.101236512394E+03    0.15236E-02   -0.20164E-01   108   0.133E+00    0.152E-01
DAV:   2    -0.101237320146E+03   -0.80775E-03   -0.99162E-03   120   0.324E-01    0.791E-02
DAV:   3    -0.101237276827E+03    0.43319E-04   -0.16325E-04   132   0.440E-02    0.420E-02
DAV:   4    -0.101237244655E+03    0.32172E-04   -0.45769E-05   132   0.253E-02    0.834E-03
DAV:   5    -0.101237237378E+03    0.72775E-05   -0.79559E-06   132   0.116E-02    0.472E-03
DAV:   6    -0.101237238750E+03   -0.13725E-05   -0.36499E-06   132   0.741E-03    0.234E-03
DAV:   7    -0.101237247503E+03   -0.87526E-05   -0.18931E-06   132   0.488E-03    0.148E-03
DAV:   8    -0.101237259782E+03   -0.12280E-04   -0.59813E-07   108   0.253E-03    0.795E-04
DAV:   9    -0.101237272773E+03   -0.12991E-04   -0.85774E-07   120   0.214E-03    0.562E-04
DAV:  10    -0.101237284364E+03   -0.11591E-04   -0.49497E-07    96   0.157E-03    0.271E-04
DAV:  11    -0.101237290084E+03   -0.57204E-05   -0.20529E-07   108   0.954E-04    0.193E-04
DAV:  12    -0.101237294811E+03   -0.47271E-05   -0.10603E-07    96   0.676E-04    0.102E-04
DAV:  13    -0.101237296174E+03   -0.13625E-05   -0.16556E-08   108   0.336E-04    0.560E-05
DAV:  14    -0.101237297222E+03   -0.10486E-05   -0.90599E-09    96   0.252E-04    0.348E-05
DAV:  15    -0.101237297709E+03   -0.48688E-06    0.15407E-09   108   0.157E-04
  60 F= -.10123730E+03 E0= -.10123730E+03  d E =-.661814E-11
       N       E                     dE             d eps       ncg     rms          rms(c)
DAV:   1    -0.101236057759E+03    0.12395E-02   -0.40592E-01   120   0.191E+00    0.205E-01
DAV:   2    -0.101237702528E+03   -0.16448E-02   -0.20235E-02   144   0.455E-01    0.126E-01
DAV:   3    -0.101237586544E+03    0.11598E-03   -0.30137E-04   132   0.605E-02    0.686E-02
DAV:   4    -0.101237511628E+03    0.74916E-04   -0.12993E-04   132   0.419E-02    0.115E-02
DAV:   5    -0.101237508333E+03    0.32943E-05   -0.22163E-05   132   0.181E-02    0.754E-03
DAV:   6    -0.101237527432E+03   -0.19098E-04   -0.11938E-05   132   0.107E-02    0.386E-03
DAV:   7    -0.101237558216E+03   -0.30785E-04   -0.44928E-06   132   0.664E-03    0.229E-03
DAV:   8    -0.101237601658E+03   -0.43442E-04   -0.45027E-06   120   0.505E-03    0.119E-03
DAV:   9    -0.101237628875E+03   -0.27217E-04   -0.25912E-06   120   0.359E-03    0.889E-04
DAV:  10    -0.101237651355E+03   -0.22480E-04   -0.21146E-06   108   0.288E-03    0.488E-04
DAV:  11    -0.101237658615E+03   -0.72594E-05   -0.33385E-07   108   0.131E-03    0.272E-04
DAV:  12    -0.101237663971E+03   -0.53563E-05   -0.29420E-07    96   0.110E-03    0.220E-04
DAV:  13    -0.101237665667E+03   -0.16959E-05   -0.44448E-08   108   0.555E-04    0.762E-05
DAV:  14    -0.101237666717E+03   -0.10506E-05   -0.13956E-08   108   0.344E-04    0.701E-05
DAV:  15    -0.101237667104E+03   -0.38700E-06    0.84000E-10   108   0.184E-04
  61 F= -.10123767E+03 E0= -.10123767E+03  d E =-.443616E-11
       N       E                     dE             d eps       ncg     rms          rms(c)
DAV:   1    -0.101240438819E+03   -0.27721E-02   -0.23806E-01   120   0.175E+00    0.154E-01
DAV:   2    -0.101240848928E+03   -0.41011E-03   -0.68047E-03   120   0.268E-01    0.881E-02
DAV:   3    -0.101240768732E+03    0.80196E-04   -0.21068E-04   132   0.520E-02    0.392E-02
DAV:   4    -0.101240750816E+03    0.17916E-04   -0.80047E-05   132   0.313E-02    0.929E-03
DAV:   5    -0.101240746796E+03    0.40202E-05   -0.94513E-06   132   0.117E-02    0.652E-03
DAV:   6    -0.101240747634E+03   -0.83828E-06   -0.35713E-06   132   0.652E-03
  62 F= -.10124075E+03 E0= -.10124075E+03  d E =-.723097E-11
       N       E                     dE             d eps       ncg     rms          rms(c)
DAV:   1    -0.101241063212E+03   -0.31642E-03   -0.54849E-01    96   0.273E+00    0.229E-01
DAV:   2    -0.101240755648E+03    0.30756E-03   -0.36171E-03   120   0.218E-01    0.122E-01
DAV:   3    -0.101240547736E+03    0.20791E-03   -0.50281E-04   132   0.708E-02    0.365E-02
DAV:   4    -0.101240554314E+03   -0.65778E-05   -0.11447E-04   132   0.334E-02    0.130E-02
DAV:   5    -0.101240558748E+03   -0.44343E-05   -0.68560E-06   132   0.103E-02    0.688E-03
DAV:   6    -0.101240565376E+03   -0.66272E-05   -0.33433E-06   132   0.618E-03    0.160E-03
DAV:   7    -0.101240569144E+03   -0.37688E-05   -0.47124E-07   108   0.272E-03    0.906E-04
DAV:   8    -0.101240574733E+03   -0.55886E-05   -0.20232E-07    96   0.142E-03    0.345E-04
DAV:   9    -0.101240578190E+03   -0.34573E-05   -0.10738E-07   108   0.968E-04    0.300E-04
DAV:  10    -0.101240582818E+03   -0.46274E-05   -0.18661E-07    96   0.101E-03    0.139E-04
DAV:  11    -0.101240584330E+03   -0.15126E-05   -0.58372E-08   108   0.601E-04    0.108E-04
DAV:  12    -0.101240585192E+03   -0.86199E-06   -0.98830E-09   108   0.326E-04
  63 F= -.10124059E+03 E0= -.10124059E+03  d E =-.467199E-11
       N       E                     dE             d eps       ncg     rms          rms(c)
DAV:   1    -0.101240135109E+03    0.44922E-03   -0.29117E-01    96   0.191E+00    0.210E-01
DAV:   2    -0.101239885648E+03    0.24946E-03   -0.24254E-03   132   0.178E-01    0.103E-01
DAV:   3    -0.101239733832E+03    0.15182E-03   -0.40934E-04   132   0.637E-02    0.354E-02
DAV:   4    -0.101239727987E+03    0.58455E-05   -0.10974E-04   120   0.326E-02    0.144E-02
DAV:   5    -0.101239726123E+03    0.18637E-05   -0.51072E-06   132   0.984E-03    0.501E-03
DAV:   6    -0.101239727268E+03   -0.11450E-05   -0.30689E-06   132   0.635E-03    0.184E-03
DAV:   7    -0.101239728920E+03   -0.16523E-05   -0.62043E-07   108   0.300E-03    0.914E-04
DAV:   8    -0.101239731616E+03   -0.26955E-05   -0.17659E-07    96   0.148E-03    0.401E-04
DAV:   9    -0.101239733721E+03   -0.21055E-05   -0.12625E-07   108   0.122E-03    0.423E-04
DAV:  10    -0.101239737109E+03   -0.33874E-05   -0.19795E-07    84   0.117E-03    0.248E-04
DAV:  11    -0.101239738045E+03   -0.93625E-06   -0.35128E-08   108   0.614E-04
  64 F= -.10123974E+03 E0= -.10123974E+03  d E =-.558556E-11
       N       E                     dE             d eps       ncg     rms          rms(c)
DAV:   1    -0.101240044583E+03   -0.30747E-03   -0.57019E-01    96   0.273E+00    0.278E-01
DAV:   2    -0.101239555566E+03    0.48902E-03   -0.42697E-03   120   0.238E-01    0.136E-01
DAV:   3    -0.101239273956E+03    0.28161E-03   -0.70436E-04   132   0.779E-02    0.471E-02
DAV:   4    -0.101239259816E+03    0.14140E-04   -0.15518E-04   120   0.384E-02    0.176E-02
DAV:   5    -0.101239262404E+03   -0.25878E-05   -0.91189E-06   132   0.129E-02    0.691E-03
DAV:   6    -0.101239269102E+03   -0.66977E-05   -0.51451E-06   132   0.786E-03    0.241E-03
DAV:   7    -0.101239274014E+03   -0.49120E-05   -0.91426E-07   120   0.359E-03    0.119E-03
DAV:   8    -0.101239282101E+03   -0.80871E-05   -0.47481E-07    96   0.215E-03    0.542E-04
DAV:   9    -0.101239286442E+03   -0.43405E-05   -0.27986E-07   108   0.159E-03    0.564E-04
DAV:  10    -0.101239293583E+03   -0.71416E-05   -0.53788E-07    96   0.176E-03    0.311E-04
DAV:  11    -0.101239295221E+03   -0.16382E-05   -0.12046E-07   108   0.911E-04    0.218E-04
DAV:  12    -0.101239296295E+03   -0.10732E-05   -0.23837E-08   108   0.513E-04    0.127E-04
DAV:  13    -0.101239297597E+03   -0.13023E-05   -0.44648E-08   108   0.490E-04    0.140E-04
DAV:  14    -0.101239298168E+03   -0.57104E-06   -0.11875E-08   108   0.288E-04
  65 F= -.10123930E+03 E0= -.10123930E+03  d E =-.485303E-11
       N       E                     dE             d eps       ncg     rms          rms(c)
DAV:   1    -0.101241202155E+03   -0.19046E-02   -0.28960E-01   108   0.191E+00    0.204E-01
DAV:   2    -0.101240930166E+03    0.27199E-03   -0.24400E-03   120   0.186E-01    0.101E-01
DAV:   3    -0.101240779969E+03    0.15020E-03   -0.43706E-04   132   0.686E-02    0.339E-02
DAV:   4    -0.101240778725E+03    0.12446E-05   -0.10991E-04   120   0.343E-02    0.143E-02
DAV:   5    -0.101240777877E+03    0.84739E-06   -0.42525E-06   132   0.858E-03
  66 F= -.10124078E+03 E0= -.10124078E+03  d E =-.505339E-11
       N       E                     dE             d eps       ncg     rms          rms(c)
DAV:   1    -0.101241250670E+03   -0.47195E-03   -0.55557E-01   108   0.270E+00    0.222E-01
DAV:   2    -0.101240896504E+03    0.35417E-03   -0.38167E-03   120   0.218E-01    0.121E-01
DAV:   3    -0.101240672616E+03    0.22389E-03   -0.63423E-04   132   0.824E-02    0.323E-02
DAV:   4    -0.101240680436E+03   -0.78209E-05   -0.13703E-04   132   0.393E-02    0.151E-02
DAV:   5    -0.101240679980E+03    0.45688E-06   -0.45363E-06   132   0.839E-03
  67 F= -.10124068E+03 E0= -.10124068E+03  d E =-.651364E-11
       N       E                     dE             d eps       ncg     rms          rms(c)
DAV:   1    -0.101241379653E+03   -0.69922E-03   -0.27543E-01    96   0.196E+00    0.149E-01
DAV:   2    -0.101241312311E+03    0.67342E-04   -0.18805E-03   120   0.154E-01    0.850E-02
DAV:   3    -0.101241228316E+03    0.83996E-04   -0.18218E-04   132   0.440E-02    0.196E-02
DAV:   4    -0.101241229553E+03   -0.12379E-05   -0.34400E-05   132   0.187E-02    0.641E-03
DAV:   5    -0.101241229698E+03   -0.14421E-06   -0.10869E-06   108   0.435E-03
  68 F= -.10124123E+03 E0= -.10124123E+03  d E =-.563573E-11
       N       E                     dE             d eps       ncg     rms          rms(c)
DAV:   1    -0.101241718546E+03   -0.48899E-03   -0.54714E-01    96   0.266E+00    0.203E-01
DAV:   2    -0.101241444647E+03    0.27390E-03   -0.29630E-03   120   0.191E-01    0.113E-01
DAV:   3    -0.101241271206E+03    0.17344E-03   -0.47965E-04   132   0.703E-02    0.257E-02
DAV:   4    -0.101241280085E+03   -0.88795E-05   -0.93505E-05   132   0.312E-02    0.102E-02
DAV:   5    -0.101241280215E+03   -0.12925E-06   -0.33106E-06   132   0.681E-03
  69 F= -.10124128E+03 E0= -.10124128E+03  d E =-.575828E-11
       N       E                     dE             d eps       ncg     rms          rms(c)
DAV:   1    -0.101241385265E+03   -0.10518E-03   -0.27578E-01    96   0.189E+00    0.143E-01
DAV:   2    -0.101241241658E+03    0.14361E-03   -0.14432E-03   120   0.129E-01    0.800E-02
DAV:   3    -0.101241153032E+03    0.88625E-04   -0.25301E-04   120   0.483E-02    0.175E-02
DAV:   4    -0.101241154933E+03   -0.19001E-05   -0.38988E-05   132   0.205E-02    0.655E-03
DAV:   5    -0.101241154573E+03    0.36007E-06   -0.14129E-06   120   0.457E-03
  70 F= -.10124115E+03 E0= -.10124115E+03  d E =-.556366E-11
       N       E                     dE             d eps       ncg     rms          rms(c)
DAV:   1    -0.101241594587E+03   -0.43965E-03   -0.54774E-01    96   0.265E+00    0.205E-01
DAV:   2    -0.101241329710E+03    0.26488E-03   -0.29891E-03   120   0.187E-01    0.114E-01
DAV:   3    -0.101241140409E+03    0.18930E-03   -0.46517E-04   132   0.654E-02    0.273E-02
DAV:   4    -0.101241142066E+03   -0.16566E-05   -0.76499E-05   132   0.284E-02    0.976E-03
DAV:   5    -0.101241142120E+03   -0.54474E-07   -0.37401E-06   132   0.738E-03
  71 F= -.10124114E+03 E0= -.10124114E+03  d E =-.604890E-11
       N       E                     dE             d eps       ncg     rms          rms(c)
DAV:   1    -0.101238909703E+03    0.22324E-02   -0.27865E-01    96   0.189E+00    0.165E-01
DAV:   2    -0.101238714646E+03    0.19506E-03   -0.19140E-03   132   0.158E-01    0.873E-02
DAV:   3    -0.101238598368E+03    0.11628E-03   -0.32242E-04   132   0.581E-02    0.254E-02
[...]
DAV:  10    -0.101239245844E+03   -0.52503E-05   -0.42451E-07    96   0.156E-03    0.491E-04
DAV:  11    -0.101239247082E+03   -0.12382E-05   -0.86938E-08   108   0.805E-04    0.294E-04
DAV:  12    -0.101239247493E+03   -0.41055E-06   -0.50703E-09   108   0.340E-04
 129 F= -.10123925E+03 E0= -.10123925E+03  d E =-.485562E-11
       N       E                     dE             d eps       ncg     rms          rms(c)
DAV:   1    -0.101241588977E+03   -0.23419E-02   -0.28228E-01    96   0.171E+00    0.186E-01
DAV:   2    -0.101241381773E+03    0.20720E-03   -0.20136E-03   120   0.148E-01    0.936E-02
DAV:   3    -0.101241260673E+03    0.12110E-03   -0.35047E-04   132   0.542E-02    0.304E-02
DAV:   4    -0.101241258401E+03    0.22725E-05   -0.72453E-05   120   0.255E-02    0.116E-02
DAV:   5    -0.101241257260E+03    0.11401E-05   -0.32102E-06   132   0.786E-03    0.488E-03
DAV:   6    -0.101241258078E+03   -0.81769E-06   -0.23693E-06   132   0.540E-03
 130 F= -.10124126E+03 E0= -.10124126E+03  d E =-.626791E-11
       N       E                     dE             d eps       ncg     rms          rms(c)
DAV:   1    -0.101241662673E+03   -0.40541E-03   -0.54147E-01    96   0.239E+00    0.195E-01
DAV:   2    -0.101241433612E+03    0.22906E-03   -0.28693E-03   120   0.179E-01    0.111E-01
DAV:   3    -0.101241280819E+03    0.15279E-03   -0.44951E-04   132   0.651E-02    0.232E-02
DAV:   4    -0.101241287092E+03   -0.62735E-05   -0.66367E-05   132   0.265E-02    0.947E-03
DAV:   5    -0.101241287674E+03   -0.58185E-06   -0.28963E-06   132   0.618E-03
 131 F= -.10124129E+03 E0= -.10124129E+03  d E =-.598150E-11
       N       E                     dE             d eps       ncg     rms          rms(c)
DAV:   1    -0.101241085782E+03    0.20131E-03   -0.27136E-01    96   0.166E+00    0.139E-01
DAV:   2    -0.101240968061E+03    0.11772E-03   -0.14664E-03   132   0.127E-01    0.782E-02
DAV:   3    -0.101240891429E+03    0.76632E-04   -0.22283E-04   120   0.449E-02    0.173E-02
DAV:   4    -0.101240894477E+03   -0.30477E-05   -0.33305E-05   132   0.184E-02    0.649E-03
DAV:   5    -0.101240895121E+03   -0.64415E-06   -0.15519E-06   120   0.469E-03
 132 F= -.10124090E+03 E0= -.10124090E+03  d E =-.577000E-11
       N       E                     dE             d eps       ncg     rms          rms(c)
DAV:   1    -0.101241214559E+03   -0.32008E-03   -0.55056E-01    96   0.239E+00    0.222E-01
DAV:   2    -0.101240916658E+03    0.29790E-03   -0.31994E-03   120   0.186E-01    0.118E-01
DAV:   3    -0.101240736522E+03    0.18014E-03   -0.48350E-04   132   0.646E-02    0.349E-02
DAV:   4    -0.101240738536E+03   -0.20142E-05   -0.99430E-05   132   0.299E-02    0.115E-02
DAV:   5    -0.101240737559E+03    0.97788E-06   -0.51696E-06   132   0.896E-03
 133 F= -.10124074E+03 E0= -.10124074E+03  d E =-.505747E-11
       N       E                     dE             d eps       ncg     rms          rms(c)
DAV:   1    -0.101241076527E+03   -0.33799E-03   -0.27619E-01    96   0.189E+00    0.160E-01
DAV:   2    -0.101240972788E+03    0.10374E-03   -0.20058E-03   108   0.155E-01    0.855E-02
DAV:   3    -0.101240883069E+03    0.89719E-04   -0.21971E-04   120   0.462E-02    0.277E-02
DAV:   4    -0.101240882780E+03    0.28849E-06   -0.57558E-05   132   0.229E-02    0.839E-03
DAV:   5    -0.101240882132E+03    0.64880E-06   -0.33359E-06   132   0.691E-03
 134 F= -.10124088E+03 E0= -.10124088E+03  d E =-.577302E-11
       N       E                     dE             d eps       ncg     rms          rms(c)
DAV:   1    -0.101240871653E+03    0.11127E-04   -0.55324E-01    96   0.214E+00    0.231E-01
DAV:   2    -0.101240529621E+03    0.34203E-03   -0.31698E-03   120   0.165E-01    0.121E-01
DAV:   3    -0.101240316025E+03    0.21360E-03   -0.50445E-04   120   0.594E-02    0.364E-02
DAV:   4    -0.101240311541E+03    0.44844E-05   -0.94746E-05   132   0.280E-02    0.122E-02
DAV:   5    -0.101240311698E+03   -0.15736E-06   -0.53297E-06   132   0.893E-03
 135 F= -.10124031E+03 E0= -.10124031E+03  d E =-.592973E-11
       N       E                     dE             d eps       ncg     rms          rms(c)
DAV:   1    -0.101240125337E+03    0.18620E-03   -0.28947E-01   108   0.161E+00    0.208E-01
DAV:   2    -0.101239871979E+03    0.25336E-03   -0.23855E-03   120   0.149E-01    0.103E-01
DAV:   3    -0.101239729708E+03    0.14227E-03   -0.40831E-04   120   0.565E-02    0.354E-02
DAV:   4    -0.101239731222E+03   -0.15134E-05   -0.11761E-04   132   0.299E-02    0.145E-02
DAV:   5    -0.101239729505E+03    0.17171E-05   -0.50147E-06   120   0.891E-03    0.546E-03
DAV:   6    -0.101239729732E+03   -0.22751E-06   -0.30752E-06   132   0.542E-03
 136 F= -.10123973E+03 E0= -.10123973E+03  d E =-.495764E-11
       N       E                     dE             d eps       ncg     rms          rms(c)
DAV:   1    -0.101240334544E+03   -0.60504E-03   -0.57134E-01   108   0.214E+00    0.266E-01
DAV:   2    -0.101239797029E+03    0.53751E-03   -0.43954E-03   120   0.198E-01    0.137E-01
DAV:   3    -0.101239500405E+03    0.29662E-03   -0.82277E-04   120   0.782E-02    0.447E-02
DAV:   4    -0.101239501857E+03   -0.14522E-05   -0.18916E-04   132   0.388E-02    0.203E-02
DAV:   5    -0.101239501106E+03    0.75109E-06   -0.72665E-06   120   0.100E-02
 137 F= -.10123950E+03 E0= -.10123950E+03  d E =-.641884E-11
       N       E                     dE             d eps       ncg     rms          rms(c)
DAV:   1    -0.101241335019E+03   -0.18332E-02   -0.28800E-01    96   0.154E+00    0.199E-01
DAV:   2    -0.101241053566E+03    0.28145E-03   -0.21625E-03   120   0.145E-01    0.101E-01
DAV:   3    -0.101240912633E+03    0.14093E-03   -0.43846E-04   132   0.587E-02    0.320E-02
DAV:   4    -0.101240915959E+03   -0.33260E-05   -0.10566E-04   132   0.294E-02    0.146E-02
DAV:   5    -0.101240914884E+03    0.10750E-05   -0.36905E-06   132   0.781E-03    0.572E-03
DAV:   6    -0.101240915096E+03   -0.21223E-06   -0.28177E-06   132   0.550E-03
 138 F= -.10124092E+03 E0= -.10124092E+03  d E =-.530846E-11
       N       E                     dE             d eps       ncg     rms          rms(c)
DAV:   1    -0.101241059403E+03   -0.14452E-03   -0.54750E-01    96   0.218E+00    0.225E-01
DAV:   2    -0.101240732141E+03    0.32726E-03   -0.32291E-03   108   0.178E-01    0.120E-01
DAV:   3    -0.101240528793E+03    0.20335E-03   -0.51353E-04   132   0.664E-02    0.330E-02
DAV:   4    -0.101240531898E+03   -0.31045E-05   -0.94830E-05   132   0.296E-02    0.129E-02
DAV:   5    -0.101240532152E+03   -0.25428E-06   -0.47465E-06   132   0.833E-03
 139 F= -.10124053E+03 E0= -.10124053E+03  d E =-.600480E-11
       N       E                     dE             d eps       ncg     rms          rms(c)
DAV:   1    -0.101240677400E+03   -0.14550E-03   -0.27617E-01    96   0.161E+00    0.165E-01
DAV:   2    -0.101240553753E+03    0.12365E-03   -0.17744E-03   108   0.127E-01    0.872E-02
DAV:   3    -0.101240464655E+03    0.89098E-04   -0.27214E-04   132   0.419E-02    0.256E-02
DAV:   4    -0.101240462531E+03    0.21241E-05   -0.36205E-05   120   0.168E-02    0.105E-02
DAV:   5    -0.101240460878E+03    0.16528E-05   -0.24429E-06   132   0.655E-03    0.490E-03
DAV:   6    -0.101240460856E+03    0.21766E-07   -0.20792E-06   120   0.495E-03
 140 F= -.10124046E+03 E0= -.10124046E+03  d E =-.566932E-11
       N       E                     dE             d eps       ncg     rms          rms(c)
DAV:   1    -0.101240885006E+03   -0.42413E-03   -0.55587E-01    96   0.208E+00    0.240E-01
DAV:   2    -0.101240505723E+03    0.37928E-03   -0.33047E-03   120   0.170E-01    0.125E-01
DAV:   3    -0.101240282286E+03    0.22344E-03   -0.56879E-04   132   0.628E-02    0.372E-02
DAV:   4    -0.101240276590E+03    0.56961E-05   -0.99817E-05   132   0.285E-02    0.133E-02
DAV:   5    -0.101240276449E+03    0.14122E-06   -0.53106E-06   132   0.935E-03
 141 F= -.10124028E+03 E0= -.10124028E+03  d E =-.567813E-11
       N       E                     dE             d eps       ncg     rms          rms(c)
DAV:   1    -0.101239470823E+03    0.80577E-03   -0.27211E-01    96   0.148E+00    0.139E-01
DAV:   2    -0.101239338800E+03    0.13202E-03   -0.14683E-03   120   0.113E-01    0.784E-02
DAV:   3    -0.101239254230E+03    0.84570E-04   -0.25704E-04   120   0.456E-02    0.161E-02
DAV:   4    -0.101239258864E+03   -0.46333E-05   -0.44026E-05   132   0.199E-02    0.790E-03
DAV:   5    -0.101239259526E+03   -0.66234E-06   -0.11229E-06   120   0.402E-03
 142 F= -.10123926E+03 E0= -.10123926E+03  d E =-.526196E-11
       N       E                     dE             d eps       ncg     rms          rms(c)
DAV:   1    -0.101240134163E+03   -0.87530E-03   -0.58044E-01    96   0.209E+00    0.290E-01
DAV:   2    -0.101239587868E+03    0.54629E-03   -0.46998E-03   120   0.204E-01    0.142E-01
DAV:   3    -0.101239274442E+03    0.31343E-03   -0.82401E-04   132   0.797E-02    0.482E-02
DAV:   4    -0.101239275770E+03   -0.13274E-05   -0.23089E-04   132   0.411E-02    0.175E-02
DAV:   5    -0.101239273585E+03    0.21844E-05   -0.89174E-06   132   0.114E-02    0.823E-03
DAV:   6    -0.101239273776E+03   -0.19095E-06   -0.49057E-06   132   0.709E-03
 143 F= -.10123927E+03 E0= -.10123927E+03  d E =-.571672E-11
       N       E                     dE             d eps       ncg     rms          rms(c)
DAV:   1    -0.101241651312E+03   -0.23777E-02   -0.28095E-01    96   0.148E+00    0.169E-01
DAV:   2    -0.101241425122E+03    0.22619E-03   -0.17855E-03   120   0.128E-01    0.897E-02
DAV:   3    -0.101241310861E+03    0.11426E-03   -0.33752E-04   120   0.521E-02    0.252E-02
DAV:   4    -0.101241315655E+03   -0.47944E-05   -0.73195E-05   132   0.247E-02    0.109E-02
DAV:   5    -0.101241315742E+03   -0.86793E-07   -0.24554E-06   132   0.600E-03
 144 F= -.10124132E+03 E0= -.10124132E+03  d E =-.558554E-11
       N       E                     dE             d eps       ncg     rms          rms(c)
DAV:   1    -0.101241686311E+03   -0.37066E-03   -0.54029E-01    96   0.210E+00    0.198E-01
DAV:   2    -0.101241390540E+03    0.29577E-03   -0.25446E-03   120   0.159E-01    0.112E-01
DAV:   3    -0.101241224432E+03    0.16611E-03   -0.44498E-04   120   0.639E-02    0.217E-02
DAV:   4    -0.101241230115E+03   -0.56823E-05   -0.67392E-05   132   0.260E-02    0.102E-02
DAV:   5    -0.101241230513E+03   -0.39776E-06   -0.26646E-06   132   0.590E-03
 145 F= -.10124123E+03 E0= -.10124123E+03  d E =-.563460E-11
       N       E                     dE             d eps       ncg     rms          rms(c)
DAV:   1    -0.101240567164E+03    0.66295E-03   -0.26997E-01    96   0.192E+00    0.135E-01
DAV:   2    -0.101240503626E+03    0.63538E-04   -0.18307E-03   132   0.157E-01    0.759E-02
DAV:   3    -0.101240428471E+03    0.75156E-04   -0.21843E-04   120   0.504E-02    0.188E-02
DAV:   4    -0.101240431959E+03   -0.34886E-05   -0.54167E-05   132   0.238E-02    0.815E-03
DAV:   5    -0.101240431758E+03    0.20089E-06   -0.15033E-06    96   0.505E-03
 146 F= -.10124043E+03 E0= -.10124043E+03  d E =-.559269E-11
       N       E                     dE             d eps       ncg     rms          rms(c)
DAV:   1    -0.101240812358E+03   -0.38040E-03   -0.53607E-01    96   0.256E+00    0.178E-01
DAV:   2    -0.101240676117E+03    0.13624E-03   -0.31582E-03   120   0.198E-01    0.101E-01
DAV:   3    -0.101240515748E+03    0.16037E-03   -0.50331E-04   120   0.714E-02    0.202E-02
DAV:   4    -0.101240520474E+03   -0.47265E-05   -0.10579E-04   132   0.334E-02    0.111E-02
DAV:   5    -0.101240519361E+03    0.11134E-05   -0.30770E-06   132   0.634E-03    0.686E-03
DAV:   6    -0.101240520150E+03   -0.78968E-06   -0.32180E-06   132   0.636E-03
 147 F= -.10124052E+03 E0= -.10124052E+03  d E =-.537407E-11
       N       E                     dE             d eps       ncg     rms          rms(c)
DAV:   1    -0.101239479181E+03    0.10402E-02   -0.26421E-01    96   0.180E+00    0.112E-01
DAV:   2    -0.101239416451E+03    0.62731E-04   -0.10184E-03   120   0.108E-01    0.639E-02
DAV:   3    -0.101239358896E+03    0.57555E-04   -0.16908E-04   120   0.404E-02    0.103E-02
DAV:   4    -0.101239361722E+03   -0.28262E-05   -0.26251E-05   132   0.169E-02    0.572E-03
DAV:   5    -0.101239362987E+03   -0.12647E-05   -0.96873E-07    96   0.364E-03    0.375E-03
DAV:   6    -0.101239366026E+03   -0.30392E-05   -0.86843E-07    96   0.342E-03    0.687E-04
DAV:   7    -0.101239367790E+03   -0.17635E-05   -0.31965E-07   108   0.193E-03    0.664E-04
DAV:   8    -0.101239370889E+03   -0.30991E-05   -0.18837E-07   108   0.154E-03    0.259E-04
DAV:   9    -0.101239372860E+03   -0.19715E-05   -0.14337E-07   108   0.106E-03    0.222E-04
DAV:  10    -0.101239374802E+03   -0.19419E-05   -0.71516E-08   108   0.737E-04    0.134E-04
DAV:  11    -0.101239375748E+03   -0.94607E-06   -0.35076E-08   108   0.425E-04
 148 F= -.10123938E+03 E0= -.10123938E+03  d E =-.579386E-11
       N       E                     dE             d eps       ncg     rms          rms(c)
DAV:   1    -0.101239721762E+03   -0.34696E-03   -0.54371E-01    96   0.253E+00    0.205E-01
DAV:   2    -0.101239648977E+03    0.72785E-04   -0.42888E-03   108   0.223E-01    0.110E-01
DAV:   3    -0.101239457465E+03    0.19151E-03   -0.49804E-04   132   0.657E-02    0.325E-02
DAV:   4    -0.101239447139E+03    0.10326E-04   -0.10901E-04   132   0.304E-02    0.120E-02
DAV:   5    -0.101239444648E+03    0.24912E-05   -0.57108E-06   132   0.101E-02    0.624E-03
DAV:   6    -0.101239447030E+03   -0.23824E-05   -0.48918E-06   132   0.836E-03    0.186E-03
DAV:   7    -0.101239450914E+03   -0.38838E-05   -0.16787E-06   132   0.436E-03    0.160E-03
DAV:   8    -0.101239456261E+03   -0.53468E-05   -0.27295E-07   108   0.158E-03    0.616E-04
DAV:   9    -0.101239461476E+03   -0.52152E-05   -0.32838E-07   108   0.151E-03    0.436E-04
DAV:  10    -0.101239467965E+03   -0.64888E-05   -0.38727E-07   108   0.149E-03    0.192E-04
DAV:  11    -0.101239471230E+03   -0.32651E-05   -0.11480E-07   108   0.860E-04    0.195E-04
DAV:  12    -0.101239472896E+03   -0.16661E-05   -0.19375E-08   108   0.442E-04    0.103E-04
DAV:  13    -0.101239474313E+03   -0.14172E-05   -0.20448E-08    96   0.347E-04    0.573E-05
DAV:  14    -0.101239475056E+03   -0.74244E-06   -0.41056E-09    96   0.215E-04
 149 F= -.10123948E+03 E0= -.10123948E+03  d E =-.455271E-11
       N       E                     dE             d eps       ncg     rms          rms(c)
DAV:   1    -0.101241377063E+03   -0.19028E-02   -0.26662E-01    96   0.184E+00    0.127E-01
DAV:   2    -0.101241299552E+03    0.77511E-04   -0.14553E-03   120   0.136E-01    0.712E-02
DAV:   3    -0.101241226223E+03    0.73329E-04   -0.22306E-04   132   0.466E-02    0.154E-02
DAV:   4    -0.101241227348E+03   -0.11248E-05   -0.41193E-05   132   0.209E-02    0.766E-03
DAV:   5    -0.101241227735E+03   -0.38761E-06   -0.15074E-06   108   0.486E-03
 150 F= -.10124123E+03 E0= -.10124123E+03  d E =-.773981E-11
       N       E                     dE             d eps       ncg     rms          rms(c)
DAV:   1    -0.101241602136E+03   -0.37479E-03   -0.52544E-01    96   0.255E+00    0.160E-01
DAV:   2    -0.101241474946E+03    0.12719E-03   -0.20944E-03   108   0.160E-01    0.921E-02
DAV:   3    -0.101241365090E+03    0.10986E-03   -0.36937E-04   120   0.607E-02    0.120E-02
DAV:   4    -0.101241371899E+03   -0.68093E-05   -0.59227E-05   132   0.253E-02    0.753E-03
DAV:   5    -0.101241372993E+03   -0.10940E-05   -0.18744E-06   120   0.466E-03    0.524E-03
DAV:   6    -0.101241376792E+03   -0.37988E-05   -0.16632E-06   108   0.417E-03    0.980E-04
DAV:   7    -0.101241379238E+03   -0.24460E-05   -0.39877E-07   108   0.212E-03    0.866E-04
DAV:   8    -0.101241382917E+03   -0.36795E-05   -0.18589E-07    96   0.169E-03    0.402E-04
DAV:   9    -0.101241386393E+03   -0.34758E-05   -0.23392E-07   108   0.163E-03    0.315E-04
DAV:  10    -0.101241389063E+03   -0.26704E-05   -0.14239E-07   108   0.101E-03    0.157E-04
DAV:  11    -0.101241390078E+03   -0.10148E-05   -0.26961E-08   108   0.418E-04    0.111E-04
DAV:  12    -0.101241390891E+03   -0.81252E-06   -0.16471E-08   108   0.311E-04
 151 F= -.10124139E+03 E0= -.10124139E+03  d E =-.881373E-10
       N       E                     dE             d eps       ncg     rms          rms(c)
DAV:   1    -0.101239300954E+03    0.20891E-02   -0.26680E-01   108   0.195E+00    0.131E-01
DAV:   2    -0.101239256795E+03    0.44159E-04   -0.19886E-03   120   0.161E-01    0.713E-02
DAV:   3    -0.101239176162E+03    0.80633E-04   -0.22627E-04   132   0.504E-02    0.196E-02
DAV:   4    -0.101239178129E+03   -0.19663E-05   -0.66726E-05   132   0.255E-02    0.728E-03
DAV:   5    -0.101239178453E+03   -0.32442E-06   -0.28073E-06   132   0.619E-03
 152 F= -.10123918E+03 E0= -.10123918E+03  d E =-.590685E-11
       N       E                     dE             d eps       ncg     rms          rms(c)
DAV:   1    -0.101239425599E+03   -0.24747E-03   -0.54566E-01   108   0.265E+00    0.207E-01
DAV:   2    -0.101239337370E+03    0.88230E-04   -0.46514E-03   132   0.238E-01    0.114E-01
DAV:   3    -0.101239125544E+03    0.21183E-03   -0.56407E-04   120   0.760E-02    0.309E-02
DAV:   4    -0.101239125425E+03    0.11824E-06   -0.16078E-04   132   0.383E-02    0.124E-02
DAV:   5    -0.101239123135E+03    0.22906E-05   -0.51116E-06   132   0.908E-03    0.746E-03
DAV:   6    -0.101239123682E+03   -0.54691E-06   -0.57277E-06   132   0.915E-03
 153 F= -.10123912E+03 E0= -.10123912E+03  d E =-.596954E-11
       N       E                     dE             d eps       ncg     rms          rms(c)
DAV:   1    -0.101241290034E+03   -0.21669E-02   -0.26891E-01   108   0.187E+00    0.140E-01
DAV:   2    -0.101241239454E+03    0.50580E-04   -0.19251E-03   120   0.150E-01    0.762E-02
DAV:   3    -0.101241162483E+03    0.76971E-04   -0.24340E-04   120   0.446E-02    0.206E-02
DAV:   4    -0.101241161120E+03    0.13626E-05   -0.41640E-05   132   0.194E-02    0.835E-03
DAV:   5    -0.101241160237E+03    0.88333E-06   -0.27323E-06    96   0.647E-03
 154 F= -.10124116E+03 E0= -.10124116E+03  d E =-.590956E-11
       N       E                     dE             d eps       ncg     rms          rms(c)
DAV:   1    -0.101241536235E+03   -0.37511E-03   -0.53182E-01    96   0.262E+00    0.160E-01
DAV:   2    -0.101241427155E+03    0.10908E-03   -0.20509E-03   120   0.155E-01    0.924E-02
DAV:   3    -0.101241318554E+03    0.10860E-03   -0.35670E-04   120   0.585E-02    0.143E-02
DAV:   4    -0.101241321755E+03   -0.32008E-05   -0.53524E-05   132   0.246E-02    0.781E-03
DAV:   5    -0.101241321133E+03    0.62203E-06   -0.17153E-06   108   0.485E-03
 155 F= -.10124132E+03 E0= -.10124132E+03  d E =-.563958E-11
       N       E                     dE             d eps       ncg     rms          rms(c)
DAV:   1    -0.101240820586E+03    0.50117E-03   -0.26540E-01    96   0.182E+00    0.116E-01
DAV:   2    -0.101240753107E+03    0.67479E-04   -0.10967E-03   120   0.119E-01    0.666E-02
DAV:   3    -0.101240701710E+03    0.51397E-04   -0.19529E-04   144   0.458E-02    0.900E-03
DAV:   4    -0.101240705674E+03   -0.39642E-05   -0.35063E-05   132   0.194E-02    0.622E-03
DAV:   5    -0.101240706075E+03   -0.40073E-06   -0.81918E-07   108   0.345E-03
 156 F= -.10124071E+03 E0= -.10124071E+03  d E =-.643500E-11
       N       E                     dE             d eps       ncg     rms          rms(c)
DAV:   1    -0.101241117805E+03   -0.41213E-03   -0.53075E-01    96   0.260E+00    0.174E-01
DAV:   2    -0.101241009773E+03    0.10803E-03   -0.27158E-03   120   0.186E-01    0.971E-02
DAV:   3    -0.101240877434E+03    0.13234E-03   -0.38498E-04   120   0.582E-02    0.202E-02
DAV:   4    -0.101240876985E+03    0.44928E-06   -0.59072E-05   132   0.240E-02    0.893E-03
DAV:   5    -0.101240876952E+03    0.32715E-07   -0.38177E-06   132   0.673E-03
 157 F= -.10124088E+03 E0= -.10124088E+03  d E =-.522856E-11
