       N       E                     dE             d eps       ncg     rms          rms(c)
DAV:   1     0.245081201015E+03    0.24508E+03   -0.10190E+04   120   0.484E+02
DAV:   2    -0.226115193560E+02   -0.26769E+03   -0.25340E+03   156   0.918E+01
DAV:   3    -0.102351477637E+03   -0.79740E+02   -0.79520E+02   120   0.553E+01
DAV:   4    -0.106227709459E+03   -0.38762E+01   -0.38616E+01   120   0.176E+01
DAV:   5    -0.106302369617E+03   -0.74660E-01   -0.74597E-01   156   0.275E+00    0.152E+01
DAV:   6    -0.102899774671E+03    0.34026E+01   -0.15657E+00   120   0.431E+00    0.878E+00
DAV:   7    -0.101158083580E+03    0.17417E+01   -0.41561E+00   120   0.626E+00    0.129E+00
DAV:   8    -0.101103170886E+03    0.54913E-01   -0.32675E-01   132   0.217E+00    0.675E-01
DAV:   9    -0.101069701231E+03    0.33470E-01   -0.62512E-02   132   0.668E-01    0.347E-01
DAV:  10    -0.101068414131E+03    0.12871E-02   -0.30234E-03   120   0.184E-01    0.148E-01
DAV:  11    -0.101067506697E+03    0.90743E-03   -0.57355E-03   120   0.204E-01    0.101E-01
DAV:  12    -0.101072484347E+03   -0.49777E-02   -0.15314E-03   132   0.103E-01    0.536E-02
DAV:  13    -0.101076515512E+03   -0.40312E-02   -0.18695E-03   120   0.106E-01    0.413E-02
DAV:  14    -0.101079460290E+03   -0.29448E-02   -0.17151E-04   144   0.423E-02    0.215E-02
DAV:  15    -0.101084631818E+03   -0.51715E-02   -0.59828E-04   108   0.585E-02    0.137E-02
DAV:  16    -0.101086021440E+03   -0.13896E-02   -0.81907E-05   132   0.268E-02    0.794E-03
DAV:  17    -0.101087366184E+03   -0.13447E-02   -0.13063E-04   120   0.239E-02    0.651E-03
DAV:  18    -0.101087580831E+03   -0.21465E-03   -0.50268E-06   132   0.567E-03    0.191E-03
DAV:  19    -0.101087826751E+03   -0.24592E-03   -0.11108E-05   108   0.718E-03    0.220E-03
DAV:  20    -0.101087869259E+03   -0.42509E-04   -0.61677E-07    96   0.265E-03    0.714E-04
DAV:  21    -0.101087909204E+03   -0.39945E-04   -0.10586E-06    84   0.241E-03    0.407E-04
DAV:  22    -0.101087918832E+03   -0.96276E-05   -0.23150E-07    96   0.114E-03    0.228E-04
DAV:  23    -0.101087923182E+03   -0.43502E-05   -0.87805E-08    96   0.660E-04    0.183E-04
DAV:  24    -0.101087926430E+03   -0.32484E-05   -0.52660E-08    84   0.581E-04    0.136E-04
DAV:  25    -0.101087927142E+03   -0.71222E-06   -0.90100E-09   108   0.302E-04
   1 F= -.10108793E+03 E0= -.10108793E+03  d E =-.372612E-10
       N       E                     dE             d eps       ncg     rms          rms(c)
DAV:   1    -0.101084515881E+03    0.34105E-02   -0.82719E-02    96   0.807E-01    0.127E-01
DAV:   2    -0.101084834275E+03   -0.31839E-03   -0.36594E-03   132   0.204E-01    0.556E-02
DAV:   3    -0.101084823649E+03    0.10626E-04   -0.13781E-04   144   0.434E-02    0.290E-02
DAV:   4    -0.101084826820E+03   -0.31714E-05   -0.31440E-05   108   0.213E-02    0.812E-03
DAV:   5    -0.101084826144E+03    0.67666E-06   -0.62961E-06   132   0.974E-03
   2 F= -.10108483E+03 E0= -.10108483E+03  d E =-.361634E-10
       N       E                     dE             d eps       ncg     rms          rms(c)
DAV:   1    -0.101083615751E+03    0.12111E-02   -0.33020E-01    96   0.164E+00    0.260E-01
DAV:   2    -0.101084913191E+03   -0.12974E-02   -0.14786E-02   120   0.406E-01    0.111E-01
DAV:   3    -0.101084872730E+03    0.40461E-04   -0.56371E-04   120   0.872E-02    0.594E-02
DAV:   4    -0.101084889305E+03   -0.16575E-04   -0.13220E-04   108   0.427E-02    0.168E-02
DAV:   5    -0.101084886710E+03    0.25949E-05   -0.25118E-05   132   0.193E-02    0.983E-03
DAV:   6    -0.101084886248E+03    0.46231E-06   -0.50128E-06   108   0.769E-03
   3 F= -.10108489E+03 E0= -.10108489E+03  d E =-.537905E-10
       N       E                     dE             d eps       ncg     rms          rms(c)
DAV:   1    -0.101084073225E+03    0.81349E-03   -0.16588E-01    96   0.115E+00    0.157E-01
DAV:   2    -0.101084756989E+03   -0.68376E-03   -0.74484E-03   132   0.281E-01    0.763E-02
DAV:   3    -0.101084745454E+03    0.11535E-04   -0.26073E-04   144   0.596E-02    0.388E-02
DAV:   4    -0.101084757690E+03   -0.12236E-04   -0.58401E-05   108   0.280E-02    0.110E-02
DAV:   5    -0.101084757358E+03    0.33207E-06   -0.10140E-05   132   0.123E-02    0.588E-03
DAV:   6    -0.101084757822E+03   -0.46402E-06   -0.27348E-06   132   0.542E-03
   4 F= -.10108476E+03 E0= -.10108476E+03  d E =-.305737E-10
       N       E                     dE             d eps       ncg     rms          rms(c)
DAV:   1    -0.101083627447E+03    0.11299E-02   -0.32964E-01    96   0.162E+00    0.236E-01
DAV:   2    -0.101085069731E+03   -0.14423E-02   -0.15686E-02   108   0.408E-01    0.111E-01
DAV:   3    -0.101085033801E+03    0.35930E-04   -0.54774E-04   120   0.870E-02    0.572E-02
DAV:   4    -0.101085049511E+03   -0.15711E-04   -0.13158E-04   132   0.418E-02    0.162E-02
DAV:   5    -0.101085045260E+03    0.42512E-05   -0.23420E-05   132   0.185E-02    0.867E-03
DAV:   6    -0.101085044817E+03    0.44247E-06   -0.56379E-06   132   0.791E-03
   5 F= -.10108504E+03 E0= -.10108504E+03  d E =-.738136E-10
       N       E                     dE             d eps       ncg     rms          rms(c)
DAV:   1    -0.101082850325E+03    0.21949E-02   -0.16353E-01    96   0.115E+00    0.161E-01
DAV:   2    -0.101083759274E+03   -0.90895E-03   -0.97095E-03   120   0.319E-01    0.935E-02
DAV:   3    -0.101083721466E+03    0.37808E-04   -0.28858E-04   132   0.663E-02    0.500E-02
DAV:   4    -0.101083729589E+03   -0.81230E-05   -0.11019E-04   108   0.377E-02    0.121E-02
DAV:   5    -0.101083728048E+03    0.15405E-05   -0.18636E-05   132   0.160E-02    0.752E-03
DAV:   6    -0.101083729837E+03   -0.17886E-05   -0.36793E-06   132   0.609E-03    0.453E-03
DAV:   7    -0.101083735363E+03   -0.55264E-05   -0.54229E-07   108   0.259E-03    0.154E-03
DAV:   8    -0.101083740678E+03   -0.53151E-05   -0.41247E-07   108   0.206E-03    0.603E-04
DAV:   9    -0.101083747003E+03   -0.63247E-05   -0.40376E-07   108   0.172E-03    0.549E-04
DAV:  10    -0.101083753611E+03   -0.66076E-05   -0.57751E-07    96   0.158E-03    0.329E-04
DAV:  11    -0.101083754917E+03   -0.13059E-05   -0.31802E-08   120   0.664E-04    0.229E-04
DAV:  12    -0.101083756811E+03   -0.18947E-05   -0.55911E-08    84   0.543E-04    0.955E-05
DAV:  13    -0.101083757798E+03   -0.98700E-06   -0.20043E-08   108   0.324E-04
   6 F= -.10108376E+03 E0= -.10108376E+03  d E =-.510731E-10
       N       E                     dE             d eps       ncg     rms          rms(c)
DAV:   1    -0.101081207209E+03    0.25496E-02   -0.33173E-01    96   0.162E+00    0.267E-01
DAV:   2    -0.101083490215E+03   -0.22830E-02   -0.24764E-02    96   0.488E-01    0.169E-01
DAV:   3    -0.101083325434E+03    0.16478E-03   -0.68869E-04   144   0.102E-01    0.892E-02
DAV:   4    -0.101083323739E+03    0.16952E-05   -0.39267E-04    96   0.652E-02    0.160E-02
DAV:   5    -0.101083315131E+03    0.86076E-05   -0.57085E-05   132   0.260E-02    0.116E-02
DAV:   6    -0.101083315427E+03   -0.29531E-06   -0.95964E-06   132   0.819E-03
   7 F= -.10108332E+03 E0= -.10108332E+03  d E =-.401158E-10
       N       E                     dE             d eps       ncg     rms          rms(c)
DAV:   1    -0.101082963216E+03    0.35191E-03   -0.19043E-01    96   0.132E+00    0.192E-01
DAV:   2    -0.101084336815E+03   -0.13736E-02   -0.14239E-02   132   0.412E-01    0.120E-01
DAV:   3    -0.101084271277E+03    0.65538E-04   -0.38803E-04   132   0.821E-02    0.652E-02
DAV:   4    -0.101084299237E+03   -0.27961E-04   -0.22051E-04   108   0.556E-02    0.120E-02
DAV:   5    -0.101084303026E+03   -0.37891E-05   -0.43843E-05   132   0.233E-02    0.971E-03
DAV:   6    -0.101084306376E+03   -0.33500E-05   -0.42253E-06   132   0.638E-03    0.736E-03
DAV:   7    -0.101084317208E+03   -0.10832E-04   -0.77296E-07    84   0.432E-03    0.242E-03
DAV:   8    -0.101084324786E+03   -0.75775E-05   -0.11879E-06   120   0.408E-03    0.113E-03
DAV:   9    -0.101084329333E+03   -0.45469E-05   -0.41615E-07   108   0.233E-03    0.948E-04
DAV:  10    -0.101084336523E+03   -0.71899E-05   -0.32737E-07    84   0.145E-03    0.493E-04
DAV:  11    -0.101084342701E+03   -0.61786E-05   -0.47076E-07    84   0.165E-03    0.651E-04
DAV:  12    -0.101084345279E+03   -0.25780E-05   -0.15319E-07   108   0.103E-03    0.399E-04
DAV:  13    -0.101084347048E+03   -0.17694E-05   -0.55343E-08    84   0.667E-04    0.344E-04
DAV:  14    -0.101084348007E+03   -0.95847E-06   -0.17642E-08   108   0.423E-04
   8 F= -.10108435E+03 E0= -.10108435E+03  d E =-.350342E-10
       N       E                     dE             d eps       ncg     rms          rms(c)
DAV:   1    -0.101081648909E+03    0.26981E-02   -0.33538E-01    96   0.179E+00    0.258E-01
DAV:   2    -0.101083687975E+03   -0.20391E-02   -0.21147E-02   120   0.497E-01    0.154E-01
DAV:   3    -0.101083597285E+03    0.90690E-04   -0.54304E-04   132   0.910E-02    0.822E-02
DAV:   4    -0.101083581619E+03    0.15666E-04   -0.23016E-04   108   0.575E-02    0.152E-02
DAV:   5    -0.101083570028E+03    0.11591E-04   -0.42910E-05   132   0.250E-02    0.102E-02
DAV:   6    -0.101083570215E+03   -0.18721E-06   -0.75891E-06   132   0.967E-03
   9 F= -.10108357E+03 E0= -.10108357E+03  d E =-.586702E-10
       N       E                     dE             d eps       ncg     rms          rms(c)
DAV:   1    -0.101082023812E+03    0.15462E-02   -0.16912E-01    96   0.126E+00    0.181E-01
DAV:   2    -0.101083102776E+03   -0.10790E-02   -0.10895E-02   132   0.365E-01    0.116E-01
DAV:   3    -0.101083083642E+03    0.19135E-04   -0.26944E-04   120   0.682E-02    0.629E-02
DAV:   4    -0.101083109423E+03   -0.25781E-04   -0.16308E-04   132   0.491E-02    0.112E-02
DAV:   5    -0.101083106020E+03    0.34035E-05   -0.35872E-05   132   0.222E-02    0.869E-03
DAV:   6    -0.101083107232E+03   -0.12129E-05   -0.72050E-06   132   0.811E-03    0.567E-03
DAV:   7    -0.101083114775E+03   -0.75424E-05   -0.11806E-06   108   0.397E-03    0.221E-03
DAV:   8    -0.101083123640E+03   -0.88651E-05   -0.62391E-07   108   0.268E-03    0.723E-04
DAV:   9    -0.101083133427E+03   -0.97867E-05   -0.96467E-07    96   0.240E-03    0.912E-04
DAV:  10    -0.101083143587E+03   -0.10161E-04   -0.69454E-07    96   0.201E-03    0.311E-04
DAV:  11    -0.101083145796E+03   -0.22082E-05   -0.12114E-07   108   0.831E-04    0.236E-04
DAV:  12    -0.101083148922E+03   -0.31267E-05   -0.10864E-07    96   0.703E-04    0.971E-05
DAV:  13    -0.101083150873E+03   -0.19508E-05   -0.87698E-08   108   0.553E-04    0.119E-04
DAV:  14    -0.101083152055E+03   -0.11819E-05   -0.25527E-08    96   0.343E-04    0.518E-05
DAV:  15    -0.101083152381E+03   -0.32566E-06    0.12561E-09   108   0.163E-04
  10 F= -.10108315E+03 E0= -.10108315E+03  d E =-.452908E-10
       N       E                     dE             d eps       ncg     rms          rms(c)
DAV:   1    -0.101080503649E+03    0.26484E-02   -0.34349E-01    96   0.178E+00    0.261E-01
DAV:   2    -0.101083098835E+03   -0.25952E-02   -0.26451E-02   132   0.551E-01    0.185E-01
DAV:   3    -0.101082930780E+03    0.16806E-03   -0.62518E-04   144   0.107E-01    0.941E-02
DAV:   4    -0.101082946341E+03   -0.15562E-04   -0.49486E-04   132   0.822E-02    0.184E-02
DAV:   5    -0.101082932229E+03    0.14112E-04   -0.93432E-05   132   0.352E-02    0.128E-02
DAV:   6    -0.101082933926E+03   -0.16969E-05   -0.20079E-05   132   0.121E-02    0.737E-03
DAV:   7    -0.101082951683E+03   -0.17757E-04   -0.18839E-06   132   0.452E-03    0.320E-03
DAV:   8    -0.101082979018E+03   -0.27334E-04   -0.34606E-06   132   0.517E-03    0.136E-03
DAV:   9    -0.101082999584E+03   -0.20566E-04   -0.17911E-06   132   0.313E-03    0.165E-03
DAV:  10    -0.101083020795E+03   -0.21211E-04   -0.16337E-06   108   0.278E-03    0.465E-04
DAV:  11    -0.101083027471E+03   -0.66758E-05   -0.19447E-07   108   0.114E-03    0.279E-04
DAV:  12    -0.101083035552E+03   -0.80811E-05   -0.35538E-07   108   0.114E-03    0.232E-04
DAV:  13    -0.101083037671E+03   -0.21190E-05   -0.43626E-08   108   0.444E-04    0.199E-04
DAV:  14    -0.101083040149E+03   -0.24779E-05   -0.43335E-08   108   0.453E-04    0.580E-05
DAV:  15    -0.101083040845E+03   -0.69595E-06   -0.58002E-09   108   0.234E-04
  11 F= -.10108304E+03 E0= -.10108304E+03  d E =-.378012E-10
       N       E                     dE             d eps       ncg     rms          rms(c)
DAV:   1    -0.101083233206E+03   -0.19306E-03   -0.17015E-01    96   0.127E+00    0.188E-01
DAV:   2    -0.101084469710E+03   -0.12365E-02   -0.12727E-02   132   0.392E-01    0.123E-01
DAV:   3    -0.101084399564E+03    0.70146E-04   -0.30435E-04   156   0.733E-02    0.678E-02
DAV:   4    -0.101084400682E+03   -0.11172E-05   -0.20723E-04   132   0.558E-02    0.125E-02
DAV:   5    -0.101084395483E+03    0.51984E-05   -0.52113E-05   132   0.264E-02    0.957E-03
DAV:   6    -0.101084395630E+03   -0.14718E-06   -0.90012E-06   132   0.893E-03
  12 F= -.10108440E+03 E0= -.10108440E+03  d E =-.534513E-10
       N       E                     dE             d eps       ncg     rms          rms(c)
DAV:   1    -0.101082817100E+03    0.15784E-02   -0.33073E-01    96   0.174E+00    0.269E-01
DAV:   2    -0.101084573816E+03   -0.17567E-02   -0.18375E-02   132   0.459E-01    0.134E-01
DAV:   3    -0.101084536142E+03    0.37674E-04   -0.57581E-04   132   0.919E-02    0.731E-02
DAV:   4    -0.101084565358E+03   -0.29216E-04   -0.20586E-04   132   0.579E-02    0.154E-02
DAV:   5    -0.101084562501E+03    0.28568E-05   -0.50584E-05   132   0.270E-02    0.120E-02
DAV:   6    -0.101084561627E+03    0.87418E-06   -0.64719E-06   132   0.901E-03
  13 F= -.10108456E+03 E0= -.10108456E+03  d E =-.508735E-10
       N       E                     dE             d eps       ncg     rms          rms(c)
DAV:   1    -0.101081951143E+03    0.26114E-02   -0.16450E-01    96   0.126E+00    0.193E-01
DAV:   2    -0.101083243841E+03   -0.12927E-02   -0.13394E-02   132   0.387E-01    0.115E-01
DAV:   3    -0.101083184538E+03    0.59304E-04   -0.35958E-04   144   0.762E-02    0.665E-02
DAV:   4    -0.101083196347E+03   -0.11810E-04   -0.19368E-04   132   0.557E-02    0.129E-02
DAV:   5    -0.101083193491E+03    0.28563E-05   -0.54444E-05   132   0.271E-02    0.105E-02
DAV:   6    -0.101083190989E+03    0.25019E-05   -0.57055E-06   132   0.806E-03    0.730E-03
DAV:   7    -0.101083194066E+03   -0.30771E-05   -0.19224E-06   132   0.519E-03    0.279E-03
DAV:   8    -0.101083200448E+03   -0.63822E-05   -0.58219E-07   108   0.354E-03    0.802E-04
DAV:   9    -0.101083207632E+03   -0.71836E-05   -0.55406E-07   108   0.239E-03    0.106E-03
DAV:  10    -0.101083217711E+03   -0.10079E-04   -0.49343E-07   108   0.180E-03    0.326E-04
DAV:  11    -0.101083220758E+03   -0.30470E-05   -0.13872E-07   108   0.958E-04    0.303E-04
DAV:  12    -0.101083224385E+03   -0.36270E-05   -0.88041E-08   108   0.735E-04    0.163E-04
DAV:  13    -0.101083227163E+03   -0.27772E-05   -0.92856E-08   108   0.634E-04    0.126E-04
DAV:  14    -0.101083228394E+03   -0.12319E-05   -0.18825E-08   108   0.330E-04    0.908E-05
DAV:  15    -0.101083229212E+03   -0.81772E-06   -0.74605E-09   108   0.245E-04
  14 F= -.10108323E+03 E0= -.10108323E+03  d E =-.586326E-10
       N       E                     dE             d eps       ncg     rms          rms(c)
DAV:   1    -0.101081352988E+03    0.18754E-02   -0.33919E-01    96   0.177E+00    0.263E-01
DAV:   2    -0.101083696444E+03   -0.23435E-02   -0.24141E-02   132   0.538E-01    0.173E-01
DAV:   3    -0.101083575189E+03    0.12126E-03   -0.60457E-04   132   0.103E-01    0.914E-02
DAV:   4    -0.101083581352E+03   -0.61637E-05   -0.39023E-04   132   0.754E-02    0.174E-02
DAV:   5    -0.101083572313E+03    0.90395E-05   -0.82115E-05   132   0.336E-02    0.126E-02
DAV:   6    -0.101083576403E+03   -0.40903E-05   -0.17264E-05   132   0.119E-02    0.788E-03
DAV:   7    -0.101083595433E+03   -0.19029E-04   -0.25039E-06   132   0.548E-03    0.315E-03
DAV:   8    -0.101083619073E+03   -0.23640E-04   -0.21618E-06   132   0.417E-03    0.112E-03
DAV:   9    -0.101083643132E+03   -0.24059E-04   -0.24994E-06   132   0.371E-03    0.153E-03
DAV:  10    -0.101083662418E+03   -0.19286E-04   -0.15679E-06   132   0.285E-03    0.583E-04
DAV:  11    -0.101083669445E+03   -0.70270E-05   -0.30861E-07   108   0.132E-03    0.281E-04
DAV:  12    -0.101083676101E+03   -0.66556E-05   -0.34926E-07   108   0.115E-03    0.207E-04
DAV:  13    -0.101083677963E+03   -0.18626E-05   -0.56276E-08   108   0.485E-04    0.196E-04
DAV:  14    -0.101083679753E+03   -0.17895E-05   -0.37177E-08   108   0.447E-04    0.581E-05
DAV:  15    -0.101083680222E+03   -0.46937E-06   -0.40116E-09   108   0.224E-04
  15 F= -.10108368E+03 E0= -.10108368E+03  d E =-.440782E-10
       N       E                     dE             d eps       ncg     rms          rms(c)
DAV:   1    -0.101083077352E+03    0.60240E-03   -0.17134E-01    96   0.126E+00    0.181E-01
DAV:   2    -0.101084332726E+03   -0.12554E-02   -0.12849E-02   132   0.395E-01    0.130E-01
DAV:   3    -0.101084253504E+03    0.79222E-04   -0.30951E-04   144   0.762E-02    0.648E-02
DAV:   4    -0.101084259501E+03   -0.59971E-05   -0.23277E-04   120   0.566E-02    0.130E-02
DAV:   5    -0.101084250769E+03    0.87316E-05   -0.44686E-05   132   0.245E-02    0.898E-03
DAV:   6    -0.101084252735E+03   -0.19659E-05   -0.85359E-06   132   0.780E-03    0.455E-03
DAV:   7    -0.101084263134E+03   -0.10399E-04   -0.60598E-07   108   0.256E-03    0.215E-03
DAV:   8    -0.101084279297E+03   -0.16163E-04   -0.23917E-06   132   0.421E-03    0.126E-03
DAV:   9    -0.101084292834E+03   -0.13537E-04   -0.88278E-07   108   0.257E-03    0.724E-04
DAV:  10    -0.101084303402E+03   -0.10568E-04   -0.93408E-07   120   0.193E-03    0.359E-04
DAV:  11    -0.101084307490E+03   -0.40883E-05   -0.10566E-07   108   0.829E-04    0.201E-04
DAV:  12    -0.101084311319E+03   -0.38287E-05   -0.13461E-07   108   0.732E-04    0.132E-04
DAV:  13    -0.101084312893E+03   -0.15741E-05   -0.32644E-08   108   0.399E-04    0.122E-04
DAV:  14    -0.101084314109E+03   -0.12163E-05   -0.14894E-08   108   0.301E-04    0.502E-05
DAV:  15    -0.101084314515E+03   -0.40555E-06    0.17120E-09   108   0.160E-04
  16 F= -.10108431E+03 E0= -.10108431E+03  d E =-.567288E-10
       N       E                     dE             d eps       ncg     rms          rms(c)
DAV:   1    -0.101081669285E+03    0.26448E-02   -0.33560E-01    96   0.178E+00    0.258E-01
DAV:   2    -0.101083656162E+03   -0.19869E-02   -0.20773E-02   132   0.498E-01    0.156E-01
DAV:   3    -0.101083564359E+03    0.91803E-04   -0.54920E-04   132   0.958E-02    0.815E-02
DAV:   4    -0.101083571114E+03   -0.67554E-05   -0.28631E-04   132   0.654E-02    0.159E-02
DAV:   5    -0.101083560966E+03    0.10148E-04   -0.62100E-05   132   0.296E-02    0.118E-02
DAV:   6    -0.101083559455E+03    0.15115E-05   -0.11868E-05   132   0.109E-02    0.746E-03
DAV:   7    -0.101083568211E+03   -0.87559E-05   -0.22181E-06   132   0.569E-03    0.290E-03
DAV:   8    -0.101083581806E+03   -0.13595E-04   -0.14677E-06   120   0.447E-03    0.119E-03
DAV:   9    -0.101083596893E+03   -0.15088E-04   -0.97433E-07   108   0.299E-03    0.127E-03
DAV:  10    -0.101083613564E+03   -0.16670E-04   -0.10898E-06   120   0.242E-03    0.596E-04
DAV:  11    -0.101083622076E+03   -0.85120E-05   -0.27369E-07   108   0.132E-03    0.257E-04
DAV:  12    -0.101083627579E+03   -0.55031E-05   -0.14847E-07   108   0.810E-04    0.242E-04
DAV:  13    -0.101083630689E+03   -0.31107E-05   -0.50991E-08   108   0.484E-04    0.161E-04
DAV:  14    -0.101083632715E+03   -0.20257E-05   -0.25623E-08   108   0.373E-04    0.472E-05
DAV:  15    -0.101083633474E+03   -0.75910E-06   -0.35167E-09   108   0.209E-04
  17 F= -.10108363E+03 E0= -.10108363E+03  d E =-.481338E-10
       N       E                     dE             d eps       ncg     rms          rms(c)
DAV:   1    -0.101083209586E+03    0.42313E-03   -0.17017E-01    96   0.128E+00    0.181E-01
DAV:   2    -0.101084238109E+03   -0.10285E-02   -0.10734E-02   120   0.367E-01    0.116E-01
DAV:   3    -0.101084186176E+03    0.51933E-04   -0.26120E-04   132   0.665E-02    0.618E-02
DAV:   4    -0.101084171752E+03    0.14425E-04   -0.13951E-04   132   0.439E-02    0.108E-02
DAV:   5    -0.101084167742E+03    0.40100E-05   -0.20686E-05   132   0.173E-02    0.811E-03
DAV:   6    -0.101084171864E+03   -0.41225E-05   -0.64227E-06   120   0.894E-03    0.444E-03
DAV:   7    -0.101084188033E+03   -0.16169E-04   -0.28475E-06   132   0.611E-03    0.161E-03
DAV:   8    -0.101084205956E+03   -0.17923E-04   -0.13155E-06   120   0.378E-03    0.102E-03
DAV:   9    -0.101084222380E+03   -0.16424E-04   -0.13705E-06   120   0.290E-03    0.899E-04
DAV:  10    -0.101084235907E+03   -0.13527E-04   -0.11985E-06   120   0.222E-03    0.389E-04
DAV:  11    -0.101084239093E+03   -0.31857E-05   -0.87312E-08   108   0.832E-04    0.239E-04
DAV:  12    -0.101084244020E+03   -0.49270E-05   -0.32980E-07    96   0.113E-03    0.141E-04
DAV:  13    -0.101084244792E+03   -0.77268E-06   -0.30305E-08   108   0.440E-04
  18 F= -.10108424E+03 E0= -.10108424E+03  d E =-.531225E-10
       N       E                     dE             d eps       ncg     rms          rms(c)
DAV:   1    -0.101082242881E+03    0.20011E-02   -0.33179E-01    96   0.179E+00    0.264E-01
DAV:   2    -0.101084139248E+03   -0.18964E-02   -0.19829E-02   132   0.483E-01    0.146E-01
DAV:   3    -0.101084065685E+03    0.73563E-04   -0.55621E-04   132   0.916E-02    0.780E-02
DAV:   4    -0.101084060833E+03    0.48521E-05   -0.21496E-04   132   0.576E-02    0.151E-02
DAV:   5    -0.101084051863E+03    0.89697E-05   -0.45680E-05   132   0.259E-02    0.112E-02
DAV:   6    -0.101084051898E+03   -0.34815E-07   -0.69847E-06   132   0.929E-03
  19 F= -.10108405E+03 E0= -.10108405E+03  d E =-.562238E-10
       N       E                     dE             d eps       ncg     rms          rms(c)
DAV:   1    -0.101082449734E+03    0.16021E-02   -0.16462E-01    96   0.129E+00    0.175E-01
DAV:   2    -0.101083772422E+03   -0.13227E-02   -0.13445E-02   132   0.405E-01    0.113E-01
DAV:   3    -0.101083731473E+03    0.40949E-04   -0.32541E-04   132   0.737E-02    0.656E-02
DAV:   4    -0.101083748849E+03   -0.17376E-04   -0.16489E-04   132   0.524E-02    0.110E-02
DAV:   5    -0.101083749556E+03   -0.70662E-06   -0.42991E-05   132   0.244E-02    0.934E-03
DAV:   6    -0.101083751125E+03   -0.15690E-05   -0.45727E-06   132   0.745E-03    0.651E-03
DAV:   7    -0.101083758479E+03   -0.73544E-05   -0.15649E-06   132   0.506E-03    0.218E-03
DAV:   8    -0.101083764883E+03   -0.64042E-05   -0.76908E-07   108   0.372E-03    0.844E-04
DAV:   9    -0.101083771153E+03   -0.62703E-05   -0.53331E-07   108   0.233E-03    0.951E-04
DAV:  10    -0.101083779786E+03   -0.86328E-05   -0.63134E-07   108   0.191E-03    0.311E-04
DAV:  11    -0.101083781573E+03   -0.17865E-05   -0.96741E-08   108   0.856E-04    0.275E-04
DAV:  12    -0.101083784061E+03   -0.24884E-05   -0.76442E-08   108   0.676E-04    0.179E-04
DAV:  13    -0.101083786274E+03   -0.22131E-05   -0.10321E-07   108   0.636E-04    0.997E-05
DAV:  14    -0.101083787260E+03   -0.98561E-06   -0.25416E-08   108   0.350E-04
  20 F= -.10108379E+03 E0= -.10108379E+03  d E =-.719754E-10
       N       E                     dE             d eps       ncg     rms          rms(c)
DAV:   1    -0.101081465263E+03    0.23210E-02   -0.33404E-01    96   0.176E+00    0.246E-01
DAV:   2    -0.101083881196E+03   -0.24159E-02   -0.25544E-02   132   0.527E-01    0.163E-01
DAV:   3    -0.101083722408E+03    0.15879E-03   -0.61154E-04   132   0.102E-01    0.899E-02
DAV:   4    -0.101083711884E+03    0.10524E-04   -0.39124E-04   132   0.744E-02    0.165E-02
DAV:   5    -0.101083705261E+03    0.66231E-05   -0.86853E-05   132   0.337E-02    0.128E-02
DAV:   6    -0.101083704856E+03    0.40459E-06   -0.10654E-05   132   0.962E-03    0.911E-03
DAV:   7    -0.101083714655E+03   -0.97990E-05   -0.10193E-06   108   0.391E-03    0.402E-03
DAV:   8    -0.101083732395E+03   -0.17740E-04   -0.22972E-06   132   0.549E-03    0.141E-03
DAV:   9    -0.101083747060E+03   -0.14665E-04   -0.13494E-06   132   0.314E-03    0.173E-03
DAV:  10    -0.101083763069E+03   -0.16009E-04   -0.56918E-07   108   0.189E-03    0.826E-04
DAV:  11    -0.101083770975E+03   -0.79055E-05   -0.39434E-07   108   0.128E-03    0.611E-04
DAV:  12    -0.101083778668E+03   -0.76938E-05   -0.21979E-07   108   0.104E-03    0.232E-04
DAV:  13    -0.101083782357E+03   -0.36883E-05   -0.99631E-08   108   0.643E-04    0.209E-04
DAV:  14    -0.101083784817E+03   -0.24600E-05   -0.26699E-08   108   0.398E-04    0.134E-04
DAV:  15    -0.101083786167E+03   -0.13503E-05   -0.17716E-08   108   0.311E-04    0.862E-05
DAV:  16    -0.101083786878E+03   -0.71061E-06   -0.12719E-10   108   0.189E-04
  21 F= -.10108379E+03 E0= -.10108379E+03  d E =-.427670E-10
       N       E                     dE             d eps       ncg     rms          rms(c)
DAV:   1    -0.101084123351E+03   -0.33718E-03   -0.16882E-01    96   0.121E+00    0.159E-01
DAV:   2    -0.101085185636E+03   -0.10623E-02   -0.11201E-02   132   0.357E-01    0.106E-01
DAV:   3    -0.101085128521E+03    0.57115E-04   -0.28691E-04   132   0.690E-02    0.598E-02
DAV:   4    -0.101085125346E+03    0.31755E-05   -0.14285E-04   132   0.454E-02    0.122E-02
DAV:   5    -0.101085121518E+03    0.38275E-05   -0.28009E-05   132   0.193E-02    0.829E-03
DAV:   6    -0.101085122339E+03   -0.82075E-06   -0.38214E-06   132   0.643E-03
  22 F= -.10108512E+03 E0= -.10108512E+03  d E =-.418843E-10
       N       E                     dE             d eps       ncg     rms          rms(c)
DAV:   1    -0.101083222116E+03    0.18994E-02   -0.33409E-01    96   0.168E+00    0.192E-01
DAV:   2    -0.101084787715E+03   -0.15656E-02   -0.16271E-02   120   0.422E-01    0.105E-01
DAV:   3    -0.101084786617E+03    0.10980E-05   -0.55303E-04   144   0.897E-02    0.513E-02
DAV:   4    -0.101084811999E+03   -0.25382E-04   -0.11813E-04   132   0.423E-02    0.133E-02
DAV:   5    -0.101084810168E+03    0.18306E-05   -0.22946E-05   132   0.182E-02    0.812E-03
DAV:   6    -0.101084810913E+03   -0.74413E-06   -0.61525E-06   132   0.812E-03
  23 F= -.10108481E+03 E0= -.10108481E+03  d E =-.800850E-10
       N       E                     dE             d eps       ncg     rms          rms(c)
DAV:   1    -0.101084055180E+03    0.75499E-03   -0.16830E-01    96   0.121E+00    0.147E-01
DAV:   2    -0.101084812378E+03   -0.75720E-03   -0.79755E-03   120   0.297E-01    0.756E-02
DAV:   3    -0.101084809168E+03    0.32108E-05   -0.26689E-04   132   0.619E-02    0.387E-02
DAV:   4    -0.101084823915E+03   -0.14747E-04   -0.64204E-05   132   0.307E-02    0.102E-02
DAV:   5    -0.101084823604E+03    0.31082E-06   -0.12759E-05   132   0.135E-02    0.559E-03
DAV:   6    -0.101084824142E+03   -0.53794E-06   -0.28270E-06   132   0.564E-03
  24 F= -.10108482E+03 E0= -.10108482E+03  d E =-.482758E-10
       N       E                     dE             d eps       ncg     rms          rms(c)
DAV:   1    -0.101082850179E+03    0.19734E-02   -0.34097E-01    96   0.172E+00    0.260E-01
DAV:   2    -0.101084396029E+03   -0.15458E-02   -0.16815E-02   132   0.458E-01    0.121E-01
DAV:   3    -0.101084342034E+03    0.53994E-04   -0.53123E-04   132   0.904E-02    0.655E-02
DAV:   4    -0.101084354254E+03   -0.12219E-04   -0.17801E-04   132   0.509E-02    0.171E-02
DAV:   5    -0.101084348816E+03    0.54372E-05   -0.31223E-05   132   0.214E-02    0.933E-03
DAV:   6    -0.101084348719E+03    0.96846E-07   -0.55100E-06   132   0.795E-03
  25 F= -.10108435E+03 E0= -.10108435E+03  d E =-.675458E-10
       N       E                     dE             d eps       ncg     rms          rms(c)
DAV:   1    -0.101083725893E+03    0.62292E-03   -0.16674E-01    96   0.124E+00    0.166E-01
DAV:   2    -0.101084818758E+03   -0.10929E-02   -0.11556E-02   120   0.357E-01    0.904E-02
DAV:   3    -0.101084783473E+03    0.35285E-04   -0.35823E-04   132   0.745E-02    0.494E-02
DAV:   4    -0.101084793419E+03   -0.99466E-05   -0.11382E-04   132   0.417E-02    0.117E-02
DAV:   5    -0.101084793361E+03    0.58552E-07   -0.26057E-05   132   0.190E-02    0.780E-03
DAV:   6    -0.101084793484E+03   -0.12289E-06   -0.35607E-06   132   0.661E-03
  26 F= -.10108479E+03 E0= -.10108479E+03  d E =-.368538E-10
       N       E                     dE             d eps       ncg     rms          rms(c)
DAV:   1    -0.101082462117E+03    0.23312E-02   -0.33542E-01    96   0.170E+00    0.209E-01
DAV:   2    -0.101084343704E+03   -0.18816E-02   -0.19560E-02   120   0.471E-01    0.129E-01
DAV:   3    -0.101084293774E+03    0.49930E-04   -0.56795E-04   132   0.951E-02    0.711E-02
DAV:   4    -0.101084306369E+03   -0.12595E-04   -0.21543E-04   132   0.574E-02    0.153E-02
DAV:   5    -0.101084300307E+03    0.60615E-05   -0.48346E-05   132   0.256E-02    0.103E-02
DAV:   6    -0.101084299371E+03    0.93622E-06   -0.76216E-06   132   0.895E-03
  27 F= -.10108430E+03 E0= -.10108430E+03  d E =-.927861E-10
       N       E                     dE             d eps       ncg     rms          rms(c)
DAV:   1    -0.101083203956E+03    0.10964E-02   -0.16731E-01    96   0.118E+00    0.137E-01
DAV:   2    -0.101083986181E+03   -0.78223E-03   -0.81353E-03   120   0.299E-01    0.754E-02
DAV:   3    -0.101083985220E+03    0.96038E-06   -0.26785E-04   144   0.620E-02    0.384E-02
DAV:   4    -0.101083999852E+03   -0.14632E-04   -0.61014E-05   132   0.304E-02    0.976E-03
DAV:   5    -0.101084000853E+03   -0.10004E-05   -0.12711E-05   132   0.135E-02    0.580E-03
DAV:   6    -0.101084003204E+03   -0.23507E-05   -0.33713E-06   132   0.597E-03    0.307E-03
DAV:   7    -0.101084006940E+03   -0.37368E-05   -0.40395E-07   108   0.229E-03    0.127E-03
DAV:   8    -0.101084011306E+03   -0.43651E-05   -0.30400E-07   108   0.179E-03    0.500E-04
DAV:   9    -0.101084014668E+03   -0.33622E-05   -0.15154E-07   108   0.125E-03    0.378E-04
DAV:  10    -0.101084019742E+03   -0.50742E-05   -0.37574E-07   108   0.156E-03    0.205E-04
DAV:  11    -0.101084020623E+03   -0.88110E-06   -0.59729E-08   108   0.775E-04
  28 F= -.10108402E+03 E0= -.10108402E+03  d E =-.569554E-10
       N       E                     dE             d eps       ncg     rms          rms(c)
DAV:   1    -0.101081623978E+03    0.23958E-02   -0.33561E-01    96   0.176E+00    0.236E-01
DAV:   2    -0.101083956883E+03   -0.23329E-02   -0.24618E-02   120   0.518E-01    0.157E-01
DAV:   3    -0.101083820528E+03    0.13636E-03   -0.62390E-04   132   0.102E-01    0.878E-02
DAV:   4    -0.101083815681E+03    0.48463E-05   -0.35331E-04   132   0.709E-02    0.159E-02
DAV:   5    -0.101083810265E+03    0.54168E-05   -0.80607E-05   132   0.324E-02    0.128E-02
DAV:   6    -0.101083808837E+03    0.14277E-05   -0.96035E-06   132   0.966E-03    0.899E-03
DAV:   7    -0.101083817282E+03   -0.84448E-05   -0.17054E-06   132   0.474E-03    0.334E-03
DAV:   8    -0.101083830646E+03   -0.13364E-04   -0.11643E-06   120   0.400E-03    0.107E-03
DAV:   9    -0.101083844822E+03   -0.14176E-04   -0.10824E-06   120   0.277E-03    0.138E-03
DAV:  10    -0.101083863075E+03   -0.18253E-04   -0.10488E-06   120   0.229E-03    0.526E-04
DAV:  11    -0.101083867430E+03   -0.43557E-05   -0.11156E-07   108   0.943E-04    0.422E-04
DAV:  12    -0.101083874416E+03   -0.69857E-05   -0.19899E-07   108   0.926E-04    0.166E-04
DAV:  13    -0.101083877620E+03   -0.32041E-05   -0.84165E-08   108   0.587E-04    0.187E-04
DAV:  14    -0.101083879805E+03   -0.21846E-05   -0.22843E-08   108   0.371E-04    0.110E-04
DAV:  15    -0.101083880673E+03   -0.86843E-06   -0.49112E-09   108   0.225E-04
  29 F= -.10108388E+03 E0= -.10108388E+03  d E =-.530432E-10
       N       E                     dE             d eps       ncg     rms          rms(c)
DAV:   1    -0.101084135740E+03   -0.25594E-03   -0.16802E-01    96   0.122E+00    0.159E-01
DAV:   2    -0.101085046143E+03   -0.91040E-03   -0.96587E-03   132   0.333E-01    0.921E-02
DAV:   3    -0.101085007865E+03    0.38277E-04   -0.27223E-04   144   0.659E-02    0.495E-02
DAV:   4    -0.101085010670E+03   -0.28043E-05   -0.10380E-04   132   0.391E-02    0.114E-02
DAV:   5    -0.101085007632E+03    0.30371E-05   -0.19000E-05   132   0.165E-02    0.706E-03
DAV:   6    -0.101085008510E+03   -0.87793E-06   -0.34236E-06   132   0.620E-03
  30 F= -.10108501E+03 E0= -.10108501E+03  d E =-.528396E-10
       N       E                     dE             d eps       ncg     rms          rms(c)
DAV:   1    -0.101083292240E+03    0.17154E-02   -0.33701E-01    96   0.169E+00    0.255E-01
DAV:   2    -0.101084700147E+03   -0.14079E-02   -0.15360E-02   132   0.427E-01    0.107E-01
DAV:   3    -0.101084673583E+03    0.26564E-04   -0.51684E-04   132   0.848E-02    0.590E-02
DAV:   4    -0.101084693881E+03   -0.20299E-04   -0.11835E-04   132   0.414E-02    0.171E-02
DAV:   5    -0.101084693440E+03    0.44180E-06   -0.23884E-05   132   0.191E-02    0.862E-03
DAV:   6    -0.101084695008E+03   -0.15687E-05   -0.50226E-06   132   0.760E-03    0.537E-03
DAV:   7    -0.101084698893E+03   -0.38846E-05   -0.35071E-07   108   0.220E-03    0.230E-03
DAV:   8    -0.101084703894E+03   -0.50014E-05   -0.43456E-07   108   0.252E-03    0.915E-04
DAV:   9    -0.101084708796E+03   -0.49020E-05   -0.29239E-07   108   0.205E-03    0.554E-04
DAV:  10    -0.101084714630E+03   -0.58339E-05   -0.37868E-07   108   0.196E-03    0.601E-04
DAV:  11    -0.101084716342E+03   -0.17118E-05   -0.10208E-07   108   0.109E-03    0.437E-04
DAV:  12    -0.101084717762E+03   -0.14202E-05   -0.30965E-08   108   0.569E-04    0.170E-04
DAV:  13    -0.101084719197E+03   -0.14348E-05   -0.34627E-08   108   0.439E-04    0.111E-04
DAV:  14    -0.101084720295E+03   -0.10977E-05   -0.23918E-08   108   0.340E-04    0.144E-04
DAV:  15    -0.101084720759E+03   -0.46476E-06   -0.17294E-09   108   0.201E-04
  31 F= -.10108472E+03 E0= -.10108472E+03  d E =-.567744E-10
       N       E                     dE             d eps       ncg     rms          rms(c)
DAV:   1    -0.101082453628E+03    0.22667E-02   -0.17977E-01    96   0.132E+00    0.170E-01
DAV:   2    -0.101083646766E+03   -0.11931E-02   -0.13827E-02   132   0.376E-01    0.907E-02
DAV:   3    -0.101083595168E+03    0.51598E-04   -0.29232E-04   144   0.630E-02    0.527E-02
DAV:   4    -0.101083574114E+03    0.21054E-04   -0.93882E-05   132   0.393E-02    0.108E-02
DAV:   5    -0.101083568162E+03    0.59514E-05   -0.27450E-05   132   0.191E-02    0.747E-03
DAV:   6    -0.101083567733E+03    0.42901E-06   -0.39158E-06   132   0.662E-03
  32 F= -.10108357E+03 E0= -.10108357E+03  d E =-.562422E-10
       N       E                     dE             d eps       ncg     rms          rms(c)
DAV:   1    -0.101082348668E+03    0.12195E-02   -0.40216E-01   120   0.176E+00    0.213E-01
DAV:   2    -0.101083875838E+03   -0.15272E-02   -0.18289E-02   132   0.420E-01    0.127E-01
DAV:   3    -0.101083792799E+03    0.83039E-04   -0.29180E-04   132   0.609E-02    0.663E-02
DAV:   4    -0.101083743836E+03    0.48962E-04   -0.13612E-04   132   0.434E-02    0.112E-02
DAV:   5    -0.101083732535E+03    0.11301E-04   -0.25108E-05   132   0.188E-02    0.761E-03
DAV:   6    -0.101083737183E+03   -0.46477E-05   -0.98651E-06   132   0.856E-03    0.413E-03
DAV:   7    -0.101083751576E+03   -0.14394E-04   -0.12148E-06   108   0.377E-03    0.201E-03
DAV:   8    -0.101083775617E+03   -0.24041E-04   -0.30550E-06   120   0.388E-03    0.121E-03
DAV:   9    -0.101083793351E+03   -0.17733E-04   -0.13737E-06   120   0.269E-03    0.817E-04
DAV:  10    -0.101083808509E+03   -0.15158E-04   -0.12336E-06   120   0.223E-03    0.339E-04
DAV:  11    -0.101083814979E+03   -0.64695E-05   -0.24224E-07   108   0.112E-03    0.310E-04
DAV:  12    -0.101083820007E+03   -0.50282E-05   -0.27136E-07   108   0.101E-03    0.123E-04
DAV:  13    -0.101083821457E+03   -0.14503E-05   -0.39697E-08   108   0.455E-04    0.802E-05
DAV:  14    -0.101083822639E+03   -0.11820E-05   -0.13833E-08   108   0.322E-04    0.537E-05
DAV:  15    -0.101083823091E+03   -0.45241E-06   -0.17010E-09   108   0.189E-04
  33 F= -.10108382E+03 E0= -.10108382E+03  d E =-.707073E-10
       N       E                     dE             d eps       ncg     rms          rms(c)
DAV:   1    -0.101083260687E+03    0.56195E-03   -0.20176E-01    96   0.125E+00    0.149E-01
DAV:   2    -0.101083990803E+03   -0.73012E-03   -0.89721E-03   120   0.288E-01    0.780E-02
DAV:   3    -0.101083948338E+03    0.42465E-04   -0.14778E-04   132   0.416E-02    0.408E-02
DAV:   4    -0.101083920329E+03    0.28009E-04   -0.43485E-05   132   0.254E-02    0.815E-03
DAV:   5    -0.101083913495E+03    0.68335E-05   -0.92309E-06   132   0.120E-02    0.477E-03
DAV:   6    -0.101083914555E+03   -0.10597E-05   -0.34062E-06   132   0.632E-03    0.246E-03
DAV:   7    -0.101083921668E+03   -0.71132E-05   -0.99316E-07   108   0.391E-03    0.131E-03
DAV:   8    -0.101083934369E+03   -0.12700E-04   -0.11000E-06   120   0.317E-03    0.868E-04
DAV:   9    -0.101083946056E+03   -0.11687E-04   -0.62128E-07   108   0.215E-03    0.518E-04
DAV:  10    -0.101083954805E+03   -0.87495E-05   -0.38990E-07   108   0.134E-03    0.285E-04
DAV:  11    -0.101083961255E+03   -0.64493E-05   -0.18017E-07   108   0.862E-04    0.183E-04
DAV:  12    -0.101083964791E+03   -0.35365E-05   -0.65283E-08   108   0.556E-04    0.912E-05
DAV:  13    -0.101083967054E+03   -0.22629E-05   -0.43537E-08   108   0.421E-04    0.525E-05
DAV:  14    -0.101083968061E+03   -0.10067E-05   -0.61268E-09   108   0.242E-04    0.315E-05
DAV:  15    -0.101083968505E+03   -0.44450E-06    0.58202E-10   108   0.157E-04
  34 F= -.10108397E+03 E0= -.10108397E+03  d E =-.693868E-10
       N       E                     dE             d eps       ncg     rms          rms(c)
DAV:   1    -0.101082811832E+03    0.11562E-02   -0.40299E-01    96   0.175E+00    0.217E-01
DAV:   2    -0.101084250730E+03   -0.14389E-02   -0.17898E-02   120   0.406E-01    0.115E-01
DAV:   3    -0.101084152871E+03    0.97859E-04   -0.29541E-04   132   0.585E-02    0.605E-02
DAV:   4    -0.101084078196E+03    0.74675E-04   -0.89636E-05   132   0.351E-02    0.114E-02
DAV:   5    -0.101084075011E+03    0.31852E-05   -0.15791E-05   132   0.159E-02    0.687E-03
DAV:   6    -0.101084093752E+03   -0.18741E-04   -0.85830E-06   132   0.979E-03    0.336E-03
DAV:   7    -0.101084121626E+03   -0.27874E-04   -0.40848E-06   132   0.636E-03    0.224E-03
DAV:   8    -0.101084155617E+03   -0.33991E-04   -0.26284E-06   108   0.393E-03    0.111E-03
DAV:   9    -0.101084182269E+03   -0.26652E-04   -0.24892E-06   120   0.345E-03    0.871E-04
DAV:  10    -0.101084204377E+03   -0.22108E-04   -0.21834E-06   120   0.290E-03    0.329E-04
DAV:  11    -0.101084211815E+03   -0.74382E-05   -0.35757E-07   108   0.137E-03    0.293E-04
DAV:  12    -0.101084216512E+03   -0.46964E-05   -0.20588E-07   108   0.898E-04    0.121E-04
DAV:  13    -0.101084218200E+03   -0.16887E-05   -0.55486E-08   108   0.480E-04    0.671E-05
DAV:  14    -0.101084219231E+03   -0.10309E-05   -0.13862E-08   108   0.316E-04    0.465E-05
DAV:  15    -0.101084219601E+03   -0.36984E-06    0.64571E-11   108   0.170E-04
  35 F= -.10108422E+03 E0= -.10108422E+03  d E =-.494653E-10
       N       E                     dE             d eps       ncg     rms          rms(c)
DAV:   1    -0.101084195479E+03    0.23752E-04   -0.20292E-01   108   0.124E+00    0.144E-01
DAV:   2    -0.101084899424E+03   -0.70395E-03   -0.84770E-03   132   0.267E-01    0.693E-02
DAV:   3    -0.101084871270E+03    0.28155E-04   -0.15815E-04   132   0.440E-02    0.359E-02
DAV:   4    -0.101084858353E+03    0.12917E-04   -0.44140E-05   132   0.292E-02    0.776E-03
DAV:   5    -0.101084855234E+03    0.31189E-05   -0.14541E-05   132   0.142E-02    0.526E-03
DAV:   6    -0.101084855912E+03   -0.67805E-06   -0.23587E-06   132   0.481E-03
  36 F= -.10108486E+03 E0= -.10108486E+03  d E =-.271037E-10
       N       E                     dE             d eps       ncg     rms          rms(c)
DAV:   1    -0.101083653887E+03    0.12013E-02   -0.40726E-01    96   0.169E+00    0.187E-01
DAV:   2    -0.101084995725E+03   -0.13418E-02   -0.16094E-02   132   0.358E-01    0.921E-02
DAV:   3    -0.101084957851E+03    0.37874E-04   -0.28324E-04   132   0.569E-02    0.488E-02
DAV:   4    -0.101084937966E+03    0.19885E-04   -0.75557E-05   132   0.381E-02    0.959E-03
DAV:   5    -0.101084934809E+03    0.31564E-05   -0.24826E-05   132   0.189E-02    0.710E-03
DAV:   6    -0.101084937655E+03   -0.28456E-05   -0.43754E-06   132   0.685E-03    0.454E-03
DAV:   7    -0.101084945363E+03   -0.77079E-05   -0.76080E-07   108   0.405E-03    0.168E-03
DAV:   8    -0.101084955469E+03   -0.10106E-04   -0.11695E-06   120   0.388E-03    0.126E-03
DAV:   9    -0.101084971906E+03   -0.16438E-04   -0.11933E-06   120   0.336E-03    0.607E-04
DAV:  10    -0.101084978885E+03   -0.69785E-05   -0.36794E-07   108   0.185E-03    0.623E-04
DAV:  11    -0.101084983933E+03   -0.50485E-05   -0.12503E-07   108   0.984E-04    0.291E-04
DAV:  12    -0.101084989177E+03   -0.52437E-05   -0.18103E-07   108   0.885E-04    0.284E-04
DAV:  13    -0.101084990717E+03   -0.15394E-05   -0.23211E-08   108   0.410E-04    0.169E-04
DAV:  14    -0.101084992716E+03   -0.19997E-05   -0.48286E-08    96   0.433E-04    0.541E-05
DAV:  15    -0.101084993230E+03   -0.51401E-06   -0.82519E-10   120   0.196E-04
  37 F= -.10108499E+03 E0= -.10108499E+03  d E =-.882070E-11
       N       E                     dE             d eps       ncg     rms          rms(c)
DAV:   1    -0.101084164085E+03    0.82863E-03   -0.19499E-01    96   0.122E+00    0.130E-01
DAV:   2    -0.101084899597E+03   -0.73551E-03   -0.90893E-03   132   0.270E-01    0.635E-02
DAV:   3    -0.101084875422E+03    0.24175E-04   -0.16503E-04   144   0.422E-02    0.349E-02
DAV:   4    -0.101084851825E+03    0.23597E-04   -0.29366E-05   132   0.247E-02    0.739E-03
DAV:   5    -0.101084847582E+03    0.42435E-05   -0.11141E-05   132   0.131E-02    0.491E-03
DAV:   6    -0.101084850005E+03   -0.24231E-05   -0.24346E-06   132   0.535E-03    0.334E-03
DAV:   7    -0.101084856771E+03   -0.67661E-05   -0.44812E-07   108   0.266E-03    0.141E-03
DAV:   8    -0.101084866747E+03   -0.99762E-05   -0.99750E-07   120   0.306E-03    0.990E-04
DAV:   9    -0.101084879516E+03   -0.12768E-04   -0.94150E-07   108   0.270E-03    0.523E-04
DAV:  10    -0.101084885600E+03   -0.60846E-05   -0.47467E-07   108   0.166E-03    0.550E-04
DAV:  11    -0.101084888301E+03   -0.27003E-05   -0.55278E-08   108   0.758E-04    0.275E-04
DAV:  12    -0.101084892016E+03   -0.37157E-05   -0.14563E-07   108   0.847E-04    0.238E-04
DAV:  13    -0.101084893453E+03   -0.14365E-05   -0.41307E-08   108   0.450E-04    0.221E-04
DAV:  14    -0.101084894418E+03   -0.96485E-06   -0.13361E-08   108   0.328E-04
  38 F= -.10108489E+03 E0= -.10108489E+03  d E =-.487364E-11
       N       E                     dE             d eps       ncg     rms          rms(c)
DAV:   1    -0.101083687000E+03    0.12065E-02   -0.40417E-01    96   0.157E+00    0.177E-01
DAV:   2    -0.101085024576E+03   -0.13376E-02   -0.16124E-02   120   0.347E-01    0.882E-02
DAV:   3    -0.101084969792E+03    0.54784E-04   -0.31111E-04   144   0.623E-02    0.456E-02
DAV:   4    -0.101084939537E+03    0.30255E-04   -0.73069E-05   132   0.380E-02    0.978E-03
DAV:   5    -0.101084935882E+03    0.36551E-05   -0.22915E-05   132   0.185E-02    0.694E-03
DAV:   6    -0.101084939445E+03   -0.35638E-05   -0.42805E-06   132   0.677E-03    0.427E-03
DAV:   7    -0.101084948308E+03   -0.88622E-05   -0.74123E-07   120   0.314E-03    0.191E-03
DAV:   8    -0.101084961522E+03   -0.13214E-04   -0.10614E-06   120   0.315E-03    0.978E-04
DAV:   9    -0.101084977837E+03   -0.16315E-04   -0.14170E-06   120   0.310E-03    0.704E-04
DAV:  10    -0.101084987696E+03   -0.98587E-05   -0.75881E-07   120   0.214E-03    0.527E-04
DAV:  11    -0.101084991352E+03   -0.36563E-05   -0.81929E-08   108   0.941E-04    0.267E-04
DAV:  12    -0.101084994828E+03   -0.34759E-05   -0.12126E-07   108   0.767E-04    0.206E-04
DAV:  13    -0.101084996832E+03   -0.20034E-05   -0.52611E-08   108   0.482E-04    0.121E-04
DAV:  14    -0.101084997889E+03   -0.10568E-05   -0.16155E-08   108   0.296E-04    0.613E-05
DAV:  15    -0.101084998432E+03   -0.54380E-06    0.70708E-10   108   0.169E-04
  39 F= -.10108500E+03 E0= -.10108500E+03  d E =-.824908E-10
       N       E                     dE             d eps       ncg     rms          rms(c)
DAV:   1    -0.101083456643E+03    0.15412E-02   -0.19838E-01    96   0.111E+00    0.139E-01
DAV:   2    -0.101084210756E+03   -0.75411E-03   -0.94300E-03   132   0.250E-01    0.807E-02
DAV:   3    -0.101084152940E+03    0.57816E-04   -0.14912E-04   132   0.424E-02    0.401E-02
DAV:   4    -0.101084125366E+03    0.27574E-04   -0.54412E-05   132   0.279E-02    0.780E-03
DAV:   5    -0.101084118911E+03    0.64547E-05   -0.11651E-05   132   0.124E-02    0.457E-03
DAV:   6    -0.101084120850E+03   -0.19395E-05   -0.32658E-06   132   0.487E-03    0.247E-03
DAV:   7    -0.101084128740E+03   -0.78900E-05   -0.56159E-07   108   0.237E-03    0.124E-03
DAV:   8    -0.101084142391E+03   -0.13650E-04   -0.99877E-07   120   0.226E-03    0.755E-04
DAV:   9    -0.101084153522E+03   -0.11131E-04   -0.54663E-07   120   0.161E-03    0.555E-04
DAV:  10    -0.101084163671E+03   -0.10149E-04   -0.44297E-07   108   0.133E-03    0.238E-04
DAV:  11    -0.101084167025E+03   -0.33545E-05   -0.88842E-08   108   0.641E-04    0.192E-04
DAV:  12    -0.101084171356E+03   -0.43303E-05   -0.11704E-07   108   0.695E-04    0.874E-05
DAV:  13    -0.101084172578E+03   -0.12219E-05   -0.20385E-08   108   0.343E-04    0.614E-05
DAV:  14    -0.101084173680E+03   -0.11022E-05   -0.75696E-09   108   0.254E-04    0.316E-05
DAV:  15    -0.101084174059E+03   -0.37919E-06    0.23652E-09   108   0.144E-04
  40 F= -.10108417E+03 E0= -.10108417E+03  d E =-.832976E-10
       N       E                     dE             d eps       ncg     rms          rms(c)
DAV:   1    -0.101083229140E+03    0.94454E-03   -0.39927E-01    96   0.156E+00    0.191E-01
DAV:   2    -0.101084682797E+03   -0.14537E-02   -0.17926E-02   132   0.352E-01    0.107E-01
DAV:   3    -0.101084591754E+03    0.91043E-04   -0.28777E-04   132   0.590E-02    0.547E-02
DAV:   4    -0.101084542282E+03    0.49471E-04   -0.92664E-05   132   0.384E-02    0.107E-02
DAV:   5    -0.101084536316E+03    0.59659E-05   -0.23121E-05   132   0.180E-02    0.635E-03
DAV:   6    -0.101084545457E+03   -0.91408E-05   -0.59981E-06   132   0.701E-03    0.365E-03
DAV:   7    -0.101084563688E+03   -0.18231E-04   -0.14558E-06   120   0.345E-03    0.178E-03
DAV:   8    -0.101084587434E+03   -0.23746E-04   -0.21222E-06   132   0.322E-03    0.105E-03
DAV:   9    -0.101084606071E+03   -0.18638E-04   -0.14506E-06   120   0.253E-03    0.725E-04
DAV:  10    -0.101084622212E+03   -0.16140E-04   -0.14925E-06   120   0.226E-03    0.351E-04
DAV:  11    -0.101084626804E+03   -0.45922E-05   -0.12622E-07   108   0.926E-04    0.249E-04
DAV:  12    -0.101084632006E+03   -0.52021E-05   -0.23376E-07   108   0.955E-04    0.155E-04
DAV:  13    -0.101084633337E+03   -0.13311E-05   -0.41651E-08   108   0.439E-04    0.891E-05
DAV:  14    -0.101084634463E+03   -0.11259E-05   -0.10859E-08   108   0.300E-04    0.401E-05
DAV:  15    -0.101084634871E+03   -0.40802E-06    0.25937E-10   108   0.173E-04
  41 F= -.10108463E+03 E0= -.10108463E+03  d E =-.699708E-10
       N       E                     dE             d eps       ncg     rms          rms(c)
DAV:   1    -0.101084389998E+03    0.24446E-03   -0.19843E-01    96   0.111E+00    0.136E-01
DAV:   2    -0.101085163089E+03   -0.77309E-03   -0.95803E-03   132   0.256E-01    0.793E-02
DAV:   3    -0.101085107779E+03    0.55309E-04   -0.14728E-04   132   0.426E-02    0.397E-02
DAV:   4    -0.101085081087E+03    0.26692E-04   -0.54895E-05   132   0.281E-02    0.769E-03
DAV:   5    -0.101085074857E+03    0.62296E-05   -0.12031E-05   132   0.127E-02    0.473E-03
DAV:   6    -0.101085076424E+03   -0.15664E-05   -0.32851E-06   132   0.505E-03    0.259E-03
DAV:   7    -0.101085083860E+03   -0.74361E-05   -0.60348E-07   108   0.254E-03    0.126E-03
DAV:   8    -0.101085096620E+03   -0.12760E-04   -0.90302E-07   120   0.222E-03    0.742E-04
DAV:   9    -0.101085108413E+03   -0.11793E-04   -0.62104E-07   120   0.170E-03    0.544E-04
DAV:  10    -0.101085118495E+03   -0.10082E-04   -0.44888E-07   108   0.135E-03    0.242E-04
DAV:  11    -0.101085122309E+03   -0.38144E-05   -0.10075E-07   108   0.689E-04    0.172E-04
DAV:  12    -0.101085126238E+03   -0.39289E-05   -0.10759E-07   108   0.653E-04    0.848E-05
DAV:  13    -0.101085127493E+03   -0.12545E-05   -0.18017E-08   108   0.329E-04    0.535E-05
DAV:  14    -0.101085128512E+03   -0.10192E-05   -0.76186E-09   108   0.239E-04    0.301E-05
DAV:  15    -0.101085128906E+03   -0.39427E-06    0.24918E-09   108   0.138E-04
  42 F= -.10108513E+03 E0= -.10108513E+03  d E =-.830312E-11
       N       E                     dE             d eps       ncg     rms          rms(c)
DAV:   1    -0.101083526230E+03    0.16023E-02   -0.40404E-01    96   0.156E+00    0.173E-01
DAV:   2    -0.101084828007E+03   -0.13018E-02   -0.15792E-02   120   0.340E-01    0.868E-02
DAV:   3    -0.101084777731E+03    0.50276E-04   -0.30523E-04   144   0.609E-02    0.439E-02
DAV:   4    -0.101084749609E+03    0.28122E-04   -0.64185E-05   132   0.364E-02    0.952E-03
DAV:   5    -0.101084745702E+03    0.39068E-05   -0.22226E-05   132   0.178E-02    0.623E-03
DAV:   6    -0.101084749489E+03   -0.37868E-05   -0.38529E-06   132   0.639E-03    0.368E-03
DAV:   7    -0.101084758580E+03   -0.90906E-05   -0.63150E-07   108   0.293E-03    0.168E-03
DAV:   8    -0.101084771420E+03   -0.12840E-04   -0.10281E-06   120   0.297E-03    0.933E-04
DAV:   9    -0.101084786603E+03   -0.15184E-04   -0.11761E-06   120   0.283E-03    0.552E-04
DAV:  10    -0.101084795956E+03   -0.93525E-05   -0.66169E-07   120   0.195E-03    0.406E-04
DAV:  11    -0.101084799773E+03   -0.38175E-05   -0.85914E-08   108   0.897E-04    0.196E-04
DAV:  12    -0.101084803340E+03   -0.35663E-05   -0.12034E-07   108   0.722E-04    0.164E-04
DAV:  13    -0.101084805172E+03   -0.18325E-05   -0.49844E-08   108   0.446E-04    0.832E-05
DAV:  14    -0.101084806140E+03   -0.96777E-06   -0.96460E-09   108   0.259E-04
  43 F= -.10108481E+03 E0= -.10108481E+03  d E =-.575145E-10
       N       E                     dE             d eps       ncg     rms          rms(c)
DAV:   1    -0.101082789778E+03    0.20154E-02   -0.19548E-01    96   0.129E+00    0.143E-01
DAV:   2    -0.101083871907E+03   -0.10821E-02   -0.13226E-02   120   0.333E-01    0.778E-02
DAV:   3    -0.101083839779E+03    0.32128E-04   -0.25615E-04   156   0.519E-02    0.437E-02
DAV:   4    -0.101083813551E+03    0.26227E-04   -0.49411E-05   132   0.286E-02    0.914E-03
DAV:   5    -0.101083805360E+03    0.81912E-05   -0.13389E-05   132   0.140E-02    0.515E-03
DAV:   6    -0.101083805768E+03   -0.40777E-06   -0.31375E-06   132   0.666E-03
  44 F= -.10108381E+03 E0= -.10108381E+03  d E =-.698953E-10
       N       E                     dE             d eps       ncg     rms          rms(c)
DAV:   1    -0.101082503820E+03    0.13015E-02   -0.40244E-01    96   0.186E+00    0.204E-01
DAV:   2    -0.101084116239E+03   -0.16124E-02   -0.19267E-02   120   0.441E-01    0.120E-01
DAV:   3    -0.101084036936E+03    0.79302E-04   -0.28993E-04   132   0.581E-02    0.652E-02
DAV:   4    -0.101083962338E+03    0.74599E-04   -0.11501E-04   132   0.378E-02    0.108E-02
DAV:   5    -0.101083951392E+03    0.10945E-04   -0.18451E-05   132   0.167E-02    0.647E-03
DAV:   6    -0.101083961811E+03   -0.10418E-04   -0.98352E-06   132   0.103E-02    0.333E-03
DAV:   7    -0.101083985023E+03   -0.23213E-04   -0.38357E-06   132   0.630E-03    0.208E-03
DAV:   8    -0.101084013064E+03   -0.28041E-04   -0.22463E-06   120   0.380E-03    0.105E-03
DAV:   9    -0.101084037183E+03   -0.24118E-04   -0.22569E-06   120   0.329E-03    0.802E-04
DAV:  10    -0.101084057660E+03   -0.20477E-04   -0.20077E-06   120   0.274E-03    0.348E-04
DAV:  11    -0.101084064021E+03   -0.63614E-05   -0.27046E-07   108   0.117E-03    0.234E-04
DAV:  12    -0.101084068362E+03   -0.43415E-05   -0.20419E-07   108   0.900E-04    0.152E-04
DAV:  13    -0.101084069782E+03   -0.14196E-05   -0.33792E-08   108   0.452E-04    0.644E-05
DAV:  14    -0.101084070693E+03   -0.91122E-06   -0.99226E-09   108   0.302E-04
  45 F= -.10108407E+03 E0= -.10108407E+03  d E =-.539578E-10
       N       E                     dE             d eps       ncg     rms          rms(c)
DAV:   1    -0.101084394059E+03   -0.32428E-03   -0.20206E-01   120   0.130E+00    0.148E-01
DAV:   2    -0.101085178890E+03   -0.78483E-03   -0.94714E-03   132   0.304E-01    0.781E-02
DAV:   3    -0.101085140508E+03    0.38382E-04   -0.17118E-04   132   0.447E-02    0.418E-02
DAV:   4    -0.101085117984E+03    0.22525E-04   -0.52762E-05   132   0.293E-02    0.845E-03
DAV:   5    -0.101085112472E+03    0.55111E-05   -0.13851E-05   132   0.140E-02    0.543E-03
DAV:   6    -0.101085113191E+03   -0.71859E-06   -0.35541E-06   132   0.587E-03
  46 F= -.10108511E+03 E0= -.10108511E+03  d E =-.330174E-10
       N       E                     dE             d eps       ncg     rms          rms(c)
DAV:   1    -0.101083669466E+03    0.14430E-02   -0.40847E-01   120   0.176E+00    0.198E-01
DAV:   2    -0.101085135533E+03   -0.14661E-02   -0.17263E-02   132   0.371E-01    0.866E-02
DAV:   3    -0.101085117693E+03    0.17840E-04   -0.33841E-04   144   0.621E-02    0.465E-02
DAV:   4    -0.101085115695E+03    0.19985E-05   -0.67135E-05   132   0.400E-02    0.102E-02
DAV:   5    -0.101085117039E+03   -0.13448E-05   -0.31519E-05   132   0.209E-02    0.737E-03
DAV:   6    -0.101085118704E+03   -0.16646E-05   -0.33249E-06   132   0.602E-03    0.522E-03
DAV:   7    -0.101085122906E+03   -0.42024E-05   -0.58009E-07   108   0.301E-03    0.204E-03
DAV:   8    -0.101085127846E+03   -0.49396E-05   -0.82141E-07   108   0.331E-03    0.122E-03
DAV:   9    -0.101085137117E+03   -0.92708E-05   -0.75882E-07   108   0.346E-03    0.802E-04
DAV:  10    -0.101085140949E+03   -0.38322E-05   -0.38163E-07   108   0.197E-03    0.941E-04
DAV:  11    -0.101085142104E+03   -0.11550E-05   -0.38064E-08   108   0.797E-04    0.709E-04
DAV:  12    -0.101085145117E+03   -0.30134E-05   -0.69678E-08   108   0.759E-04    0.170E-04
DAV:  13    -0.101085147271E+03   -0.21531E-05   -0.62795E-08   108   0.611E-04    0.280E-04
DAV:  14    -0.101085148538E+03   -0.12674E-05   -0.16618E-08   108   0.401E-04    0.717E-05
DAV:  15    -0.101085149290E+03   -0.75230E-06   -0.11792E-08   108   0.271E-04
  47 F= -.10108515E+03 E0= -.10108515E+03  d E =-.554519E-11
       N       E                     dE             d eps       ncg     rms          rms(c)
DAV:   1    -0.101082949901E+03    0.21986E-02   -0.20437E-01   120   0.131E+00    0.146E-01
DAV:   2    -0.101083643600E+03   -0.69370E-03   -0.83627E-03   132   0.290E-01    0.709E-02
DAV:   3    -0.101083612850E+03    0.30750E-04   -0.16592E-04   144   0.446E-02    0.365E-02
DAV:   4    -0.101083600546E+03    0.12304E-04   -0.43275E-05   132   0.291E-02    0.779E-03
DAV:   5    -0.101083597231E+03    0.33148E-05   -0.15311E-05   132   0.145E-02    0.499E-03
DAV:   6    -0.101083597845E+03   -0.61418E-06   -0.26029E-06   132   0.522E-03
  48 F= -.10108360E+03 E0= -.10108360E+03  d E =-.485911E-10
       N       E                     dE             d eps       ncg     rms          rms(c)
DAV:   1    -0.101082185252E+03    0.14120E-02   -0.40322E-01   120   0.187E+00    0.213E-01
DAV:   2    -0.101083746167E+03   -0.15609E-02   -0.18838E-02   132   0.445E-01    0.128E-01
DAV:   3    -0.101083642770E+03    0.10340E-03   -0.28438E-04   132   0.601E-02    0.673E-02
DAV:   4    -0.101083588383E+03    0.54386E-04   -0.14224E-04   132   0.441E-02    0.112E-02
DAV:   5    -0.101083577805E+03    0.10578E-04   -0.28018E-05   132   0.195E-02    0.699E-03
DAV:   6    -0.101083587032E+03   -0.92270E-05   -0.11108E-05   132   0.911E-03    0.399E-03
DAV:   7    -0.101083607513E+03   -0.20481E-04   -0.15883E-06   120   0.408E-03    0.207E-03
DAV:   8    -0.101083639160E+03   -0.31647E-04   -0.36574E-06   120   0.432E-03    0.113E-03
DAV:   9    -0.101083659006E+03   -0.19846E-04   -0.15716E-06   120   0.281E-03    0.809E-04
DAV:  10    -0.101083676621E+03   -0.17615E-04   -0.15356E-06   120   0.246E-03    0.327E-04
DAV:  11    -0.101083683559E+03   -0.69379E-05   -0.28643E-07   108   0.119E-03    0.279E-04
DAV:  12    -0.101083688913E+03   -0.53536E-05   -0.31241E-07   108   0.106E-03    0.125E-04
DAV:  13    -0.101083690197E+03   -0.12842E-05   -0.39749E-08   108   0.441E-04    0.801E-05
DAV:  14    -0.101083691357E+03   -0.11598E-05   -0.15297E-08   108   0.329E-04    0.505E-05
DAV:  15    -0.101083691766E+03   -0.40944E-06   -0.11801E-09   108   0.188E-04
  49 F= -.10108369E+03 E0= -.10108369E+03  d E =-.840277E-10
       N       E                     dE             d eps       ncg     rms          rms(c)
DAV:   1    -0.101083882090E+03   -0.19073E-03   -0.20058E-01    96   0.133E+00    0.156E-01
DAV:   2    -0.101084903956E+03   -0.10219E-02   -0.12367E-02   132   0.346E-01    0.824E-02
DAV:   3    -0.101084855473E+03    0.48484E-04   -0.24134E-04   144   0.533E-02    0.464E-02
DAV:   4    -0.101084823953E+03    0.31520E-04   -0.65178E-05   132   0.336E-02    0.932E-03
DAV:   5    -0.101084814848E+03    0.91048E-05   -0.19889E-05   132   0.169E-02    0.668E-03
DAV:   6    -0.101084815595E+03   -0.74682E-06   -0.40106E-06   132   0.684E-03
  50 F= -.10108482E+03 E0= -.10108482E+03  d E =-.512114E-10
       N       E                     dE             d eps       ncg     rms          rms(c)
DAV:   1    -0.101083443346E+03    0.13715E-02   -0.40914E-01    96   0.169E+00    0.221E-01
DAV:   2    -0.101084828985E+03   -0.13856E-02   -0.16335E-02   132   0.372E-01    0.101E-01
DAV:   3    -0.101084785060E+03    0.43925E-04   -0.33434E-04   132   0.639E-02    0.533E-02
DAV:   4    -0.101084779202E+03    0.58577E-05   -0.94229E-05   132   0.422E-02    0.124E-02
DAV:   5    -0.101084777570E+03    0.16324E-05   -0.30170E-05   132   0.209E-02    0.854E-03
DAV:   6    -0.101084778597E+03   -0.10274E-05   -0.46022E-06   132   0.711E-03    0.539E-03
DAV:   7    -0.101084782995E+03   -0.43980E-05   -0.69176E-07   108   0.337E-03    0.225E-03
DAV:   8    -0.101084789418E+03   -0.64232E-05   -0.81092E-07   108   0.319E-03    0.958E-04
DAV:   9    -0.101084800032E+03   -0.10613E-04   -0.76562E-07   108   0.298E-03    0.605E-04
DAV:  10    -0.101084805654E+03   -0.56226E-05   -0.39748E-07   108   0.188E-03    0.529E-04
DAV:  11    -0.101084808258E+03   -0.26041E-05   -0.64459E-08   108   0.895E-04    0.369E-04
DAV:  12    -0.101084811960E+03   -0.37022E-05   -0.10497E-07   108   0.797E-04    0.182E-04
DAV:  13    -0.101084813368E+03   -0.14072E-05   -0.29593E-08   108   0.421E-04    0.204E-04
DAV:  14    -0.101084814695E+03   -0.13272E-05   -0.19994E-08   108   0.365E-04    0.591E-05
DAV:  15    -0.101084815229E+03   -0.53406E-06   -0.31007E-09   108   0.214E-04
  51 F= -.10108482E+03 E0= -.10108482E+03  d E =-.495952E-10
       N       E                     dE             d eps       ncg     rms          rms(c)
DAV:   1    -0.101083497651E+03    0.13170E-02   -0.20158E-01    96   0.121E+00    0.151E-01
DAV:   2    -0.101084314149E+03   -0.81650E-03   -0.98946E-03   132   0.285E-01    0.865E-02
DAV:   3    -0.101084256199E+03    0.57951E-04   -0.15149E-04   132   0.422E-02    0.470E-02
DAV:   4    -0.101084218360E+03    0.37839E-04   -0.58520E-05   132   0.279E-02    0.848E-03
DAV:   5    -0.101084213570E+03    0.47891E-05   -0.11053E-05   132   0.127E-02    0.493E-03
DAV:   6    -0.101084221508E+03   -0.79371E-05   -0.44035E-06   132   0.618E-03    0.276E-03
DAV:   7    -0.101084238073E+03   -0.16566E-04   -0.16932E-06   108   0.402E-03    0.136E-03
DAV:   8    -0.101084258719E+03   -0.20646E-04   -0.18422E-06   120   0.344E-03    0.902E-04
DAV:   9    -0.101084272568E+03   -0.13848E-04   -0.11125E-06   120   0.241E-03    0.621E-04
DAV:  10    -0.101084282811E+03   -0.10243E-04   -0.70147E-07   120   0.167E-03    0.311E-04
DAV:  11    -0.101084286921E+03   -0.41103E-05   -0.14886E-07   108   0.827E-04    0.233E-04
DAV:  12    -0.101084290836E+03   -0.39150E-05   -0.21229E-07   108   0.880E-04    0.112E-04
DAV:  13    -0.101084291756E+03   -0.91990E-06   -0.25274E-08   108   0.377E-04
  52 F= -.10108429E+03 E0= -.10108429E+03  d E =-.552030E-10
       N       E                     dE             d eps       ncg     rms          rms(c)
DAV:   1    -0.101082646688E+03    0.16441E-02   -0.40405E-01    96   0.170E+00    0.214E-01
DAV:   2    -0.101084178898E+03   -0.15322E-02   -0.18521E-02   120   0.396E-01    0.117E-01
DAV:   3    -0.101084080722E+03    0.98177E-04   -0.31502E-04   132   0.614E-02    0.616E-02
DAV:   4    -0.101084024715E+03    0.56007E-04   -0.10302E-04   132   0.375E-02    0.118E-02
DAV:   5    -0.101084011364E+03    0.13352E-04   -0.19235E-05   132   0.173E-02    0.684E-03
DAV:   6    -0.101084014176E+03   -0.28123E-05   -0.72159E-06   132   0.871E-03    0.379E-03
DAV:   7    -0.101084029942E+03   -0.15766E-04   -0.24218E-06   132   0.556E-03    0.184E-03
DAV:   8    -0.101084052248E+03   -0.22306E-04   -0.15639E-06   120   0.405E-03    0.124E-03
DAV:   9    -0.101084073073E+03   -0.20825E-04   -0.12869E-06   120   0.287E-03    0.805E-04
DAV:  10    -0.101084089869E+03   -0.16796E-04   -0.72475E-07   120   0.185E-03    0.405E-04
DAV:  11    -0.101084098194E+03   -0.83247E-05   -0.17380E-07   108   0.949E-04    0.287E-04
DAV:  12    -0.101084106619E+03   -0.84252E-05   -0.25170E-07   108   0.989E-04    0.143E-04
DAV:  13    -0.101084109099E+03   -0.24801E-05   -0.37093E-08   108   0.453E-04    0.891E-05
DAV:  14    -0.101084110788E+03   -0.16889E-05   -0.11966E-08   108   0.306E-04    0.452E-05
DAV:  15    -0.101084111419E+03   -0.63115E-06   -0.15001E-09   108   0.183E-04
  53 F= -.10108411E+03 E0= -.10108411E+03  d E =-.528117E-10
       N       E                     dE             d eps       ncg     rms          rms(c)
DAV:   1    -0.101082794385E+03    0.13164E-02   -0.20041E-01    96   0.118E+00    0.154E-01
DAV:   2    -0.101083677702E+03   -0.88332E-03   -0.10614E-02   132   0.301E-01    0.922E-02
DAV:   3    -0.101083616861E+03    0.60842E-04   -0.15099E-04   132   0.430E-02    0.508E-02
DAV:   4    -0.101083585337E+03    0.31523E-04   -0.74673E-05   132   0.320E-02    0.825E-03
DAV:   5    -0.101083579516E+03    0.58210E-05   -0.16481E-05   132   0.147E-02    0.541E-03
DAV:   6    -0.101083583698E+03   -0.41816E-05   -0.55217E-06   132   0.636E-03    0.318E-03
DAV:   7    -0.101083595334E+03   -0.11636E-04   -0.84518E-07   108   0.286E-03    0.162E-03
DAV:   8    -0.101083615014E+03   -0.19680E-04   -0.21493E-06   120   0.315E-03    0.930E-04
DAV:   9    -0.101083627078E+03   -0.12064E-04   -0.67369E-07   108   0.197E-03    0.678E-04
DAV:  10    -0.101083640114E+03   -0.13036E-04   -0.11780E-06   120   0.198E-03    0.256E-04
DAV:  11    -0.101083644465E+03   -0.43514E-05   -0.13382E-07   108   0.907E-04    0.229E-04
DAV:  12    -0.101083647766E+03   -0.33012E-05   -0.10279E-07   108   0.677E-04    0.125E-04
DAV:  13    -0.101083649141E+03   -0.13748E-05   -0.31186E-08   108   0.381E-04    0.874E-05
DAV:  14    -0.101083650080E+03   -0.93930E-06   -0.65684E-09   108   0.252E-04
  54 F= -.10108365E+03 E0= -.10108365E+03  d E =-.563122E-10
       N       E                     dE             d eps       ncg     rms          rms(c)
DAV:   1    -0.101082053905E+03    0.15952E-02   -0.39569E-01   108   0.164E+00    0.210E-01
DAV:   2    -0.101083706960E+03   -0.16531E-02   -0.20183E-02   132   0.404E-01    0.133E-01
DAV:   3    -0.101083581558E+03    0.12540E-03   -0.28844E-04   132   0.603E-02    0.732E-02
DAV:   4    -0.101083520885E+03    0.60673E-04   -0.15300E-04   132   0.450E-02    0.116E-02
DAV:   5    -0.101083514850E+03    0.60348E-05   -0.30862E-05   132   0.203E-02    0.756E-03
DAV:   6    -0.101083529153E+03   -0.14303E-04   -0.11899E-05   132   0.894E-03    0.424E-03
DAV:   7    -0.101083557320E+03   -0.28168E-04   -0.23582E-06   132   0.440E-03    0.215E-03
DAV:   8    -0.101083598989E+03   -0.41669E-04   -0.50372E-06   132   0.480E-03    0.134E-03
DAV:   9    -0.101083619828E+03   -0.20839E-04   -0.15128E-06   120   0.267E-03    0.961E-04
DAV:  10    -0.101083641948E+03   -0.22121E-04   -0.20583E-06   108   0.272E-03    0.406E-04
DAV:  11    -0.101083649522E+03   -0.75730E-05   -0.30919E-07   108   0.122E-03    0.336E-04
DAV:  12    -0.101083655304E+03   -0.57823E-05   -0.30427E-07   108   0.105E-03    0.139E-04
DAV:  13    -0.101083656943E+03   -0.16392E-05   -0.46194E-08   108   0.465E-04    0.975E-05
DAV:  14    -0.101083658479E+03   -0.15359E-05   -0.25501E-08   108   0.372E-04    0.554E-05
DAV:  15    -0.101083658841E+03   -0.36241E-06   -0.71370E-10   108   0.173E-04
  55 F= -.10108366E+03 E0= -.10108366E+03  d E =-.500674E-10
       N       E                     dE             d eps       ncg     rms          rms(c)
DAV:   1    -0.101083770080E+03   -0.11160E-03   -0.19747E-01    96   0.134E+00    0.145E-01
DAV:   2    -0.101084854420E+03   -0.10843E-02   -0.12935E-02   132   0.346E-01    0.840E-02
DAV:   3    -0.101084821436E+03    0.32984E-04   -0.19895E-04   132   0.469E-02    0.488E-02
DAV:   4    -0.101084795961E+03    0.25474E-04   -0.69255E-05   144   0.309E-02    0.809E-03
DAV:   5    -0.101084790081E+03    0.58803E-05   -0.13106E-05   132   0.129E-02    0.507E-03
DAV:   6    -0.101084792564E+03   -0.24827E-05   -0.42078E-06   132   0.640E-03    0.273E-03
DAV:   7    -0.101084802417E+03   -0.98531E-05   -0.11621E-06   108   0.353E-03    0.133E-03
DAV:   8    -0.101084818383E+03   -0.15966E-04   -0.98754E-07   108   0.257E-03    0.751E-04
DAV:   9    -0.101084831150E+03   -0.12767E-04   -0.86363E-07   108   0.204E-03    0.605E-04
DAV:  10    -0.101084843941E+03   -0.12791E-04   -0.84332E-07   108   0.183E-03    0.270E-04
DAV:  11    -0.101084847177E+03   -0.32365E-05   -0.10766E-07   108   0.755E-04    0.230E-04
DAV:  12    -0.101084851089E+03   -0.39116E-05   -0.11617E-07   108   0.737E-04    0.935E-05
DAV:  13    -0.101084852494E+03   -0.14048E-05   -0.37436E-08   108   0.419E-04    0.808E-05
DAV:  14    -0.101084853446E+03   -0.95222E-06   -0.76327E-09   108   0.259E-04
  56 F= -.10108485E+03 E0= -.10108485E+03  d E =-.375246E-10
       N       E                     dE             d eps       ncg     rms          rms(c)
DAV:   1    -0.101083218427E+03    0.16341E-02   -0.40627E-01    96   0.175E+00    0.192E-01
DAV:   2    -0.101084808470E+03   -0.15900E-02   -0.18929E-02   132   0.408E-01    0.992E-02
DAV:   3    -0.101084755638E+03    0.52832E-04   -0.31637E-04   132   0.604E-02    0.542E-02
DAV:   4    -0.101084726437E+03    0.29201E-04   -0.96405E-05   132   0.422E-02    0.105E-02
DAV:   5    -0.101084719615E+03    0.68225E-05   -0.32591E-05   132   0.211E-02    0.741E-03
DAV:   6    -0.101084720665E+03   -0.10505E-05   -0.56973E-06   132   0.772E-03    0.452E-03
DAV:   7    -0.101084728039E+03   -0.73733E-05   -0.10376E-06   108   0.425E-03    0.189E-03
DAV:   8    -0.101084740285E+03   -0.12247E-04   -0.14215E-06   120   0.402E-03    0.124E-03
DAV:   9    -0.101084757604E+03   -0.17319E-04   -0.11297E-06   108   0.332E-03    0.549E-04
DAV:  10    -0.101084765727E+03   -0.81224E-05   -0.55684E-07   108   0.200E-03    0.522E-04
DAV:  11    -0.101084771320E+03   -0.55930E-05   -0.11815E-07   108   0.100E-03    0.288E-04
DAV:  12    -0.101084776665E+03   -0.53454E-05   -0.19100E-07   108   0.907E-04    0.231E-04
DAV:  13    -0.101084778879E+03   -0.22138E-05   -0.43964E-08   108   0.463E-04    0.135E-04
DAV:  14    -0.101084780448E+03   -0.15689E-05   -0.23833E-08   108   0.360E-04    0.544E-05
DAV:  15    -0.101084781246E+03   -0.79853E-06   -0.52908E-09   108   0.227E-04
  57 F= -.10108478E+03 E0= -.10108478E+03  d E =-.542453E-11
       N       E                     dE             d eps       ncg     rms          rms(c)
DAV:   1    -0.101083388592E+03    0.13919E-02   -0.20492E-01    96   0.128E+00    0.139E-01
DAV:   2    -0.101084082043E+03   -0.69345E-03   -0.82619E-03   132   0.262E-01    0.607E-02
DAV:   3    -0.101084067910E+03    0.14133E-04   -0.16829E-04   144   0.451E-02    0.321E-02
DAV:   4    -0.101084061340E+03    0.65699E-05   -0.32813E-05   132   0.287E-02    0.732E-03
DAV:   5    -0.101084060407E+03    0.93367E-06   -0.16740E-05   132   0.153E-02    0.535E-03
DAV:   6    -0.101084060742E+03   -0.33525E-06   -0.14323E-06   120   0.398E-03
  58 F= -.10108406E+03 E0= -.10108406E+03  d E =-.460037E-10
       N       E                     dE             d eps       ncg     rms          rms(c)
DAV:   1    -0.101082564065E+03    0.14963E-02   -0.40322E-01   120   0.185E+00    0.214E-01
DAV:   2    -0.101084262704E+03   -0.16986E-02   -0.20329E-02   120   0.453E-01    0.119E-01
DAV:   3    -0.101084179219E+03    0.83485E-04   -0.35263E-04   144   0.632E-02    0.642E-02
DAV:   4    -0.101084127616E+03    0.51603E-04   -0.10815E-04   132   0.410E-02    0.118E-02
DAV:   5    -0.101084119558E+03    0.80574E-05   -0.25746E-05   132   0.189E-02    0.749E-03
DAV:   6    -0.101084127810E+03   -0.82520E-05   -0.78895E-06   132   0.856E-03    0.415E-03
DAV:   7    -0.101084147260E+03   -0.19450E-04   -0.26245E-06   132   0.501E-03    0.204E-03
DAV:   8    -0.101084174716E+03   -0.27456E-04   -0.27833E-06   120   0.410E-03    0.113E-03
DAV:   9    -0.101084192391E+03   -0.17675E-04   -0.15116E-06   120   0.285E-03    0.973E-04
DAV:  10    -0.101084209477E+03   -0.17086E-04   -0.15472E-06   120   0.253E-03    0.328E-04
DAV:  11    -0.101084215214E+03   -0.57373E-05   -0.25314E-07   108   0.115E-03    0.334E-04
DAV:  12    -0.101084220339E+03   -0.51250E-05   -0.27211E-07   108   0.105E-03    0.125E-04
DAV:  13    -0.101084221776E+03   -0.14365E-05   -0.49612E-08   108   0.484E-04    0.933E-05
DAV:  14    -0.101084222811E+03   -0.10347E-05   -0.98031E-09   108   0.292E-04    0.445E-05
DAV:  15    -0.101084223307E+03   -0.49620E-06   -0.38079E-09   108   0.203E-04
  59 F= -.10108422E+03 E0= -.10108422E+03  d E =-.809908E-10
       N       E                     dE             d eps       ncg     rms          rms(c)
DAV:   1    -0.101083038504E+03    0.11843E-02   -0.20148E-01    96   0.136E+00    0.153E-01
DAV:   2    -0.101083789227E+03   -0.75072E-03   -0.92407E-03   120   0.314E-01    0.791E-02
DAV:   3    -0.101083743864E+03    0.45363E-04   -0.15306E-04   132   0.418E-02    0.417E-02
DAV:   4    -0.101083711096E+03    0.32768E-04   -0.42875E-05   132   0.245E-02    0.821E-03
DAV:   5    -0.101083703562E+03    0.75345E-05   -0.79393E-06   132   0.115E-02    0.459E-03
DAV:   6    -0.101083705177E+03   -0.16157E-05   -0.36221E-06   132   0.733E-03    0.230E-03
DAV:   7    -0.101083714275E+03   -0.90975E-05   -0.18023E-06   120   0.482E-03    0.144E-03
DAV:   8    -0.101083726873E+03   -0.12598E-04   -0.69537E-07   108   0.267E-03    0.797E-04
DAV:   9    -0.101083739998E+03   -0.13125E-04   -0.87274E-07   120   0.218E-03    0.554E-04
DAV:  10    -0.101083751297E+03   -0.11300E-04   -0.48597E-07   108   0.157E-03    0.260E-04
DAV:  11    -0.101083756774E+03   -0.54761E-05   -0.18592E-07   108   0.906E-04    0.196E-04
DAV:  12    -0.101083761156E+03   -0.43829E-05   -0.86814E-08   108   0.636E-04    0.987E-05
DAV:  13    -0.101083762801E+03   -0.16442E-05   -0.23841E-08   108   0.376E-04    0.587E-05
DAV:  14    -0.101083763807E+03   -0.10058E-05   -0.78814E-09   108   0.249E-04    0.352E-05
DAV:  15    -0.101083764271E+03   -0.46397E-06    0.18315E-09   108   0.155E-04
  60 F= -.10108376E+03 E0= -.10108376E+03  d E =-.533642E-10
       N       E                     dE             d eps       ncg     rms          rms(c)
DAV:   1    -0.101082459280E+03    0.13045E-02   -0.40290E-01    96   0.188E+00    0.206E-01
DAV:   2    -0.101083908238E+03   -0.14490E-02   -0.18099E-02   132   0.438E-01    0.123E-01
DAV:   3    -0.101083788640E+03    0.11960E-03   -0.27698E-04   132   0.589E-02    0.631E-02
DAV:   4    -0.101083718413E+03    0.70228E-04   -0.11299E-04   132   0.393E-02    0.113E-02
DAV:   5    -0.101083716589E+03    0.18241E-05   -0.19289E-05   132   0.173E-02    0.679E-03
DAV:   6    -0.101083738916E+03   -0.22327E-04   -0.12135E-05   132   0.105E-02    0.356E-03
DAV:   7    -0.101083769965E+03   -0.31050E-04   -0.35152E-06   132   0.607E-03    0.216E-03
DAV:   8    -0.101083810916E+03   -0.40950E-04   -0.41659E-06   120   0.474E-03    0.112E-03
DAV:   9    -0.101083837872E+03   -0.26956E-04   -0.25501E-06   120   0.348E-03    0.821E-04
DAV:  10    -0.101083858912E+03   -0.21041E-04   -0.19764E-06   120   0.277E-03    0.431E-04
DAV:  11    -0.101083866369E+03   -0.74568E-05   -0.33977E-07   108   0.131E-03    0.243E-04
DAV:  12    -0.101083871337E+03   -0.49679E-05   -0.27533E-07   108   0.102E-03    0.184E-04
DAV:  13    -0.101083872944E+03   -0.16067E-05   -0.39664E-08   108   0.497E-04    0.646E-05
DAV:  14    -0.101083873870E+03   -0.92671E-06   -0.98763E-09   108   0.310E-04
  61 F= -.10108387E+03 E0= -.10108387E+03  d E =-.718712E-10
       N       E                     dE             d eps       ncg     rms          rms(c)
DAV:   1    -0.101086832130E+03   -0.29592E-02   -0.23249E-01    96   0.164E+00    0.135E-01
DAV:   2    -0.101087243308E+03   -0.41118E-03   -0.60708E-03   132   0.259E-01    0.787E-02
DAV:   3    -0.101087183645E+03    0.59663E-04   -0.15873E-04   132   0.444E-02    0.348E-02
DAV:   4    -0.101087166401E+03    0.17244E-04   -0.58412E-05   132   0.266E-02    0.751E-03
DAV:   5    -0.101087162816E+03    0.35848E-05   -0.78721E-06   132   0.108E-02    0.518E-03
DAV:   6    -0.101087164243E+03   -0.14263E-05   -0.33335E-06   132   0.607E-03    0.215E-03
DAV:   7    -0.101087168914E+03   -0.46716E-05   -0.62260E-07   108   0.330E-03    0.121E-03
DAV:   8    -0.101087177200E+03   -0.82861E-05   -0.53542E-07   108   0.227E-03    0.725E-04
DAV:   9    -0.101087186337E+03   -0.91368E-05   -0.56013E-07   108   0.196E-03    0.390E-04
DAV:  10    -0.101087194037E+03   -0.77000E-05   -0.41710E-07   108   0.144E-03    0.308E-04
DAV:  11    -0.101087198435E+03   -0.43979E-05   -0.11424E-07   108   0.838E-04    0.143E-04
DAV:  12    -0.101087200696E+03   -0.22614E-05   -0.49697E-08   108   0.509E-04    0.114E-04
DAV:  13    -0.101087201377E+03   -0.68077E-06   -0.31993E-09   108   0.239E-04
  62 F= -.10108720E+03 E0= -.10108720E+03  d E =-.545886E-10
       N       E                     dE             d eps       ncg     rms          rms(c)
DAV:   1    -0.101087215166E+03   -0.14470E-04   -0.52796E-01    96   0.210E+00    0.172E-01
DAV:   2    -0.101087069229E+03    0.14594E-03   -0.25775E-03   132   0.162E-01    0.975E-02
DAV:   3    -0.101086932091E+03    0.13714E-03   -0.42241E-04   132   0.601E-02    0.175E-02
DAV:   4    -0.101086935244E+03   -0.31533E-05   -0.61229E-05   132   0.248E-02    0.104E-02
DAV:   5    -0.101086936110E+03   -0.86647E-06   -0.28523E-06   132   0.578E-03
  63 F= -.10108694E+03 E0= -.10108694E+03  d E =-.475966E-10
       N       E                     dE             d eps       ncg     rms          rms(c)
DAV:   1    -0.101086328755E+03    0.60649E-03   -0.27202E-01    96   0.149E+00    0.147E-01
DAV:   2    -0.101086307833E+03    0.20922E-04   -0.23275E-03   132   0.135E-01    0.801E-02
DAV:   3    -0.101086220352E+03    0.87481E-04   -0.25451E-04   132   0.418E-02    0.231E-02
DAV:   4    -0.101086217947E+03    0.24052E-05   -0.54369E-05   132   0.196E-02    0.786E-03
DAV:   5    -0.101086216279E+03    0.16680E-05   -0.32162E-06   132   0.657E-03    0.366E-03
DAV:   6    -0.101086216565E+03   -0.28608E-06   -0.21511E-06   132   0.459E-03
  64 F= -.10108622E+03 E0= -.10108622E+03  d E =-.634984E-10
       N       E                     dE             d eps       ncg     rms          rms(c)
DAV:   1    -0.101086061750E+03    0.15453E-03   -0.53704E-01    96   0.210E+00    0.195E-01
DAV:   2    -0.101085918785E+03    0.14297E-03   -0.36080E-03   132   0.178E-01    0.108E-01
DAV:   3    -0.101085731874E+03    0.18691E-03   -0.53150E-04   132   0.580E-02    0.254E-02
DAV:   4    -0.101085722736E+03    0.91380E-05   -0.66111E-05   132   0.236E-02    0.115E-02
DAV:   5    -0.101085722313E+03    0.42250E-06   -0.61267E-06   132   0.854E-03
  65 F= -.10108572E+03 E0= -.10108572E+03  d E =-.430819E-10
       N       E                     dE             d eps       ncg     rms          rms(c)
DAV:   1    -0.101087270002E+03   -0.15473E-02   -0.27143E-01    96   0.148E+00    0.143E-01
DAV:   2    -0.101087208412E+03    0.61590E-04   -0.20018E-03   132   0.132E-01    0.780E-02
DAV:   3    -0.101087129606E+03    0.78806E-04   -0.27853E-04   132   0.455E-02    0.205E-02
DAV:   4    -0.101087132802E+03   -0.31961E-05   -0.55718E-05   132   0.214E-02    0.816E-03
DAV:   5    -0.101087132453E+03    0.34936E-06   -0.22740E-06   132   0.543E-03
  66 F= -.10108713E+03 E0= -.10108713E+03  d E =-.518402E-10
       N       E                     dE             d eps       ncg     rms          rms(c)
DAV:   1    -0.101087450018E+03   -0.31722E-03   -0.53387E-01    96   0.206E+00    0.169E-01
DAV:   2    -0.101087298281E+03    0.15174E-03   -0.26477E-03   132   0.152E-01    0.966E-02
DAV:   3    -0.101087161344E+03    0.13694E-03   -0.44928E-04   132   0.593E-02    0.166E-02
DAV:   4    -0.101087166532E+03   -0.51880E-05   -0.80119E-05   132   0.261E-02    0.943E-03
DAV:   5    -0.101087165646E+03    0.88651E-06   -0.20458E-06   132   0.493E-03
  67 F= -.10108717E+03 E0= -.10108717E+03  d E =-.552954E-10
       N       E                     dE             d eps       ncg     rms          rms(c)
DAV:   1    -0.101087713133E+03   -0.54660E-03   -0.26497E-01    96   0.155E+00    0.118E-01
DAV:   2    -0.101087695172E+03    0.17961E-04   -0.14240E-03   132   0.118E-01    0.684E-02
DAV:   3    -0.101087641334E+03    0.53837E-04   -0.14245E-04   132   0.351E-02    0.100E-02
DAV:   4    -0.101087643002E+03   -0.16674E-05   -0.20949E-05   132   0.142E-02    0.490E-03
DAV:   5    -0.101087643097E+03   -0.95165E-07   -0.50028E-07   108   0.272E-03
  68 F= -.10108764E+03 E0= -.10108764E+03  d E =-.543120E-10
       N       E                     dE             d eps       ncg     rms          rms(c)
DAV:   1    -0.101087810549E+03   -0.16755E-03   -0.52503E-01    96   0.216E+00    0.159E-01
DAV:   2    -0.101087698092E+03    0.11246E-03   -0.22480E-03   132   0.152E-01    0.924E-02
DAV:   3    -0.101087600499E+03    0.97593E-04   -0.35546E-04   132   0.612E-02    0.121E-02
DAV:   4    -0.101087606984E+03   -0.64850E-05   -0.62339E-05   132   0.258E-02    0.928E-03
DAV:   5    -0.101087607157E+03   -0.17289E-06   -0.14970E-06   120   0.438E-03
  69 F= -.10108761E+03 E0= -.10108761E+03  d E =-.560615E-10
       N       E                     dE             d eps       ncg     rms          rms(c)
DAV:   1    -0.101087700197E+03   -0.93213E-04   -0.26574E-01    96   0.154E+00    0.113E-01
DAV:   2    -0.101087638329E+03    0.61868E-04   -0.10812E-03   132   0.984E-02    0.651E-02
DAV:   3    -0.101087586801E+03    0.51528E-04   -0.17810E-04   132   0.375E-02    0.921E-03
DAV:   4    -0.101087588432E+03   -0.16311E-05   -0.26130E-05   132   0.156E-02    0.551E-03
DAV:   5    -0.101087588193E+03    0.23892E-06   -0.68034E-07   108   0.301E-03
  70 F= -.10108759E+03 E0= -.10108759E+03  d E =-.566127E-10
       N       E                     dE             d eps       ncg     rms          rms(c)
[...]
DAV:   9    -0.101085433764E+03   -0.40274E-05   -0.25291E-07   108   0.148E-03    0.629E-04
DAV:  10    -0.101085439325E+03   -0.55607E-05   -0.48239E-07   108   0.161E-03    0.382E-04
DAV:  11    -0.101085440315E+03   -0.99026E-06   -0.72019E-08   108   0.754E-04
 129 F= -.10108544E+03 E0= -.10108544E+03  d E =-.507392E-10
       N       E                     dE             d eps       ncg     rms          rms(c)
DAV:   1    -0.101087938797E+03   -0.24995E-02   -0.28240E-01    96   0.175E+00    0.187E-01
DAV:   2    -0.101087737380E+03    0.20142E-03   -0.20895E-03   132   0.155E-01    0.939E-02
DAV:   3    -0.101087616159E+03    0.12122E-03   -0.35249E-04   132   0.550E-02    0.312E-02
DAV:   4    -0.101087613469E+03    0.26905E-05   -0.76564E-05   132   0.261E-02    0.116E-02
DAV:   5    -0.101087612237E+03    0.12312E-05   -0.37387E-06   132   0.827E-03    0.472E-03
DAV:   6    -0.101087613072E+03   -0.83485E-06   -0.24855E-06   132   0.543E-03
 130 F= -.10108761E+03 E0= -.10108761E+03  d E =-.688483E-10
       N       E                     dE             d eps       ncg     rms          rms(c)
DAV:   1    -0.101087959378E+03   -0.34714E-03   -0.54119E-01    96   0.245E+00    0.197E-01
DAV:   2    -0.101087717921E+03    0.24146E-03   -0.27796E-03   132   0.175E-01    0.112E-01
DAV:   3    -0.101087557643E+03    0.16028E-03   -0.47284E-04   132   0.651E-02    0.230E-02
DAV:   4    -0.101087564369E+03   -0.67260E-05   -0.70076E-05   132   0.268E-02    0.921E-03
DAV:   5    -0.101087565086E+03   -0.71766E-06   -0.32494E-06   132   0.650E-03
 131 F= -.10108757E+03 E0= -.10108757E+03  d E =-.495591E-10
       N       E                     dE             d eps       ncg     rms          rms(c)
DAV:   1    -0.101087337058E+03    0.22731E-03   -0.27104E-01    96   0.171E+00    0.139E-01
DAV:   2    -0.101087216965E+03    0.12009E-03   -0.14336E-03   132   0.126E-01    0.783E-02
DAV:   3    -0.101087138799E+03    0.78166E-04   -0.22794E-04   132   0.455E-02    0.171E-02
DAV:   4    -0.101087141831E+03   -0.30316E-05   -0.33581E-05   132   0.185E-02    0.614E-03
DAV:   5    -0.101087142477E+03   -0.64631E-06   -0.16989E-06   120   0.484E-03
 132 F= -.10108714E+03 E0= -.10108714E+03  d E =-.575204E-10
       N       E                     dE             d eps       ncg     rms          rms(c)
DAV:   1    -0.101087596576E+03   -0.45475E-03   -0.54976E-01    96   0.247E+00    0.223E-01
DAV:   2    -0.101087305121E+03    0.29146E-03   -0.32603E-03   132   0.191E-01    0.118E-01
DAV:   3    -0.101087120990E+03    0.18413E-03   -0.49305E-04   132   0.674E-02    0.355E-02
DAV:   4    -0.101087122977E+03   -0.19864E-05   -0.10731E-04   132   0.316E-02    0.120E-02
DAV:   5    -0.101087121914E+03    0.10624E-05   -0.57210E-06   132   0.952E-03    0.669E-03
DAV:   6    -0.101087122777E+03   -0.86294E-06   -0.31289E-06   132   0.610E-03
 133 F= -.10108712E+03 E0= -.10108712E+03  d E =-.520885E-10
       N       E                     dE             d eps       ncg     rms          rms(c)
DAV:   1    -0.101087242602E+03   -0.12069E-03   -0.27620E-01    96   0.202E+00    0.160E-01
DAV:   2    -0.101087146802E+03    0.95800E-04   -0.21127E-03   132   0.170E-01    0.858E-02
DAV:   3    -0.101087055980E+03    0.90821E-04   -0.22053E-04   132   0.484E-02    0.281E-02
DAV:   4    -0.101087055434E+03    0.54661E-06   -0.60396E-05   132   0.246E-02    0.843E-03
DAV:   5    -0.101087054675E+03    0.75916E-06   -0.38155E-06   132   0.759E-03
 134 F= -.10108705E+03 E0= -.10108705E+03  d E =-.585802E-10
       N       E                     dE             d eps       ncg     rms          rms(c)
DAV:   1    -0.101087372700E+03   -0.31727E-03   -0.55237E-01    96   0.262E+00    0.230E-01
DAV:   2    -0.101087045720E+03    0.32698E-03   -0.32980E-03   132   0.202E-01    0.121E-01
DAV:   3    -0.101086832252E+03    0.21347E-03   -0.47146E-04   120   0.644E-02    0.367E-02
DAV:   4    -0.101086828389E+03    0.38631E-05   -0.10610E-04   132   0.315E-02    0.128E-02
DAV:   5    -0.101086828583E+03   -0.19386E-06   -0.64671E-06   132   0.104E-02
 135 F= -.10108683E+03 E0= -.10108683E+03  d E =-.502205E-10
       N       E                     dE             d eps       ncg     rms          rms(c)
DAV:   1    -0.101086325765E+03    0.50262E-03   -0.28991E-01    96   0.190E+00    0.208E-01
DAV:   2    -0.101086074281E+03    0.25148E-03   -0.24562E-03   132   0.180E-01    0.102E-01
DAV:   3    -0.101085932249E+03    0.14203E-03   -0.39646E-04   132   0.644E-02    0.355E-02
DAV:   4    -0.101085933401E+03   -0.11520E-05   -0.11979E-04   132   0.343E-02    0.155E-02
DAV:   5    -0.101085931740E+03    0.16611E-05   -0.51979E-06   132   0.981E-03    0.577E-03
DAV:   6    -0.101085931924E+03   -0.18412E-06   -0.29488E-06   132   0.605E-03
 136 F= -.10108593E+03 E0= -.10108593E+03  d E =-.545319E-10
       N       E                     dE             d eps       ncg     rms          rms(c)
DAV:   1    -0.101086730860E+03   -0.79912E-03   -0.57172E-01    96   0.265E+00    0.271E-01
DAV:   2    -0.101086193229E+03    0.53763E-03   -0.46066E-03   132   0.252E-01    0.137E-01
DAV:   3    -0.101085898948E+03    0.29428E-03   -0.78524E-04   132   0.919E-02    0.454E-02
DAV:   4    -0.101085899304E+03   -0.35580E-06   -0.20456E-04   132   0.465E-02    0.207E-02
DAV:   5    -0.101085898665E+03    0.63911E-06   -0.78450E-06   132   0.115E-02
 137 F= -.10108590E+03 E0= -.10108590E+03  d E =-.542212E-10
       N       E                     dE             d eps       ncg     rms          rms(c)
DAV:   1    -0.101087525619E+03   -0.16263E-02   -0.28803E-01    96   0.189E+00    0.204E-01
DAV:   2    -0.101087279572E+03    0.24605E-03   -0.24460E-03   132   0.181E-01    0.101E-01
DAV:   3    -0.101087136945E+03    0.14263E-03   -0.39172E-04   132   0.652E-02    0.345E-02
DAV:   4    -0.101087138680E+03   -0.17348E-05   -0.11933E-04   132   0.346E-02    0.143E-02
DAV:   5    -0.101087137685E+03    0.99574E-06   -0.50225E-06   132   0.939E-03
 138 F= -.10108714E+03 E0= -.10108714E+03  d E =-.568811E-10
       N       E                     dE             d eps       ncg     rms          rms(c)
DAV:   1    -0.101087490839E+03   -0.35216E-03   -0.54703E-01    96   0.262E+00    0.226E-01
DAV:   2    -0.101087185945E+03    0.30489E-03   -0.33225E-03   132   0.206E-01    0.120E-01
DAV:   3    -0.101086983725E+03    0.20222E-03   -0.46840E-04   132   0.675E-02    0.358E-02
DAV:   4    -0.101086985488E+03   -0.17634E-05   -0.10233E-04   132   0.319E-02    0.129E-02
DAV:   5    -0.101086985628E+03   -0.13957E-06   -0.55418E-06   132   0.931E-03
 139 F= -.10108699E+03 E0= -.10108699E+03  d E =-.519836E-10
       N       E                     dE             d eps       ncg     rms          rms(c)
DAV:   1    -0.101086870963E+03    0.11453E-03   -0.27636E-01    96   0.191E+00    0.168E-01
DAV:   2    -0.101086764807E+03    0.10616E-03   -0.18813E-03   120   0.147E-01    0.872E-02
DAV:   3    -0.101086674724E+03    0.90083E-04   -0.25225E-04   132   0.446E-02    0.280E-02
DAV:   4    -0.101086671711E+03    0.30138E-05   -0.42152E-05   132   0.189E-02    0.100E-02
DAV:   5    -0.101086670102E+03    0.16082E-05   -0.24489E-06   132   0.718E-03    0.493E-03
DAV:   6    -0.101086670064E+03    0.38503E-07   -0.22288E-06   132   0.570E-03
 140 F= -.10108667E+03 E0= -.10108667E+03  d E =-.564708E-10
       N       E                     dE             d eps       ncg     rms          rms(c)
DAV:   1    -0.101087343966E+03   -0.67386E-03   -0.55646E-01    96   0.253E+00    0.245E-01
DAV:   2    -0.101086970716E+03    0.37325E-03   -0.34077E-03   132   0.202E-01    0.124E-01
DAV:   3    -0.101086750966E+03    0.21975E-03   -0.50775E-04   132   0.645E-02    0.399E-02
DAV:   4    -0.101086742501E+03    0.84650E-05   -0.10813E-04   132   0.309E-02    0.128E-02
DAV:   5    -0.101086742581E+03   -0.79492E-07   -0.66284E-06   132   0.108E-02
 141 F= -.10108674E+03 E0= -.10108674E+03  d E =-.509767E-10
       N       E                     dE             d eps       ncg     rms          rms(c)
DAV:   1    -0.101085963016E+03    0.77949E-03   -0.27269E-01    96   0.180E+00    0.139E-01
DAV:   2    -0.101085820676E+03    0.14234E-03   -0.14037E-03   132   0.131E-01    0.783E-02
DAV:   3    -0.101085735140E+03    0.85536E-04   -0.25479E-04   132   0.508E-02    0.163E-02
DAV:   4    -0.101085740196E+03   -0.50558E-05   -0.47848E-05   132   0.226E-02    0.851E-03
DAV:   5    -0.101085740777E+03   -0.58099E-06   -0.11586E-06   120   0.431E-03
 142 F= -.10108574E+03 E0= -.10108574E+03  d E =-.514434E-10
       N       E                     dE             d eps       ncg     rms          rms(c)
DAV:   1    -0.101086317688E+03   -0.57749E-03   -0.58071E-01    96   0.260E+00    0.286E-01
DAV:   2    -0.101085756257E+03    0.56143E-03   -0.47634E-03   132   0.250E-01    0.142E-01
DAV:   3    -0.101085447486E+03    0.30877E-03   -0.84639E-04   132   0.942E-02    0.465E-02
DAV:   4    -0.101085450536E+03   -0.30497E-05   -0.23356E-04   132   0.480E-02    0.205E-02
DAV:   5    -0.101085448215E+03    0.23213E-05   -0.83397E-06   132   0.122E-02    0.859E-03
DAV:   6    -0.101085448388E+03   -0.17302E-06   -0.57079E-06   120   0.866E-03
 143 F= -.10108545E+03 E0= -.10108545E+03  d E =-.578451E-10
       N       E                     dE             d eps       ncg     rms          rms(c)
DAV:   1    -0.101087923014E+03   -0.24748E-02   -0.28117E-01    96   0.181E+00    0.168E-01
DAV:   2    -0.101087701768E+03    0.22125E-03   -0.18579E-03   132   0.155E-01    0.893E-02
DAV:   3    -0.101087588596E+03    0.11317E-03   -0.33084E-04   132   0.588E-02    0.252E-02
DAV:   4    -0.101087593623E+03   -0.50269E-05   -0.76190E-05   132   0.282E-02    0.119E-02
DAV:   5    -0.101087593782E+03   -0.15840E-06   -0.25215E-06   132   0.647E-03
 144 F= -.10108759E+03 E0= -.10108759E+03  d E =-.563524E-10
       N       E                     dE             d eps       ncg     rms          rms(c)
DAV:   1    -0.101088029543E+03   -0.43592E-03   -0.54047E-01    96   0.253E+00    0.200E-01
DAV:   2    -0.101087758170E+03    0.27137E-03   -0.28032E-03   132   0.182E-01    0.112E-01
DAV:   3    -0.101087589455E+03    0.16871E-03   -0.43780E-04   132   0.654E-02    0.235E-02
DAV:   4    -0.101087594289E+03   -0.48340E-05   -0.65707E-05   132   0.265E-02    0.100E-02
DAV:   5    -0.101087594727E+03   -0.43779E-06   -0.29117E-06   132   0.631E-03
 145 F= -.10108759E+03 E0= -.10108759E+03  d E =-.509052E-10
       N       E                     dE             d eps       ncg     rms          rms(c)
DAV:   1    -0.101086905812E+03    0.68848E-03   -0.27006E-01    96   0.201E+00    0.135E-01
DAV:   2    -0.101086846400E+03    0.59412E-04   -0.18491E-03   132   0.158E-01    0.760E-02
DAV:   3    -0.101086771136E+03    0.75264E-04   -0.22187E-04   132   0.496E-02    0.184E-02
DAV:   4    -0.101086774296E+03   -0.31603E-05   -0.49634E-05   132   0.230E-02    0.769E-03
DAV:   5    -0.101086774124E+03    0.17260E-06   -0.15063E-06   108   0.503E-03
 146 F= -.10108677E+03 E0= -.10108677E+03  d E =-.614790E-10
       N       E                     dE             d eps       ncg     rms          rms(c)
DAV:   1    -0.101087115433E+03   -0.34114E-03   -0.53597E-01    96   0.256E+00    0.177E-01
DAV:   2    -0.101086996654E+03    0.11878E-03   -0.33051E-03   132   0.193E-01    0.101E-01
DAV:   3    -0.101086836990E+03    0.15966E-03   -0.48523E-04   132   0.662E-02    0.202E-02
DAV:   4    -0.101086840405E+03   -0.34150E-05   -0.95294E-05   132   0.305E-02    0.106E-02
DAV:   5    -0.101086839221E+03    0.11840E-05   -0.28782E-06   132   0.591E-03    0.651E-03
DAV:   6    -0.101086839899E+03   -0.67749E-06   -0.28542E-06   132   0.563E-03
 147 F= -.10108684E+03 E0= -.10108684E+03  d E =-.485035E-10
       N       E                     dE             d eps       ncg     rms          rms(c)
DAV:   1    -0.101085842412E+03    0.99681E-03   -0.26357E-01    96   0.177E+00    0.112E-01
DAV:   2    -0.101085779590E+03    0.62822E-04   -0.10369E-03   120   0.106E-01    0.638E-02
DAV:   3    -0.101085722944E+03    0.56646E-04   -0.16182E-04   132   0.377E-02    0.108E-02
DAV:   4    -0.101085725372E+03   -0.24281E-05   -0.22625E-05   132   0.154E-02    0.549E-03
DAV:   5    -0.101085726822E+03   -0.14497E-05   -0.90512E-07   108   0.345E-03    0.345E-03
DAV:   6    -0.101085729898E+03   -0.30765E-05   -0.75490E-07   108   0.304E-03    0.647E-04
DAV:   7    -0.101085731751E+03   -0.18524E-05   -0.25911E-07   108   0.171E-03    0.601E-04
DAV:   8    -0.101085735315E+03   -0.35639E-05   -0.23928E-07   108   0.162E-03    0.228E-04
DAV:   9    -0.101085736842E+03   -0.15277E-05   -0.11398E-07   108   0.921E-04    0.221E-04
DAV:  10    -0.101085738571E+03   -0.17284E-05   -0.49679E-08   108   0.601E-04    0.128E-04
DAV:  11    -0.101085739726E+03   -0.11556E-05   -0.49037E-08   108   0.449E-04    0.800E-05
DAV:  12    -0.101085740329E+03   -0.60257E-06   -0.10750E-08   108   0.259E-04
 148 F= -.10108574E+03 E0= -.10108574E+03  d E =-.530297E-10
       N       E                     dE             d eps       ncg     rms          rms(c)
DAV:   1    -0.101086004158E+03   -0.26443E-03   -0.54136E-01    96   0.257E+00    0.204E-01
DAV:   2    -0.101085941443E+03    0.62715E-04   -0.43173E-03   132   0.207E-01    0.111E-01
DAV:   3    -0.101085746757E+03    0.19469E-03   -0.44946E-04   132   0.603E-02    0.340E-02
DAV:   4    -0.101085734746E+03    0.12011E-04   -0.11092E-04   132   0.294E-02    0.110E-02
DAV:   5    -0.101085732235E+03    0.25117E-05   -0.65720E-06   132   0.102E-02    0.540E-03
DAV:   6    -0.101085734882E+03   -0.26474E-05   -0.44328E-06   132   0.719E-03    0.181E-03
DAV:   7    -0.101085739216E+03   -0.43340E-05   -0.11092E-06   108   0.373E-03    0.121E-03
DAV:   8    -0.101085745509E+03   -0.62930E-05   -0.46021E-07   108   0.220E-03    0.604E-04
DAV:   9    -0.101085750176E+03   -0.46666E-05   -0.27993E-07   108   0.153E-03    0.395E-04
DAV:  10    -0.101085756304E+03   -0.61288E-05   -0.30091E-07   108   0.125E-03    0.208E-04
DAV:  11    -0.101085758902E+03   -0.25976E-05   -0.75897E-08   108   0.683E-04    0.163E-04
DAV:  12    -0.101085761786E+03   -0.28838E-05   -0.53745E-08   108   0.493E-04    0.982E-05
DAV:  13    -0.101085762817E+03   -0.10314E-05   -0.17266E-08   108   0.297E-04    0.667E-05
DAV:  14    -0.101085763510E+03   -0.69317E-06   -0.11983E-09   108   0.189E-04
 149 F= -.10108576E+03 E0= -.10108576E+03  d E =-.542548E-10
       N       E                     dE             d eps       ncg     rms          rms(c)
DAV:   1    -0.101087706274E+03   -0.19435E-02   -0.26599E-01    96   0.185E+00    0.127E-01
DAV:   2    -0.101087626636E+03    0.79638E-04   -0.14446E-03   132   0.127E-01    0.713E-02
DAV:   3    -0.101087553764E+03    0.72872E-04   -0.21343E-04   132   0.434E-02    0.154E-02
DAV:   4    -0.101087554295E+03   -0.53116E-06   -0.35861E-05   132   0.188E-02    0.712E-03
DAV:   5    -0.101087554752E+03   -0.45712E-06   -0.15399E-06   108   0.476E-03
 150 F= -.10108755E+03 E0= -.10108755E+03  d E =-.640628E-10
       N       E                     dE             d eps       ncg     rms          rms(c)
DAV:   1    -0.101087938681E+03   -0.38439E-03   -0.52529E-01    96   0.251E+00    0.160E-01
DAV:   2    -0.101087810070E+03    0.12861E-03   -0.20564E-03   120   0.151E-01    0.921E-02
DAV:   3    -0.101087699499E+03    0.11057E-03   -0.36229E-04   132   0.581E-02    0.123E-02
DAV:   4    -0.101087705747E+03   -0.62481E-05   -0.53163E-05   132   0.234E-02    0.728E-03
DAV:   5    -0.101087707073E+03   -0.13254E-05   -0.18147E-06   120   0.461E-03    0.474E-03
DAV:   6    -0.101087710912E+03   -0.38392E-05   -0.15756E-06   120   0.393E-03    0.901E-04
DAV:   7    -0.101087713347E+03   -0.24345E-05   -0.31659E-07   108   0.190E-03    0.824E-04
DAV:   8    -0.101087717188E+03   -0.38416E-05   -0.18705E-07   108   0.163E-03    0.362E-04
DAV:   9    -0.101087720451E+03   -0.32625E-05   -0.20202E-07   108   0.144E-03    0.284E-04
DAV:  10    -0.101087723314E+03   -0.28633E-05   -0.14478E-07   108   0.946E-04    0.138E-04
DAV:  11    -0.101087724241E+03   -0.92712E-06   -0.23110E-08   108   0.395E-04
 151 F= -.10108772E+03 E0= -.10108772E+03  d E =-.431204E-10
       N       E                     dE             d eps       ncg     rms          rms(c)
DAV:   1    -0.101085611692E+03    0.21116E-02   -0.26676E-01    96   0.181E+00    0.130E-01
DAV:   2    -0.101085559083E+03    0.52609E-04   -0.19198E-03   132   0.146E-01    0.713E-02
DAV:   3    -0.101085479151E+03    0.79932E-04   -0.22528E-04   132   0.476E-02    0.186E-02
DAV:   4    -0.101085480510E+03   -0.13596E-05   -0.55219E-05   132   0.227E-02    0.695E-03
DAV:   5    -0.101085481012E+03   -0.50148E-06   -0.25124E-06   132   0.568E-03
 152 F= -.10108548E+03 E0= -.10108548E+03  d E =-.527272E-10
       N       E                     dE             d eps       ncg     rms          rms(c)
DAV:   1    -0.101085800119E+03   -0.31961E-03   -0.54554E-01    96   0.258E+00    0.204E-01
DAV:   2    -0.101085682813E+03    0.11731E-03   -0.44524E-03   132   0.227E-01    0.114E-01
DAV:   3    -0.101085476513E+03    0.20630E-03   -0.59605E-04   132   0.734E-02    0.288E-02
DAV:   4    -0.101085476039E+03    0.47333E-06   -0.13557E-04   132   0.348E-02    0.122E-02
DAV:   5    -0.101085473382E+03    0.26573E-05   -0.55014E-06   132   0.894E-03    0.626E-03
DAV:   6    -0.101085474140E+03   -0.75755E-06   -0.46908E-06   132   0.755E-03
 153 F= -.10108547E+03 E0= -.10108547E+03  d E =-.603231E-10
       N       E                     dE             d eps       ncg     rms          rms(c)
DAV:   1    -0.101087647585E+03   -0.21742E-02   -0.26883E-01    96   0.184E+00    0.140E-01
DAV:   2    -0.101087597321E+03    0.50264E-04   -0.19508E-03   132   0.143E-01    0.762E-02
DAV:   3    -0.101087521038E+03    0.76283E-04   -0.22585E-04   132   0.413E-02    0.217E-02
DAV:   4    -0.101087518854E+03    0.21843E-05   -0.40875E-05   132   0.187E-02    0.782E-03
DAV:   5    -0.101087517915E+03    0.93898E-06   -0.29892E-06   132   0.644E-03
 154 F= -.10108752E+03 E0= -.10108752E+03  d E =-.519017E-10
       N       E                     dE             d eps       ncg     rms          rms(c)
DAV:   1    -0.101087835832E+03   -0.31698E-03   -0.53105E-01    96   0.253E+00    0.161E-01
DAV:   2    -0.101087732145E+03    0.10369E-03   -0.21116E-03   132   0.152E-01    0.922E-02
DAV:   3    -0.101087624609E+03    0.10754E-03   -0.34299E-04   132   0.541E-02    0.147E-02
DAV:   4    -0.101087627202E+03   -0.25936E-05   -0.47361E-05   132   0.222E-02    0.750E-03
DAV:   5    -0.101087626661E+03    0.54075E-06   -0.17214E-06   132   0.461E-03
 155 F= -.10108763E+03 E0= -.10108763E+03  d E =-.551077E-10
       N       E                     dE             d eps       ncg     rms          rms(c)
DAV:   1    -0.101087160892E+03    0.46631E-03   -0.26431E-01    96   0.181E+00    0.116E-01
DAV:   2    -0.101087098802E+03    0.62090E-04   -0.11416E-03   132   0.114E-01    0.668E-02
DAV:   3    -0.101087047488E+03    0.51314E-04   -0.18872E-04   132   0.433E-02    0.928E-03
DAV:   4    -0.101087051124E+03   -0.36360E-05   -0.31594E-05   132   0.180E-02    0.587E-03
DAV:   5    -0.101087051598E+03   -0.47352E-06   -0.79245E-07   108   0.335E-03
 156 F= -.10108705E+03 E0= -.10108705E+03  d E =-.713491E-10
       N       E                     dE             d eps       ncg     rms          rms(c)
DAV:   1    -0.101087442528E+03   -0.39140E-03   -0.52663E-01    96   0.254E+00    0.174E-01
DAV:   2    -0.101087324229E+03    0.11830E-03   -0.26447E-03   120   0.173E-01    0.971E-02
DAV:   3    -0.101087194253E+03    0.12998E-03   -0.37788E-04   132   0.561E-02    0.201E-02
DAV:   4    -0.101087193968E+03    0.28478E-06   -0.55744E-05   132   0.231E-02    0.884E-03
DAV:   5    -0.101087194035E+03   -0.67529E-07   -0.37036E-06   132   0.652E-03
 157 F= -.10108719E+03 E0= -.10108719E+03  d E =-.404338E-10
