       N       E                     dE             d eps       ncg     rms          rms(c)
DAV:   1     0.207375603331E+03    0.20738E+03   -0.10466E+04   116   0.546E+02
DAV:   2    -0.258152933704E+02   -0.23319E+03   -0.21836E+03   144   0.103E+02
DAV:   3    -0.100474358016E+03   -0.74659E+02   -0.74494E+02   112   0.551E+01
DAV:   4    -0.104690622431E+03   -0.42163E+01   -0.42013E+01   104   0.180E+01
DAV:   5    -0.104759604300E+03   -0.68982E-01   -0.68919E-01   136   0.252E+00    0.146E+01
DAV:   6    -0.101581645331E+03    0.31780E+01   -0.15900E+00   104   0.455E+00    0.842E+00
DAV:   7    -0.999235327980E+02    0.16581E+01   -0.40196E+00   104   0.669E+00    0.121E+00
DAV:   8    -0.998702439896E+02    0.53289E-01   -0.27324E-01   112   0.219E+00    0.605E-01
DAV:   9    -0.998345420679E+02    0.35702E-01   -0.71370E-02   112   0.757E-01    0.323E-01
DAV:  10    -0.998346031869E+02   -0.61119E-04   -0.27645E-03   112   0.212E-01    0.147E-01
DAV:  11    -0.998345112664E+02    0.91920E-04   -0.65101E-03   104   0.236E-01    0.807E-02
DAV:  12    -0.998391459785E+02   -0.46347E-02   -0.12645E-03   102   0.103E-01    0.550E-02
DAV:  13    -0.998435817322E+02   -0.44358E-02   -0.16327E-03   112   0.103E-01    0.339E-02
DAV:  14    -0.998480383570E+02   -0.44566E-02   -0.37241E-04   112   0.570E-02    0.144E-02
DAV:  15    -0.998519165694E+02   -0.38782E-02   -0.42246E-04   112   0.540E-02    0.129E-02
DAV:  16    -0.998531460605E+02   -0.12295E-02   -0.75707E-05   112   0.237E-02    0.583E-03
DAV:  17    -0.998541045215E+02   -0.95846E-03   -0.76145E-05   112   0.210E-02    0.324E-03
DAV:  18    -0.998544257214E+02   -0.32120E-03   -0.11837E-05   104   0.889E-03    0.154E-03
DAV:  19    -0.998545421980E+02   -0.11648E-03   -0.37990E-06   104   0.504E-03    0.144E-03
DAV:  20    -0.998545933629E+02   -0.51165E-04   -0.89630E-07    88   0.307E-03    0.516E-04
DAV:  21    -0.998546163906E+02   -0.23028E-04   -0.72134E-07    88   0.215E-03    0.423E-04
DAV:  22    -0.998546242589E+02   -0.78683E-05   -0.17098E-07    88   0.119E-03    0.161E-04
DAV:  23    -0.998546275252E+02   -0.32663E-05   -0.82340E-08    88   0.719E-04    0.126E-04
DAV:  24    -0.998546295494E+02   -0.20242E-05   -0.26618E-08    88   0.426E-04    0.541E-05
DAV:  25    -0.998546302547E+02   -0.70530E-06   -0.12318E-08    88   0.284E-04
   1 F= -.99854630E+02 E0= -.99854630E+02  d E =-.998546E+02
       N       E                     dE             d eps       ncg     rms          rms(c)
DAV:   1    -0.100002149807E+03   -0.14752E+00   -0.64896E+00    84   0.104E+01    0.118E+00
DAV:   2    -0.100030784272E+03   -0.28634E-01   -0.34397E-01   120   0.232E+00    0.576E-01
DAV:   3    -0.100026673228E+03    0.41110E-02   -0.12214E-02   120   0.450E-01    0.299E-01
DAV:   4    -0.100025809040E+03    0.86419E-03   -0.63774E-03   112   0.287E-01    0.668E-02
DAV:   5    -0.100025647145E+03    0.16189E-03   -0.64317E-04   112   0.108E-01    0.427E-02
DAV:   6    -0.100025670092E+03   -0.22947E-04   -0.14152E-04   120   0.432E-02    0.239E-02
DAV:   7    -0.100025823257E+03   -0.15316E-03   -0.45682E-05   112   0.331E-02    0.718E-03
DAV:   8    -0.100025914378E+03   -0.91122E-04   -0.29944E-05   112   0.225E-02    0.908E-03
DAV:   9    -0.100025978749E+03   -0.64370E-04   -0.46227E-06   112   0.789E-03    0.731E-03
DAV:  10    -0.100026156411E+03   -0.17766E-03   -0.14443E-05   112   0.920E-03    0.427E-03
DAV:  11    -0.100026194723E+03   -0.38312E-04   -0.16790E-06    96   0.426E-03    0.279E-03
DAV:  12    -0.100026261879E+03   -0.67156E-04   -0.36964E-06   104   0.568E-03    0.193E-03
DAV:  13    -0.100026279033E+03   -0.17154E-04   -0.62963E-07    88   0.289E-03    0.627E-04
DAV:  14    -0.100026301352E+03   -0.22319E-04   -0.53185E-07    88   0.197E-03    0.452E-04
DAV:  15    -0.100026311650E+03   -0.10298E-04   -0.28698E-07    88   0.121E-03    0.534E-04
DAV:  16    -0.100026318634E+03   -0.69840E-05   -0.10133E-07    88   0.822E-04    0.242E-04
DAV:  17    -0.100026319867E+03   -0.12325E-05   -0.23822E-08    88   0.409E-04    0.293E-04
DAV:  18    -0.100026321694E+03   -0.18273E-05   -0.25965E-08    80   0.456E-04    0.111E-04
DAV:  19    -0.100026322172E+03   -0.47772E-06   -0.72241E-09    88   0.232E-04
   2 F= -.10002632E+03 E0= -.10002632E+03  d E =-.171692E+00
       N       E                     dE             d eps       ncg     rms          rms(c)
DAV:   1    -0.100028804530E+03   -0.24828E-02   -0.77619E-02    84   0.114E+00    0.121E-01
DAV:   2    -0.100029126988E+03   -0.32246E-03   -0.40918E-03   120   0.253E-01    0.653E-02
DAV:   3    -0.100029069285E+03    0.57703E-04   -0.15832E-04   120   0.511E-02    0.327E-02
DAV:   4    -0.100029054784E+03    0.14501E-04   -0.77027E-05   112   0.315E-02    0.839E-03
DAV:   5    -0.100029052351E+03    0.24330E-05   -0.70431E-06   112   0.114E-02    0.468E-03
DAV:   6    -0.100029055193E+03   -0.28415E-05   -0.20281E-06    96   0.519E-03    0.235E-03
DAV:   7    -0.100029062527E+03   -0.73342E-05   -0.73038E-07    78   0.385E-03    0.752E-04
DAV:   8    -0.100029065970E+03   -0.34426E-05   -0.45735E-07    88   0.257E-03    0.100E-03
DAV:   9    -0.100029068540E+03   -0.25706E-05   -0.11273E-07    88   0.127E-03    0.626E-04
DAV:  10    -0.100029075417E+03   -0.68762E-05   -0.57004E-07    80   0.170E-03    0.452E-04
DAV:  11    -0.100029076522E+03   -0.11052E-05   -0.64339E-08    88   0.679E-04    0.260E-04
DAV:  12    -0.100029078395E+03   -0.18736E-05   -0.96343E-08    80   0.801E-04    0.939E-05
DAV:  13    -0.100029079135E+03   -0.73988E-06   -0.36138E-08    88   0.485E-04
   3 F= -.10002908E+03 E0= -.10002908E+03  d E =-.174449E+00
       N       E                     dE             d eps       ncg     rms          rms(c)
DAV:   1    -0.100057648249E+03   -0.28570E-01   -0.75492E-01    86   0.379E+00    0.341E-01
DAV:   2    -0.100060421822E+03   -0.27736E-02   -0.36463E-02   120   0.675E-01    0.151E-01
DAV:   3    -0.100060109639E+03    0.31218E-03   -0.15895E-03   120   0.151E-01    0.813E-02
DAV:   4    -0.100060042657E+03    0.66982E-04   -0.40217E-04   112   0.723E-02    0.264E-02
DAV:   5    -0.100060039622E+03    0.30342E-05   -0.38182E-05   120   0.272E-02    0.143E-02
DAV:   6    -0.100060050582E+03   -0.10959E-04   -0.98139E-06   112   0.145E-02    0.625E-03
DAV:   7    -0.100060071398E+03   -0.20816E-04   -0.61489E-06   104   0.989E-03    0.248E-03
DAV:   8    -0.100060082427E+03   -0.11029E-04   -0.10622E-06    88   0.440E-03    0.166E-03
DAV:   9    -0.100060096618E+03   -0.14191E-04   -0.73316E-07    88   0.258E-03    0.611E-04
DAV:  10    -0.100060108136E+03   -0.11519E-04   -0.65672E-07    88   0.247E-03    0.596E-04
DAV:  11    -0.100060119197E+03   -0.11061E-04   -0.75769E-07    88   0.229E-03    0.367E-04
DAV:  12    -0.100060121469E+03   -0.22721E-05   -0.14316E-07    88   0.115E-03    0.239E-04
DAV:  13    -0.100060122809E+03   -0.13392E-05   -0.35409E-08    88   0.635E-04    0.123E-04
DAV:  14    -0.100060125347E+03   -0.25385E-05   -0.10225E-07    80   0.780E-04    0.106E-04
DAV:  15    -0.100060125666E+03   -0.31864E-06   -0.10525E-08    88   0.314E-04
   4 F= -.10006013E+03 E0= -.10006013E+03  d E =-.310465E-01
       N       E                     dE             d eps       ncg     rms          rms(c)
DAV:   1    -0.100062041973E+03   -0.19166E-02   -0.93649E-02    86   0.134E+00    0.120E-01
DAV:   2    -0.100062390681E+03   -0.34871E-03   -0.45986E-03   120   0.240E-01    0.533E-02
DAV:   3    -0.100062351219E+03    0.39462E-04   -0.20090E-04   120   0.536E-02    0.286E-02
DAV:   4    -0.100062340856E+03    0.10363E-04   -0.50669E-05   112   0.256E-02    0.946E-03
DAV:   5    -0.100062338480E+03    0.23766E-05   -0.48364E-06   120   0.964E-03    0.510E-03
DAV:   6    -0.100062339423E+03   -0.94384E-06   -0.11108E-06    88   0.511E-03
   5 F= -.10006234E+03 E0= -.10006234E+03  d E =-.332603E-01
       N       E                     dE             d eps       ncg     rms          rms(c)
DAV:   1    -0.100075176735E+03   -0.12838E-01   -0.37781E-01    84   0.276E+00    0.193E-01
DAV:   2    -0.100076091495E+03   -0.91476E-03   -0.14788E-02   120   0.453E-01    0.108E-01
DAV:   3    -0.100075940455E+03    0.15104E-03   -0.64761E-04   120   0.976E-02    0.571E-02
DAV:   4    -0.100075913131E+03    0.27324E-04   -0.18465E-04   112   0.474E-02    0.156E-02
DAV:   5    -0.100075912052E+03    0.10795E-05   -0.14721E-05   112   0.162E-02    0.838E-03
DAV:   6    -0.100075919766E+03   -0.77139E-05   -0.54023E-06   112   0.943E-03    0.329E-03
DAV:   7    -0.100075934883E+03   -0.15117E-04   -0.26220E-06   112   0.554E-03    0.178E-03
DAV:   8    -0.100075944093E+03   -0.92104E-05   -0.24358E-07    88   0.184E-03    0.111E-03
DAV:   9    -0.100075960763E+03   -0.16670E-04   -0.87064E-07    80   0.215E-03    0.547E-04
DAV:  10    -0.100075969857E+03   -0.90946E-05   -0.41747E-07    88   0.149E-03    0.447E-04
DAV:  11    -0.100075979678E+03   -0.98208E-05   -0.45174E-07    88   0.162E-03    0.369E-04
DAV:  12    -0.100075982251E+03   -0.25733E-05   -0.98226E-08    88   0.839E-04    0.164E-04
DAV:  13    -0.100075983401E+03   -0.11493E-05   -0.19580E-08    88   0.429E-04    0.977E-05
DAV:  14    -0.100075985796E+03   -0.23952E-05   -0.70391E-08    88   0.557E-04    0.594E-05
DAV:  15    -0.100075986325E+03   -0.52943E-06   -0.99528E-09    88   0.239E-04
   6 F= -.10007599E+03 E0= -.10007599E+03  d E =-.136469E-01
       N       E                     dE             d eps       ncg     rms          rms(c)
DAV:   1    -0.100078612171E+03   -0.26264E-02   -0.21930E-01    84   0.211E+00    0.147E-01
DAV:   2    -0.100079148946E+03   -0.53677E-03   -0.86112E-03   120   0.346E-01    0.824E-02
DAV:   3    -0.100079062104E+03    0.86842E-04   -0.37371E-04   120   0.742E-02    0.436E-02
DAV:   4    -0.100079044428E+03    0.17676E-04   -0.10650E-04   112   0.361E-02    0.118E-02
DAV:   5    -0.100079041394E+03    0.30338E-05   -0.84693E-06   112   0.123E-02    0.634E-03
DAV:   6    -0.100079043727E+03   -0.23331E-05   -0.30373E-06   104   0.709E-03    0.244E-03
DAV:   7    -0.100079051083E+03   -0.73562E-05   -0.12736E-06    80   0.413E-03    0.112E-03
DAV:   8    -0.100079056973E+03   -0.58896E-05   -0.28770E-07    88   0.187E-03    0.813E-04
DAV:   9    -0.100079066894E+03   -0.99209E-05   -0.49840E-07    88   0.172E-03    0.376E-04
DAV:  10    -0.100079072531E+03   -0.56372E-05   -0.28157E-07    88   0.122E-03    0.301E-04
DAV:  11    -0.100079078140E+03   -0.56091E-05   -0.24185E-07    88   0.122E-03    0.313E-04
DAV:  12    -0.100079079504E+03   -0.13636E-05   -0.51926E-08    88   0.668E-04    0.118E-04
DAV:  13    -0.100079080411E+03   -0.90745E-06   -0.17253E-08    88   0.362E-04
   7 F= -.10007908E+03 E0= -.10007908E+03  d E =-.167410E-01
       N       E                     dE             d eps       ncg     rms          rms(c)
DAV:   1    -0.100089038222E+03   -0.99587E-02   -0.53125E-01    84   0.335E+00    0.219E-01
DAV:   2    -0.100089447285E+03   -0.40906E-03   -0.10183E-02   120   0.407E-01    0.115E-01
DAV:   3    -0.100089206706E+03    0.24058E-03   -0.69592E-04   128   0.109E-01    0.533E-02
DAV:   4    -0.100089206821E+03   -0.11463E-06   -0.31361E-04   120   0.651E-02    0.160E-02
DAV:   5    -0.100089211284E+03   -0.44635E-05   -0.30052E-05   112   0.226E-02    0.908E-03
DAV:   6    -0.100089214304E+03   -0.30196E-05   -0.37296E-06   112   0.705E-03    0.389E-03
DAV:   7    -0.100089219555E+03   -0.52506E-05   -0.61701E-07    88   0.332E-03    0.108E-03
DAV:   8    -0.100089223928E+03   -0.43729E-05   -0.38041E-07    88   0.243E-03    0.872E-04
DAV:   9    -0.100089229330E+03   -0.54030E-05   -0.20294E-07    88   0.201E-03    0.502E-04
DAV:  10    -0.100089233509E+03   -0.41782E-05   -0.23992E-07    88   0.149E-03    0.276E-04
DAV:  11    -0.100089235081E+03   -0.15723E-05   -0.59905E-08    88   0.835E-04    0.145E-04
DAV:  12    -0.100089236605E+03   -0.15243E-05   -0.43076E-08    88   0.540E-04    0.110E-04
DAV:  13    -0.100089237666E+03   -0.10603E-05   -0.25108E-08    88   0.382E-04    0.831E-05
DAV:  14    -0.100089238710E+03   -0.10445E-05   -0.29809E-08    88   0.382E-04    0.365E-05
DAV:  15    -0.100089238963E+03   -0.25262E-06   -0.46447E-09    88   0.178E-04
   8 F= -.10008924E+03 E0= -.10008924E+03  d E =-.101586E-01
       N       E                     dE             d eps       ncg     rms          rms(c)
DAV:   1    -0.100090773523E+03   -0.15348E-02   -0.17929E-01    84   0.195E+00    0.127E-01
DAV:   2    -0.100090908698E+03   -0.13517E-03   -0.34288E-03   120   0.236E-01    0.668E-02
DAV:   3    -0.100090826132E+03    0.82566E-04   -0.23471E-04   128   0.635E-02    0.308E-02
DAV:   4    -0.100090825379E+03    0.75350E-06   -0.10523E-04   120   0.377E-02    0.930E-03
DAV:   5    -0.100090827189E+03   -0.18106E-05   -0.10047E-05   112   0.131E-02    0.527E-03
DAV:   6    -0.100090828449E+03   -0.12597E-05   -0.11048E-06    88   0.408E-03    0.222E-03
DAV:   7    -0.100090830797E+03   -0.23480E-05   -0.37361E-07    88   0.255E-03    0.582E-04
DAV:   8    -0.100090832793E+03   -0.19959E-05   -0.17990E-07    88   0.171E-03    0.539E-04
DAV:   9    -0.100090835008E+03   -0.22147E-05   -0.90520E-08    88   0.126E-03    0.194E-04
DAV:  10    -0.100090836750E+03   -0.17424E-05   -0.87734E-08    88   0.889E-04    0.150E-04
DAV:  11    -0.100090837579E+03   -0.82895E-06   -0.25496E-08    88   0.525E-04
   9 F= -.10009084E+03 E0= -.10009084E+03  d E =-.117572E-01
       N       E                     dE             d eps       ncg     rms          rms(c)
DAV:   1    -0.100097968687E+03   -0.71319E-02   -0.42856E-01    84   0.298E+00    0.178E-01
DAV:   2    -0.100098459825E+03   -0.49114E-03   -0.99197E-03   120   0.391E-01    0.102E-01
DAV:   3    -0.100098279880E+03    0.17994E-03   -0.56382E-04   128   0.930E-02    0.471E-02
DAV:   4    -0.100098251377E+03    0.28504E-04   -0.17352E-04   120   0.495E-02    0.133E-02
DAV:   5    -0.100098245778E+03    0.55984E-05   -0.17778E-05   112   0.192E-02    0.723E-03
DAV:   6    -0.100098249623E+03   -0.38448E-05   -0.56401E-06   112   0.101E-02    0.318E-03
DAV:   7    -0.100098258980E+03   -0.93573E-05   -0.75762E-07    88   0.467E-03    0.136E-03
DAV:   8    -0.100098270762E+03   -0.11782E-04   -0.75409E-07    88   0.394E-03    0.970E-04
DAV:   9    -0.100098287256E+03   -0.16494E-04   -0.14387E-06    96   0.393E-03    0.394E-04
DAV:  10    -0.100098294085E+03   -0.68295E-05   -0.44801E-07    88   0.229E-03    0.395E-04
DAV:  11    -0.100098296380E+03   -0.22949E-05   -0.70749E-08    88   0.913E-04    0.306E-04
DAV:  12    -0.100098302710E+03   -0.63298E-05   -0.31579E-07    88   0.139E-03    0.172E-04
DAV:  13    -0.100098303600E+03   -0.88979E-06   -0.49374E-08    88   0.564E-04
  10 F= -.10009830E+03 E0= -.10009830E+03  d E =-.746602E-02
       N       E                     dE             d eps       ncg     rms          rms(c)
DAV:   1    -0.100099499384E+03   -0.11967E-02   -0.18775E-01    84   0.197E+00    0.118E-01
DAV:   2    -0.100099712967E+03   -0.21358E-03   -0.43467E-03   120   0.259E-01    0.675E-02
DAV:   3    -0.100099631751E+03    0.81216E-04   -0.24817E-04   128   0.616E-02    0.311E-02
DAV:   4    -0.100099617660E+03    0.14091E-04   -0.75320E-05   120   0.326E-02    0.882E-03
DAV:   5    -0.100099614690E+03    0.29703E-05   -0.77004E-06   112   0.126E-02    0.478E-03
DAV:   6    -0.100099616092E+03   -0.14024E-05   -0.23110E-06   104   0.666E-03    0.206E-03
DAV:   7    -0.100099620384E+03   -0.42922E-05   -0.45405E-07    88   0.345E-03    0.917E-04
DAV:   8    -0.100099626295E+03   -0.59108E-05   -0.38441E-07    88   0.277E-03    0.640E-04
DAV:   9    -0.100099634823E+03   -0.85285E-05   -0.66422E-07    88   0.268E-03    0.286E-04
DAV:  10    -0.100099638692E+03   -0.38688E-05   -0.28780E-07    88   0.164E-03    0.276E-04
DAV:  11    -0.100099639777E+03   -0.10848E-05   -0.43758E-08    88   0.697E-04    0.222E-04
DAV:  12    -0.100099642957E+03   -0.31799E-05   -0.13413E-07    88   0.937E-04    0.102E-04
DAV:  13    -0.100099643773E+03   -0.81599E-06   -0.36957E-08    88   0.468E-04
  11 F= -.10009964E+03 E0= -.10009964E+03  d E =-.880619E-02
       N       E                     dE             d eps       ncg     rms          rms(c)
DAV:   1    -0.100100959355E+03   -0.13164E-02   -0.11766E-01    84   0.149E+00    0.100E-01
DAV:   2    -0.100101310809E+03   -0.35145E-03   -0.44747E-03   104   0.264E-01    0.622E-02
DAV:   3    -0.100101273082E+03    0.37726E-04   -0.13603E-04   120   0.500E-02    0.332E-02
DAV:   4    -0.100101268294E+03    0.47882E-05   -0.65032E-05   112   0.303E-02    0.672E-03
DAV:   5    -0.100101267532E+03    0.76215E-06   -0.87025E-06   112   0.118E-02
  12 F= -.10010127E+03 E0= -.10010127E+03  d E =-.162376E-02
       N       E                     dE             d eps       ncg     rms          rms(c)
DAV:   1    -0.100101267977E+03    0.31732E-06   -0.40974E-05   104   0.281E-02    0.237E-03
DAV:   2    -0.100101269060E+03   -0.10828E-05   -0.10660E-06    88   0.449E-03    0.161E-03
DAV:   3    -0.100101271140E+03   -0.20803E-05   -0.34486E-07    80   0.273E-03    0.530E-04
DAV:   4    -0.100101272810E+03   -0.16698E-05   -0.17927E-07    88   0.166E-03    0.380E-04
DAV:   5    -0.100101274409E+03   -0.15991E-05   -0.53275E-08    88   0.846E-04    0.222E-04
DAV:   6    -0.100101277174E+03   -0.27647E-05   -0.17661E-07    80   0.103E-03    0.153E-04
DAV:   7    -0.100101278236E+03   -0.10626E-05   -0.46082E-08    88   0.607E-04    0.883E-05
DAV:   8    -0.100101279190E+03   -0.95336E-06   -0.32127E-08    88   0.452E-04
  13 F= -.10010128E+03 E0= -.10010128E+03  d E =-.163542E-02
       N       E                     dE             d eps       ncg     rms          rms(c)
DAV:   1    -0.100102921092E+03   -0.16429E-02   -0.99996E-02    84   0.142E+00    0.953E-02
DAV:   2    -0.100102968474E+03   -0.47382E-04   -0.21770E-03   120   0.182E-01    0.532E-02
DAV:   3    -0.100102924733E+03    0.43740E-04   -0.14516E-04   128   0.468E-02    0.258E-02
DAV:   4    -0.100102916564E+03    0.81689E-05   -0.34112E-05   112   0.229E-02    0.776E-03
DAV:   5    -0.100102916158E+03    0.40639E-06   -0.38273E-06   120   0.853E-03
  14 F= -.10010292E+03 E0= -.10010292E+03  d E =-.163697E-02
       N       E                     dE             d eps       ncg     rms          rms(c)
DAV:   1    -0.100103140844E+03   -0.22428E-03   -0.45740E-02    84   0.960E-01    0.643E-02
DAV:   2    -0.100103159547E+03   -0.18702E-04   -0.10077E-03   120   0.124E-01    0.358E-02
DAV:   3    -0.100103137387E+03    0.22159E-04   -0.66507E-05   128   0.318E-02    0.176E-02
DAV:   4    -0.100103134268E+03    0.31192E-05   -0.15865E-05   120   0.159E-02    0.525E-03
DAV:   5    -0.100103136636E+03   -0.23674E-05   -0.19236E-06    96   0.627E-03    0.295E-03
DAV:   6    -0.100103140354E+03   -0.37188E-05   -0.68308E-07    88   0.329E-03    0.973E-04
DAV:   7    -0.100103144039E+03   -0.36847E-05   -0.26776E-07    88   0.191E-03    0.555E-04
DAV:   8    -0.100103149767E+03   -0.57282E-05   -0.33289E-07    88   0.169E-03    0.366E-04
DAV:   9    -0.100103152555E+03   -0.27873E-05   -0.14272E-07    88   0.109E-03    0.251E-04
DAV:  10    -0.100103155728E+03   -0.31734E-05   -0.14121E-07    88   0.917E-04    0.104E-04
DAV:  11    -0.100103156901E+03   -0.11734E-05   -0.45540E-08    88   0.529E-04    0.728E-05
DAV:  12    -0.100103157998E+03   -0.10968E-05   -0.32820E-08    88   0.424E-04    0.539E-05
DAV:  13    -0.100103158496E+03   -0.49753E-06   -0.15956E-08    88   0.286E-04
  15 F= -.10010316E+03 E0= -.10010316E+03  d E =-.187931E-02
       N       E                     dE             d eps       ncg     rms          rms(c)
DAV:   1    -0.100103169033E+03   -0.11035E-04   -0.13458E-03    84   0.165E-01    0.111E-02
DAV:   2    -0.100103170344E+03   -0.13112E-05   -0.29181E-05   120   0.211E-02    0.616E-03
DAV:   3    -0.100103170226E+03    0.11853E-06   -0.16692E-06    88   0.543E-03
  16 F= -.10010317E+03 E0= -.10010317E+03  d E =-.189104E-02
       N       E                     dE             d eps       ncg     rms          rms(c)
DAV:   1    -0.100103195347E+03   -0.25003E-04   -0.15271E-02    84   0.538E-01    0.417E-02
DAV:   2    -0.100103257777E+03   -0.62429E-04   -0.75240E-04   120   0.106E-01    0.247E-02
DAV:   3    -0.100103252163E+03    0.56143E-05   -0.20137E-05   120   0.191E-02    0.144E-02
DAV:   4    -0.100103250866E+03    0.12963E-05   -0.10910E-05   112   0.141E-02    0.239E-03
DAV:   5    -0.100103250816E+03    0.50366E-07   -0.25684E-06   104   0.681E-03
  17 F= -.10010325E+03 E0= -.10010325E+03  d E =-.805904E-04
       N       E                     dE             d eps       ncg     rms          rms(c)
DAV:   1    -0.100103295230E+03   -0.44364E-04   -0.22808E-03    84   0.208E-01    0.157E-02
DAV:   2    -0.100103304225E+03   -0.89947E-05   -0.10875E-04   120   0.402E-02    0.961E-03
DAV:   3    -0.100103303632E+03    0.59286E-06   -0.28319E-06   104   0.749E-03
  18 F= -.10010330E+03 E0= -.10010330E+03  d E =-.133406E-03
