       N       E                     dE             d eps       ncg     rms          rms(c)
DAV:   1     0.246239548597E+03    0.24624E+03   -0.10179E+04   120   0.484E+02
DAV:   2    -0.222242027006E+02   -0.26846E+03   -0.25439E+03   156   0.918E+01
DAV:   3    -0.102515472657E+03   -0.80291E+02   -0.80090E+02   120   0.554E+01
DAV:   4    -0.106465054361E+03   -0.39496E+01   -0.39368E+01   132   0.177E+01
DAV:   5    -0.106529359520E+03   -0.64305E-01   -0.64253E-01   168   0.250E+00    0.153E+01
DAV:   6    -0.103071831438E+03    0.34575E+01   -0.15869E+00   108   0.436E+00    0.884E+00
DAV:   7    -0.101311820177E+03    0.17600E+01   -0.42838E+00   120   0.637E+00    0.131E+00
DAV:   8    -0.101256529479E+03    0.55291E-01   -0.34707E-01   132   0.223E+00    0.692E-01
DAV:   9    -0.101222403613E+03    0.34126E-01   -0.63259E-02   144   0.683E-01    0.365E-01
DAV:  10    -0.101221128235E+03    0.12754E-02   -0.37776E-03   120   0.211E-01    0.142E-01
DAV:  11    -0.101219978939E+03    0.11493E-02   -0.60241E-03   120   0.208E-01    0.105E-01
DAV:  12    -0.101225974506E+03   -0.59956E-02   -0.17388E-03   132   0.112E-01    0.479E-02
DAV:  13    -0.101229061959E+03   -0.30875E-02   -0.17424E-03   132   0.104E-01    0.434E-02
DAV:  14    -0.101232030358E+03   -0.29684E-02   -0.17111E-04   132   0.458E-02    0.204E-02
DAV:  15    -0.101236901778E+03   -0.48714E-02   -0.52929E-04   120   0.552E-02    0.130E-02
DAV:  16    -0.101238534337E+03   -0.16326E-02   -0.11119E-04   132   0.295E-02    0.834E-03
DAV:  17    -0.101239827361E+03   -0.12930E-02   -0.11362E-04   108   0.236E-02    0.664E-03
DAV:  18    -0.101240194357E+03   -0.36700E-03   -0.14441E-05   132   0.976E-03    0.256E-03
DAV:  19    -0.101240373679E+03   -0.17932E-03   -0.68240E-06   108   0.605E-03    0.179E-03
DAV:  20    -0.101240435275E+03   -0.61596E-04   -0.11356E-06    96   0.320E-03    0.522E-04
DAV:  21    -0.101240459961E+03   -0.24686E-04   -0.59756E-07    84   0.199E-03    0.555E-04
DAV:  22    -0.101240472052E+03   -0.12091E-04   -0.25019E-07    96   0.128E-03    0.185E-04
DAV:  23    -0.101240475988E+03   -0.39362E-05   -0.70370E-08    96   0.637E-04    0.127E-04
DAV:  24    -0.101240480159E+03   -0.41709E-05   -0.70229E-08    84   0.546E-04    0.826E-05
DAV:  25    -0.101240480640E+03   -0.48052E-06   -0.25956E-09   108   0.230E-04
   1 F= -.10124048E+03 E0= -.10124048E+03  d E =-.571217E-10
       N       E                     dE             d eps       ncg     rms          rms(c)
DAV:   1    -0.101237158070E+03    0.33221E-02   -0.80808E-02    96   0.779E-01    0.131E-01
DAV:   2    -0.101237498176E+03   -0.34011E-03   -0.39323E-03   132   0.204E-01    0.578E-02
DAV:   3    -0.101237481608E+03    0.16568E-04   -0.15380E-04   144   0.453E-02    0.300E-02
DAV:   4    -0.101237484636E+03   -0.30271E-05   -0.38132E-05   108   0.219E-02    0.906E-03
DAV:   5    -0.101237483717E+03    0.91814E-06   -0.67747E-06   132   0.984E-03
   2 F= -.10123748E+03 E0= -.10123748E+03  d E =-.587505E-10
       N       E                     dE             d eps       ncg     rms          rms(c)
DAV:   1    -0.101235991150E+03    0.14935E-02   -0.32267E-01    96   0.156E+00    0.264E-01
DAV:   2    -0.101237373046E+03   -0.13819E-02   -0.15925E-02   132   0.405E-01    0.117E-01
DAV:   3    -0.101237308067E+03    0.64979E-04   -0.62633E-04   132   0.907E-02    0.616E-02
DAV:   4    -0.101237325201E+03   -0.17134E-04   -0.15181E-04   108   0.439E-02    0.186E-02
DAV:   5    -0.101237322584E+03    0.26175E-05   -0.25935E-05   132   0.192E-02    0.104E-02
DAV:   6    -0.101237322270E+03    0.31430E-06   -0.52482E-06   120   0.767E-03
   3 F= -.10123732E+03 E0= -.10123732E+03  d E =-.717340E-10
       N       E                     dE             d eps       ncg     rms          rms(c)
DAV:   1    -0.101236803779E+03    0.51881E-03   -0.16324E-01    96   0.113E+00    0.192E-01
DAV:   2    -0.101237438486E+03   -0.63471E-03   -0.74791E-03   120   0.282E-01    0.805E-02
DAV:   3    -0.101237411923E+03    0.26562E-04   -0.30020E-04   132   0.627E-02    0.429E-02
DAV:   4    -0.101237422231E+03   -0.10308E-04   -0.69482E-05   120   0.297E-02    0.132E-02
DAV:   5    -0.101237422090E+03    0.14101E-06   -0.11717E-05   132   0.132E-02    0.716E-03
DAV:   6    -0.101237422299E+03   -0.20900E-06   -0.25429E-06   108   0.539E-03
   4 F= -.10123742E+03 E0= -.10123742E+03  d E =-.639068E-10
       N       E                     dE             d eps       ncg     rms          rms(c)
DAV:   1    -0.101236066174E+03    0.13559E-02   -0.32810E-01    96   0.160E+00    0.270E-01
DAV:   2    -0.101237342157E+03   -0.12760E-02   -0.14917E-02   108   0.404E-01    0.117E-01
DAV:   3    -0.101237279639E+03    0.62519E-04   -0.57377E-04   132   0.894E-02    0.614E-02
DAV:   4    -0.101237293755E+03   -0.14116E-04   -0.15603E-04   108   0.452E-02    0.180E-02
DAV:   5    -0.101237290263E+03    0.34913E-05   -0.28134E-05   120   0.206E-02    0.105E-02
DAV:   6    -0.101237289918E+03    0.34562E-06   -0.57440E-06   132   0.814E-03
   5 F= -.10123729E+03 E0= -.10123729E+03  d E =-.668648E-10
       N       E                     dE             d eps       ncg     rms          rms(c)
DAV:   1    -0.101235243106E+03    0.20472E-02   -0.16331E-01    96   0.116E+00    0.192E-01
DAV:   2    -0.101236061853E+03   -0.81875E-03   -0.91880E-03   108   0.318E-01    0.942E-02
DAV:   3    -0.101236013426E+03    0.48427E-04   -0.31168E-04   132   0.682E-02    0.502E-02
DAV:   4    -0.101236020229E+03   -0.68037E-05   -0.11846E-04   108   0.389E-02    0.129E-02
DAV:   5    -0.101236018660E+03    0.15695E-05   -0.20079E-05   120   0.167E-02    0.800E-03
DAV:   6    -0.101236020365E+03   -0.17056E-05   -0.34502E-06   132   0.599E-03    0.494E-03
DAV:   7    -0.101236025533E+03   -0.51680E-05   -0.40430E-07    84   0.230E-03    0.179E-03
DAV:   8    -0.101236030514E+03   -0.49806E-05   -0.42026E-07    96   0.224E-03    0.667E-04
DAV:   9    -0.101236035476E+03   -0.49619E-05   -0.32256E-07    84   0.170E-03    0.560E-04
DAV:  10    -0.101236042505E+03   -0.70295E-05   -0.57921E-07   108   0.170E-03    0.566E-04
DAV:  11    -0.101236043463E+03   -0.95751E-06   -0.33646E-08   120   0.710E-04
   6 F= -.10123604E+03 E0= -.10123604E+03  d E =-.649394E-10
       N       E                     dE             d eps       ncg     rms          rms(c)
DAV:   1    -0.101234239561E+03    0.18029E-02   -0.33099E-01    96   0.164E+00    0.272E-01
DAV:   2    -0.101236413106E+03   -0.21735E-02   -0.23912E-02   108   0.489E-01    0.168E-01
DAV:   3    -0.101236242911E+03    0.17019E-03   -0.71762E-04   144   0.107E-01    0.845E-02
DAV:   4    -0.101236250825E+03   -0.79139E-05   -0.42750E-04   120   0.680E-02    0.170E-02
DAV:   5    -0.101236239328E+03    0.11496E-04   -0.49711E-05   120   0.251E-02    0.112E-02
DAV:   6    -0.101236240055E+03   -0.72660E-06   -0.11316E-05   120   0.882E-03    0.682E-03
DAV:   7    -0.101236251065E+03   -0.11010E-04   -0.85707E-07    96   0.324E-03    0.295E-03
DAV:   8    -0.101236268233E+03   -0.17168E-04   -0.19939E-06   120   0.465E-03    0.147E-03
DAV:   9    -0.101236280139E+03   -0.11906E-04   -0.95285E-07   120   0.240E-03    0.153E-03
DAV:  10    -0.101236297363E+03   -0.17224E-04   -0.70878E-07    96   0.185E-03    0.775E-04
DAV:  11    -0.101236303518E+03   -0.61547E-05   -0.31677E-07   108   0.113E-03    0.525E-04
DAV:  12    -0.101236309911E+03   -0.63935E-05   -0.15091E-07    84   0.881E-04    0.167E-04
DAV:  13    -0.101236313789E+03   -0.38771E-05   -0.11178E-07   108   0.646E-04    0.215E-04
DAV:  14    -0.101236316243E+03   -0.24549E-05   -0.30776E-08    84   0.408E-04    0.856E-05
DAV:  15    -0.101236317131E+03   -0.88747E-06   -0.76336E-09   108   0.254E-04
   7 F= -.10123632E+03 E0= -.10123632E+03  d E =-.513963E-10
       N       E                     dE             d eps       ncg     rms          rms(c)
DAV:   1    -0.101235246018E+03    0.10702E-02   -0.18921E-01    96   0.127E+00    0.190E-01
DAV:   2    -0.101236606074E+03   -0.13601E-02   -0.14251E-02   108   0.401E-01    0.120E-01
DAV:   3    -0.101236522473E+03    0.83600E-04   -0.39184E-04   132   0.809E-02    0.645E-02
DAV:   4    -0.101236524866E+03   -0.23924E-05   -0.21928E-04   120   0.535E-02    0.126E-02
DAV:   5    -0.101236519049E+03    0.58173E-05   -0.39578E-05   120   0.219E-02    0.938E-03
DAV:   6    -0.101236519937E+03   -0.88833E-06   -0.44109E-06   144   0.635E-03
   8 F= -.10123652E+03 E0= -.10123652E+03  d E =-.651168E-10
       N       E                     dE             d eps       ncg     rms          rms(c)
DAV:   1    -0.101234699418E+03    0.18196E-02   -0.33752E-01    96   0.164E+00    0.258E-01
DAV:   2    -0.101236594461E+03   -0.18950E-02   -0.19610E-02   120   0.447E-01    0.154E-01
DAV:   3    -0.101236532322E+03    0.62139E-04   -0.55977E-04   108   0.863E-02    0.861E-02
DAV:   4    -0.101236530305E+03    0.20171E-05   -0.20663E-04   132   0.520E-02    0.172E-02
DAV:   5    -0.101236520094E+03    0.10211E-04   -0.38028E-05   132   0.226E-02    0.105E-02
DAV:   6    -0.101236519740E+03    0.35389E-06   -0.76544E-06   132   0.954E-03
   9 F= -.10123652E+03 E0= -.10123652E+03  d E =-.761689E-10
       N       E                     dE             d eps       ncg     rms          rms(c)
DAV:   1    -0.101234514848E+03    0.20052E-02   -0.16991E-01    96   0.116E+00    0.181E-01
DAV:   2    -0.101235598141E+03   -0.10833E-02   -0.10977E-02   132   0.347E-01    0.115E-01
DAV:   3    -0.101235578007E+03    0.20134E-04   -0.29617E-04   108   0.692E-02    0.600E-02
DAV:   4    -0.101235598377E+03   -0.20370E-04   -0.16203E-04   120   0.463E-02    0.124E-02
DAV:   5    -0.101235593384E+03    0.49929E-05   -0.27847E-05   132   0.194E-02    0.838E-03
DAV:   6    -0.101235594188E+03   -0.80440E-06   -0.71638E-06   108   0.780E-03
  10 F= -.10123559E+03 E0= -.10123559E+03  d E =-.647058E-10
       N       E                     dE             d eps       ncg     rms          rms(c)
DAV:   1    -0.101233085678E+03    0.25077E-02   -0.34440E-01    96   0.169E+00    0.264E-01
DAV:   2    -0.101235768780E+03   -0.26831E-02   -0.27240E-02   132   0.539E-01    0.185E-01
DAV:   3    -0.101235625065E+03    0.14371E-03   -0.64583E-04   132   0.108E-01    0.941E-02
DAV:   4    -0.101235655421E+03   -0.30356E-04   -0.50777E-04   108   0.810E-02    0.188E-02
DAV:   5    -0.101235638392E+03    0.17029E-04   -0.91390E-05   132   0.342E-02    0.124E-02
DAV:   6    -0.101235638021E+03    0.37102E-06   -0.16296E-05   132   0.106E-02    0.703E-03
DAV:   7    -0.101235649905E+03   -0.11884E-04   -0.91793E-07   108   0.317E-03    0.348E-03
DAV:   8    -0.101235668880E+03   -0.18974E-04   -0.41493E-06   108   0.572E-03    0.161E-03
DAV:   9    -0.101235681730E+03   -0.12851E-04   -0.13292E-06   132   0.315E-03    0.154E-03
DAV:  10    -0.101235697880E+03   -0.16150E-04   -0.13727E-06   108   0.246E-03    0.578E-04
DAV:  11    -0.101235702278E+03   -0.43977E-05   -0.13778E-07   108   0.104E-03    0.356E-04
DAV:  12    -0.101235709249E+03   -0.69711E-05   -0.29156E-07    84   0.110E-03    0.178E-04
DAV:  13    -0.101235711464E+03   -0.22150E-05   -0.68091E-08    96   0.521E-04    0.183E-04
DAV:  14    -0.101235713495E+03   -0.20316E-05   -0.28975E-08    84   0.426E-04    0.114E-04
DAV:  15    -0.101235714201E+03   -0.70605E-06   -0.97960E-09    96   0.261E-04
  11 F= -.10123571E+03 E0= -.10123571E+03  d E =-.574320E-10
       N       E                     dE             d eps       ncg     rms          rms(c)
DAV:   1    -0.101235920888E+03   -0.20739E-03   -0.17017E-01    96   0.120E+00    0.192E-01
DAV:   2    -0.101237135291E+03   -0.12144E-02   -0.12551E-02   120   0.365E-01    0.122E-01
DAV:   3    -0.101237066654E+03    0.68636E-04   -0.31695E-04   144   0.734E-02    0.640E-02
DAV:   4    -0.101237070215E+03   -0.35605E-05   -0.20429E-04   120   0.529E-02    0.127E-02
DAV:   5    -0.101237064080E+03    0.61352E-05   -0.41338E-05   132   0.235E-02    0.890E-03
DAV:   6    -0.101237065573E+03   -0.14939E-05   -0.73816E-06   132   0.750E-03    0.563E-03
DAV:   7    -0.101237074854E+03   -0.92809E-05   -0.67740E-07   108   0.300E-03    0.250E-03
DAV:   8    -0.101237088765E+03   -0.13910E-04   -0.19857E-06   108   0.403E-03    0.110E-03
DAV:   9    -0.101237098585E+03   -0.98202E-05   -0.73725E-07    96   0.248E-03    0.105E-03
DAV:  10    -0.101237111202E+03   -0.12617E-04   -0.12938E-06   108   0.229E-03    0.545E-04
DAV:  11    -0.101237114217E+03   -0.30143E-05   -0.79955E-08   108   0.870E-04    0.300E-04
DAV:  12    -0.101237118210E+03   -0.39933E-05   -0.15172E-07    84   0.857E-04    0.177E-04
DAV:  13    -0.101237119894E+03   -0.16844E-05   -0.45096E-08    96   0.463E-04    0.213E-04
DAV:  14    -0.101237121375E+03   -0.14802E-05   -0.26085E-08    84   0.380E-04    0.824E-05
DAV:  15    -0.101237121848E+03   -0.47391E-06   -0.31445E-09    96   0.214E-04
  12 F= -.10123712E+03 E0= -.10123712E+03  d E =-.574632E-10
       N       E                     dE             d eps       ncg     rms          rms(c)
DAV:   1    -0.101235239801E+03    0.18816E-02   -0.32832E-01    96   0.160E+00    0.271E-01
DAV:   2    -0.101236995276E+03   -0.17555E-02   -0.18508E-02   108   0.429E-01    0.134E-01
DAV:   3    -0.101236937381E+03    0.57895E-04   -0.57605E-04   132   0.874E-02    0.723E-02
DAV:   4    -0.101236948490E+03   -0.11109E-04   -0.19783E-04   132   0.542E-02    0.162E-02
DAV:   5    -0.101236941747E+03    0.67435E-05   -0.45908E-05   144   0.252E-02    0.115E-02
DAV:   6    -0.101236941531E+03    0.21617E-06   -0.68208E-06   144   0.864E-03
  13 F= -.10123694E+03 E0= -.10123694E+03  d E =-.847728E-10
       N       E                     dE             d eps       ncg     rms          rms(c)
DAV:   1    -0.101234599167E+03    0.23426E-02   -0.16785E-01    96   0.128E+00    0.192E-01
DAV:   2    -0.101235884211E+03   -0.12850E-02   -0.13266E-02   132   0.396E-01    0.115E-01
DAV:   3    -0.101235831395E+03    0.52816E-04   -0.35046E-04   120   0.757E-02    0.669E-02
DAV:   4    -0.101235849754E+03   -0.18359E-04   -0.18660E-04   108   0.550E-02    0.132E-02
DAV:   5    -0.101235848776E+03    0.97777E-06   -0.53408E-05   132   0.268E-02    0.104E-02
DAV:   6    -0.101235847381E+03    0.13952E-05   -0.53959E-06   120   0.785E-03    0.736E-03
DAV:   7    -0.101235850908E+03   -0.35270E-05   -0.15847E-06   120   0.473E-03    0.285E-03
DAV:   8    -0.101235855984E+03   -0.50764E-05   -0.53031E-07   108   0.328E-03    0.779E-04
DAV:   9    -0.101235862584E+03   -0.66001E-05   -0.58985E-07    84   0.243E-03    0.101E-03
DAV:  10    -0.101235871398E+03   -0.88138E-05   -0.48134E-07    96   0.185E-03    0.380E-04
DAV:  11    -0.101235873460E+03   -0.20624E-05   -0.90043E-08   108   0.868E-04    0.356E-04
DAV:  12    -0.101235876371E+03   -0.29110E-05   -0.62420E-08    84   0.631E-04    0.199E-04
DAV:  13    -0.101235879222E+03   -0.28508E-05   -0.99338E-08    84   0.643E-04    0.149E-04
DAV:  14    -0.101235880410E+03   -0.11873E-05   -0.18156E-08   108   0.317E-04    0.109E-04
DAV:  15    -0.101235881251E+03   -0.84185E-06   -0.75504E-09    84   0.247E-04
  14 F= -.10123588E+03 E0= -.10123588E+03  d E =-.618611E-10
       N       E                     dE             d eps       ncg     rms          rms(c)
DAV:   1    -0.101233892730E+03    0.19877E-02   -0.35306E-01    96   0.178E+00    0.264E-01
DAV:   2    -0.101236079864E+03   -0.21871E-02   -0.22576E-02   120   0.531E-01    0.170E-01
DAV:   3    -0.101235972461E+03    0.10740E-03   -0.57083E-04   156   0.100E-01    0.886E-02
DAV:   4    -0.101235979235E+03   -0.67748E-05   -0.34672E-04   120   0.704E-02    0.170E-02
DAV:   5    -0.101235970668E+03    0.85678E-05   -0.70369E-05   132   0.306E-02    0.117E-02
DAV:   6    -0.101235977041E+03   -0.63737E-05   -0.14147E-05   120   0.106E-02    0.697E-03
DAV:   7    -0.101235997698E+03   -0.20656E-04   -0.15740E-06   120   0.433E-03    0.303E-03
DAV:   8    -0.101236026663E+03   -0.28966E-04   -0.32734E-06   108   0.501E-03    0.126E-03
DAV:   9    -0.101236046032E+03   -0.19368E-04   -0.19116E-06   108   0.349E-03    0.159E-03
DAV:  10    -0.101236066339E+03   -0.20308E-04   -0.16793E-06    96   0.296E-03    0.510E-04
DAV:  11    -0.101236071743E+03   -0.54039E-05   -0.22369E-07   108   0.130E-03    0.345E-04
DAV:  12    -0.101236077466E+03   -0.57228E-05   -0.18606E-07    84   0.980E-04    0.161E-04
DAV:  13    -0.101236080818E+03   -0.33524E-05   -0.13976E-07    96   0.744E-04    0.197E-04
DAV:  14    -0.101236082800E+03   -0.19819E-05   -0.43783E-08    96   0.478E-04    0.911E-05
DAV:  15    -0.101236083303E+03   -0.50232E-06   -0.41138E-09   108   0.232E-04
  15 F= -.10123608E+03 E0= -.10123608E+03  d E =-.558846E-10
       N       E                     dE             d eps       ncg     rms          rms(c)
DAV:   1    -0.101235501322E+03    0.58148E-03   -0.17818E-01    96   0.126E+00    0.201E-01
DAV:   2    -0.101236549935E+03   -0.10486E-02   -0.10933E-02   108   0.370E-01    0.122E-01
DAV:   3    -0.101236490246E+03    0.59690E-04   -0.30795E-04   144   0.753E-02    0.578E-02
DAV:   4    -0.101236496914E+03   -0.66679E-05   -0.19077E-04   108   0.501E-02    0.122E-02
DAV:   5    -0.101236489339E+03    0.75748E-05   -0.27955E-05   132   0.196E-02    0.733E-03
DAV:   6    -0.101236493371E+03   -0.40320E-05   -0.70792E-06   108   0.725E-03    0.324E-03
DAV:   7    -0.101236504127E+03   -0.10756E-04   -0.50637E-07   108   0.223E-03    0.161E-03
DAV:   8    -0.101236522870E+03   -0.18743E-04   -0.22909E-06    96   0.361E-03    0.108E-03
DAV:   9    -0.101236535135E+03   -0.12265E-04   -0.81694E-07   108   0.218E-03    0.769E-04
DAV:  10    -0.101236545075E+03   -0.99400E-05   -0.57866E-07    84   0.167E-03    0.262E-04
DAV:  11    -0.101236548679E+03   -0.36039E-05   -0.14554E-07   108   0.829E-04    0.234E-04
DAV:  12    -0.101236552672E+03   -0.39924E-05   -0.13999E-07    84   0.773E-04    0.989E-05
DAV:  13    -0.101236553917E+03   -0.12453E-05   -0.32269E-08    96   0.412E-04    0.794E-05
DAV:  14    -0.101236554997E+03   -0.10805E-05   -0.12699E-08    84   0.302E-04    0.375E-05
DAV:  15    -0.101236555335E+03   -0.33748E-06    0.16499E-09   108   0.163E-04
  16 F= -.10123656E+03 E0= -.10123656E+03  d E =-.812144E-10
       N       E                     dE             d eps       ncg     rms          rms(c)
DAV:   1    -0.101234578201E+03    0.19768E-02   -0.34564E-01    96   0.177E+00    0.253E-01
DAV:   2    -0.101236532987E+03   -0.19548E-02   -0.20252E-02   108   0.486E-01    0.152E-01
DAV:   3    -0.101236450249E+03    0.82738E-04   -0.50013E-04   132   0.903E-02    0.804E-02
DAV:   4    -0.101236455225E+03   -0.49762E-05   -0.28588E-04   132   0.643E-02    0.163E-02
DAV:   5    -0.101236445830E+03    0.93947E-05   -0.62510E-05   132   0.294E-02    0.117E-02
DAV:   6    -0.101236444455E+03    0.13753E-05   -0.12825E-05   132   0.110E-02    0.687E-03
DAV:   7    -0.101236453096E+03   -0.86409E-05   -0.22126E-06   132   0.560E-03    0.284E-03
DAV:   8    -0.101236466637E+03   -0.13541E-04   -0.11959E-06   120   0.396E-03    0.112E-03
DAV:   9    -0.101236482832E+03   -0.16195E-04   -0.13325E-06   132   0.309E-03    0.128E-03
DAV:  10    -0.101236499436E+03   -0.16604E-04   -0.79750E-07    84   0.233E-03    0.542E-04
DAV:  11    -0.101236506736E+03   -0.72999E-05   -0.33435E-07   108   0.131E-03    0.299E-04
DAV:  12    -0.101236514265E+03   -0.75293E-05   -0.21701E-07    84   0.998E-04    0.177E-04
DAV:  13    -0.101236517134E+03   -0.28691E-05   -0.69925E-08    96   0.565E-04    0.148E-04
DAV:  14    -0.101236519598E+03   -0.24635E-05   -0.37241E-08    84   0.425E-04    0.705E-05
DAV:  15    -0.101236520230E+03   -0.63231E-06   -0.27824E-09   108   0.224E-04
  17 F= -.10123652E+03 E0= -.10123652E+03  d E =-.417207E-10
       N       E                     dE             d eps       ncg     rms          rms(c)
DAV:   1    -0.101235691312E+03    0.82829E-03   -0.17232E-01    96   0.128E+00    0.171E-01
DAV:   2    -0.101236709744E+03   -0.10184E-02   -0.10547E-02   108   0.357E-01    0.114E-01
DAV:   3    -0.101236663890E+03    0.45854E-04   -0.25399E-04   132   0.638E-02    0.597E-02
DAV:   4    -0.101236650354E+03    0.13536E-04   -0.11714E-04   120   0.398E-02    0.105E-02
DAV:   5    -0.101236647284E+03    0.30696E-05   -0.17425E-05   132   0.157E-02    0.715E-03
DAV:   6    -0.101236653343E+03   -0.60583E-05   -0.60790E-06   132   0.821E-03    0.404E-03
DAV:   7    -0.101236670996E+03   -0.17653E-04   -0.22482E-06   120   0.538E-03    0.153E-03
DAV:   8    -0.101236687360E+03   -0.16364E-04   -0.11458E-06    96   0.341E-03    0.100E-03
DAV:   9    -0.101236706062E+03   -0.18702E-04   -0.16313E-06    96   0.308E-03    0.768E-04
DAV:  10    -0.101236717929E+03   -0.11866E-04   -0.96923E-07   108   0.217E-03    0.453E-04
DAV:  11    -0.101236724332E+03   -0.64033E-05   -0.33498E-07    84   0.128E-03    0.195E-04
DAV:  12    -0.101236727302E+03   -0.29701E-05   -0.15062E-07    96   0.788E-04    0.145E-04
DAV:  13    -0.101236728951E+03   -0.16494E-05   -0.54016E-08    84   0.514E-04    0.802E-05
DAV:  14    -0.101236729456E+03   -0.50477E-06   -0.37588E-09   108   0.243E-04
  18 F= -.10123673E+03 E0= -.10123673E+03  d E =-.516383E-10
       N       E                     dE             d eps       ncg     rms          rms(c)
DAV:   1    -0.101235025671E+03    0.17033E-02   -0.33506E-01    96   0.179E+00    0.212E-01
DAV:   2    -0.101236929794E+03   -0.19041E-02   -0.19434E-02   144   0.478E-01    0.142E-01
DAV:   3    -0.101236880723E+03    0.49071E-04   -0.47059E-04   132   0.852E-02    0.710E-02
DAV:   4    -0.101236876757E+03    0.39666E-05   -0.18637E-04   132   0.525E-02    0.138E-02
DAV:   5    -0.101236866139E+03    0.10618E-04   -0.33090E-05   132   0.226E-02    0.903E-03
DAV:   6    -0.101236867964E+03   -0.18258E-05   -0.79228E-06   132   0.919E-03    0.546E-03
DAV:   7    -0.101236880170E+03   -0.12206E-04   -0.18851E-06   132   0.634E-03    0.198E-03
DAV:   8    -0.101236896221E+03   -0.16051E-04   -0.18958E-06   108   0.568E-03    0.163E-03
DAV:   9    -0.101236913437E+03   -0.17216E-04   -0.99546E-07   108   0.343E-03    0.123E-03
DAV:  10    -0.101236929363E+03   -0.15926E-04   -0.87019E-07    96   0.214E-03    0.531E-04
DAV:  11    -0.101236937871E+03   -0.85083E-05   -0.25603E-07    96   0.123E-03    0.330E-04
DAV:  12    -0.101236945370E+03   -0.74991E-05   -0.19552E-07    84   0.956E-04    0.181E-04
DAV:  13    -0.101236948871E+03   -0.35004E-05   -0.79193E-08    96   0.596E-04    0.165E-04
DAV:  14    -0.101236950670E+03   -0.17995E-05   -0.12001E-08    84   0.333E-04    0.805E-05
DAV:  15    -0.101236952058E+03   -0.13878E-05   -0.18236E-08    96   0.307E-04    0.522E-05
DAV:  16    -0.101236952670E+03   -0.61262E-06    0.62631E-10    84   0.176E-04
  19 F= -.10123695E+03 E0= -.10123695E+03  d E =-.629523E-10
       N       E                     dE             d eps       ncg     rms          rms(c)
DAV:   1    -0.101234397743E+03    0.25543E-02   -0.17012E-01    96   0.129E+00    0.163E-01
DAV:   2    -0.101235765568E+03   -0.13678E-02   -0.13890E-02   132   0.404E-01    0.117E-01
DAV:   3    -0.101235713199E+03    0.52369E-04   -0.27937E-04   132   0.670E-02    0.709E-02
DAV:   4    -0.101235702230E+03    0.10969E-04   -0.18008E-04   132   0.532E-02    0.110E-02
DAV:   5    -0.101235698560E+03    0.36696E-05   -0.54115E-05   132   0.265E-02    0.884E-03
DAV:   6    -0.101235699037E+03   -0.47661E-06   -0.54607E-06   144   0.747E-03
  20 F= -.10123570E+03 E0= -.10123570E+03  d E =-.776708E-10
       N       E                     dE             d eps       ncg     rms          rms(c)
DAV:   1    -0.101233674894E+03    0.20237E-02   -0.35345E-01    96   0.178E+00    0.265E-01
DAV:   2    -0.101235953729E+03   -0.22788E-02   -0.23130E-02   132   0.539E-01    0.174E-01
DAV:   3    -0.101235860891E+03    0.92838E-04   -0.57629E-04   132   0.102E-01    0.891E-02
DAV:   4    -0.101235888645E+03   -0.27754E-04   -0.38227E-04   120   0.729E-02    0.173E-02
DAV:   5    -0.101235876689E+03    0.11956E-04   -0.69897E-05   132   0.306E-02    0.116E-02
DAV:   6    -0.101235879495E+03   -0.28068E-05   -0.13870E-05   108   0.103E-02    0.649E-03
DAV:   7    -0.101235894429E+03   -0.14934E-04   -0.12277E-06   108   0.376E-03    0.274E-03
DAV:   8    -0.101235914057E+03   -0.19628E-04   -0.22691E-06    96   0.430E-03    0.111E-03
DAV:   9    -0.101235931021E+03   -0.16964E-04   -0.16672E-06   108   0.315E-03    0.131E-03
DAV:  10    -0.101235946714E+03   -0.15693E-04   -0.13371E-06    96   0.260E-03    0.398E-04
DAV:  11    -0.101235950614E+03   -0.38999E-05   -0.12540E-07   108   0.103E-03    0.276E-04
DAV:  12    -0.101235955895E+03   -0.52808E-05   -0.21083E-07    84   0.973E-04    0.140E-04
DAV:  13    -0.101235958010E+03   -0.21149E-05   -0.78703E-08    96   0.569E-04    0.174E-04
DAV:  14    -0.101235959753E+03   -0.17429E-05   -0.34322E-08    84   0.423E-04    0.742E-05
DAV:  15    -0.101235960175E+03   -0.42238E-06   -0.16120E-09   108   0.208E-04
  21 F= -.10123596E+03 E0= -.10123596E+03  d E =-.540214E-10
       N       E                     dE             d eps       ncg     rms          rms(c)
DAV:   1    -0.101235366058E+03    0.59369E-03   -0.17350E-01    96   0.126E+00    0.179E-01
DAV:   2    -0.101236285929E+03   -0.91987E-03   -0.96182E-03   120   0.339E-01    0.107E-01
DAV:   3    -0.101236250116E+03    0.35813E-04   -0.24415E-04   132   0.608E-02    0.573E-02
DAV:   4    -0.101236246973E+03    0.31431E-05   -0.10870E-04   132   0.394E-02    0.110E-02
DAV:   5    -0.101236241429E+03    0.55435E-05   -0.20894E-05   132   0.170E-02    0.734E-03
DAV:   6    -0.101236240714E+03    0.71559E-06   -0.46789E-06   132   0.741E-03
  22 F= -.10123624E+03 E0= -.10123624E+03  d E =-.581062E-10
       N       E                     dE             d eps       ncg     rms          rms(c)
DAV:   1    -0.101234270589E+03    0.19708E-02   -0.34593E-01    96   0.179E+00    0.257E-01
DAV:   2    -0.101236285966E+03   -0.20154E-02   -0.20487E-02   144   0.499E-01    0.159E-01
DAV:   3    -0.101236233334E+03    0.52631E-04   -0.50344E-04   120   0.882E-02    0.886E-02
DAV:   4    -0.101236224407E+03    0.89272E-05   -0.23691E-04   120   0.573E-02    0.152E-02
DAV:   5    -0.101236216895E+03    0.75122E-05   -0.43414E-05   132   0.242E-02    0.106E-02
DAV:   6    -0.101236221557E+03   -0.46616E-05   -0.10599E-05   132   0.107E-02    0.624E-03
DAV:   7    -0.101236242645E+03   -0.21088E-04   -0.36312E-06   132   0.678E-03    0.230E-03
DAV:   8    -0.101236262398E+03   -0.19753E-04   -0.14780E-06   120   0.391E-03    0.122E-03
DAV:   9    -0.101236284455E+03   -0.22058E-04   -0.19706E-06    96   0.349E-03    0.104E-03
DAV:  10    -0.101236301068E+03   -0.16613E-04   -0.15106E-06   108   0.269E-03    0.717E-04
DAV:  11    -0.101236309976E+03   -0.89078E-05   -0.51824E-07    84   0.159E-03    0.234E-04
DAV:  12    -0.101236314527E+03   -0.45510E-05   -0.25826E-07    96   0.100E-03    0.186E-04
DAV:  13    -0.101236316628E+03   -0.21010E-05   -0.76596E-08    84   0.602E-04    0.141E-04
DAV:  14    -0.101236317302E+03   -0.67375E-06   -0.69853E-09   120   0.291E-04
  23 F= -.10123632E+03 E0= -.10123632E+03  d E =-.758972E-10
       N       E                     dE             d eps       ncg     rms          rms(c)
DAV:   1    -0.101236231923E+03    0.84705E-04   -0.17134E-01    96   0.123E+00    0.171E-01
DAV:   2    -0.101237072725E+03   -0.84080E-03   -0.87404E-03   108   0.320E-01    0.943E-02
DAV:   3    -0.101237051127E+03    0.21597E-04   -0.25235E-04   132   0.623E-02    0.487E-02
DAV:   4    -0.101237059508E+03   -0.83809E-05   -0.10228E-04   132   0.405E-02    0.106E-02
DAV:   5    -0.101237056218E+03    0.32903E-05   -0.24431E-05   132   0.185E-02    0.776E-03
DAV:   6    -0.101237055862E+03    0.35567E-06   -0.41575E-06   132   0.647E-03
  24 F= -.10123706E+03 E0= -.10123706E+03  d E =-.529827E-10
       N       E                     dE             d eps       ncg     rms          rms(c)
DAV:   1    -0.101235509743E+03    0.15465E-02   -0.33494E-01    96   0.173E+00    0.217E-01
DAV:   2    -0.101237244865E+03   -0.17351E-02   -0.17682E-02   132   0.456E-01    0.128E-01
DAV:   3    -0.101237227459E+03    0.17406E-04   -0.47138E-04   120   0.851E-02    0.659E-02
DAV:   4    -0.101237247753E+03   -0.20294E-04   -0.17070E-04   108   0.525E-02    0.138E-02
DAV:   5    -0.101237243509E+03    0.42432E-05   -0.38485E-05   132   0.237E-02    0.982E-03
DAV:   6    -0.101237245194E+03   -0.16848E-05   -0.67738E-06   132   0.845E-03    0.619E-03
DAV:   7    -0.101237252487E+03   -0.72925E-05   -0.95558E-07   108   0.464E-03    0.242E-03
DAV:   8    -0.101237262557E+03   -0.10071E-04   -0.17838E-06   108   0.513E-03    0.147E-03
DAV:   9    -0.101237275148E+03   -0.12591E-04   -0.83705E-07   108   0.332E-03    0.807E-04
DAV:  10    -0.101237283968E+03   -0.88195E-05   -0.56394E-07    84   0.209E-03    0.640E-04
DAV:  11    -0.101237288473E+03   -0.45057E-05   -0.14055E-07   108   0.116E-03    0.455E-04
DAV:  12    -0.101237294184E+03   -0.57108E-05   -0.16376E-07    84   0.966E-04    0.203E-04
DAV:  13    -0.101237296246E+03   -0.20620E-05   -0.43492E-08    96   0.512E-04    0.202E-04
DAV:  14    -0.101237298633E+03   -0.23869E-05   -0.41852E-08    84   0.449E-04    0.723E-05
DAV:  15    -0.101237299475E+03   -0.84160E-06   -0.96647E-09    96   0.265E-04
  25 F= -.10123730E+03 E0= -.10123730E+03  d E =-.749152E-10
       N       E                     dE             d eps       ncg     rms          rms(c)
DAV:   1    -0.101235548245E+03    0.17504E-02   -0.16662E-01    96   0.126E+00    0.154E-01
DAV:   2    -0.101236765276E+03   -0.12170E-02   -0.12665E-02   120   0.378E-01    0.105E-01
DAV:   3    -0.101236712216E+03    0.53060E-04   -0.31006E-04   144   0.694E-02    0.589E-02
DAV:   4    -0.101236702481E+03    0.97346E-05   -0.14393E-04   132   0.465E-02    0.108E-02
DAV:   5    -0.101236696663E+03    0.58183E-05   -0.35963E-05   132   0.217E-02    0.830E-03
DAV:   6    -0.101236697259E+03   -0.59641E-06   -0.49160E-06   144   0.694E-03
  26 F= -.10123670E+03 E0= -.10123670E+03  d E =-.773676E-10
       N       E                     dE             d eps       ncg     rms          rms(c)
DAV:   1    -0.101233639643E+03    0.30570E-02   -0.33523E-01    96   0.162E+00    0.242E-01
DAV:   2    -0.101235979312E+03   -0.23397E-02   -0.24719E-02   120   0.480E-01    0.162E-01
DAV:   3    -0.101235853649E+03    0.12566E-03   -0.67311E-04   132   0.980E-02    0.856E-02
DAV:   4    -0.101235866688E+03   -0.13039E-04   -0.34451E-04   108   0.635E-02    0.157E-02
DAV:   5    -0.101235858527E+03    0.81612E-05   -0.64656E-05   132   0.270E-02    0.115E-02
DAV:   6    -0.101235856460E+03    0.20674E-05   -0.94739E-06   108   0.845E-03    0.774E-03
DAV:   7    -0.101235862773E+03   -0.63134E-05   -0.11629E-06   120   0.363E-03    0.303E-03
DAV:   8    -0.101235873587E+03   -0.10814E-04   -0.13796E-06    96   0.389E-03    0.112E-03
DAV:   9    -0.101235882886E+03   -0.92988E-05   -0.78601E-07   108   0.217E-03    0.132E-03
DAV:  10    -0.101235897552E+03   -0.14666E-04   -0.81400E-07    96   0.193E-03    0.508E-04
DAV:  11    -0.101235901154E+03   -0.36029E-05   -0.10035E-07   108   0.863E-04    0.379E-04
DAV:  12    -0.101235907801E+03   -0.66470E-05   -0.22340E-07    84   0.973E-04    0.172E-04
DAV:  13    -0.101235909672E+03   -0.18704E-05   -0.44492E-08   108   0.459E-04    0.174E-04
DAV:  14    -0.101235911556E+03   -0.18842E-05   -0.19566E-08    84   0.360E-04    0.786E-05
DAV:  15    -0.101235912495E+03   -0.93937E-06   -0.11720E-08    96   0.264E-04
  27 F= -.10123591E+03 E0= -.10123591E+03  d E =-.488967E-10
       N       E                     dE             d eps       ncg     rms          rms(c)
DAV:   1    -0.101236529601E+03   -0.61805E-03   -0.16863E-01    96   0.116E+00    0.159E-01
DAV:   2    -0.101237590893E+03   -0.10613E-02   -0.11238E-02   120   0.332E-01    0.105E-01
DAV:   3    -0.101237534034E+03    0.56859E-04   -0.29564E-04   132   0.663E-02    0.572E-02
DAV:   4    -0.101237533081E+03    0.95250E-06   -0.13737E-04   108   0.412E-02    0.119E-02
DAV:   5    -0.101237529164E+03    0.39178E-05   -0.25057E-05   132   0.177E-02    0.759E-03
DAV:   6    -0.101237530209E+03   -0.10454E-05   -0.39790E-06   132   0.625E-03    0.483E-03
DAV:   7    -0.101237537633E+03   -0.74245E-05   -0.77432E-07    96   0.300E-03    0.158E-03
DAV:   8    -0.101237545584E+03   -0.79500E-05   -0.53828E-07   108   0.228E-03    0.722E-04
DAV:   9    -0.101237554960E+03   -0.93768E-05   -0.63736E-07    96   0.201E-03    0.726E-04
DAV:  10    -0.101237563463E+03   -0.85027E-05   -0.64799E-07   108   0.173E-03    0.328E-04
DAV:  11    -0.101237565955E+03   -0.24917E-05   -0.65901E-08   108   0.773E-04    0.232E-04
DAV:  12    -0.101237568464E+03   -0.25096E-05   -0.86563E-08    84   0.626E-04    0.965E-05
DAV:  13    -0.101237569632E+03   -0.11679E-05   -0.26987E-08    96   0.361E-04    0.116E-04
DAV:  14    -0.101237570514E+03   -0.88230E-06   -0.10734E-08    84   0.265E-04
  28 F= -.10123757E+03 E0= -.10123757E+03  d E =-.637954E-10
       N       E                     dE             d eps       ncg     rms          rms(c)
DAV:   1    -0.101236030380E+03    0.15393E-02   -0.33454E-01    96   0.165E+00    0.194E-01
DAV:   2    -0.101237524153E+03   -0.14938E-02   -0.15774E-02   108   0.401E-01    0.105E-01
DAV:   3    -0.101237500862E+03    0.23291E-04   -0.45996E-04   132   0.826E-02    0.507E-02
DAV:   4    -0.101237514692E+03   -0.13830E-04   -0.12222E-04   108   0.420E-02    0.145E-02
DAV:   5    -0.101237511238E+03    0.34538E-05   -0.21102E-05   144   0.186E-02    0.745E-03
DAV:   6    -0.101237512841E+03   -0.16023E-05   -0.69296E-06   108   0.877E-03    0.381E-03
DAV:   7    -0.101237516889E+03   -0.40482E-05   -0.60650E-07    96   0.293E-03    0.153E-03
DAV:   8    -0.101237522359E+03   -0.54701E-05   -0.42901E-07    84   0.255E-03    0.727E-04
DAV:   9    -0.101237529093E+03   -0.67341E-05   -0.41923E-07    96   0.228E-03    0.442E-04
DAV:  10    -0.101237534971E+03   -0.58784E-05   -0.43535E-07    84   0.195E-03    0.253E-04
DAV:  11    -0.101237537997E+03   -0.30259E-05   -0.12500E-07   108   0.115E-03    0.219E-04
DAV:  12    -0.101237539731E+03   -0.17332E-05   -0.38832E-08    84   0.532E-04    0.133E-04
DAV:  13    -0.101237541290E+03   -0.15597E-05   -0.33459E-08    84   0.404E-04    0.776E-05
DAV:  14    -0.101237542246E+03   -0.95605E-06   -0.15493E-08    96   0.283E-04
  29 F= -.10123754E+03 E0= -.10123754E+03  d E =-.579753E-10
       N       E                     dE             d eps       ncg     rms          rms(c)
DAV:   1    -0.101236502345E+03    0.10389E-02   -0.16776E-01    96   0.117E+00    0.147E-01
DAV:   2    -0.101237259144E+03   -0.75680E-03   -0.80730E-03   108   0.285E-01    0.761E-02
DAV:   3    -0.101237243286E+03    0.15859E-04   -0.23872E-04   132   0.588E-02    0.388E-02
DAV:   4    -0.101237250903E+03   -0.76173E-05   -0.68107E-05   108   0.309E-02    0.106E-02
DAV:   5    -0.101237249311E+03    0.15913E-05   -0.12340E-05   144   0.139E-02    0.574E-03
DAV:   6    -0.101237249905E+03   -0.59329E-06   -0.32161E-06   108   0.605E-03
  30 F= -.10123725E+03 E0= -.10123725E+03  d E =-.589712E-10
       N       E                     dE             d eps       ncg     rms          rms(c)
DAV:   1    -0.101235580827E+03    0.16685E-02   -0.33953E-01    96   0.161E+00    0.262E-01
DAV:   2    -0.101237091477E+03   -0.15106E-02   -0.16508E-02   120   0.424E-01    0.122E-01
DAV:   3    -0.101237040697E+03    0.50780E-04   -0.51719E-04   120   0.853E-02    0.689E-02
DAV:   4    -0.101237055099E+03   -0.14402E-04   -0.17084E-04   120   0.473E-02    0.181E-02
DAV:   5    -0.101237050993E+03    0.41059E-05   -0.31743E-05   120   0.206E-02    0.916E-03
DAV:   6    -0.101237051282E+03   -0.28907E-06   -0.50220E-06   132   0.727E-03
  31 F= -.10123705E+03 E0= -.10123705E+03  d E =-.876480E-10
       N       E                     dE             d eps       ncg     rms          rms(c)
DAV:   1    -0.101236227107E+03    0.82389E-03   -0.18474E-01    96   0.128E+00    0.160E-01
DAV:   2    -0.101237320591E+03   -0.10935E-02   -0.12206E-02   108   0.342E-01    0.804E-02
DAV:   3    -0.101237284686E+03    0.35905E-04   -0.29417E-04   144   0.643E-02    0.448E-02
DAV:   4    -0.101237285458E+03   -0.77180E-06   -0.90468E-05   108   0.372E-02    0.115E-02
DAV:   5    -0.101237284830E+03    0.62729E-06   -0.22061E-05   132   0.178E-02    0.713E-03
DAV:   6    -0.101237285004E+03   -0.17350E-06   -0.30545E-06   132   0.620E-03
  32 F= -.10123729E+03 E0= -.10123729E+03  d E =-.529635E-10
       N       E                     dE             d eps       ncg     rms          rms(c)
DAV:   1    -0.101236069213E+03    0.12156E-02   -0.41040E-01   108   0.175E+00    0.183E-01
DAV:   2    -0.101237563791E+03   -0.14946E-02   -0.17481E-02   144   0.383E-01    0.961E-02
DAV:   3    -0.101237506061E+03    0.57729E-04   -0.28938E-04   108   0.616E-02    0.508E-02
DAV:   4    -0.101237479352E+03    0.26710E-04   -0.10201E-04   120   0.416E-02    0.105E-02
DAV:   5    -0.101237471970E+03    0.73816E-05   -0.26708E-05   132   0.196E-02    0.690E-03
DAV:   6    -0.101237472685E+03   -0.71521E-06   -0.46486E-06   132   0.707E-03
  33 F= -.10123747E+03 E0= -.10123747E+03  d E =-.956562E-11
       N       E                     dE             d eps       ncg     rms          rms(c)
DAV:   1    -0.101236258475E+03    0.12135E-02   -0.20582E-01    96   0.124E+00    0.121E-01
DAV:   2    -0.101236915390E+03   -0.65692E-03   -0.77240E-03   108   0.251E-01    0.575E-02
DAV:   3    -0.101236899838E+03    0.15552E-04   -0.14551E-04   132   0.422E-02    0.291E-02
DAV:   4    -0.101236900358E+03   -0.52002E-06   -0.35401E-05   108   0.248E-02    0.718E-03
DAV:   5    -0.101236902606E+03   -0.22474E-05   -0.90881E-06   120   0.117E-02    0.427E-03
DAV:   6    -0.101236906129E+03   -0.35237E-05   -0.22540E-06   108   0.501E-03    0.240E-03
DAV:   7    -0.101236910713E+03   -0.45838E-05   -0.30332E-07   108   0.200E-03    0.103E-03
DAV:   8    -0.101236916199E+03   -0.54861E-05   -0.39112E-07    84   0.187E-03    0.537E-04
DAV:   9    -0.101236922077E+03   -0.58781E-05   -0.40397E-07    96   0.177E-03    0.317E-04
DAV:  10    -0.101236926250E+03   -0.41722E-05   -0.30861E-07    84   0.134E-03    0.259E-04
DAV:  11    -0.101236927931E+03   -0.16816E-05   -0.42318E-08   108   0.700E-04    0.127E-04
DAV:  12    -0.101236929594E+03   -0.16626E-05   -0.49967E-08    84   0.513E-04    0.106E-04
DAV:  13    -0.101236930173E+03   -0.57866E-06   -0.69704E-09   108   0.247E-04
  34 F= -.10123693E+03 E0= -.10123693E+03  d E =-.409217E-10
       N       E                     dE             d eps       ncg     rms          rms(c)
DAV:   1    -0.101235241161E+03    0.16884E-02   -0.39706E-01    96   0.175E+00    0.193E-01
DAV:   2    -0.101236764473E+03   -0.15233E-02   -0.18680E-02    96   0.400E-01    0.114E-01
DAV:   3    -0.101236656425E+03    0.10805E-03   -0.32522E-04   144   0.651E-02    0.576E-02
DAV:   4    -0.101236609226E+03    0.47199E-04   -0.12229E-04   120   0.422E-02    0.111E-02
DAV:   5    -0.101236598911E+03    0.10315E-04   -0.23742E-05   132   0.182E-02    0.685E-03
DAV:   6    -0.101236602233E+03   -0.33221E-05   -0.68968E-06   108   0.791E-03    0.370E-03
DAV:   7    -0.101236615664E+03   -0.13431E-04   -0.14190E-06   132   0.387E-03    0.177E-03
DAV:   8    -0.101236636010E+03   -0.20346E-04   -0.12936E-06    96   0.297E-03    0.103E-03
DAV:   9    -0.101236653384E+03   -0.17374E-04   -0.88224E-07   108   0.208E-03    0.799E-04
DAV:  10    -0.101236672559E+03   -0.19175E-04   -0.11680E-06    96   0.203E-03    0.352E-04
DAV:  11    -0.101236677065E+03   -0.45061E-05   -0.70880E-08   108   0.750E-04    0.275E-04
DAV:  12    -0.101236684756E+03   -0.76909E-05   -0.22290E-07    84   0.100E-03    0.137E-04
DAV:  13    -0.101236686600E+03   -0.18443E-05   -0.37905E-08   108   0.466E-04    0.103E-04
DAV:  14    -0.101236688088E+03   -0.14880E-05   -0.88941E-09    84   0.315E-04    0.474E-05
DAV:  15    -0.101236688818E+03   -0.72975E-06   -0.32415E-09    96   0.208E-04
  35 F= -.10123669E+03 E0= -.10123669E+03  d E =-.520180E-11
       N       E                     dE             d eps       ncg     rms          rms(c)
DAV:   1    -0.101237101211E+03   -0.41312E-03   -0.20481E-01    96   0.123E+00    0.134E-01
DAV:   2    -0.101237806979E+03   -0.70577E-03   -0.85087E-03   120   0.273E-01    0.688E-02
DAV:   3    -0.101237769140E+03    0.37839E-04   -0.14784E-04   132   0.428E-02    0.363E-02
DAV:   4    -0.101237750639E+03    0.18500E-04   -0.47585E-05   108   0.278E-02    0.804E-03
DAV:   5    -0.101237747438E+03    0.32013E-05   -0.10908E-05   132   0.127E-02    0.493E-03
DAV:   6    -0.101237749609E+03   -0.21704E-05   -0.26439E-06   132   0.552E-03    0.256E-03
DAV:   7    -0.101237755291E+03   -0.56823E-05   -0.55105E-07    84   0.268E-03    0.116E-03
DAV:   8    -0.101237763007E+03   -0.77165E-05   -0.52300E-07    96   0.208E-03    0.619E-04
DAV:   9    -0.101237771979E+03   -0.89712E-05   -0.66051E-07    96   0.192E-03    0.424E-04
DAV:  10    -0.101237778919E+03   -0.69403E-05   -0.48001E-07    96   0.154E-03    0.217E-04
DAV:  11    -0.101237780677E+03   -0.17586E-05   -0.70219E-08   108   0.700E-04    0.180E-04
DAV:  12    -0.101237783234E+03   -0.25567E-05   -0.88938E-08    84   0.653E-04    0.862E-05
DAV:  13    -0.101237784278E+03   -0.10437E-05   -0.35476E-08    96   0.393E-04    0.695E-05
DAV:  14    -0.101237784925E+03   -0.64737E-06   -0.56835E-09    84   0.231E-04
  36 F= -.10123778E+03 E0= -.10123778E+03  d E =-.308289E-10
       N       E                     dE             d eps       ncg     rms          rms(c)
DAV:   1    -0.101236412100E+03    0.13722E-02   -0.41862E-01   120   0.178E+00    0.206E-01
DAV:   2    -0.101237662309E+03   -0.12502E-02   -0.15122E-02   144   0.366E-01    0.824E-02
DAV:   3    -0.101237611836E+03    0.50473E-04   -0.32279E-04   132   0.624E-02    0.421E-02
DAV:   4    -0.101237595905E+03    0.15931E-04   -0.72748E-05   132   0.356E-02    0.120E-02
DAV:   5    -0.101237592574E+03    0.33305E-05   -0.17948E-05   144   0.168E-02    0.693E-03
DAV:   6    -0.101237593844E+03   -0.12701E-05   -0.36751E-06   132   0.696E-03    0.353E-03
DAV:   7    -0.101237598013E+03   -0.41682E-05   -0.43067E-07    84   0.280E-03    0.143E-03
DAV:   8    -0.101237603657E+03   -0.56441E-05   -0.34764E-07   108   0.231E-03    0.692E-04
DAV:   9    -0.101237612206E+03   -0.85494E-05   -0.57337E-07    84   0.250E-03    0.469E-04
DAV:  10    -0.101237617800E+03   -0.55944E-05   -0.42635E-07    96   0.179E-03    0.296E-04
DAV:  11    -0.101237620000E+03   -0.21992E-05   -0.63086E-08    96   0.851E-04    0.260E-04
DAV:  12    -0.101237622133E+03   -0.21337E-05   -0.46611E-08    84   0.587E-04    0.102E-04
DAV:  13    -0.101237623327E+03   -0.11935E-05   -0.27594E-08    96   0.388E-04    0.108E-04
DAV:  14    -0.101237624211E+03   -0.88387E-06   -0.10321E-08    84   0.289E-04
  37 F= -.10123762E+03 E0= -.10123762E+03  d E =-.529006E-11
       N       E                     dE             d eps       ncg     rms          rms(c)
DAV:   1    -0.101236525479E+03    0.10978E-02   -0.20367E-01    96   0.128E+00    0.143E-01
DAV:   2    -0.101237467840E+03   -0.94236E-03   -0.11113E-02   132   0.288E-01    0.639E-02
DAV:   3    -0.101237445404E+03    0.22436E-04   -0.21275E-04   132   0.457E-02    0.349E-02
DAV:   4    -0.101237434386E+03    0.11018E-04   -0.41621E-05   120   0.236E-02    0.919E-03
DAV:   5    -0.101237431280E+03    0.31068E-05   -0.67108E-06   144   0.105E-02    0.504E-03
DAV:   6    -0.101237431782E+03   -0.50196E-06   -0.21628E-06   108   0.588E-03
  38 F= -.10123743E+03 E0= -.10123743E+03  d E =-.538016E-10
       N       E                     dE             d eps       ncg     rms          rms(c)
DAV:   1    -0.101236242614E+03    0.11887E-02   -0.41260E-01    96   0.175E+00    0.179E-01
DAV:   2    -0.101237672489E+03   -0.14299E-02   -0.16709E-02   144   0.376E-01    0.914E-02
DAV:   3    -0.101237621555E+03    0.50934E-04   -0.28214E-04   120   0.607E-02    0.481E-02
DAV:   4    -0.101237598566E+03    0.22988E-04   -0.94111E-05   108   0.409E-02    0.103E-02
DAV:   5    -0.101237592247E+03    0.63197E-05   -0.26593E-05   132   0.197E-02    0.683E-03
DAV:   6    -0.101237593174E+03   -0.92688E-06   -0.44746E-06   132   0.705E-03
  39 F= -.10123759E+03 E0= -.10123759E+03  d E =-.103988E-10
       N       E                     dE             d eps       ncg     rms          rms(c)
DAV:   1    -0.101236070603E+03    0.15216E-02   -0.20009E-01    96   0.122E+00    0.138E-01
DAV:   2    -0.101236875849E+03   -0.80525E-03   -0.96703E-03   144   0.283E-01    0.831E-02
DAV:   3    -0.101236831971E+03    0.43878E-04   -0.15798E-04   108   0.458E-02    0.426E-02
DAV:   4    -0.101236820134E+03    0.11837E-04   -0.69160E-05   108   0.313E-02    0.798E-03
DAV:   5    -0.101236814216E+03    0.59176E-05   -0.12666E-05   132   0.132E-02    0.507E-03
DAV:   6    -0.101236813371E+03    0.84544E-06   -0.31614E-06   108   0.524E-03
  40 F= -.10123681E+03 E0= -.10123681E+03  d E =-.757541E-11
       N       E                     dE             d eps       ncg     rms          rms(c)
DAV:   1    -0.101235571146E+03    0.12431E-02   -0.40079E-01    96   0.173E+00    0.192E-01
DAV:   2    -0.101237139902E+03   -0.15688E-02   -0.18756E-02   108   0.396E-01    0.111E-01
DAV:   3    -0.101237067672E+03    0.72229E-04   -0.32928E-04   120   0.645E-02    0.590E-02
DAV:   4    -0.101237024106E+03    0.43567E-04   -0.11695E-04   120   0.415E-02    0.110E-02
DAV:   5    -0.101237012301E+03    0.11805E-04   -0.24321E-05   132   0.184E-02    0.676E-03
DAV:   6    -0.101237014087E+03   -0.17858E-05   -0.61023E-06   108   0.755E-03    0.377E-03
DAV:   7    -0.101237024729E+03   -0.10642E-04   -0.12877E-06   120   0.371E-03    0.171E-03
DAV:   8    -0.101237038392E+03   -0.13663E-04   -0.11917E-06    96   0.290E-03    0.911E-04
DAV:   9    -0.101237051166E+03   -0.12775E-04   -0.94343E-07   108   0.223E-03    0.700E-04
DAV:  10    -0.101237064951E+03   -0.13785E-04   -0.13246E-06    96   0.219E-03    0.308E-04
DAV:  11    -0.101237067963E+03   -0.30115E-05   -0.84896E-08   108   0.817E-04    0.247E-04
DAV:  12    -0.101237072438E+03   -0.44749E-05   -0.18063E-07    84   0.907E-04    0.128E-04
DAV:  13    -0.101237074133E+03   -0.16951E-05   -0.67927E-08    96   0.523E-04    0.102E-04
DAV:  14    -0.101237075223E+03   -0.10906E-05   -0.11973E-08    84   0.322E-04    0.401E-05
DAV:  15    -0.101237075622E+03   -0.39900E-06   -0.10091E-09    96   0.192E-04
  41 F= -.10123708E+03 E0= -.10123708E+03  d E =-.353566E-10
       N       E                     dE             d eps       ncg     rms          rms(c)
DAV:   1    -0.101236758082E+03    0.31714E-03   -0.19880E-01    96   0.124E+00    0.143E-01
DAV:   2    -0.101237509842E+03   -0.75176E-03   -0.92392E-03   120   0.291E-01    0.819E-02
DAV:   3    -0.101237450103E+03    0.59738E-04   -0.15587E-04   132   0.454E-02    0.414E-02
DAV:   4    -0.101237425410E+03    0.24693E-04   -0.64826E-05   108   0.307E-02    0.835E-03
DAV:   5    -0.101237419126E+03    0.62839E-05   -0.11845E-05   132   0.131E-02    0.497E-03
DAV:   6    -0.101237420507E+03   -0.13808E-05   -0.33907E-06   132   0.565E-03    0.274E-03
DAV:   7    -0.101237427700E+03   -0.71930E-05   -0.71153E-07    84   0.288E-03    0.124E-03
DAV:   8    -0.101237439108E+03   -0.11408E-04   -0.78192E-07   108   0.226E-03    0.772E-04
DAV:   9    -0.101237450852E+03   -0.11744E-04   -0.57994E-07    84   0.176E-03    0.529E-04
DAV:  10    -0.101237460262E+03   -0.94104E-05   -0.51750E-07    96   0.139E-03    0.240E-04
DAV:  11    -0.101237464594E+03   -0.43317E-05   -0.10625E-07    84   0.725E-04    0.175E-04
DAV:  12    -0.101237468169E+03   -0.35751E-05   -0.68482E-08    96   0.584E-04    0.816E-05
DAV:  13    -0.101237469461E+03   -0.12919E-05   -0.18712E-08    84   0.322E-04    0.616E-05
DAV:  14    -0.101237470603E+03   -0.11420E-05   -0.82368E-09    84   0.259E-04    0.278E-05
DAV:  15    -0.101237470948E+03   -0.34476E-06    0.26498E-09   108   0.135E-04
  42 F= -.10123747E+03 E0= -.10123747E+03  d E =-.395012E-10
       N       E                     dE             d eps       ncg     rms          rms(c)
DAV:   1    -0.101236111555E+03    0.13590E-02   -0.41370E-01   120   0.180E+00    0.213E-01
DAV:   2    -0.101237428142E+03   -0.13166E-02   -0.16034E-02   120   0.382E-01    0.929E-02
DAV:   3    -0.101237358891E+03    0.69251E-04   -0.30982E-04   132   0.629E-02    0.480E-02
DAV:   4    -0.101237332553E+03    0.26337E-04   -0.92425E-05   120   0.390E-02    0.119E-02
DAV:   5    -0.101237327432E+03    0.51219E-05   -0.20328E-05   132   0.175E-02    0.709E-03
DAV:   6    -0.101237330124E+03   -0.26924E-05   -0.43917E-06   108   0.730E-03    0.359E-03
DAV:   7    -0.101237338151E+03   -0.80268E-05   -0.78354E-07   108   0.335E-03    0.161E-03
DAV:   8    -0.101237349000E+03   -0.10849E-04   -0.76273E-07    96   0.264E-03    0.808E-04
DAV:   9    -0.101237361393E+03   -0.12393E-04   -0.81119E-07   108   0.245E-03    0.577E-04
DAV:  10    -0.101237371842E+03   -0.10448E-04   -0.77546E-07    96   0.204E-03    0.288E-04
DAV:  11    -0.101237375362E+03   -0.35207E-05   -0.96972E-08    96   0.951E-04    0.214E-04
DAV:  12    -0.101237378442E+03   -0.30799E-05   -0.92059E-08    84   0.671E-04    0.118E-04
DAV:  13    -0.101237380156E+03   -0.17140E-05   -0.43767E-08    96   0.441E-04    0.906E-05
DAV:  14    -0.101237380955E+03   -0.79848E-06   -0.55324E-09    84   0.238E-04
  43 F= -.10123738E+03 E0= -.10123738E+03  d E =-.885438E-10
       N       E                     dE             d eps       ncg     rms          rms(c)
DAV:   1    -0.101235168867E+03    0.22113E-02   -0.19726E-01   108   0.131E+00    0.152E-01
DAV:   2    -0.101236231313E+03   -0.10624E-02   -0.13006E-02   120   0.326E-01    0.793E-02
DAV:   3    -0.101236193225E+03    0.38088E-04   -0.24654E-04   144   0.502E-02    0.446E-02
DAV:   4    -0.101236168277E+03    0.24948E-04   -0.58776E-05   120   0.300E-02    0.985E-03
DAV:   5    -0.101236161124E+03    0.71529E-05   -0.13494E-05   132   0.139E-02    0.549E-03
DAV:   6    -0.101236161592E+03   -0.46826E-06   -0.27745E-06   120   0.625E-03
  44 F= -.10123616E+03 E0= -.10123616E+03  d E =-.799618E-11
       N       E                     dE             d eps       ncg     rms          rms(c)
DAV:   1    -0.101235151121E+03    0.10100E-02   -0.40237E-01    96   0.162E+00    0.195E-01
DAV:   2    -0.101236866484E+03   -0.17154E-02   -0.20600E-02   132   0.395E-01    0.120E-01
DAV:   3    -0.101236791999E+03    0.74485E-04   -0.28111E-04   108   0.520E-02    0.672E-02
DAV:   4    -0.101236711523E+03    0.80476E-04   -0.11817E-04   120   0.360E-02    0.107E-02
DAV:   5    -0.101236700806E+03    0.10717E-04   -0.18833E-05   132   0.159E-02    0.619E-03
DAV:   6    -0.101236712980E+03   -0.12174E-04   -0.11166E-05   132   0.965E-03    0.316E-03
DAV:   7    -0.101236736706E+03   -0.23726E-04   -0.40080E-06   132   0.573E-03    0.216E-03
DAV:   8    -0.101236766684E+03   -0.29978E-04   -0.23766E-06    96   0.357E-03    0.102E-03
DAV:   9    -0.101236792757E+03   -0.26073E-04   -0.26243E-06   108   0.333E-03    0.810E-04
DAV:  10    -0.101236814841E+03   -0.22084E-04   -0.23677E-06    96   0.283E-03    0.308E-04
DAV:  11    -0.101236819811E+03   -0.49698E-05   -0.16733E-07   108   0.979E-04    0.265E-04
DAV:  12    -0.101236824338E+03   -0.45273E-05   -0.19724E-07    84   0.861E-04    0.116E-04
DAV:  13    -0.101236825652E+03   -0.13139E-05   -0.26678E-08    96   0.377E-04    0.638E-05
DAV:  14    -0.101236826744E+03   -0.10913E-05   -0.12307E-08    84   0.302E-04    0.436E-05
DAV:  15    -0.101236827102E+03   -0.35832E-06    0.18412E-09   108   0.154E-04
  45 F= -.10123683E+03 E0= -.10123683E+03  d E =-.330394E-10
       N       E                     dE             d eps       ncg     rms          rms(c)
DAV:   1    -0.101236963612E+03   -0.13687E-03   -0.20335E-01    96   0.116E+00    0.129E-01
DAV:   2    -0.101237758254E+03   -0.79464E-03   -0.96574E-03    96   0.270E-01    0.750E-02
DAV:   3    -0.101237728334E+03    0.29920E-04   -0.17635E-04   156   0.428E-02    0.410E-02
DAV:   4    -0.101237704133E+03    0.24201E-04   -0.40826E-05   108   0.278E-02    0.696E-03
DAV:   5    -0.101237698887E+03    0.52454E-05   -0.14061E-05   132   0.141E-02    0.511E-03
DAV:   6    -0.101237699415E+03   -0.52767E-06   -0.31019E-06   132   0.541E-03
  46 F= -.10123770E+03 E0= -.10123770E+03  d E =-.517799E-11
       N       E                     dE             d eps       ncg     rms          rms(c)
DAV:   1    -0.101236542556E+03    0.11563E-02   -0.41309E-01   120   0.160E+00    0.164E-01
DAV:   2    -0.101237765399E+03   -0.12228E-02   -0.14535E-02   108   0.330E-01    0.821E-02
DAV:   3    -0.101237757933E+03    0.74666E-05   -0.29276E-04   132   0.613E-02    0.420E-02
DAV:   4    -0.101237758273E+03   -0.34088E-06   -0.68692E-05   132   0.426E-02    0.870E-03
DAV:   5    -0.101237760881E+03   -0.26073E-05   -0.32470E-05   132   0.208E-02    0.770E-03
DAV:   6    -0.101237762432E+03   -0.15512E-05   -0.27954E-06   120   0.529E-03    0.595E-03
DAV:   7    -0.101237766444E+03   -0.40123E-05   -0.74958E-07    84   0.328E-03    0.217E-03
DAV:   8    -0.101237771189E+03   -0.47447E-05   -0.78608E-07    96   0.331E-03    0.133E-03
DAV:   9    -0.101237781664E+03   -0.10475E-04   -0.90417E-07    84   0.407E-03    0.951E-04
DAV:  10    -0.101237785304E+03   -0.36394E-05   -0.46820E-07   108   0.213E-03    0.961E-04
DAV:  11    -0.101237787006E+03   -0.17022E-05   -0.40334E-08   108   0.803E-04    0.653E-04
DAV:  12    -0.101237790431E+03   -0.34249E-05   -0.96712E-08    84   0.843E-04    0.201E-04
DAV:  13    -0.101237792722E+03   -0.22907E-05   -0.70426E-08    96   0.628E-04    0.228E-04
DAV:  14    -0.101237794037E+03   -0.13155E-05   -0.24059E-08    84   0.379E-04    0.185E-04
DAV:  15    -0.101237794471E+03   -0.43364E-06   -0.15904E-10   108   0.200E-04
  47 F= -.10123779E+03 E0= -.10123779E+03  d E =-.464009E-11
       N       E                     dE             d eps       ncg     rms          rms(c)
DAV:   1    -0.101235361591E+03    0.24324E-02   -0.20394E-01    96   0.116E+00    0.127E-01
DAV:   2    -0.101236113974E+03   -0.75238E-03   -0.91521E-03    96   0.263E-01    0.688E-02
DAV:   3    -0.101236094808E+03    0.19166E-04   -0.18111E-04   156   0.450E-02    0.364E-02
DAV:   4    -0.101236081762E+03    0.13045E-04   -0.36742E-05   108   0.292E-02    0.687E-03
DAV:   5    -0.101236078593E+03    0.31694E-05   -0.15735E-05   132   0.149E-02    0.539E-03
DAV:   6    -0.101236078971E+03   -0.37842E-06   -0.22770E-06   132   0.470E-03
  48 F= -.10123608E+03 E0= -.10123608E+03  d E =-.665955E-11
       N       E                     dE             d eps       ncg     rms          rms(c)
DAV:   1    -0.101234554312E+03    0.15243E-02   -0.40008E-01   120   0.160E+00    0.203E-01
DAV:   2    -0.101236307214E+03   -0.17529E-02   -0.21264E-02   108   0.400E-01    0.129E-01
DAV:   3    -0.101236215194E+03    0.92021E-04   -0.29242E-04   120   0.564E-02    0.711E-02
DAV:   4    -0.101236156851E+03    0.58343E-04   -0.14464E-04   108   0.431E-02    0.110E-02
DAV:   5    -0.101236146436E+03    0.10415E-04   -0.28829E-05   132   0.193E-02    0.723E-03
DAV:   6    -0.101236154286E+03   -0.78496E-05   -0.11780E-05   108   0.880E-03    0.401E-03
DAV:   7    -0.101236174346E+03   -0.20061E-04   -0.21596E-06   132   0.434E-03    0.223E-03
DAV:   8    -0.101236208594E+03   -0.34248E-04   -0.40202E-06    96   0.417E-03    0.108E-03
DAV:   9    -0.101236227125E+03   -0.18530E-04   -0.13852E-06   108   0.247E-03    0.898E-04
DAV:  10    -0.101236248235E+03   -0.21111E-04   -0.20277E-06    96   0.264E-03    0.342E-04
DAV:  11    -0.101236254941E+03   -0.67058E-05   -0.30084E-07   108   0.117E-03    0.294E-04
DAV:  12    -0.101236260235E+03   -0.52942E-05   -0.29450E-07    84   0.103E-03    0.134E-04
DAV:  13    -0.101236261490E+03   -0.12547E-05   -0.33413E-08    96   0.420E-04    0.773E-05
DAV:  14    -0.101236262657E+03   -0.11668E-05   -0.15994E-08    84   0.323E-04    0.483E-05
DAV:  15    -0.101236263062E+03   -0.40534E-06   -0.63949E-11   108   0.175E-04
  49 F= -.10123626E+03 E0= -.10123626E+03  d E =-.340685E-10
       N       E                     dE             d eps       ncg     rms          rms(c)
DAV:   1    -0.101236415769E+03   -0.15311E-03   -0.20061E-01    96   0.132E+00    0.146E-01
DAV:   2    -0.101237548790E+03   -0.11330E-02   -0.13655E-02   108   0.337E-01    0.804E-02
DAV:   3    -0.101237512153E+03    0.36638E-04   -0.24988E-04   144   0.508E-02    0.461E-02
DAV:   4    -0.101237480166E+03    0.31987E-04   -0.56635E-05   132   0.317E-02    0.921E-03
DAV:   5    -0.101237470680E+03    0.94853E-05   -0.18851E-05   132   0.163E-02    0.611E-03
DAV:   6    -0.101237471835E+03   -0.11552E-05   -0.37201E-06   132   0.628E-03    0.399E-03
DAV:   7    -0.101237480901E+03   -0.90655E-05   -0.13707E-06    96   0.429E-03    0.158E-03
DAV:   8    -0.101237495411E+03   -0.14510E-04   -0.11418E-06    96   0.362E-03    0.112E-03
DAV:   9    -0.101237513563E+03   -0.18152E-04   -0.15309E-06    96   0.314E-03    0.937E-04
DAV:  10    -0.101237524587E+03   -0.11024E-04   -0.56936E-07    96   0.206E-03    0.481E-04
DAV:  11    -0.101237529404E+03   -0.48164E-05   -0.18135E-07    84   0.106E-03    0.413E-04
DAV:  12    -0.101237534324E+03   -0.49202E-05   -0.17718E-07    84   0.934E-04    0.249E-04
DAV:  13    -0.101237535354E+03   -0.10304E-05   -0.20070E-08   108   0.404E-04    0.152E-04
DAV:  14    -0.101237537186E+03   -0.18323E-05   -0.36349E-08    84   0.442E-04    0.646E-05
DAV:  15    -0.101237537595E+03   -0.40825E-06   -0.21514E-09    96   0.229E-04
  50 F= -.10123754E+03 E0= -.10123754E+03  d E =-.482973E-10
       N       E                     dE             d eps       ncg     rms          rms(c)
DAV:   1    -0.101235892929E+03    0.16443E-02   -0.41164E-01   120   0.177E+00    0.193E-01
DAV:   2    -0.101237471116E+03   -0.15782E-02   -0.18734E-02   108   0.412E-01    0.953E-02
DAV:   3    -0.101237431488E+03    0.39628E-04   -0.36705E-04   144   0.645E-02    0.510E-02
DAV:   4    -0.101237407959E+03    0.23529E-04   -0.74817E-05   132   0.400E-02    0.108E-02
DAV:   5    -0.101237401565E+03    0.63941E-05   -0.29167E-05   132   0.207E-02    0.739E-03
DAV:   6    -0.101237402516E+03   -0.95027E-06   -0.49088E-06   132   0.730E-03
  51 F= -.10123740E+03 E0= -.10123740E+03  d E =-.532162E-11
       N       E                     dE             d eps       ncg     rms          rms(c)
DAV:   1    -0.101236303769E+03    0.10978E-02   -0.20325E-01    96   0.131E+00    0.139E-01
DAV:   2    -0.101237127385E+03   -0.82362E-03   -0.97236E-03   132   0.303E-01    0.823E-02
DAV:   3    -0.101237105041E+03    0.22344E-04   -0.15423E-04   108   0.419E-02    0.436E-02
DAV:   4    -0.101237080831E+03    0.24210E-04   -0.56175E-05   108   0.269E-02    0.745E-03
DAV:   5    -0.101237074656E+03    0.61747E-05   -0.89812E-06   132   0.118E-02    0.446E-03
DAV:   6    -0.101237078153E+03   -0.34962E-05   -0.43188E-06   108   0.661E-03    0.236E-03
DAV:   7    -0.101237087715E+03   -0.95620E-05   -0.13393E-06   120   0.391E-03    0.132E-03
DAV:   8    -0.101237100108E+03   -0.12394E-04   -0.93032E-07    96   0.260E-03    0.683E-04
DAV:   9    -0.101237111445E+03   -0.11337E-04   -0.93673E-07   108   0.220E-03    0.534E-04
DAV:  10    -0.101237121446E+03   -0.10000E-04   -0.88517E-07    96   0.186E-03    0.235E-04
DAV:  11    -0.101237124378E+03   -0.29317E-05   -0.99249E-08   108   0.753E-04    0.176E-04
DAV:  12    -0.101237127080E+03   -0.27028E-05   -0.13867E-07    84   0.740E-04    0.885E-05
DAV:  13    -0.101237127720E+03   -0.64007E-06   -0.14657E-08   108   0.319E-04
  52 F= -.10123713E+03 E0= -.10123713E+03  d E =-.780062E-10
       N       E                     dE             d eps       ncg     rms          rms(c)
DAV:   1    -0.101234814057E+03    0.23130E-02   -0.40344E-01   108   0.187E+00    0.214E-01
DAV:   2    -0.101236403850E+03   -0.15898E-02   -0.19351E-02   108   0.444E-01    0.115E-01
DAV:   3    -0.101236310807E+03    0.93043E-04   -0.31991E-04   132   0.606E-02    0.616E-02
DAV:   4    -0.101236252603E+03    0.58204E-04   -0.10399E-04   132   0.378E-02    0.118E-02
DAV:   5    -0.101236239336E+03    0.13267E-04   -0.18202E-05   132   0.170E-02    0.675E-03
DAV:   6    -0.101236242438E+03   -0.31015E-05   -0.82233E-06   132   0.102E-02    0.339E-03
DAV:   7    -0.101236258048E+03   -0.15611E-04   -0.31774E-06   132   0.624E-03    0.206E-03
DAV:   8    -0.101236280786E+03   -0.22737E-04   -0.13836E-06    96   0.370E-03    0.112E-03
DAV:   9    -0.101236301318E+03   -0.20532E-04   -0.12656E-06   120   0.283E-03    0.869E-04
DAV:  10    -0.101236321774E+03   -0.20456E-04   -0.95388E-07    84   0.214E-03    0.362E-04
DAV:  11    -0.101236330476E+03   -0.87021E-05   -0.33029E-07   108   0.120E-03    0.276E-04
DAV:  12    -0.101236338102E+03   -0.76263E-05   -0.18441E-07    84   0.892E-04    0.144E-04
DAV:  13    -0.101236340560E+03   -0.24577E-05   -0.42280E-08    96   0.474E-04    0.953E-05
DAV:  14    -0.101236342236E+03   -0.16761E-05   -0.17020E-08    84   0.315E-04    0.443E-05
DAV:  15    -0.101236343056E+03   -0.81933E-06   -0.21027E-09   108   0.209E-04
  53 F= -.10123634E+03 E0= -.10123634E+03  d E =-.462142E-10
       N       E                     dE             d eps       ncg     rms          rms(c)
DAV:   1    -0.101235285715E+03    0.10565E-02   -0.20336E-01    96   0.127E+00    0.154E-01
DAV:   2    -0.101236149389E+03   -0.86367E-03   -0.10509E-02   108   0.330E-01    0.901E-02
DAV:   3    -0.101236091315E+03    0.58074E-04   -0.16537E-04   132   0.447E-02    0.491E-02
DAV:   4    -0.101236060180E+03    0.31135E-04   -0.74667E-05   108   0.326E-02    0.802E-03
DAV:   5    -0.101236054928E+03    0.52523E-05   -0.17094E-05   132   0.149E-02    0.529E-03
DAV:   6    -0.101236059603E+03   -0.46750E-05   -0.55673E-06   132   0.651E-03    0.313E-03
DAV:   7    -0.101236071360E+03   -0.11757E-04   -0.75510E-07    84   0.286E-03    0.160E-03
DAV:   8    -0.101236091812E+03   -0.20452E-04   -0.22347E-06   108   0.329E-03    0.910E-04
DAV:   9    -0.101236104484E+03   -0.12672E-04   -0.75760E-07   108   0.212E-03    0.693E-04
DAV:  10    -0.101236117262E+03   -0.12778E-04   -0.11391E-06    96   0.201E-03    0.292E-04
DAV:  11    -0.101236122167E+03   -0.49056E-05   -0.17134E-07    96   0.103E-03    0.242E-04
DAV:  12    -0.101236125215E+03   -0.30479E-05   -0.94479E-08    84   0.678E-04    0.157E-04
DAV:  13    -0.101236126667E+03   -0.14520E-05   -0.34763E-08    96   0.417E-04    0.922E-05
DAV:  14    -0.101236127505E+03   -0.83746E-06   -0.46300E-09    96   0.258E-04
  54 F= -.10123613E+03 E0= -.10123613E+03  d E =-.889663E-10
       N       E                     dE             d eps       ncg     rms          rms(c)
DAV:   1    -0.101234637046E+03    0.14896E-02   -0.40649E-01    96   0.184E+00    0.207E-01
DAV:   2    -0.101236308590E+03   -0.16715E-02   -0.20675E-02   108   0.453E-01    0.129E-01
DAV:   3    -0.101236193555E+03    0.11504E-03   -0.32310E-04   132   0.638E-02    0.695E-02
DAV:   4    -0.101236132979E+03    0.60576E-04   -0.14964E-04   120   0.460E-02    0.111E-02
DAV:   5    -0.101236129925E+03    0.30542E-05   -0.31901E-05   132   0.207E-02    0.761E-03
DAV:   6    -0.101236145283E+03   -0.15358E-04   -0.12178E-05   132   0.966E-03    0.422E-03
DAV:   7    -0.101236172908E+03   -0.27625E-04   -0.22050E-06   120   0.463E-03    0.220E-03
DAV:   8    -0.101236216645E+03   -0.43738E-04   -0.54591E-06   108   0.522E-03    0.132E-03
DAV:   9    -0.101236241223E+03   -0.24577E-04   -0.19938E-06   120   0.324E-03    0.857E-04
DAV:  10    -0.101236261095E+03   -0.19873E-04   -0.16843E-06    96   0.264E-03    0.392E-04
DAV:  11    -0.101236270070E+03   -0.89742E-05   -0.41111E-07    96   0.140E-03    0.309E-04
DAV:  12    -0.101236275181E+03   -0.51115E-05   -0.26959E-07    84   0.100E-03    0.131E-04
DAV:  13    -0.101236276987E+03   -0.18057E-05   -0.42410E-08    96   0.470E-04    0.800E-05
DAV:  14    -0.101236278162E+03   -0.11751E-05   -0.12083E-08    84   0.311E-04    0.566E-05
DAV:  15    -0.101236278645E+03   -0.48265E-06   -0.12596E-09   108   0.188E-04
  55 F= -.10123628E+03 E0= -.10123628E+03  d E =-.411684E-10
       N       E                     dE             d eps       ncg     rms          rms(c)
DAV:   1    -0.101236270613E+03    0.75493E-05   -0.20033E-01    96   0.132E+00    0.147E-01
DAV:   2    -0.101237453976E+03   -0.11834E-02   -0.14175E-02   108   0.346E-01    0.829E-02
DAV:   3    -0.101237426616E+03    0.27360E-04   -0.23411E-04   144   0.478E-02    0.480E-02
DAV:   4    -0.101237401671E+03    0.24944E-04   -0.56360E-05   120   0.289E-02    0.840E-03
DAV:   5    -0.101237394499E+03    0.71729E-05   -0.12390E-05   144   0.130E-02    0.499E-03
DAV:   6    -0.101237397226E+03   -0.27273E-05   -0.37018E-06   120   0.627E-03    0.277E-03
DAV:   7    -0.101237407567E+03   -0.10341E-04   -0.16636E-06   120   0.410E-03    0.132E-03
DAV:   8    -0.101237423769E+03   -0.16202E-04   -0.90999E-07    84   0.258E-03    0.760E-04
DAV:   9    -0.101237436889E+03   -0.13119E-04   -0.89507E-07   108   0.208E-03    0.593E-04
DAV:  10    -0.101237449904E+03   -0.13015E-04   -0.87298E-07    84   0.188E-03    0.284E-04
DAV:  11    -0.101237453334E+03   -0.34302E-05   -0.12224E-07   108   0.806E-04    0.269E-04
DAV:  12    -0.101237457037E+03   -0.37026E-05   -0.10211E-07    84   0.738E-04    0.948E-05
DAV:  13    -0.101237458320E+03   -0.12829E-05   -0.30544E-08    96   0.420E-04    0.943E-05
DAV:  14    -0.101237459274E+03   -0.95374E-06   -0.80063E-09    84   0.285E-04
  56 F= -.10123746E+03 E0= -.10123746E+03  d E =-.509821E-10
       N       E                     dE             d eps       ncg     rms          rms(c)
DAV:   1    -0.101235688952E+03    0.17694E-02   -0.41086E-01   120   0.178E+00    0.192E-01
DAV:   2    -0.101237304618E+03   -0.16157E-02   -0.19209E-02   120   0.420E-01    0.996E-02
DAV:   3    -0.101237257723E+03    0.46895E-04   -0.36153E-04   144   0.637E-02    0.533E-02
DAV:   4    -0.101237228925E+03    0.28798E-04   -0.78294E-05   132   0.397E-02    0.109E-02
DAV:   5    -0.101237220624E+03    0.83015E-05   -0.27899E-05   132   0.204E-02    0.724E-03
DAV:   6    -0.101237221783E+03   -0.11590E-05   -0.54935E-06   132   0.771E-03    0.471E-03
DAV:   7    -0.101237229460E+03   -0.76769E-05   -0.99882E-07   108   0.400E-03    0.205E-03
DAV:   8    -0.101237242348E+03   -0.12889E-04   -0.15317E-06    96   0.405E-03    0.134E-03
DAV:   9    -0.101237258996E+03   -0.16648E-04   -0.10442E-06    84   0.315E-03    0.666E-04
DAV:  10    -0.101237267640E+03   -0.86436E-05   -0.56538E-07    96   0.198E-03    0.586E-04
DAV:  11    -0.101237274096E+03   -0.64564E-05   -0.16173E-07    84   0.112E-03    0.270E-04
DAV:  12    -0.101237278440E+03   -0.43434E-05   -0.13686E-07    96   0.784E-04    0.260E-04
DAV:  13    -0.101237280889E+03   -0.24494E-05   -0.44480E-08    84   0.477E-04    0.129E-04
DAV:  14    -0.101237282288E+03   -0.13993E-05   -0.19291E-08    96   0.336E-04    0.582E-05
DAV:  15    -0.101237283205E+03   -0.91622E-06   -0.60884E-09    84   0.229E-04
  57 F= -.10123728E+03 E0= -.10123728E+03  d E =-.803837E-10
       N       E                     dE             d eps       ncg     rms          rms(c)
DAV:   1    -0.101235634260E+03    0.16480E-02   -0.20589E-01   120   0.131E+00    0.140E-01
DAV:   2    -0.101236337007E+03   -0.70275E-03   -0.83396E-03   108   0.259E-01    0.612E-02
DAV:   3    -0.101236323158E+03    0.13849E-04   -0.17992E-04   144   0.458E-02    0.324E-02
DAV:   4    -0.101236316527E+03    0.66306E-05   -0.33425E-05   108   0.280E-02    0.763E-03
DAV:   5    -0.101236315496E+03    0.10315E-05   -0.15157E-05   132   0.148E-02    0.544E-03
DAV:   6    -0.101236315830E+03   -0.33374E-06   -0.15807E-06   120   0.421E-03
  58 F= -.10123632E+03 E0= -.10123632E+03  d E =-.557262E-10
       N       E                     dE             d eps       ncg     rms          rms(c)
DAV:   1    -0.101235511775E+03    0.80372E-03   -0.40580E-01    96   0.183E+00    0.217E-01
DAV:   2    -0.101237136140E+03   -0.16244E-02   -0.19432E-02   108   0.445E-01    0.117E-01
DAV:   3    -0.101237051100E+03    0.85040E-04   -0.34401E-04   132   0.639E-02    0.625E-02
DAV:   4    -0.101236999616E+03    0.51484E-04   -0.11831E-04   108   0.416E-02    0.116E-02
DAV:   5    -0.101236992876E+03    0.67399E-05   -0.23561E-05   132   0.182E-02    0.740E-03
DAV:   6    -0.101237001876E+03   -0.90000E-05   -0.86524E-06   132   0.891E-03    0.381E-03
DAV:   7    -0.101237020417E+03   -0.18541E-04   -0.23736E-06   120   0.505E-03    0.204E-03
DAV:   8    -0.101237047879E+03   -0.27462E-04   -0.27192E-06    96   0.410E-03    0.105E-03
DAV:   9    -0.101237064514E+03   -0.16636E-04   -0.13416E-06   120   0.277E-03    0.863E-04
DAV:  10    -0.101237081885E+03   -0.17370E-04   -0.15657E-06    96   0.250E-03    0.324E-04
DAV:  11    -0.101237088003E+03   -0.61188E-05   -0.28980E-07    96   0.121E-03    0.296E-04
DAV:  12    -0.101237093203E+03   -0.51998E-05   -0.27934E-07    84   0.105E-03    0.127E-04
DAV:  13    -0.101237094719E+03   -0.15158E-05   -0.58745E-08   108   0.511E-04    0.931E-05
DAV:  14    -0.101237095727E+03   -0.10078E-05   -0.10486E-08    84   0.303E-04    0.441E-05
DAV:  15    -0.101237096180E+03   -0.45355E-06   -0.18540E-09    96   0.194E-04
  59 F= -.10123710E+03 E0= -.10123710E+03  d E =-.906411E-10
       N       E                     dE             d eps       ncg     rms          rms(c)
DAV:   1    -0.101235380244E+03    0.17155E-02   -0.20176E-01    96   0.132E+00    0.154E-01
DAV:   2    -0.101236154584E+03   -0.77434E-03   -0.95065E-03    96   0.317E-01    0.793E-02
DAV:   3    -0.101236110346E+03    0.44238E-04   -0.16592E-04   144   0.441E-02    0.419E-02
DAV:   4    -0.101236077538E+03    0.32808E-04   -0.42750E-05   132   0.244E-02    0.820E-03
DAV:   5    -0.101236069903E+03    0.76357E-05   -0.76250E-06   132   0.113E-02    0.464E-03
DAV:   6    -0.101236071604E+03   -0.17013E-05   -0.36700E-06   132   0.724E-03    0.234E-03
DAV:   7    -0.101236080693E+03   -0.90893E-05   -0.16693E-06   120   0.479E-03    0.140E-03
DAV:   8    -0.101236093680E+03   -0.12987E-04   -0.71563E-07    84   0.281E-03    0.801E-04
DAV:   9    -0.101236106743E+03   -0.13064E-04   -0.85836E-07   108   0.222E-03    0.551E-04
DAV:  10    -0.101236117903E+03   -0.11160E-04   -0.45468E-07    84   0.154E-03    0.281E-04
DAV:  11    -0.101236123370E+03   -0.54663E-05   -0.17649E-07   108   0.878E-04    0.193E-04
DAV:  12    -0.101236127844E+03   -0.44742E-05   -0.87758E-08    84   0.648E-04    0.110E-04
DAV:  13    -0.101236129581E+03   -0.17377E-05   -0.25383E-08    96   0.391E-04    0.646E-05
DAV:  14    -0.101236130738E+03   -0.11563E-05   -0.10038E-08    84   0.270E-04    0.364E-05
DAV:  15    -0.101236131136E+03   -0.39859E-06    0.24869E-09   108   0.148E-04
  60 F= -.10123613E+03 E0= -.10123613E+03  d E =-.731204E-10
       N       E                     dE             d eps       ncg     rms          rms(c)
DAV:   1    -0.101235179738E+03    0.95100E-03   -0.40691E-01    96   0.188E+00    0.208E-01
DAV:   2    -0.101236611458E+03   -0.14317E-02   -0.18117E-02   108   0.427E-01    0.121E-01
DAV:   3    -0.101236499039E+03    0.11242E-03   -0.30647E-04   132   0.616E-02    0.603E-02
DAV:   4    -0.101236429783E+03    0.69256E-04   -0.10212E-04   120   0.379E-02    0.112E-02
DAV:   5    -0.101236429243E+03    0.54032E-06   -0.17284E-05   132   0.163E-02    0.708E-03
DAV:   6    -0.101236452033E+03   -0.22790E-04   -0.11096E-05   120   0.104E-02    0.350E-03
DAV:   7    -0.101236482245E+03   -0.30212E-04   -0.35331E-06   120   0.633E-03    0.217E-03
DAV:   8    -0.101236524386E+03   -0.42140E-04   -0.42980E-06   108   0.493E-03    0.112E-03
DAV:   9    -0.101236551262E+03   -0.26876E-04   -0.25187E-06   108   0.354E-03    0.776E-04
DAV:  10    -0.101236571621E+03   -0.20359E-04   -0.18449E-06    96   0.275E-03    0.395E-04
DAV:  11    -0.101236579548E+03   -0.79274E-05   -0.38817E-07   108   0.139E-03    0.240E-04
DAV:  12    -0.101236584386E+03   -0.48379E-05   -0.25493E-07    84   0.100E-03    0.159E-04
DAV:  13    -0.101236585970E+03   -0.15837E-05   -0.39133E-08   108   0.488E-04    0.650E-05
DAV:  14    -0.101236586913E+03   -0.94245E-06   -0.97987E-09    84   0.319E-04
  61 F= -.10123659E+03 E0= -.10123659E+03  d E =-.466930E-10
       N       E                     dE             d eps       ncg     rms          rms(c)
DAV:   1    -0.101239348612E+03   -0.27626E-02   -0.23351E-01   108   0.165E+00    0.135E-01
DAV:   2    -0.101239748891E+03   -0.40028E-03   -0.59881E-03   108   0.251E-01    0.782E-02
DAV:   3    -0.101239689302E+03    0.59589E-04   -0.16909E-04   132   0.445E-02    0.337E-02
DAV:   4    -0.101239673096E+03    0.16206E-04   -0.59629E-05   108   0.262E-02    0.781E-03
DAV:   5    -0.101239669747E+03    0.33490E-05   -0.78126E-06   132   0.105E-02    0.508E-03
DAV:   6    -0.101239671398E+03   -0.16514E-05   -0.33315E-06   120   0.584E-03    0.209E-03
DAV:   7    -0.101239676185E+03   -0.47873E-05   -0.53263E-07   108   0.300E-03    0.119E-03
DAV:   8    -0.101239684796E+03   -0.86104E-05   -0.55751E-07    84   0.224E-03    0.684E-04
DAV:   9    -0.101239694176E+03   -0.93803E-05   -0.57729E-07    96   0.194E-03    0.372E-04
DAV:  10    -0.101239701622E+03   -0.74465E-05   -0.38209E-07    84   0.139E-03    0.302E-04
DAV:  11    -0.101239705516E+03   -0.38933E-05   -0.77398E-08   108   0.738E-04    0.130E-04
DAV:  12    -0.101239708185E+03   -0.26690E-05   -0.68787E-08    84   0.564E-04    0.114E-04
DAV:  13    -0.101239708758E+03   -0.57342E-06   -0.32489E-09   108   0.241E-04
  62 F= -.10123971E+03 E0= -.10123971E+03  d E =-.682229E-10
       N       E                     dE             d eps       ncg     rms          rms(c)
DAV:   1    -0.101239809363E+03   -0.10118E-03   -0.52817E-01    96   0.258E+00    0.174E-01
DAV:   2    -0.101239695291E+03    0.11407E-03   -0.27955E-03   108   0.187E-01    0.977E-02
DAV:   3    -0.101239553524E+03    0.14177E-03   -0.40742E-04   132   0.606E-02    0.195E-02
DAV:   4    -0.101239556019E+03   -0.24955E-05   -0.71186E-05   132   0.261E-02    0.956E-03
DAV:   5    -0.101239556828E+03   -0.80907E-06   -0.33330E-06   132   0.661E-03
  63 F= -.10123956E+03 E0= -.10123956E+03  d E =-.616777E-10
       N       E                     dE             d eps       ncg     rms          rms(c)
DAV:   1    -0.101238859920E+03    0.69610E-03   -0.27379E-01   108   0.185E+00    0.147E-01
DAV:   2    -0.101238827470E+03    0.32450E-04   -0.21775E-03   108   0.161E-01    0.798E-02
DAV:   3    -0.101238741110E+03    0.86359E-04   -0.27730E-04   120   0.471E-02    0.216E-02
DAV:   4    -0.101238739216E+03    0.18946E-05   -0.54434E-05   108   0.213E-02    0.829E-03
DAV:   5    -0.101238737554E+03    0.16620E-05   -0.31721E-06   120   0.713E-03    0.392E-03
DAV:   6    -0.101238737866E+03   -0.31245E-06   -0.26652E-06   108   0.562E-03
  64 F= -.10123874E+03 E0= -.10123874E+03  d E =-.641133E-10
       N       E                     dE             d eps       ncg     rms          rms(c)
DAV:   1    -0.101238631887E+03    0.10567E-03   -0.54002E-01    96   0.263E+00    0.199E-01
DAV:   2    -0.101238501610E+03    0.13028E-03   -0.37859E-03   108   0.216E-01    0.108E-01
DAV:   3    -0.101238317777E+03    0.18383E-03   -0.50213E-04   120   0.608E-02    0.292E-02
DAV:   4    -0.101238304797E+03    0.12980E-04   -0.73162E-05   108   0.257E-02    0.114E-02
DAV:   5    -0.101238304248E+03    0.54866E-06   -0.66711E-06   132   0.980E-03
  65 F= -.10123830E+03 E0= -.10123830E+03  d E =-.685345E-10
       N       E                     dE             d eps       ncg     rms          rms(c)
DAV:   1    -0.101239885614E+03   -0.15808E-02   -0.27192E-01    96   0.183E+00    0.143E-01
DAV:   2    -0.101239849745E+03    0.35869E-04   -0.22403E-03   108   0.164E-01    0.785E-02
DAV:   3    -0.101239770297E+03    0.79447E-04   -0.27343E-04   120   0.501E-02    0.212E-02
DAV:   4    -0.101239773486E+03   -0.31889E-05   -0.59873E-05   120   0.234E-02    0.762E-03
DAV:   5    -0.101239772958E+03    0.52870E-06   -0.28880E-06    96   0.654E-03
  66 F= -.10123977E+03 E0= -.10123977E+03  d E =-.517794E-10
       N       E                     dE             d eps       ncg     rms          rms(c)
DAV:   1    -0.101239880886E+03   -0.10740E-03   -0.53474E-01    96   0.253E+00    0.170E-01
DAV:   2    -0.101239754178E+03    0.12671E-03   -0.29385E-03   108   0.191E-01    0.972E-02
DAV:   3    -0.101239613253E+03    0.14092E-03   -0.45538E-04   120   0.698E-02    0.176E-02
DAV:   4    -0.101239619477E+03   -0.62243E-05   -0.91938E-05   120   0.316E-02    0.964E-03
DAV:   5    -0.101239618476E+03    0.10017E-05   -0.25955E-06   120   0.607E-03    0.575E-03
DAV:   6    -0.101239618700E+03   -0.22424E-06   -0.25472E-06   108   0.550E-03
  67 F= -.10123962E+03 E0= -.10123962E+03  d E =-.679659E-10
       N       E                     dE             d eps       ncg     rms          rms(c)
DAV:   1    -0.101240159687E+03   -0.54121E-03   -0.26607E-01    96   0.195E+00    0.119E-01
DAV:   2    -0.101240146146E+03    0.13542E-04   -0.14864E-03   108   0.137E-01    0.686E-02
DAV:   3    -0.101240090367E+03    0.55778E-04   -0.13819E-04   132   0.368E-02    0.113E-02
DAV:   4    -0.101240091820E+03   -0.14533E-05   -0.22995E-05   120   0.153E-02    0.460E-03
DAV:   5    -0.101240091957E+03   -0.13609E-06   -0.57660E-07   108   0.293E-03
  68 F= -.10124009E+03 E0= -.10124009E+03  d E =-.646754E-10
       N       E                     dE             d eps       ncg     rms          rms(c)
DAV:   1    -0.101240482624E+03   -0.39080E-03   -0.52841E-01    96   0.269E+00    0.160E-01
DAV:   2    -0.101240353194E+03    0.12943E-03   -0.21095E-03   108   0.159E-01    0.928E-02
DAV:   3    -0.101240249211E+03    0.10398E-03   -0.38928E-04   120   0.653E-02    0.119E-02
DAV:   4    -0.101240256160E+03   -0.69486E-05   -0.66037E-05   120   0.275E-02    0.822E-03
DAV:   5    -0.101240256318E+03   -0.15783E-06   -0.17360E-06   132   0.469E-03
  69 F= -.10124026E+03 E0= -.10124026E+03  d E =-.637605E-10
       N       E                     dE             d eps       ncg     rms          rms(c)
DAV:   1    -0.101240148633E+03    0.10753E-03   -0.26746E-01    96   0.186E+00    0.113E-01
DAV:   2    -0.101240077523E+03    0.71110E-04   -0.10100E-03   120   0.108E-01    0.654E-02
DAV:   3    -0.101240024406E+03    0.53117E-04   -0.19636E-04   108   0.429E-02    0.893E-03
DAV:   4    -0.101240026182E+03   -0.17767E-05   -0.26855E-05   132   0.173E-02    0.523E-03
DAV:   5    -0.101240025965E+03    0.21687E-06   -0.79193E-07    84   0.342E-03
  70 F= -.10124003E+03 E0= -.10124003E+03  d E =-.595381E-10
       N       E                     dE             d eps       ncg     rms          rms(c)
DAV:   1    -0.101240355065E+03   -0.32888E-03   -0.53048E-01    96   0.267E+00    0.162E-01
DAV:   2    -0.101240232628E+03    0.12244E-03   -0.21508E-03   108   0.157E-01    0.931E-02
DAV:   3    -0.101240114323E+03    0.11831E-03   -0.35833E-04   120   0.580E-02    0.145E-02
DAV:   4    -0.101240116917E+03   -0.25939E-05   -0.50650E-05   120   0.239E-02    0.815E-03
DAV:   5    -0.101240116928E+03   -0.11232E-07   -0.20590E-06   120   0.512E-03
  71 F= -.10124012E+03 E0= -.10124012E+03  d E =-.686577E-10
       N       E                     dE             d eps       ncg     rms          rms(c)
DAV:   1    -0.101237894444E+03    0.22225E-02   -0.26713E-01    96   0.188E+00    0.123E-01
[...]
DAV:   4    -0.101239691521E+03   -0.34540E-05   -0.36596E-05   132   0.190E-02    0.631E-03
DAV:   5    -0.101239692072E+03   -0.55085E-06   -0.17178E-06   132   0.474E-03
 132 F= -.10123969E+03 E0= -.10123969E+03  d E =-.704883E-10
       N       E                     dE             d eps       ncg     rms          rms(c)
DAV:   1    -0.101240174539E+03   -0.48302E-03   -0.54968E-01    96   0.193E+00    0.223E-01
DAV:   2    -0.101239882427E+03    0.29211E-03   -0.32812E-03   108   0.165E-01    0.118E-01
DAV:   3    -0.101239700330E+03    0.18210E-03   -0.49116E-04   120   0.608E-02    0.353E-02
DAV:   4    -0.101239701991E+03   -0.16608E-05   -0.99353E-05   132   0.282E-02    0.110E-02
DAV:   5    -0.101239700976E+03    0.10148E-05   -0.56397E-06   108   0.861E-03    0.576E-03
DAV:   6    -0.101239701853E+03   -0.87628E-06   -0.26836E-06   120   0.506E-03
 133 F= -.10123970E+03 E0= -.10123970E+03  d E =-.561094E-10
       N       E                     dE             d eps       ncg     rms          rms(c)
DAV:   1    -0.101239952526E+03   -0.25155E-03   -0.27636E-01    96   0.182E+00    0.159E-01
DAV:   2    -0.101239838037E+03    0.11449E-03   -0.19723E-03   108   0.146E-01    0.853E-02
DAV:   3    -0.101239748346E+03    0.89691E-04   -0.22760E-04   120   0.449E-02    0.263E-02
DAV:   4    -0.101239748191E+03    0.15500E-06   -0.52622E-05   108   0.215E-02    0.837E-03
DAV:   5    -0.101239747542E+03    0.64886E-06   -0.31974E-06   132   0.656E-03
 134 F= -.10123975E+03 E0= -.10123975E+03  d E =-.672187E-10
       N       E                     dE             d eps       ncg     rms          rms(c)
DAV:   1    -0.101239859581E+03   -0.11139E-03   -0.55349E-01    96   0.242E+00    0.230E-01
DAV:   2    -0.101239493324E+03    0.36626E-03   -0.30089E-03   108   0.176E-01    0.120E-01
DAV:   3    -0.101239287146E+03    0.20618E-03   -0.50000E-04   120   0.605E-02    0.349E-02
DAV:   4    -0.101239283086E+03    0.40598E-05   -0.89723E-05   108   0.277E-02    0.122E-02
DAV:   5    -0.101239283459E+03   -0.37345E-06   -0.50636E-06   132   0.890E-03
 135 F= -.10123928E+03 E0= -.10123928E+03  d E =-.691142E-10
       N       E                     dE             d eps       ncg     rms          rms(c)
DAV:   1    -0.101238931331E+03    0.35176E-03   -0.29003E-01    96   0.177E+00    0.208E-01
DAV:   2    -0.101238666319E+03    0.26501E-03   -0.22920E-03   108   0.160E-01    0.102E-01
DAV:   3    -0.101238525139E+03    0.14118E-03   -0.39185E-04   120   0.575E-02    0.350E-02
DAV:   4    -0.101238524884E+03    0.25476E-06   -0.10073E-04   120   0.296E-02    0.142E-02
DAV:   5    -0.101238523270E+03    0.16139E-05   -0.46653E-06   108   0.864E-03    0.524E-03
DAV:   6    -0.101238523442E+03   -0.17163E-06   -0.24162E-06   132   0.516E-03
 136 F= -.10123852E+03 E0= -.10123852E+03  d E =-.550416E-10
       N       E                     dE             d eps       ncg     rms          rms(c)
DAV:   1    -0.101239300465E+03   -0.77720E-03   -0.57254E-01   108   0.241E+00    0.269E-01
DAV:   2    -0.101238720797E+03    0.57967E-03   -0.41873E-03   108   0.222E-01    0.137E-01
DAV:   3    -0.101238426411E+03    0.29439E-03   -0.82377E-04   120   0.855E-02    0.431E-02
DAV:   4    -0.101238428749E+03   -0.23379E-05   -0.18914E-04   120   0.418E-02    0.195E-02
DAV:   5    -0.101238427970E+03    0.77935E-06   -0.69390E-06   132   0.103E-02
 137 F= -.10123843E+03 E0= -.10123843E+03  d E =-.701722E-10
       N       E                     dE             d eps       ncg     rms          rms(c)
DAV:   1    -0.101240053617E+03   -0.16249E-02   -0.28834E-01    96   0.178E+00    0.204E-01
DAV:   2    -0.101239784276E+03    0.26934E-03   -0.23006E-03   108   0.162E-01    0.101E-01
DAV:   3    -0.101239642436E+03    0.14184E-03   -0.40035E-04   120   0.597E-02    0.337E-02
DAV:   4    -0.101239644691E+03   -0.22546E-05   -0.11197E-04   108   0.313E-02    0.141E-02
DAV:   5    -0.101239643600E+03    0.10911E-05   -0.46376E-06   132   0.864E-03    0.572E-03
DAV:   6    -0.101239643920E+03   -0.32040E-06   -0.26783E-06   108   0.545E-03
 138 F= -.10123964E+03 E0= -.10123964E+03  d E =-.645006E-10
       N       E                     dE             d eps       ncg     rms          rms(c)
DAV:   1    -0.101240056607E+03   -0.41301E-03   -0.54713E-01    96   0.243E+00    0.227E-01
DAV:   2    -0.101239718146E+03    0.33846E-03   -0.31846E-03   108   0.187E-01    0.120E-01
DAV:   3    -0.101239516761E+03    0.20138E-03   -0.51457E-04   120   0.671E-02    0.332E-02
DAV:   4    -0.101239520045E+03   -0.32835E-05   -0.98006E-05   120   0.306E-02    0.135E-02
DAV:   5    -0.101239520057E+03   -0.12256E-07   -0.48513E-06   144   0.852E-03
 139 F= -.10123952E+03 E0= -.10123952E+03  d E =-.589320E-10
       N       E                     dE             d eps       ncg     rms          rms(c)
DAV:   1    -0.101239699280E+03   -0.17924E-03   -0.27633E-01    96   0.176E+00    0.167E-01
DAV:   2    -0.101239578989E+03    0.12029E-03   -0.18377E-03   108   0.136E-01    0.871E-02
DAV:   3    -0.101239490583E+03    0.88406E-04   -0.25808E-04   120   0.418E-02    0.267E-02
DAV:   4    -0.101239487757E+03    0.28264E-05   -0.36888E-05   108   0.171E-02    0.103E-02
DAV:   5    -0.101239486180E+03    0.15773E-05   -0.25774E-06   132   0.671E-03    0.465E-03
DAV:   6    -0.101239486231E+03   -0.51261E-07   -0.19828E-06   108   0.484E-03
 140 F= -.10123949E+03 E0= -.10123949E+03  d E =-.622321E-10
       N       E                     dE             d eps       ncg     rms          rms(c)
DAV:   1    -0.101239641609E+03   -0.15543E-03   -0.55725E-01    96   0.243E+00    0.242E-01
DAV:   2    -0.101239243108E+03    0.39850E-03   -0.32045E-03   108   0.183E-01    0.124E-01
DAV:   3    -0.101239022473E+03    0.22063E-03   -0.54440E-04   120   0.633E-02    0.382E-02
DAV:   4    -0.101239015994E+03    0.64798E-05   -0.10528E-04   108   0.301E-02    0.136E-02
DAV:   5    -0.101239016110E+03   -0.11619E-06   -0.56378E-06   132   0.975E-03
 141 F= -.10123902E+03 E0= -.10123902E+03  d E =-.703948E-10
       N       E                     dE             d eps       ncg     rms          rms(c)
DAV:   1    -0.101238356617E+03    0.65938E-03   -0.27250E-01    96   0.170E+00    0.138E-01
DAV:   2    -0.101238230081E+03    0.12654E-03   -0.14792E-03   120   0.124E-01    0.785E-02
DAV:   3    -0.101238143855E+03    0.86226E-04   -0.26191E-04   108   0.482E-02    0.163E-02
DAV:   4    -0.101238148633E+03   -0.47783E-05   -0.46698E-05   132   0.214E-02    0.838E-03
DAV:   5    -0.101238149183E+03   -0.55006E-06   -0.11626E-06   120   0.408E-03
 142 F= -.10123815E+03 E0= -.10123815E+03  d E =-.589660E-10
       N       E                     dE             d eps       ncg     rms          rms(c)
DAV:   1    -0.101239053569E+03   -0.90494E-03   -0.57965E-01   108   0.252E+00    0.285E-01
DAV:   2    -0.101238504536E+03    0.54903E-03   -0.46688E-03   108   0.229E-01    0.142E-01
DAV:   3    -0.101238192606E+03    0.31193E-03   -0.82131E-04   120   0.874E-02    0.472E-02
DAV:   4    -0.101238194330E+03   -0.17241E-05   -0.23118E-04   108   0.450E-02    0.193E-02
DAV:   5    -0.101238192013E+03    0.23175E-05   -0.92254E-06   132   0.117E-02    0.863E-03
DAV:   6    -0.101238192207E+03   -0.19488E-06   -0.51450E-06   108   0.769E-03
 143 F= -.10123819E+03 E0= -.10123819E+03  d E =-.612702E-10
       N       E                     dE             d eps       ncg     rms          rms(c)
DAV:   1    -0.101240513657E+03   -0.23216E-02   -0.28075E-01   108   0.171E+00    0.166E-01
DAV:   2    -0.101240287827E+03    0.22583E-03   -0.17795E-03   108   0.144E-01    0.891E-02
DAV:   3    -0.101240175350E+03    0.11248E-03   -0.32814E-04   120   0.546E-02    0.246E-02
DAV:   4    -0.101240179912E+03   -0.45622E-05   -0.68309E-05   120   0.254E-02    0.110E-02
DAV:   5    -0.101240180126E+03   -0.21353E-06   -0.26067E-06   108   0.627E-03
 144 F= -.10124018E+03 E0= -.10124018E+03  d E =-.687397E-10
       N       E                     dE             d eps       ncg     rms          rms(c)
DAV:   1    -0.101240568701E+03   -0.38879E-03   -0.54052E-01    96   0.244E+00    0.200E-01
DAV:   2    -0.101240274008E+03    0.29469E-03   -0.25760E-03   108   0.170E-01    0.111E-01
DAV:   3    -0.101240107172E+03    0.16684E-03   -0.43457E-04   120   0.627E-02    0.227E-02
DAV:   4    -0.101240112436E+03   -0.52641E-05   -0.67998E-05   144   0.258E-02    0.996E-03
DAV:   5    -0.101240112772E+03   -0.33631E-06   -0.27821E-06   132   0.597E-03
 145 F= -.10124011E+03 E0= -.10124011E+03  d E =-.580793E-10
       N       E                     dE             d eps       ncg     rms          rms(c)
DAV:   1    -0.101239567779E+03    0.54466E-03   -0.27609E-01    96   0.197E+00    0.157E-01
DAV:   2    -0.101239433328E+03    0.13445E-03   -0.20107E-03   120   0.163E-01    0.854E-02
DAV:   3    -0.101239336015E+03    0.97312E-04   -0.27339E-04   120   0.556E-02    0.251E-02
DAV:   4    -0.101239340260E+03   -0.42451E-05   -0.70796E-05   108   0.274E-02    0.106E-02
DAV:   5    -0.101239339953E+03    0.30740E-06   -0.23627E-06   132   0.614E-03
 146 F= -.10123934E+03 E0= -.10123934E+03  d E =-.604035E-10
       N       E                     dE             d eps       ncg     rms          rms(c)
DAV:   1    -0.101239832975E+03   -0.49272E-03   -0.55982E-01   108   0.250E+00    0.237E-01
DAV:   2    -0.101239404848E+03    0.42813E-03   -0.37991E-03   108   0.214E-01    0.126E-01
DAV:   3    -0.101239155464E+03    0.24938E-03   -0.68498E-04   120   0.842E-02    0.365E-02
DAV:   4    -0.101239160474E+03   -0.50103E-05   -0.15330E-04   120   0.406E-02    0.172E-02
DAV:   5    -0.101239159548E+03    0.92619E-06   -0.55510E-06   120   0.937E-03
 147 F= -.10123916E+03 E0= -.10123916E+03  d E =-.660741E-10
       N       E                     dE             d eps       ncg     rms          rms(c)
DAV:   1    -0.101238131350E+03    0.10291E-02   -0.27245E-01    96   0.182E+00    0.141E-01
DAV:   2    -0.101237993225E+03    0.13813E-03   -0.13428E-03   108   0.120E-01    0.777E-02
DAV:   3    -0.101237904783E+03    0.88441E-04   -0.21161E-04   108   0.428E-02    0.196E-02
DAV:   4    -0.101237906754E+03   -0.19709E-05   -0.36628E-05   132   0.190E-02    0.653E-03
DAV:   5    -0.101237908089E+03   -0.13349E-05   -0.19452E-06   132   0.516E-03    0.418E-03
DAV:   6    -0.101237910411E+03   -0.23221E-05   -0.75303E-07    84   0.311E-03    0.952E-04
DAV:   7    -0.101237912049E+03   -0.16379E-05   -0.25456E-07   108   0.180E-03    0.601E-04
DAV:   8    -0.101237914410E+03   -0.23609E-05   -0.10886E-07    84   0.132E-03    0.253E-04
DAV:   9    -0.101237916519E+03   -0.21095E-05   -0.13671E-07    96   0.113E-03    0.228E-04
DAV:  10    -0.101237918344E+03   -0.18247E-05   -0.86180E-08    96   0.781E-04    0.139E-04
DAV:  11    -0.101237919028E+03   -0.68376E-06   -0.19270E-08   108   0.391E-04
 148 F= -.10123792E+03 E0= -.10123792E+03  d E =-.568305E-10
       N       E                     dE             d eps       ncg     rms          rms(c)
DAV:   1    -0.101239163680E+03   -0.12453E-02   -0.57833E-01    96   0.255E+00    0.293E-01
DAV:   2    -0.101238694966E+03    0.46871E-03   -0.43810E-03   108   0.222E-01    0.140E-01
DAV:   3    -0.101238405797E+03    0.28917E-03   -0.69016E-04   132   0.778E-02    0.519E-02
DAV:   4    -0.101238389492E+03    0.16305E-04   -0.19350E-04   108   0.415E-02    0.177E-02
DAV:   5    -0.101238386309E+03    0.31822E-05   -0.11028E-05   132   0.139E-02    0.697E-03
DAV:   6    -0.101238387985E+03   -0.16760E-05   -0.47098E-06   132   0.744E-03    0.298E-03
DAV:   7    -0.101238390699E+03   -0.27140E-05   -0.80066E-07   120   0.326E-03    0.116E-03
DAV:   8    -0.101238395001E+03   -0.43014E-05   -0.32910E-07    84   0.226E-03    0.729E-04
DAV:   9    -0.101238398172E+03   -0.31709E-05   -0.24261E-07   108   0.148E-03    0.694E-04
DAV:  10    -0.101238403874E+03   -0.57018E-05   -0.27287E-07    84   0.128E-03    0.283E-04
DAV:  11    -0.101238405345E+03   -0.14716E-05   -0.59200E-08   120   0.652E-04    0.233E-04
DAV:  12    -0.101238406705E+03   -0.13599E-05   -0.88334E-09    96   0.334E-04    0.113E-04
DAV:  13    -0.101238408913E+03   -0.22082E-05   -0.55199E-08    84   0.463E-04    0.981E-05
DAV:  14    -0.101238409458E+03   -0.54504E-06   -0.15220E-09   108   0.197E-04
 149 F= -.10123841E+03 E0= -.10123841E+03  d E =-.545790E-10
       N       E                     dE             d eps       ncg     rms          rms(c)
DAV:   1    -0.101240464352E+03   -0.20554E-02   -0.27889E-01    96   0.183E+00    0.170E-01
DAV:   2    -0.101240262377E+03    0.20197E-03   -0.17639E-03   108   0.151E-01    0.884E-02
DAV:   3    -0.101240150317E+03    0.11206E-03   -0.27713E-04   120   0.512E-02    0.276E-02
DAV:   4    -0.101240151351E+03   -0.10342E-05   -0.61176E-05   132   0.246E-02    0.967E-03
DAV:   5    -0.101240152362E+03   -0.10111E-05   -0.32490E-06   108   0.740E-03    0.492E-03
DAV:   6    -0.101240154351E+03   -0.19891E-05   -0.18024E-06   132   0.463E-03    0.106E-03
DAV:   7    -0.101240155317E+03   -0.96591E-06   -0.28123E-07   108   0.210E-03
 150 F= -.10124016E+03 E0= -.10124016E+03  d E =-.792381E-10
       N       E                     dE             d eps       ncg     rms          rms(c)
DAV:   1    -0.101240603910E+03   -0.44956E-03   -0.54219E-01    96   0.260E+00    0.200E-01
DAV:   2    -0.101240310733E+03    0.29318E-03   -0.26810E-03   108   0.177E-01    0.112E-01
DAV:   3    -0.101240134987E+03    0.17575E-03   -0.47463E-04   120   0.659E-02    0.223E-02
DAV:   4    -0.101240141564E+03   -0.65768E-05   -0.69945E-05   132   0.274E-02    0.879E-03
DAV:   5    -0.101240142713E+03   -0.11489E-05   -0.32463E-06   108   0.659E-03    0.566E-03
DAV:   6    -0.101240145748E+03   -0.30349E-05   -0.15344E-06   120   0.413E-03    0.104E-03
DAV:   7    -0.101240147901E+03   -0.21534E-05   -0.27741E-07   108   0.196E-03    0.829E-04
DAV:   8    -0.101240151211E+03   -0.33099E-05   -0.15982E-07    84   0.161E-03    0.362E-04
DAV:   9    -0.101240154280E+03   -0.30683E-05   -0.17873E-07    96   0.143E-03    0.310E-04
DAV:  10    -0.101240156591E+03   -0.23111E-05   -0.10518E-07    84   0.910E-04    0.157E-04
DAV:  11    -0.101240157643E+03   -0.10519E-05   -0.28483E-08    96   0.450E-04    0.118E-04
DAV:  12    -0.101240158332E+03   -0.68976E-06   -0.10293E-08    84   0.309E-04
 151 F= -.10124016E+03 E0= -.10124016E+03  d E =-.466645E-10
       N       E                     dE             d eps       ncg     rms          rms(c)
DAV:   1    -0.101238127154E+03    0.20305E-02   -0.28075E-01   108   0.192E+00    0.180E-01
DAV:   2    -0.101237907985E+03    0.21917E-03   -0.22773E-03   108   0.174E-01    0.902E-02
DAV:   3    -0.101237774725E+03    0.13326E-03   -0.34560E-04   120   0.607E-02    0.310E-02
DAV:   4    -0.101237778075E+03   -0.33507E-05   -0.10075E-04   108   0.318E-02    0.104E-02
DAV:   5    -0.101237779248E+03   -0.11722E-05   -0.51525E-06   132   0.853E-03    0.560E-03
DAV:   6    -0.101237781023E+03   -0.17757E-05   -0.16204E-06    96   0.443E-03    0.129E-03
DAV:   7    -0.101237782222E+03   -0.11986E-05   -0.30941E-07   108   0.218E-03    0.639E-04
DAV:   8    -0.101237784023E+03   -0.18011E-05   -0.89113E-08    84   0.110E-03    0.254E-04
DAV:   9    -0.101237785168E+03   -0.11449E-05   -0.38584E-08   108   0.693E-04    0.202E-04
DAV:  10    -0.101237786946E+03   -0.17777E-05   -0.70920E-08    84   0.701E-04    0.117E-04
DAV:  11    -0.101237787465E+03   -0.51961E-06   -0.14893E-08   108   0.392E-04
 152 F= -.10123779E+03 E0= -.10123779E+03  d E =-.566293E-10
       N       E                     dE             d eps       ncg     rms          rms(c)
DAV:   1    -0.101238818466E+03   -0.10315E-02   -0.58484E-01    96   0.265E+00    0.297E-01
DAV:   2    -0.101238269807E+03    0.54866E-03   -0.49883E-03   108   0.249E-01    0.146E-01
DAV:   3    -0.101237938524E+03    0.33128E-03   -0.88060E-04   132   0.930E-02    0.497E-02
DAV:   4    -0.101237935738E+03    0.27860E-05   -0.23564E-04   108   0.483E-02    0.203E-02
DAV:   5    -0.101237933737E+03    0.20005E-05   -0.10574E-05   132   0.130E-02    0.868E-03
DAV:   6    -0.101237935164E+03   -0.14267E-05   -0.55532E-06   108   0.886E-03    0.218E-03
DAV:   7    -0.101237937665E+03   -0.25015E-05   -0.15432E-06   132   0.436E-03    0.136E-03
DAV:   8    -0.101237940771E+03   -0.31059E-05   -0.12089E-07   108   0.994E-04    0.580E-04
DAV:   9    -0.101237944485E+03   -0.37136E-05   -0.18823E-07    84   0.119E-03    0.503E-04
DAV:  10    -0.101237948483E+03   -0.39979E-05   -0.22115E-07    96   0.144E-03    0.873E-04
DAV:  11    -0.101237950771E+03   -0.22886E-05   -0.10778E-07    84   0.872E-04    0.343E-04
DAV:  12    -0.101237951448E+03   -0.67650E-06   -0.71234E-09   108   0.443E-04
 153 F= -.10123795E+03 E0= -.10123795E+03  d E =-.565860E-10
       N       E                     dE             d eps       ncg     rms          rms(c)
DAV:   1    -0.101240331363E+03   -0.23806E-02   -0.28545E-01    96   0.186E+00    0.195E-01
DAV:   2    -0.101240101012E+03    0.23035E-03   -0.21901E-03   108   0.164E-01    0.961E-02
DAV:   3    -0.101239963164E+03    0.13785E-03   -0.31519E-04   120   0.533E-02    0.349E-02
DAV:   4    -0.101239958064E+03    0.50995E-05   -0.86994E-05   108   0.278E-02    0.116E-02
DAV:   5    -0.101239959771E+03   -0.17068E-05   -0.52602E-06   132   0.956E-03    0.542E-03
DAV:   6    -0.101239963657E+03   -0.38864E-05   -0.25302E-06   132   0.552E-03    0.160E-03
DAV:   7    -0.101239966370E+03   -0.27130E-05   -0.44654E-07   108   0.260E-03    0.807E-04
DAV:   8    -0.101239970883E+03   -0.45126E-05   -0.23524E-07    84   0.147E-03    0.414E-04
DAV:   9    -0.101239972753E+03   -0.18697E-05   -0.91974E-08   108   0.105E-03    0.403E-04
DAV:  10    -0.101239976436E+03   -0.36834E-05   -0.20683E-07    84   0.116E-03    0.204E-04
DAV:  11    -0.101239977669E+03   -0.12332E-05   -0.79891E-08    96   0.694E-04    0.137E-04
DAV:  12    -0.101239978298E+03   -0.62897E-06   -0.10235E-08    96   0.370E-04
 154 F= -.10123998E+03 E0= -.10123998E+03  d E =-.562573E-10
       N       E                     dE             d eps       ncg     rms          rms(c)
DAV:   1    -0.101240649729E+03   -0.67206E-03   -0.54967E-01    96   0.258E+00    0.205E-01
DAV:   2    -0.101240380415E+03    0.26931E-03   -0.27796E-03   108   0.174E-01    0.113E-01
DAV:   3    -0.101240188188E+03    0.19223E-03   -0.43393E-04   120   0.619E-02    0.301E-02
DAV:   4    -0.101240188841E+03   -0.65298E-06   -0.80692E-05   132   0.283E-02    0.893E-03
DAV:   5    -0.101240188217E+03    0.62338E-06   -0.40468E-06   108   0.752E-03
 155 F= -.10124019E+03 E0= -.10124019E+03  d E =-.688086E-10
       N       E                     dE             d eps       ncg     rms          rms(c)
DAV:   1    -0.101239818625E+03    0.37022E-03   -0.27567E-01    96   0.178E+00    0.147E-01
DAV:   2    -0.101239677803E+03    0.14082E-03   -0.15366E-03   120   0.135E-01    0.819E-02
DAV:   3    -0.101239591562E+03    0.86241E-04   -0.26019E-04   120   0.514E-02    0.183E-02
DAV:   4    -0.101239598269E+03   -0.67067E-05   -0.48447E-05   132   0.226E-02    0.780E-03
DAV:   5    -0.101239599094E+03   -0.82537E-06   -0.15522E-06   108   0.493E-03
 156 F= -.10123960E+03 E0= -.10123960E+03  d E =-.719052E-10
       N       E                     dE             d eps       ncg     rms          rms(c)
DAV:   1    -0.101240120914E+03   -0.52265E-03   -0.55410E-01    96   0.259E+00    0.229E-01
DAV:   2    -0.101239820154E+03    0.30076E-03   -0.33974E-03   108   0.205E-01    0.120E-01
DAV:   3    -0.101239611614E+03    0.20854E-03   -0.50083E-04   120   0.680E-02    0.356E-02
DAV:   4    -0.101239612723E+03   -0.11084E-05   -0.98342E-05   132   0.313E-02    0.117E-02
DAV:   5    -0.101239613110E+03   -0.38709E-06   -0.62934E-06   132   0.968E-03
 157 F= -.10123961E+03 E0= -.10123961E+03  d E =-.569148E-10
