       N       E                     dE             d eps       ncg     rms          rms(c)
DAV:   1     0.246096857231E+03    0.24610E+03   -0.10171E+04   120   0.484E+02
DAV:   2    -0.215946841761E+02   -0.26769E+03   -0.25346E+03   156   0.915E+01
DAV:   3    -0.101107010994E+03   -0.79512E+02   -0.79280E+02   120   0.555E+01
DAV:   4    -0.104981820782E+03   -0.38748E+01   -0.38608E+01   120   0.175E+01
DAV:   5    -0.105051218368E+03   -0.69398E-01   -0.69248E-01   144   0.263E+00    0.148E+01
DAV:   6    -0.101716622870E+03    0.33346E+01   -0.15258E+00   108   0.428E+00    0.853E+00
DAV:   7    -0.100025187857E+03    0.16914E+01   -0.41183E+00   120   0.625E+00    0.130E+00
DAV:   8    -0.999671039279E+02    0.58084E-01   -0.33860E-01   132   0.222E+00    0.679E-01
DAV:   9    -0.999329474631E+02    0.34156E-01   -0.59804E-02   144   0.673E-01    0.372E-01
DAV:  10    -0.999316951266E+02    0.12523E-02   -0.44872E-03   132   0.226E-01    0.138E-01
DAV:  11    -0.999305887341E+02    0.11064E-02   -0.66360E-03   120   0.219E-01    0.114E-01
DAV:  12    -0.999369673721E+02   -0.63786E-02   -0.17438E-03   120   0.111E-01    0.498E-02
DAV:  13    -0.999400626981E+02   -0.30953E-02   -0.16741E-03   120   0.111E-01    0.490E-02
DAV:  14    -0.999429655631E+02   -0.29029E-02   -0.20935E-04   144   0.522E-02    0.204E-02
DAV:  15    -0.999475093671E+02   -0.45438E-02   -0.50043E-04    96   0.556E-02    0.137E-02
DAV:  16    -0.999493561686E+02   -0.18468E-02   -0.14218E-04   132   0.331E-02    0.759E-03
DAV:  17    -0.999503530433E+02   -0.99687E-03   -0.74101E-05   108   0.195E-02    0.612E-03
DAV:  18    -0.999507416668E+02   -0.38862E-03   -0.15196E-05   132   0.944E-03    0.195E-03
DAV:  19    -0.999509240075E+02   -0.18234E-03   -0.67911E-06   120   0.600E-03    0.191E-03
DAV:  20    -0.999509869635E+02   -0.62956E-04   -0.11610E-06    84   0.307E-03    0.704E-04
DAV:  21    -0.999510062376E+02   -0.19274E-04   -0.42588E-07   108   0.169E-03    0.499E-04
DAV:  22    -0.999510238316E+02   -0.17594E-04   -0.36166E-07    84   0.143E-03    0.223E-04
DAV:  23    -0.999510274754E+02   -0.36438E-05   -0.97619E-08    96   0.672E-04    0.153E-04
DAV:  24    -0.999510318711E+02   -0.43957E-05   -0.70717E-08    84   0.555E-04    0.914E-05
DAV:  25    -0.999510325915E+02   -0.72038E-06   -0.79516E-09    96   0.281E-04
   1 F= -.99951033E+02 E0= -.99951033E+02  d E =-.263238E-10
       N       E                     dE             d eps       ncg     rms          rms(c)
DAV:   1    -0.999477828860E+02    0.32490E-02   -0.82376E-02    96   0.837E-01    0.119E-01
DAV:   2    -0.999481482764E+02   -0.36539E-03   -0.39553E-03   120   0.211E-01    0.536E-02
DAV:   3    -0.999481397157E+02    0.85608E-05   -0.13296E-04   132   0.432E-02    0.280E-02
DAV:   4    -0.999481425580E+02   -0.28423E-05   -0.30012E-05   108   0.212E-02    0.764E-03
DAV:   5    -0.999481420335E+02    0.52453E-06   -0.61677E-06   132   0.976E-03
   2 F= -.99948142E+02 E0= -.99948142E+02  d E =-.239953E-10
       N       E                     dE             d eps       ncg     rms          rms(c)
DAV:   1    -0.999463757394E+02    0.17668E-02   -0.32890E-01    96   0.169E+00    0.252E-01
DAV:   2    -0.999478334825E+02   -0.14577E-02   -0.15757E-02   120   0.422E-01    0.107E-01
DAV:   3    -0.999478074913E+02    0.25991E-04   -0.52119E-04   120   0.848E-02    0.581E-02
DAV:   4    -0.999478220958E+02   -0.14605E-04   -0.11972E-04   108   0.420E-02    0.158E-02
DAV:   5    -0.999478189406E+02    0.31552E-05   -0.25610E-05   132   0.195E-02    0.855E-03
DAV:   6    -0.999478185979E+02    0.34268E-06   -0.48822E-06   132   0.756E-03
   3 F= -.99947819E+02 E0= -.99947819E+02  d E =-.427435E-10
       N       E                     dE             d eps       ncg     rms          rms(c)
DAV:   1    -0.999476053861E+02    0.21355E-03   -0.16701E-01    96   0.121E+00    0.155E-01
DAV:   2    -0.999482874460E+02   -0.68206E-03   -0.73368E-03   132   0.286E-01    0.741E-02
DAV:   3    -0.999482814081E+02    0.60378E-05   -0.25089E-04   108   0.601E-02    0.375E-02
DAV:   4    -0.999482933637E+02   -0.11956E-04   -0.54551E-05   108   0.284E-02    0.109E-02
DAV:   5    -0.999482931317E+02    0.23202E-06   -0.10002E-05   120   0.126E-02    0.536E-03
DAV:   6    -0.999482937933E+02   -0.66166E-06   -0.25601E-06   108   0.529E-03
   4 F= -.99948294E+02 E0= -.99948294E+02  d E =-.229530E-10
       N       E                     dE             d eps       ncg     rms          rms(c)
DAV:   1    -0.999463070567E+02    0.19861E-02   -0.32389E-01    96   0.166E+00    0.193E-01
DAV:   2    -0.999478764593E+02   -0.15694E-02   -0.16368E-02   108   0.423E-01    0.105E-01
DAV:   3    -0.999478676323E+02    0.88270E-05   -0.50928E-04   120   0.855E-02    0.534E-02
DAV:   4    -0.999478832842E+02   -0.15652E-04   -0.11002E-04   132   0.414E-02    0.136E-02
DAV:   5    -0.999478783412E+02    0.49430E-05   -0.23546E-05   108   0.187E-02    0.741E-03
DAV:   6    -0.999478783359E+02    0.52291E-08   -0.59711E-06   132   0.806E-03
   5 F= -.99947878E+02 E0= -.99947878E+02  d E =-.582798E-10
       N       E                     dE             d eps       ncg     rms          rms(c)
DAV:   1    -0.999460528286E+02    0.18255E-02   -0.16289E-01    96   0.121E+00    0.147E-01
DAV:   2    -0.999470344788E+02   -0.98165E-03   -0.10207E-02   120   0.333E-01    0.914E-02
DAV:   3    -0.999470061006E+02    0.28378E-04   -0.27398E-04   108   0.656E-02    0.498E-02
DAV:   4    -0.999470139612E+02   -0.78606E-05   -0.10452E-04   108   0.395E-02    0.106E-02
DAV:   5    -0.999470129415E+02    0.10197E-05   -0.24195E-05   132   0.179E-02    0.752E-03
DAV:   6    -0.999470145869E+02   -0.16455E-05   -0.37295E-06   108   0.614E-03    0.477E-03
DAV:   7    -0.999470202797E+02   -0.56928E-05   -0.59437E-07    96   0.283E-03    0.169E-03
DAV:   8    -0.999470261864E+02   -0.59066E-05   -0.46848E-07    84   0.228E-03    0.624E-04
DAV:   9    -0.999470332838E+02   -0.70975E-05   -0.48731E-07    84   0.188E-03    0.534E-04
DAV:  10    -0.999470396076E+02   -0.63238E-05   -0.48495E-07    84   0.153E-03    0.326E-04
DAV:  11    -0.999470412767E+02   -0.16691E-05   -0.62971E-08   108   0.724E-04    0.258E-04
DAV:  12    -0.999470432679E+02   -0.19912E-05   -0.65659E-08    84   0.593E-04    0.105E-04
DAV:  13    -0.999470443468E+02   -0.10790E-05   -0.31647E-08    96   0.387E-04    0.967E-05
DAV:  14    -0.999470451518E+02   -0.80497E-06   -0.13111E-08    84   0.275E-04
   6 F= -.99947045E+02 E0= -.99947045E+02  d E =-.379215E-10
       N       E                     dE             d eps       ncg     rms          rms(c)
DAV:   1    -0.999439401043E+02    0.31042E-02   -0.33314E-01    96   0.173E+00    0.261E-01
DAV:   2    -0.999463307183E+02   -0.23906E-02   -0.25624E-02   120   0.533E-01    0.169E-01
DAV:   3    -0.999461674929E+02    0.16323E-03   -0.63995E-04   144   0.107E-01    0.912E-02
DAV:   4    -0.999461605040E+02    0.69889E-05   -0.43244E-04   108   0.761E-02    0.168E-02
DAV:   5    -0.999461526526E+02    0.78514E-05   -0.76683E-05   132   0.320E-02    0.129E-02
DAV:   6    -0.999461526205E+02    0.32140E-07   -0.11665E-05   108   0.957E-03    0.901E-03
DAV:   7    -0.999461641629E+02   -0.11542E-04   -0.10536E-06    96   0.368E-03    0.384E-03
DAV:   8    -0.999461834894E+02   -0.19326E-04   -0.21663E-06   108   0.527E-03    0.152E-03
DAV:   9    -0.999461981648E+02   -0.14675E-04   -0.13713E-06   120   0.302E-03    0.173E-03
DAV:  10    -0.999462191844E+02   -0.21020E-04   -0.94559E-07    96   0.230E-03    0.103E-03
DAV:  11    -0.999462254552E+02   -0.62709E-05   -0.24410E-07   108   0.120E-03    0.668E-04
DAV:  12    -0.999462338832E+02   -0.84279E-05   -0.25787E-07    84   0.114E-03    0.331E-04
DAV:  13    -0.999462375695E+02   -0.36864E-05   -0.10739E-07   108   0.679E-04    0.266E-04
DAV:  14    -0.999462398229E+02   -0.22534E-05   -0.20179E-08    84   0.387E-04    0.139E-04
DAV:  15    -0.999462413331E+02   -0.15102E-05   -0.24522E-08    96   0.350E-04    0.912E-05
DAV:  16    -0.999462419012E+02   -0.56807E-06    0.20952E-09    84   0.178E-04
   7 F= -.99946242E+02 E0= -.99946242E+02  d E =-.190461E-10
       N       E                     dE             d eps       ncg     rms          rms(c)
DAV:   1    -0.999456790951E+02    0.56224E-03   -0.19161E-01    96   0.136E+00    0.187E-01
DAV:   2    -0.999471121734E+02   -0.14331E-02   -0.14749E-02   120   0.429E-01    0.121E-01
DAV:   3    -0.999470283185E+02    0.83855E-04   -0.36916E-04   132   0.832E-02    0.670E-02
DAV:   4    -0.999470245571E+02    0.37615E-05   -0.22652E-04   108   0.601E-02    0.118E-02
DAV:   5    -0.999470202702E+02    0.42869E-05   -0.50745E-05   132   0.259E-02    0.994E-03
DAV:   6    -0.999470207967E+02   -0.52659E-06   -0.43845E-06   132   0.667E-03
   8 F= -.99947021E+02 E0= -.99947021E+02  d E =-.285980E-10
       N       E                     dE             d eps       ncg     rms          rms(c)
DAV:   1    -0.999449457620E+02    0.20745E-02   -0.33973E-01    96   0.180E+00    0.257E-01
DAV:   2    -0.999470108806E+02   -0.20651E-02   -0.21202E-02   108   0.500E-01    0.153E-01
DAV:   3    -0.999469439759E+02    0.66905E-04   -0.51647E-04   132   0.883E-02    0.833E-02
DAV:   4    -0.999469398560E+02    0.41199E-05   -0.23943E-04   108   0.592E-02    0.151E-02
DAV:   5    -0.999469314681E+02    0.83879E-05   -0.48537E-05   144   0.261E-02    0.110E-02
DAV:   6    -0.999469303435E+02    0.11246E-05   -0.75562E-06   132   0.960E-03    0.681E-03
DAV:   7    -0.999469419024E+02   -0.11559E-04   -0.32475E-06   120   0.799E-03    0.214E-03
DAV:   8    -0.999469576313E+02   -0.15729E-04   -0.23015E-06   120   0.599E-03    0.200E-03
DAV:   9    -0.999469663229E+02   -0.86916E-05   -0.50002E-07   108   0.262E-03    0.171E-03
DAV:  10    -0.999469835139E+02   -0.17191E-04   -0.75224E-07    84   0.197E-03    0.492E-04
DAV:  11    -0.999469933968E+02   -0.98828E-05   -0.61047E-07    84   0.170E-03    0.622E-04
DAV:  12    -0.999469990200E+02   -0.56232E-05   -0.13813E-07   108   0.113E-03    0.419E-04
DAV:  13    -0.999470053269E+02   -0.63068E-05   -0.22568E-07    84   0.101E-03    0.306E-04
DAV:  14    -0.999470071495E+02   -0.18226E-05   -0.29747E-08   108   0.460E-04    0.149E-04
DAV:  15    -0.999470091724E+02   -0.20229E-05   -0.35731E-08    84   0.459E-04    0.171E-04
DAV:  16    -0.999470097394E+02   -0.56708E-06   -0.12509E-09    96   0.241E-04
   9 F= -.99947010E+02 E0= -.99947010E+02  d E =-.248475E-10
       N       E                     dE             d eps       ncg     rms          rms(c)
DAV:   1    -0.999450170719E+02    0.19921E-02   -0.17126E-01    96   0.125E+00    0.182E-01
DAV:   2    -0.999460738020E+02   -0.10567E-02   -0.10851E-02   108   0.357E-01    0.114E-01
DAV:   3    -0.999460238824E+02    0.49920E-04   -0.25991E-04   132   0.656E-02    0.626E-02
DAV:   4    -0.999460186966E+02    0.51858E-05   -0.15885E-04   108   0.483E-02    0.114E-02
DAV:   5    -0.999460153132E+02    0.33834E-05   -0.35239E-05   132   0.218E-02    0.884E-03
DAV:   6    -0.999460174658E+02   -0.21525E-05   -0.75189E-06   120   0.825E-03    0.550E-03
DAV:   7    -0.999460278500E+02   -0.10384E-04   -0.15619E-06   108   0.440E-03    0.209E-03
DAV:   8    -0.999460409129E+02   -0.13063E-04   -0.10527E-06   108   0.305E-03    0.875E-04
DAV:   9    -0.999460565416E+02   -0.15629E-04   -0.15602E-06   108   0.295E-03    0.103E-03
DAV:  10    -0.999460662503E+02   -0.97087E-05   -0.60110E-07    96   0.188E-03    0.565E-04
DAV:  11    -0.999460724423E+02   -0.61919E-05   -0.44129E-07    84   0.134E-03    0.206E-04
DAV:  12    -0.999460763034E+02   -0.38612E-05   -0.17075E-07    96   0.818E-04    0.195E-04
DAV:  13    -0.999460777955E+02   -0.14920E-05   -0.33358E-08    84   0.422E-04    0.116E-04
DAV:  14    -0.999460789040E+02   -0.11085E-05   -0.24880E-08    96   0.345E-04    0.376E-05
DAV:  15    -0.999460792982E+02   -0.39422E-06    0.33195E-10    84   0.179E-04
  10 F= -.99946079E+02 E0= -.99946079E+02  d E =-.262166E-10
       N       E                     dE             d eps       ncg     rms          rms(c)
DAV:   1    -0.999435868877E+02    0.24920E-02   -0.35139E-01    96   0.177E+00    0.252E-01
DAV:   2    -0.999463588901E+02   -0.27720E-02   -0.27973E-02   120   0.561E-01    0.186E-01
DAV:   3    -0.999461877952E+02    0.17109E-03   -0.61638E-04   156   0.104E-01    0.995E-02
DAV:   4    -0.999461942182E+02   -0.64230E-05   -0.49484E-04   120   0.846E-02    0.178E-02
DAV:   5    -0.999461818695E+02    0.12349E-04   -0.12508E-04   132   0.400E-02    0.130E-02
DAV:   6    -0.999461829730E+02   -0.11035E-05   -0.19639E-05   108   0.117E-02    0.775E-03
DAV:   7    -0.999462013041E+02   -0.18331E-04   -0.20126E-06   120   0.457E-03    0.354E-03
DAV:   8    -0.999462324968E+02   -0.31193E-04   -0.48457E-06   108   0.622E-03    0.182E-03
DAV:   9    -0.999462519662E+02   -0.19469E-04   -0.18105E-06   120   0.337E-03    0.203E-03
DAV:  10    -0.999462730367E+02   -0.21070E-04   -0.16129E-06   108   0.304E-03    0.480E-04
DAV:  11    -0.999462789292E+02   -0.58925E-05   -0.22008E-07   108   0.135E-03    0.369E-04
DAV:  12    -0.999462876562E+02   -0.87270E-05   -0.35173E-07    84   0.120E-03    0.228E-04
DAV:  13    -0.999462900901E+02   -0.24339E-05   -0.64326E-08    96   0.525E-04    0.206E-04
DAV:  14    -0.999462927679E+02   -0.26778E-05   -0.42091E-08    84   0.466E-04    0.839E-05
DAV:  15    -0.999462935033E+02   -0.73547E-06   -0.67825E-09    96   0.242E-04
  11 F= -.99946294E+02 E0= -.99946294E+02  d E =-.276284E-10
       N       E                     dE             d eps       ncg     rms          rms(c)
DAV:   1    -0.999463679911E+02   -0.75223E-04   -0.17314E-01    96   0.126E+00    0.171E-01
DAV:   2    -0.999475449065E+02   -0.11769E-02   -0.12046E-02   108   0.381E-01    0.120E-01
DAV:   3    -0.999474846666E+02    0.60240E-04   -0.29610E-04   132   0.732E-02    0.594E-02
DAV:   4    -0.999474887277E+02   -0.40612E-05   -0.18957E-04   120   0.520E-02    0.121E-02
DAV:   5    -0.999474833466E+02    0.53812E-05   -0.35087E-05   132   0.218E-02    0.831E-03
DAV:   6    -0.999474848409E+02   -0.14944E-05   -0.84729E-06   108   0.840E-03    0.455E-03
DAV:   7    -0.999474942129E+02   -0.93719E-05   -0.11159E-06   108   0.383E-03    0.192E-03
DAV:   8    -0.999475085569E+02   -0.14344E-04   -0.16752E-06   108   0.356E-03    0.999E-04
DAV:   9    -0.999475208273E+02   -0.12270E-04   -0.85355E-07    96   0.241E-03    0.934E-04
DAV:  10    -0.999475317108E+02   -0.10884E-04   -0.94839E-07    96   0.201E-03    0.358E-04
DAV:  11    -0.999475370873E+02   -0.53765E-05   -0.24094E-07    96   0.109E-03    0.209E-04
DAV:  12    -0.999475402385E+02   -0.31512E-05   -0.11534E-07    84   0.676E-04    0.155E-04
DAV:  13    -0.999475421009E+02   -0.18624E-05   -0.50076E-08    96   0.454E-04    0.874E-05
DAV:  14    -0.999475429318E+02   -0.83093E-06   -0.65075E-09    96   0.241E-04
  12 F= -.99947543E+02 E0= -.99947543E+02  d E =-.266159E-10
       N       E                     dE             d eps       ncg     rms          rms(c)
DAV:   1    -0.999462729324E+02    0.12692E-02   -0.33235E-01    96   0.169E+00    0.218E-01
DAV:   2    -0.999479747715E+02   -0.17018E-02   -0.17479E-02   132   0.449E-01    0.126E-01
DAV:   3    -0.999479571558E+02    0.17616E-04   -0.48462E-04   132   0.846E-02    0.666E-02
DAV:   4    -0.999479674721E+02   -0.10316E-04   -0.14708E-04   132   0.506E-02    0.133E-02
DAV:   5    -0.999479611305E+02    0.63416E-05   -0.38297E-05   132   0.239E-02    0.887E-03
DAV:   6    -0.999479612434E+02   -0.11290E-06   -0.68080E-06   132   0.888E-03
  13 F= -.99947961E+02 E0= -.99947961E+02  d E =-.389664E-10
       N       E                     dE             d eps       ncg     rms          rms(c)
DAV:   1    -0.999461993140E+02    0.17618E-02   -0.16509E-01    96   0.126E+00    0.149E-01
DAV:   2    -0.999472804251E+02   -0.10811E-02   -0.10859E-02   144   0.353E-01    0.913E-02
DAV:   3    -0.999472688639E+02    0.11561E-04   -0.28876E-04   120   0.669E-02    0.492E-02
DAV:   4    -0.999472979950E+02   -0.29131E-04   -0.11487E-04   108   0.403E-02    0.110E-02
DAV:   5    -0.999473001498E+02   -0.21549E-05   -0.20790E-05   132   0.170E-02    0.707E-03
DAV:   6    -0.999473023430E+02   -0.21931E-05   -0.34224E-06   108   0.632E-03    0.410E-03
DAV:   7    -0.999473068463E+02   -0.45034E-05   -0.74594E-07    96   0.389E-03    0.132E-03
DAV:   8    -0.999473110435E+02   -0.41971E-05   -0.54442E-07    96   0.304E-03    0.703E-04
DAV:   9    -0.999473150949E+02   -0.40515E-05   -0.25908E-07    84   0.180E-03    0.547E-04
DAV:  10    -0.999473191346E+02   -0.40397E-05   -0.19950E-07    96   0.116E-03    0.214E-04
DAV:  11    -0.999473209208E+02   -0.17862E-05   -0.65262E-08    84   0.707E-04    0.162E-04
DAV:  12    -0.999473230199E+02   -0.20991E-05   -0.56895E-08    84   0.595E-04    0.958E-05
DAV:  13    -0.999473239757E+02   -0.95578E-06   -0.21150E-08    96   0.366E-04
  14 F= -.99947324E+02 E0= -.99947324E+02  d E =-.289832E-10
       N       E                     dE             d eps       ncg     rms          rms(c)
DAV:   1    -0.999460433724E+02    0.12796E-02   -0.33691E-01    96   0.167E+00    0.206E-01
DAV:   2    -0.999479319943E+02   -0.18886E-02   -0.19641E-02    96   0.456E-01    0.128E-01
DAV:   3    -0.999478760912E+02    0.55903E-04   -0.54838E-04   144   0.923E-02    0.707E-02
DAV:   4    -0.999478784610E+02   -0.23698E-05   -0.20937E-04   108   0.567E-02    0.147E-02
DAV:   5    -0.999478746223E+02    0.38387E-05   -0.50606E-05   132   0.258E-02    0.103E-02
DAV:   6    -0.999478763945E+02   -0.17723E-05   -0.78967E-06   108   0.910E-03    0.627E-03
DAV:   7    -0.999478861618E+02   -0.97672E-05   -0.15489E-06   120   0.444E-03    0.221E-03
DAV:   8    -0.999478969894E+02   -0.10828E-04   -0.70402E-07    96   0.276E-03    0.879E-04
DAV:   9    -0.999479095690E+02   -0.12580E-04   -0.85996E-07   108   0.246E-03    0.867E-04
DAV:  10    -0.999479225049E+02   -0.12936E-04   -0.10752E-06    96   0.235E-03    0.381E-04
DAV:  11    -0.999479269058E+02   -0.44008E-05   -0.16250E-07    96   0.115E-03    0.243E-04
DAV:  12    -0.999479298518E+02   -0.29460E-05   -0.89861E-08    84   0.676E-04    0.132E-04
DAV:  13    -0.999479320597E+02   -0.22079E-05   -0.67302E-08    84   0.539E-04    0.108E-04
DAV:  14    -0.999479329788E+02   -0.91909E-06   -0.13343E-08    96   0.293E-04
  15 F= -.99947933E+02 E0= -.99947933E+02  d E =-.388574E-10
       N       E                     dE             d eps       ncg     rms          rms(c)
DAV:   1    -0.999463645385E+02    0.15675E-02   -0.16742E-01    96   0.116E+00    0.135E-01
DAV:   2    -0.999471503507E+02   -0.78581E-03   -0.81980E-03   108   0.292E-01    0.736E-02
DAV:   3    -0.999471421906E+02    0.81600E-05   -0.22947E-04   132   0.579E-02    0.371E-02
DAV:   4    -0.999471470071E+02   -0.48165E-05   -0.54520E-05   108   0.294E-02    0.989E-03
DAV:   5    -0.999471443995E+02    0.26076E-05   -0.11512E-05   132   0.136E-02    0.469E-03
DAV:   6    -0.999471451056E+02   -0.70609E-06   -0.34326E-06   108   0.608E-03
  16 F= -.99947145E+02 E0= -.99947145E+02  d E =-.453485E-10
       N       E                     dE             d eps       ncg     rms          rms(c)
DAV:   1    -0.999447116484E+02    0.24328E-02   -0.33650E-01    96   0.170E+00    0.231E-01
DAV:   2    -0.999469930452E+02   -0.22814E-02   -0.23896E-02   132   0.498E-01    0.153E-01
DAV:   3    -0.999468788268E+02    0.11422E-03   -0.56420E-04   120   0.954E-02    0.838E-02
DAV:   4    -0.999468803765E+02   -0.15498E-05   -0.33587E-04   108   0.668E-02    0.156E-02
DAV:   5    -0.999468735274E+02    0.68491E-05   -0.69751E-05   132   0.295E-02    0.117E-02
DAV:   6    -0.999468720104E+02    0.15170E-05   -0.10095E-05   108   0.937E-03    0.781E-03
DAV:   7    -0.999468790201E+02   -0.70097E-05   -0.12422E-06   120   0.398E-03    0.303E-03
DAV:   8    -0.999468909638E+02   -0.11944E-04   -0.11121E-06    96   0.364E-03    0.963E-04
DAV:   9    -0.999469035402E+02   -0.12576E-04   -0.98678E-07   108   0.251E-03    0.129E-03
DAV:  10    -0.999469192354E+02   -0.15695E-04   -0.88359E-07    96   0.206E-03    0.505E-04
DAV:  11    -0.999469234562E+02   -0.42208E-05   -0.94835E-08   120   0.839E-04    0.357E-04
DAV:  12    -0.999469300747E+02   -0.66185E-05   -0.20047E-07    84   0.905E-04    0.132E-04
DAV:  13    -0.999469325103E+02   -0.24356E-05   -0.56938E-08    96   0.487E-04    0.198E-04
DAV:  14    -0.999469343518E+02   -0.18415E-05   -0.16226E-08    84   0.339E-04    0.950E-05
DAV:  15    -0.999469351523E+02   -0.80053E-06   -0.47162E-09    96   0.221E-04
  17 F= -.99946935E+02 E0= -.99946935E+02  d E =-.218981E-10
       N       E                     dE             d eps       ncg     rms          rms(c)
DAV:   1    -0.999473038888E+02   -0.36954E-03   -0.16760E-01    96   0.118E+00    0.147E-01
DAV:   2    -0.999482361678E+02   -0.93228E-03   -0.97207E-03   120   0.321E-01    0.905E-02
DAV:   3    -0.999482075548E+02    0.28613E-04   -0.25836E-04   144   0.627E-02    0.511E-02
DAV:   4    -0.999482073068E+02    0.24794E-06   -0.93100E-05   108   0.377E-02    0.105E-02
DAV:   5    -0.999482049180E+02    0.23889E-05   -0.23500E-05   132   0.176E-02    0.711E-03
DAV:   6    -0.999482054968E+02   -0.57880E-06   -0.32775E-06   132   0.614E-03
  18 F= -.99948205E+02 E0= -.99948205E+02  d E =-.279670E-10
       N       E                     dE             d eps       ncg     rms          rms(c)
DAV:   1    -0.999464258058E+02    0.17791E-02   -0.33061E-01    96   0.163E+00    0.191E-01
DAV:   2    -0.999479353032E+02   -0.15095E-02   -0.15634E-02   120   0.404E-01    0.101E-01
DAV:   3    -0.999479450750E+02   -0.97718E-05   -0.47374E-04   120   0.800E-02    0.547E-02
DAV:   4    -0.999479656212E+02   -0.20546E-04   -0.83298E-05   132   0.378E-02    0.137E-02
DAV:   5    -0.999479649697E+02    0.65146E-06   -0.20119E-05   132   0.176E-02    0.654E-03
DAV:   6    -0.999479668852E+02   -0.19155E-05   -0.49743E-06   132   0.743E-03    0.384E-03
DAV:   7    -0.999479715668E+02   -0.46816E-05   -0.49168E-07    84   0.255E-03    0.168E-03
DAV:   8    -0.999479776194E+02   -0.60526E-05   -0.46696E-07    96   0.257E-03    0.795E-04
DAV:   9    -0.999479826100E+02   -0.49907E-05   -0.29138E-07    84   0.193E-03    0.580E-04
DAV:  10    -0.999479893956E+02   -0.67856E-05   -0.41545E-07    84   0.196E-03    0.375E-04
DAV:  11    -0.999479912258E+02   -0.18302E-05   -0.11832E-07   108   0.111E-03    0.351E-04
DAV:  12    -0.999479923991E+02   -0.11733E-05   -0.19352E-08    84   0.490E-04    0.178E-04
DAV:  13    -0.999479945262E+02   -0.21270E-05   -0.65737E-08    84   0.572E-04    0.102E-04
DAV:  14    -0.999479954934E+02   -0.96717E-06   -0.24338E-08    96   0.351E-04
  19 F= -.99947995E+02 E0= -.99947995E+02  d E =-.345115E-10
       N       E                     dE             d eps       ncg     rms          rms(c)
DAV:   1    -0.999464515824E+02    0.15429E-02   -0.16728E-01    96   0.125E+00    0.142E-01
DAV:   2    -0.999475319550E+02   -0.10804E-02   -0.11051E-02   108   0.350E-01    0.865E-02
DAV:   3    -0.999475177730E+02    0.14182E-04   -0.26949E-04   144   0.645E-02    0.482E-02
DAV:   4    -0.999475234079E+02   -0.56349E-05   -0.95048E-05   120   0.393E-02    0.100E-02
DAV:   5    -0.999475218681E+02    0.15398E-05   -0.24565E-05   132   0.185E-02    0.703E-03
DAV:   6    -0.999475221946E+02   -0.32648E-06   -0.35634E-06   120   0.640E-03
  20 F= -.99947522E+02 E0= -.99947522E+02  d E =-.323856E-10
       N       E                     dE             d eps       ncg     rms          rms(c)
DAV:   1    -0.999456213458E+02    0.19005E-02   -0.34304E-01    96   0.168E+00    0.207E-01
DAV:   2    -0.999475809445E+02   -0.19596E-02   -0.19730E-02   108   0.463E-01    0.134E-01
DAV:   3    -0.999475606288E+02    0.20316E-04   -0.45148E-04   132   0.850E-02    0.703E-02
DAV:   4    -0.999475816128E+02   -0.20984E-04   -0.21915E-04   108   0.578E-02    0.145E-02
DAV:   5    -0.999475754881E+02    0.61248E-05   -0.52930E-05   132   0.269E-02    0.958E-03
DAV:   6    -0.999475739654E+02    0.15227E-05   -0.83373E-06   132   0.910E-03    0.555E-03
DAV:   7    -0.999475774252E+02   -0.34598E-05   -0.16533E-06   108   0.499E-03    0.220E-03
DAV:   8    -0.999475844605E+02   -0.70354E-05   -0.91389E-07    96   0.408E-03    0.100E-03
DAV:   9    -0.999475939142E+02   -0.94537E-05   -0.88689E-07    84   0.311E-03    0.104E-03
DAV:  10    -0.999476027980E+02   -0.88839E-05   -0.51020E-07    96   0.218E-03    0.358E-04
DAV:  11    -0.999476070872E+02   -0.42892E-05   -0.14568E-07    84   0.113E-03    0.285E-04
DAV:  12    -0.999476116416E+02   -0.45544E-05   -0.13276E-07    96   0.846E-04    0.141E-04
DAV:  13    -0.999476129904E+02   -0.13488E-05   -0.28851E-08    84   0.430E-04    0.139E-04
DAV:  14    -0.999476145681E+02   -0.15777E-05   -0.23461E-08    84   0.353E-04    0.500E-05
DAV:  15    -0.999476151082E+02   -0.54012E-06   -0.22853E-09   108   0.201E-04
  21 F= -.99947615E+02 E0= -.99947615E+02  d E =-.379945E-10
       N       E                     dE             d eps       ncg     rms          rms(c)
DAV:   1    -0.999460069454E+02    0.16076E-02   -0.16954E-01    96   0.116E+00    0.135E-01
DAV:   2    -0.999467739090E+02   -0.76696E-03   -0.77525E-03   108   0.274E-01    0.778E-02
DAV:   3    -0.999467832211E+02   -0.93121E-05   -0.20226E-04   132   0.556E-02    0.379E-02
DAV:   4    -0.999467924904E+02   -0.92693E-05   -0.60632E-05   132   0.331E-02    0.874E-03
DAV:   5    -0.999467902737E+02    0.22167E-05   -0.15964E-05   132   0.148E-02    0.580E-03
DAV:   6    -0.999467904597E+02   -0.18598E-06   -0.29222E-06   132   0.540E-03
  22 F= -.99946790E+02 E0= -.99946790E+02  d E =-.293519E-10
       N       E                     dE             d eps       ncg     rms          rms(c)
DAV:   1    -0.999446395529E+02    0.21507E-02   -0.34821E-01    96   0.174E+00    0.224E-01
DAV:   2    -0.999470357681E+02   -0.23962E-02   -0.24108E-02   132   0.523E-01    0.160E-01
DAV:   3    -0.999469628600E+02    0.72908E-04   -0.48820E-04   120   0.894E-02    0.928E-02
DAV:   4    -0.999469611738E+02    0.16862E-05   -0.32715E-04   108   0.698E-02    0.156E-02
DAV:   5    -0.999469571024E+02    0.40714E-05   -0.88386E-05   132   0.333E-02    0.121E-02
DAV:   6    -0.999469587469E+02   -0.16445E-05   -0.14646E-05   120   0.119E-02    0.747E-03
DAV:   7    -0.999469743451E+02   -0.15598E-04   -0.44942E-06   132   0.699E-03    0.296E-03
DAV:   8    -0.999469952603E+02   -0.20915E-04   -0.18766E-06   108   0.412E-03    0.122E-03
DAV:   9    -0.999470169355E+02   -0.21675E-04   -0.21741E-06   120   0.348E-03    0.121E-03
DAV:  10    -0.999470333924E+02   -0.16457E-04   -0.14151E-06    96   0.261E-03    0.625E-04
DAV:  11    -0.999470408458E+02   -0.74535E-05   -0.43428E-07    96   0.147E-03    0.239E-04
DAV:  12    -0.999470458700E+02   -0.50242E-05   -0.30150E-07    84   0.110E-03    0.229E-04
DAV:  13    -0.999470478774E+02   -0.20074E-05   -0.62680E-08    96   0.582E-04    0.114E-04
DAV:  14    -0.999470489990E+02   -0.11216E-05   -0.20901E-08    84   0.364E-04    0.722E-05
DAV:  15    -0.999470494682E+02   -0.46915E-06   -0.96884E-10    96   0.195E-04
  23 F= -.99947049E+02 E0= -.99947049E+02  d E =-.341010E-10
       N       E                     dE             d eps       ncg     rms          rms(c)
DAV:   1    -0.999455889269E+02    0.14601E-02   -0.17083E-01    96   0.124E+00    0.153E-01
DAV:   2    -0.999466583740E+02   -0.10694E-02   -0.10994E-02   120   0.347E-01    0.108E-01
DAV:   3    -0.999466269091E+02    0.31465E-04   -0.23056E-04   132   0.574E-02    0.602E-02
DAV:   4    -0.999466133655E+02    0.13544E-04   -0.10440E-04   120   0.383E-02    0.954E-03
DAV:   5    -0.999466073948E+02    0.59707E-05   -0.20229E-05   144   0.166E-02    0.616E-03
DAV:   6    -0.999466073757E+02    0.19074E-07   -0.44400E-06   132   0.722E-03
  24 F= -.99946607E+02 E0= -.99946607E+02  d E =-.333262E-10
       N       E                     dE             d eps       ncg     rms          rms(c)
DAV:   1    -0.999440749668E+02    0.25324E-02   -0.35101E-01    96   0.172E+00    0.232E-01
DAV:   2    -0.999463118850E+02   -0.22369E-02   -0.22436E-02   132   0.503E-01    0.166E-01
DAV:   3    -0.999462612827E+02    0.50602E-04   -0.51457E-04   132   0.920E-02    0.853E-02
DAV:   4    -0.999462528427E+02    0.84401E-05   -0.30702E-04   108   0.620E-02    0.160E-02
DAV:   5    -0.999462435364E+02    0.93062E-05   -0.45981E-05   132   0.246E-02    0.113E-02
DAV:   6    -0.999462482439E+02   -0.47075E-05   -0.17390E-05   132   0.120E-02    0.608E-03
DAV:   7    -0.999462684599E+02   -0.20216E-04   -0.31430E-06   132   0.589E-03    0.232E-03
DAV:   8    -0.999462942626E+02   -0.25803E-04   -0.23287E-06   108   0.414E-03    0.113E-03
DAV:   9    -0.999463208650E+02   -0.26602E-04   -0.30962E-06   120   0.398E-03    0.121E-03
DAV:  10    -0.999463385071E+02   -0.17642E-04   -0.14579E-06    96   0.270E-03    0.451E-04
DAV:  11    -0.999463459283E+02   -0.74212E-05   -0.40122E-07   108   0.138E-03    0.293E-04
DAV:  12    -0.999463505052E+02   -0.45769E-05   -0.22912E-07    84   0.941E-04    0.184E-04
DAV:  13    -0.999463525102E+02   -0.20050E-05   -0.60277E-08   108   0.517E-04    0.843E-05
DAV:  14    -0.999463535870E+02   -0.10768E-05   -0.15692E-08    84   0.334E-04    0.421E-05
DAV:  15    -0.999463540912E+02   -0.50419E-06   -0.17893E-09   108   0.197E-04
  25 F= -.99946354E+02 E0= -.99946354E+02  d E =-.312654E-10
       N       E                     dE             d eps       ncg     rms          rms(c)
DAV:   1    -0.999453633951E+02    0.99019E-03   -0.18186E-01    96   0.134E+00    0.163E-01
DAV:   2    -0.999468346100E+02   -0.14712E-02   -0.16116E-02   108   0.404E-01    0.111E-01
DAV:   3    -0.999467817154E+02    0.52895E-04   -0.28856E-04   144   0.627E-02    0.667E-02
DAV:   4    -0.999467591567E+02    0.22559E-04   -0.14305E-04   120   0.460E-02    0.103E-02
DAV:   5    -0.999467522317E+02    0.69250E-05   -0.35977E-05   144   0.213E-02    0.739E-03
DAV:   6    -0.999467492640E+02    0.29676E-05   -0.51514E-06   120   0.760E-03    0.472E-03
DAV:   7    -0.999467571795E+02   -0.79155E-05   -0.29453E-06   120   0.578E-03    0.172E-03
DAV:   8    -0.999467732133E+02   -0.16034E-04   -0.11890E-06    84   0.385E-03    0.125E-03
DAV:   9    -0.999467858421E+02   -0.12629E-04   -0.83037E-07    96   0.246E-03    0.125E-03
DAV:  10    -0.999468000470E+02   -0.14205E-04   -0.64935E-07    84   0.192E-03    0.346E-04
DAV:  11    -0.999468046184E+02   -0.45714E-05   -0.18633E-07    96   0.966E-04    0.426E-04
DAV:  12    -0.999468096088E+02   -0.49904E-05   -0.10034E-07    84   0.794E-04    0.120E-04
DAV:  13    -0.999468119671E+02   -0.23583E-05   -0.50417E-08    96   0.512E-04    0.113E-04
DAV:  14    -0.999468139100E+02   -0.19429E-05   -0.25166E-08    84   0.387E-04    0.474E-05
DAV:  15    -0.999468145089E+02   -0.59889E-06   -0.19870E-09   108   0.199E-04
  26 F= -.99946815E+02 E0= -.99946815E+02  d E =-.275694E-10
       N       E                     dE             d eps       ncg     rms          rms(c)
DAV:   1    -0.999455794501E+02    0.12345E-02   -0.39905E-01    96   0.182E+00    0.219E-01
DAV:   2    -0.999471725061E+02   -0.15931E-02   -0.19405E-02   108   0.430E-01    0.125E-01
DAV:   3    -0.999470635829E+02    0.10892E-03   -0.32507E-04   132   0.634E-02    0.664E-02
DAV:   4    -0.999470095997E+02    0.53983E-04   -0.13111E-04   120   0.433E-02    0.115E-02
DAV:   5    -0.999470041682E+02    0.54315E-05   -0.29253E-05   132   0.201E-02    0.725E-03
DAV:   6    -0.999470158322E+02   -0.11664E-04   -0.10467E-05   120   0.931E-03    0.410E-03
DAV:   7    -0.999470383066E+02   -0.22474E-04   -0.20230E-06   108   0.445E-03    0.217E-03
DAV:   8    -0.999470730545E+02   -0.34748E-04   -0.36666E-06    96   0.437E-03    0.113E-03
DAV:   9    -0.999470922781E+02   -0.19224E-04   -0.13300E-06   108   0.263E-03    0.891E-04
DAV:  10    -0.999471143105E+02   -0.22032E-04   -0.19964E-06    96   0.277E-03    0.366E-04
DAV:  11    -0.999471212808E+02   -0.69703E-05   -0.27731E-07    96   0.122E-03    0.311E-04
DAV:  12    -0.999471276074E+02   -0.63266E-05   -0.33111E-07    84   0.115E-03    0.140E-04
DAV:  13    -0.999471290428E+02   -0.14354E-05   -0.45721E-08    96   0.481E-04    0.993E-05
DAV:  14    -0.999471304005E+02   -0.13577E-05   -0.16476E-08    84   0.342E-04    0.467E-05
DAV:  15    -0.999471309358E+02   -0.53526E-06   -0.43703E-09    96   0.213E-04
  27 F= -.99947131E+02 E0= -.99947131E+02  d E =-.259149E-10
       N       E                     dE             d eps       ncg     rms          rms(c)
DAV:   1    -0.999468646529E+02    0.26575E-03   -0.19912E-01   108   0.125E+00    0.150E-01
DAV:   2    -0.999477027416E+02   -0.83809E-03   -0.10185E-02   108   0.312E-01    0.938E-02
DAV:   3    -0.999476367167E+02    0.66025E-04   -0.15077E-04   132   0.443E-02    0.493E-02
DAV:   4    -0.999476043245E+02    0.32392E-04   -0.78205E-05   108   0.321E-02    0.794E-03
DAV:   5    -0.999475982616E+02    0.60628E-05   -0.16331E-05   132   0.146E-02    0.522E-03
DAV:   6    -0.999476041379E+02   -0.58763E-05   -0.57787E-06   108   0.629E-03    0.269E-03
DAV:   7    -0.999476172483E+02   -0.13110E-04   -0.65246E-07    96   0.241E-03    0.141E-03
DAV:   8    -0.999476392741E+02   -0.22026E-04   -0.25360E-06    96   0.334E-03    0.973E-04
DAV:   9    -0.999476536806E+02   -0.14406E-04   -0.80310E-07    96   0.209E-03    0.528E-04
DAV:  10    -0.999476649807E+02   -0.11300E-04   -0.94203E-07    96   0.179E-03    0.303E-04
DAV:  11    -0.999476703594E+02   -0.53787E-05   -0.17334E-07    96   0.972E-04    0.228E-04
DAV:  12    -0.999476728189E+02   -0.24596E-05   -0.71271E-08    84   0.588E-04    0.113E-04
DAV:  13    -0.999476742935E+02   -0.14745E-05   -0.24707E-08    96   0.371E-04    0.538E-05
DAV:  14    -0.999476752046E+02   -0.91111E-06   -0.75531E-09    84   0.254E-04
  28 F= -.99947675E+02 E0= -.99947675E+02  d E =-.263817E-10
       N       E                     dE             d eps       ncg     rms          rms(c)
DAV:   1    -0.999455851146E+02    0.20892E-02   -0.39842E-01    96   0.178E+00    0.214E-01
DAV:   2    -0.999472438090E+02   -0.16587E-02   -0.19897E-02   108   0.427E-01    0.117E-01
DAV:   3    -0.999471592852E+02    0.84524E-04   -0.36399E-04   132   0.656E-02    0.626E-02
DAV:   4    -0.999471188446E+02    0.40441E-04   -0.12535E-04   132   0.434E-02    0.122E-02
DAV:   5    -0.999471082447E+02    0.10600E-04   -0.28876E-05   132   0.203E-02    0.791E-03
DAV:   6    -0.999471095024E+02   -0.12577E-05   -0.74430E-06   108   0.861E-03    0.453E-03
DAV:   7    -0.999471203489E+02   -0.10847E-04   -0.16408E-06   120   0.461E-03    0.204E-03
DAV:   8    -0.999471383997E+02   -0.18051E-04   -0.13946E-06    96   0.374E-03    0.119E-03
DAV:   9    -0.999471548942E+02   -0.16495E-04   -0.89276E-07    96   0.260E-03    0.839E-04
DAV:  10    -0.999471709081E+02   -0.16014E-04   -0.10119E-06    96   0.215E-03    0.341E-04
DAV:  11    -0.999471786983E+02   -0.77901E-05   -0.20075E-07    96   0.114E-03    0.314E-04
DAV:  12    -0.999471839917E+02   -0.52935E-05   -0.12682E-07    84   0.768E-04    0.173E-04
DAV:  13    -0.999471868994E+02   -0.29076E-05   -0.49109E-08    96   0.466E-04    0.867E-05
DAV:  14    -0.999471883798E+02   -0.14804E-05   -0.10444E-08    84   0.282E-04    0.588E-05
DAV:  15    -0.999471892131E+02   -0.83336E-06   -0.34083E-09    96   0.198E-04
  29 F= -.99947189E+02 E0= -.99947189E+02  d E =-.265386E-10
       N       E                     dE             d eps       ncg     rms          rms(c)
DAV:   1    -0.999469847919E+02    0.20359E-03   -0.20081E-01    96   0.128E+00    0.152E-01
DAV:   2    -0.999477603366E+02   -0.77554E-03   -0.95274E-03   108   0.302E-01    0.872E-02
DAV:   3    -0.999476999499E+02    0.60387E-04   -0.15014E-04   132   0.416E-02    0.467E-02
DAV:   4    -0.999476594245E+02    0.40525E-04   -0.55571E-05   108   0.262E-02    0.810E-03
DAV:   5    -0.999476553107E+02    0.41138E-05   -0.82677E-06   132   0.113E-02    0.476E-03
DAV:   6    -0.999476648195E+02   -0.95087E-05   -0.48525E-06   108   0.761E-03    0.235E-03
DAV:   7    -0.999476821402E+02   -0.17321E-04   -0.26370E-06   108   0.505E-03    0.153E-03
DAV:   8    -0.999477017969E+02   -0.19657E-04   -0.13164E-06    96   0.292E-03    0.808E-04
DAV:   9    -0.999477188316E+02   -0.17035E-04   -0.14856E-06    96   0.260E-03    0.562E-04
DAV:  10    -0.999477310706E+02   -0.12239E-04   -0.10473E-06   108   0.201E-03    0.261E-04
DAV:  11    -0.999477359108E+02   -0.48402E-05   -0.22630E-07    84   0.102E-03    0.177E-04
DAV:  12    -0.999477382788E+02   -0.23680E-05   -0.94325E-08    96   0.606E-04    0.109E-04
DAV:  13    -0.999477394617E+02   -0.11829E-05   -0.34961E-08    84   0.402E-04    0.493E-05
DAV:  14    -0.999477400339E+02   -0.57221E-06   -0.53907E-09    96   0.246E-04
  30 F= -.99947740E+02 E0= -.99947740E+02  d E =-.245837E-10
       N       E                     dE             d eps       ncg     rms          rms(c)
DAV:   1    -0.999461113934E+02    0.16281E-02   -0.39926E-01    96   0.180E+00    0.218E-01
DAV:   2    -0.999475730945E+02   -0.14617E-02   -0.17724E-02   108   0.416E-01    0.107E-01
DAV:   3    -0.999474958633E+02    0.77231E-04   -0.33088E-04   132   0.622E-02    0.557E-02
DAV:   4    -0.999474537712E+02    0.42092E-04   -0.92414E-05   132   0.372E-02    0.115E-02
DAV:   5    -0.999474435732E+02    0.10198E-04   -0.20059E-05   132   0.182E-02    0.683E-03
DAV:   6    -0.999474459143E+02   -0.23411E-05   -0.57659E-06   132   0.880E-03    0.396E-03
DAV:   7    -0.999474582359E+02   -0.12322E-04   -0.18093E-06    96   0.557E-03    0.163E-03
DAV:   8    -0.999474736608E+02   -0.15425E-04   -0.98066E-07    84   0.405E-03    0.120E-03
DAV:   9    -0.999474942778E+02   -0.20617E-04   -0.16392E-06    96   0.342E-03    0.705E-04
DAV:  10    -0.999475075623E+02   -0.13285E-04   -0.65290E-07    84   0.212E-03    0.426E-04
DAV:  11    -0.999475129805E+02   -0.54182E-05   -0.16201E-07   108   0.994E-04    0.301E-04
DAV:  12    -0.999475201372E+02   -0.71567E-05   -0.21640E-07    84   0.100E-03    0.136E-04
DAV:  13    -0.999475219978E+02   -0.18606E-05   -0.41926E-08    96   0.478E-04    0.978E-05
DAV:  14    -0.999475240478E+02   -0.20500E-05   -0.28918E-08    84   0.371E-04    0.543E-05
DAV:  15    -0.999475246264E+02   -0.57862E-06   -0.18627E-09    96   0.198E-04
  31 F= -.99947525E+02 E0= -.99947525E+02  d E =-.287182E-10
       N       E                     dE             d eps       ncg     rms          rms(c)
DAV:   1    -0.999456292618E+02    0.18948E-02   -0.19692E-01    96   0.135E+00    0.156E-01
DAV:   2    -0.999467078321E+02   -0.10786E-02   -0.12949E-02   108   0.360E-01    0.875E-02
DAV:   3    -0.999466655084E+02    0.42324E-04   -0.22518E-04   144   0.497E-02    0.512E-02
DAV:   4    -0.999466308610E+02    0.34647E-04   -0.60755E-05   132   0.302E-02    0.910E-03
DAV:   5    -0.999466236389E+02    0.72222E-05   -0.13430E-05   132   0.140E-02    0.558E-03
DAV:   6    -0.999466271366E+02   -0.34977E-05   -0.45652E-06   108   0.789E-03    0.271E-03
DAV:   7    -0.999466395515E+02   -0.12415E-04   -0.19049E-06    96   0.496E-03    0.146E-03
DAV:   8    -0.999466586353E+02   -0.19084E-04   -0.11330E-06    96   0.317E-03    0.763E-04
DAV:   9    -0.999466727479E+02   -0.14113E-04   -0.84985E-07    84   0.242E-03    0.568E-04
DAV:  10    -0.999466861528E+02   -0.13405E-04   -0.10601E-06    96   0.203E-03    0.254E-04
DAV:  11    -0.999466905793E+02   -0.44265E-05   -0.13325E-07   108   0.899E-04    0.225E-04
DAV:  12    -0.999466937150E+02   -0.31357E-05   -0.85939E-08    84   0.639E-04    0.103E-04
DAV:  13    -0.999466957093E+02   -0.19942E-05   -0.55663E-08    96   0.485E-04    0.599E-05
DAV:  14    -0.999466965263E+02   -0.81700E-06   -0.51041E-09    84   0.245E-04
  32 F= -.99946697E+02 E0= -.99946697E+02  d E =-.291948E-10
       N       E                     dE             d eps       ncg     rms          rms(c)
DAV:   1    -0.999453755864E+02    0.13201E-02   -0.39973E-01    96   0.176E+00    0.212E-01
DAV:   2    -0.999470052715E+02   -0.16297E-02   -0.19993E-02   120   0.432E-01    0.129E-01
DAV:   3    -0.999468872776E+02    0.11799E-03   -0.29081E-04   132   0.611E-02    0.714E-02
DAV:   4    -0.999468307874E+02    0.56490E-04   -0.14940E-04   132   0.468E-02    0.112E-02
DAV:   5    -0.999468247953E+02    0.59921E-05   -0.35822E-05   132   0.219E-02    0.757E-03
DAV:   6    -0.999468357523E+02   -0.10957E-04   -0.11278E-05   132   0.904E-03    0.463E-03
DAV:   7    -0.999468592143E+02   -0.23462E-04   -0.16004E-06   108   0.388E-03    0.237E-03
DAV:   8    -0.999468967979E+02   -0.37584E-04   -0.43619E-06   108   0.462E-03    0.129E-03
DAV:   9    -0.999469178124E+02   -0.21014E-04   -0.14598E-06   108   0.276E-03    0.979E-04
DAV:  10    -0.999469396603E+02   -0.21848E-04   -0.19050E-06    96   0.271E-03    0.383E-04
DAV:  11    -0.999469477319E+02   -0.80715E-05   -0.31292E-07   108   0.129E-03    0.311E-04
DAV:  12    -0.999469542748E+02   -0.65429E-05   -0.32371E-07    84   0.110E-03    0.175E-04
DAV:  13    -0.999469559669E+02   -0.16921E-05   -0.44611E-08   108   0.462E-04    0.121E-04
DAV:  14    -0.999469576631E+02   -0.16962E-05   -0.26850E-08    84   0.389E-04    0.557E-05
DAV:  15    -0.999469581379E+02   -0.47473E-06   -0.16042E-09    96   0.195E-04
  33 F= -.99946958E+02 E0= -.99946958E+02  d E =-.268197E-10
       N       E                     dE             d eps       ncg     rms          rms(c)
DAV:   1    -0.999461305461E+02    0.82712E-03   -0.20141E-01    96   0.125E+00    0.151E-01
DAV:   2    -0.999468611753E+02   -0.73063E-03   -0.89764E-03   108   0.288E-01    0.787E-02
DAV:   3    -0.999468170741E+02    0.44101E-04   -0.13842E-04   132   0.416E-02    0.421E-02
DAV:   4    -0.999467893642E+02    0.27710E-04   -0.45895E-05   132   0.268E-02    0.784E-03
DAV:   5    -0.999467827181E+02    0.66460E-05   -0.10188E-05   132   0.127E-02    0.483E-03
DAV:   6    -0.999467837426E+02   -0.10245E-05   -0.33654E-06   132   0.613E-03    0.263E-03
DAV:   7    -0.999467907303E+02   -0.69877E-05   -0.80379E-07    84   0.366E-03    0.134E-03
DAV:   8    -0.999468032534E+02   -0.12523E-04   -0.11460E-06    96   0.338E-03    0.925E-04
DAV:   9    -0.999468145873E+02   -0.11334E-04   -0.63886E-07    84   0.226E-03    0.588E-04
DAV:  10    -0.999468237442E+02   -0.91570E-05   -0.42415E-07    84   0.142E-03    0.292E-04
DAV:  11    -0.999468294347E+02   -0.56905E-05   -0.13750E-07    96   0.805E-04    0.196E-04
DAV:  12    -0.999468338588E+02   -0.44241E-05   -0.98463E-08    84   0.656E-04    0.971E-05
DAV:  13    -0.999468356820E+02   -0.18232E-05   -0.30031E-08    96   0.372E-04    0.612E-05
DAV:  14    -0.999468370047E+02   -0.13226E-05   -0.11469E-08    84   0.275E-04    0.374E-05
DAV:  15    -0.999468373594E+02   -0.35470E-06    0.17282E-09   108   0.141E-04
  34 F= -.99946837E+02 E0= -.99946837E+02  d E =-.324136E-10
       N       E                     dE             d eps       ncg     rms          rms(c)
DAV:   1    -0.999460629289E+02    0.77408E-03   -0.40733E-01   120   0.174E+00    0.215E-01
DAV:   2    -0.999475651895E+02   -0.15023E-02   -0.18571E-02   108   0.415E-01    0.117E-01
DAV:   3    -0.999474629791E+02    0.10221E-03   -0.28489E-04   132   0.576E-02    0.629E-02
DAV:   4    -0.999473901588E+02    0.72820E-04   -0.98041E-05   132   0.372E-02    0.113E-02
DAV:   5    -0.999473866082E+02    0.35507E-05   -0.19602E-05   132   0.172E-02    0.667E-03
DAV:   6    -0.999474046012E+02   -0.17993E-04   -0.90790E-06   120   0.944E-03    0.354E-03
DAV:   7    -0.999474334051E+02   -0.28804E-04   -0.36391E-06   108   0.597E-03    0.217E-03
DAV:   8    -0.999474703613E+02   -0.36956E-04   -0.33388E-06    96   0.447E-03    0.109E-03
DAV:   9    -0.999474942763E+02   -0.23915E-04   -0.21807E-06   108   0.332E-03    0.923E-04
DAV:  10    -0.999475156261E+02   -0.21350E-04   -0.19250E-06    96   0.273E-03    0.342E-04
DAV:  11    -0.999475224453E+02   -0.68193E-05   -0.29545E-07   108   0.119E-03    0.293E-04
DAV:  12    -0.999475282787E+02   -0.58333E-05   -0.28773E-07    84   0.104E-03    0.128E-04
DAV:  13    -0.999475298732E+02   -0.15946E-05   -0.56095E-08   108   0.492E-04    0.881E-05
DAV:  14    -0.999475309959E+02   -0.11227E-05   -0.13993E-08    84   0.327E-04    0.482E-05
DAV:  15    -0.999475313392E+02   -0.34333E-06    0.53566E-10    96   0.169E-04
  35 F= -.99947531E+02 E0= -.99947531E+02  d E =-.275152E-10
       N       E                     dE             d eps       ncg     rms          rms(c)
DAV:   1    -0.999473055691E+02    0.22543E-03   -0.20596E-01   120   0.128E+00    0.147E-01
DAV:   2    -0.999480057135E+02   -0.70014E-03   -0.83900E-03   108   0.278E-01    0.704E-02
DAV:   3    -0.999479776902E+02    0.28023E-04   -0.15455E-04   132   0.438E-02    0.377E-02
DAV:   4    -0.999479631309E+02    0.14559E-04   -0.42794E-05   132   0.300E-02    0.765E-03
DAV:   5    -0.999479601635E+02    0.29674E-05   -0.16548E-05   132   0.153E-02    0.563E-03
DAV:   6    -0.999479605119E+02   -0.34835E-06   -0.25240E-06   132   0.511E-03
  36 F= -.99947961E+02 E0= -.99947961E+02  d E =-.172548E-10
       N       E                     dE             d eps       ncg     rms          rms(c)
DAV:   1    -0.999468542242E+02    0.11059E-02   -0.41267E-01   120   0.170E+00    0.185E-01
DAV:   2    -0.999481685519E+02   -0.13143E-02   -0.15787E-02   108   0.364E-01    0.923E-02
DAV:   3    -0.999481298388E+02    0.38713E-04   -0.29425E-04   132   0.605E-02    0.482E-02
DAV:   4    -0.999481124494E+02    0.17389E-04   -0.75667E-05   120   0.400E-02    0.995E-03
DAV:   5    -0.999481097984E+02    0.26511E-05   -0.27610E-05   132   0.200E-02    0.748E-03
DAV:   6    -0.999481121233E+02   -0.23249E-05   -0.41623E-06   132   0.675E-03    0.504E-03
DAV:   7    -0.999481191677E+02   -0.70444E-05   -0.68331E-07   108   0.366E-03    0.196E-03
DAV:   8    -0.999481289496E+02   -0.97819E-05   -0.11397E-06    96   0.373E-03    0.126E-03
DAV:   9    -0.999481455969E+02   -0.16647E-04   -0.12560E-06   108   0.366E-03    0.665E-04
DAV:  10    -0.999481526444E+02   -0.70475E-05   -0.45937E-07   108   0.213E-03    0.761E-04
DAV:  11    -0.999481555106E+02   -0.28662E-05   -0.68058E-08   108   0.899E-04    0.544E-04
DAV:  12    -0.999481622146E+02   -0.67040E-05   -0.23854E-07    84   0.116E-03    0.313E-04
DAV:  13    -0.999481638550E+02   -0.16404E-05   -0.47674E-08   108   0.553E-04    0.344E-04
DAV:  14    -0.999481656158E+02   -0.17608E-05   -0.27635E-08    84   0.456E-04    0.637E-05
DAV:  15    -0.999481664784E+02   -0.86266E-06   -0.11405E-08    96   0.290E-04
  37 F= -.99948166E+02 E0= -.99948166E+02  d E =-.896146E-10
       N       E                     dE             d eps       ncg     rms          rms(c)
DAV:   1    -0.999463010325E+02    0.18646E-02   -0.19770E-01    96   0.132E+00    0.145E-01
DAV:   2    -0.999473688848E+02   -0.10679E-02   -0.12754E-02   108   0.321E-01    0.787E-02
DAV:   3    -0.999473276908E+02    0.41194E-04   -0.23528E-04   144   0.517E-02    0.440E-02
DAV:   4    -0.999472981169E+02    0.29574E-04   -0.54352E-05   120   0.314E-02    0.951E-03
DAV:   5    -0.999472902117E+02    0.79052E-05   -0.17579E-05   132   0.162E-02    0.583E-03
DAV:   6    -0.999472927458E+02   -0.25340E-05   -0.31218E-06   108   0.619E-03    0.389E-03
DAV:   7    -0.999473025834E+02   -0.98376E-05   -0.10201E-06   108   0.368E-03    0.143E-03
DAV:   8    -0.999473140308E+02   -0.11447E-04   -0.91284E-07    96   0.314E-03    0.101E-03
DAV:   9    -0.999473308709E+02   -0.16840E-04   -0.13829E-06   108   0.308E-03    0.514E-04
DAV:  10    -0.999473384124E+02   -0.75415E-05   -0.48109E-07    84   0.186E-03    0.473E-04
DAV:  11    -0.999473425761E+02   -0.41636E-05   -0.15668E-07    96   0.998E-04    0.246E-04
DAV:  12    -0.999473462726E+02   -0.36966E-05   -0.16021E-07    84   0.839E-04    0.171E-04
DAV:  13    -0.999473477215E+02   -0.14488E-05   -0.40527E-08    96   0.446E-04    0.110E-04
DAV:  14    -0.999473486006E+02   -0.87917E-06   -0.18035E-08    84   0.303E-04
  38 F= -.99947349E+02 E0= -.99947349E+02  d E =-.272548E-10
       N       E                     dE             d eps       ncg     rms          rms(c)
DAV:   1    -0.999457114144E+02    0.16363E-02   -0.39335E-01    96   0.175E+00    0.204E-01
DAV:   2    -0.999472502648E+02   -0.15389E-02   -0.18783E-02   132   0.409E-01    0.120E-01
DAV:   3    -0.999471198275E+02    0.13044E-03   -0.30862E-04   144   0.660E-02    0.623E-02
DAV:   4    -0.999470730742E+02    0.46753E-04   -0.14142E-04   132   0.451E-02    0.117E-02
DAV:   5    -0.999470624537E+02    0.10620E-04   -0.25281E-05   132   0.189E-02    0.768E-03
DAV:   6    -0.999470652630E+02   -0.28093E-05   -0.70626E-06   132   0.816E-03    0.402E-03
DAV:   7    -0.999470791111E+02   -0.13848E-04   -0.16869E-06   108   0.424E-03    0.178E-03
DAV:   8    -0.999471005192E+02   -0.21408E-04   -0.12668E-06   108   0.300E-03    0.112E-03
DAV:   9    -0.999471190814E+02   -0.18562E-04   -0.92402E-07   108   0.213E-03    0.798E-04
DAV:  10    -0.999471383157E+02   -0.19234E-04   -0.11062E-06   108   0.199E-03    0.416E-04
DAV:  11    -0.999471431965E+02   -0.48808E-05   -0.76906E-08   108   0.776E-04    0.285E-04
DAV:  12    -0.999471507603E+02   -0.75637E-05   -0.22831E-07    84   0.101E-03    0.132E-04
DAV:  13    -0.999471525253E+02   -0.17651E-05   -0.30854E-08   108   0.453E-04    0.109E-04
DAV:  14    -0.999471540640E+02   -0.15386E-05   -0.91974E-09    84   0.319E-04    0.424E-05
DAV:  15    -0.999471547342E+02   -0.67025E-06   -0.23004E-09    96   0.201E-04
  39 F= -.99947155E+02 E0= -.99947155E+02  d E =-.286769E-10
       N       E                     dE             d eps       ncg     rms          rms(c)
DAV:   1    -0.999474668021E+02   -0.31274E-03   -0.19742E-01    96   0.126E+00    0.158E-01
DAV:   2    -0.999482133481E+02   -0.74655E-03   -0.90809E-03    96   0.290E-01    0.796E-02
DAV:   3    -0.999481563733E+02    0.56975E-04   -0.16907E-04   144   0.477E-02    0.416E-02
DAV:   4    -0.999481335700E+02    0.22803E-04   -0.62070E-05   108   0.295E-02    0.871E-03
DAV:   5    -0.999481287962E+02    0.47739E-05   -0.10584E-05   132   0.125E-02    0.519E-03
DAV:   6    -0.999481315317E+02   -0.27355E-05   -0.29798E-06   108   0.559E-03    0.255E-03
DAV:   7    -0.999481399266E+02   -0.83949E-05   -0.87052E-07   108   0.301E-03    0.113E-03
DAV:   8    -0.999481503845E+02   -0.10458E-04   -0.66318E-07    96   0.211E-03    0.668E-04
DAV:   9    -0.999481602056E+02   -0.98211E-05   -0.63648E-07   108   0.176E-03    0.461E-04
DAV:  10    -0.999481691227E+02   -0.89171E-05   -0.74066E-07    96   0.163E-03    0.234E-04
DAV:  11    -0.999481710940E+02   -0.19713E-05   -0.40075E-08   108   0.604E-04    0.157E-04
DAV:  12    -0.999481738612E+02   -0.27672E-05   -0.10627E-07    84   0.678E-04    0.827E-05
DAV:  13    -0.999481746776E+02   -0.81635E-06   -0.18969E-08    96   0.330E-04
  40 F= -.99948175E+02 E0= -.99948175E+02  d E =-.467742E-10
       N       E                     dE             d eps       ncg     rms          rms(c)
DAV:   1    -0.999472067735E+02    0.96709E-03   -0.41361E-01    96   0.175E+00    0.195E-01
DAV:   2    -0.999484614348E+02   -0.12547E-02   -0.14953E-02    96   0.358E-01    0.847E-02
DAV:   3    -0.999484081636E+02    0.53271E-04   -0.34206E-04   144   0.653E-02    0.436E-02
DAV:   4    -0.999483924593E+02    0.15704E-04   -0.79603E-05   120   0.365E-02    0.115E-02
DAV:   5    -0.999483901601E+02    0.22992E-05   -0.19492E-05   132   0.173E-02    0.719E-03
DAV:   6    -0.999483913173E+02   -0.11572E-05   -0.37539E-06   108   0.683E-03    0.404E-03
DAV:   7    -0.999483949942E+02   -0.36769E-05   -0.47676E-07   108   0.300E-03    0.138E-03
DAV:   8    -0.999483998528E+02   -0.48587E-05   -0.42795E-07    84   0.261E-03    0.792E-04
DAV:   9    -0.999484086464E+02   -0.87935E-05   -0.71087E-07    84   0.289E-03    0.344E-04
DAV:  10    -0.999484126840E+02   -0.40377E-05   -0.37193E-07   108   0.176E-03    0.416E-04
DAV:  11    -0.999484143356E+02   -0.16516E-05   -0.34365E-08    84   0.723E-04    0.293E-04
DAV:  12    -0.999484175381E+02   -0.32025E-05   -0.98108E-08    84   0.793E-04    0.136E-04
DAV:  13    -0.999484188353E+02   -0.12972E-05   -0.36364E-08    96   0.442E-04    0.178E-04
DAV:  14    -0.999484197892E+02   -0.95394E-06   -0.99115E-09    84   0.310E-04
  41 F= -.99948420E+02 E0= -.99948420E+02  d E =-.249557E-10
       N       E                     dE             d eps       ncg     rms          rms(c)
DAV:   1    -0.999474511227E+02    0.96771E-03   -0.20718E-01    96   0.125E+00    0.151E-01
DAV:   2    -0.999481368846E+02   -0.68576E-03   -0.81806E-03   108   0.267E-01    0.626E-02
DAV:   3    -0.999481050229E+02    0.31862E-04   -0.18348E-04   132   0.468E-02    0.328E-02
DAV:   4    -0.999480957402E+02    0.92826E-05   -0.43680E-05   120   0.264E-02    0.930E-03
DAV:   5    -0.999480938559E+02    0.18843E-05   -0.10748E-05   132   0.129E-02    0.553E-03
DAV:   6    -0.999480940184E+02   -0.16246E-06   -0.21043E-06   108   0.531E-03
  42 F= -.99948094E+02 E0= -.99948094E+02  d E =-.323250E-10
       N       E                     dE             d eps       ncg     rms          rms(c)
DAV:   1    -0.999466178521E+02    0.14760E-02   -0.41132E-01    96   0.181E+00    0.229E-01
DAV:   2    -0.999479371367E+02   -0.13193E-02   -0.15949E-02   144   0.386E-01    0.940E-02
DAV:   3    -0.999478693488E+02    0.67788E-04   -0.33150E-04   132   0.644E-02    0.494E-02
DAV:   4    -0.999478496919E+02    0.19657E-04   -0.98263E-05   108   0.390E-02    0.125E-02
DAV:   5    -0.999478442873E+02    0.54046E-05   -0.20892E-05   132   0.177E-02    0.766E-03
DAV:   6    -0.999478448596E+02   -0.57237E-06   -0.41569E-06   120   0.722E-03
  43 F= -.99947845E+02 E0= -.99947845E+02  d E =-.372996E-10
       N       E                     dE             d eps       ncg     rms          rms(c)
DAV:   1    -0.999468490992E+02    0.99519E-03   -0.20267E-01    96   0.128E+00    0.157E-01
DAV:   2    -0.999478232810E+02   -0.97418E-03   -0.11403E-02   144   0.305E-01    0.690E-02
DAV:   3    -0.999477905536E+02    0.32727E-04   -0.22777E-04   108   0.524E-02    0.377E-02
DAV:   4    -0.999477875521E+02    0.30016E-05   -0.64441E-05   120   0.305E-02    0.971E-03
DAV:   5    -0.999477872546E+02    0.29752E-06   -0.12485E-05   132   0.135E-02    0.577E-03
DAV:   6    -0.999477879699E+02   -0.71533E-06   -0.23535E-06   108   0.563E-03
  44 F= -.99947788E+02 E0= -.99947788E+02  d E =-.314213E-10
       N       E                     dE             d eps       ncg     rms          rms(c)
DAV:   1    -0.999467350623E+02    0.10522E-02   -0.40710E-01    96   0.175E+00    0.213E-01
DAV:   2    -0.999480916193E+02   -0.13566E-02   -0.16126E-02    96   0.387E-01    0.947E-02
DAV:   3    -0.999480340397E+02    0.57580E-04   -0.32015E-04   144   0.634E-02    0.500E-02
DAV:   4    -0.999480075763E+02    0.26463E-04   -0.96541E-05   108   0.387E-02    0.116E-02
DAV:   5    -0.999480004323E+02    0.71440E-05   -0.20714E-05   132   0.174E-02    0.723E-03
DAV:   6    -0.999480001122E+02    0.32010E-06   -0.40297E-06   108   0.713E-03
  45 F= -.99948000E+02 E0= -.99948000E+02  d E =-.492280E-10
       N       E                     dE             d eps       ncg     rms          rms(c)
DAV:   1    -0.999468742018E+02    0.11262E-02   -0.19715E-01    96   0.124E+00    0.153E-01
DAV:   2    -0.999476527075E+02   -0.77851E-03   -0.93554E-03   120   0.286E-01    0.848E-02
DAV:   3    -0.999476057269E+02    0.46981E-04   -0.16266E-04   120   0.469E-02    0.438E-02
DAV:   4    -0.999475915026E+02    0.14224E-04   -0.70662E-05   108   0.313E-02    0.852E-03
DAV:   5    -0.999475858040E+02    0.56986E-05   -0.12335E-05   132   0.132E-02    0.518E-03
DAV:   6    -0.999475845480E+02    0.12560E-05   -0.32586E-06   108   0.530E-03    0.272E-03
DAV:   7    -0.999475875649E+02   -0.30169E-05   -0.66265E-07    96   0.276E-03    0.118E-03
DAV:   8    -0.999475933352E+02   -0.57703E-05   -0.50529E-07    84   0.200E-03    0.671E-04
DAV:   9    -0.999476001166E+02   -0.67814E-05   -0.38239E-07    96   0.144E-03    0.540E-04
DAV:  10    -0.999476073002E+02   -0.71836E-05   -0.37696E-07    84   0.123E-03    0.215E-04
DAV:  11    -0.999476096795E+02   -0.23793E-05   -0.57606E-08   108   0.578E-04    0.175E-04
DAV:  12    -0.999476129365E+02   -0.32570E-05   -0.79344E-08    84   0.623E-04    0.841E-05
DAV:  13    -0.999476140228E+02   -0.10864E-05   -0.21231E-08    96   0.345E-04    0.658E-05
DAV:  14    -0.999476149997E+02   -0.97685E-06   -0.61473E-09    84   0.250E-04
  46 F= -.99947615E+02 E0= -.99947615E+02  d E =-.393154E-10
       N       E                     dE             d eps       ncg     rms          rms(c)
DAV:   1    -0.999460117705E+02    0.16023E-02   -0.40431E-01    96   0.173E+00    0.191E-01
DAV:   2    -0.999475318806E+02   -0.15201E-02   -0.18417E-02   108   0.395E-01    0.110E-01
DAV:   3    -0.999474325208E+02    0.99360E-04   -0.30023E-04   132   0.636E-02    0.578E-02
DAV:   4    -0.999473861727E+02    0.46348E-04   -0.11831E-04   120   0.430E-02    0.109E-02
DAV:   5    -0.999473800509E+02    0.61217E-05   -0.25411E-05   132   0.189E-02    0.726E-03
DAV:   6    -0.999473877628E+02   -0.77119E-05   -0.63696E-06   108   0.775E-03    0.398E-03
DAV:   7    -0.999474049530E+02   -0.17190E-04   -0.18111E-06   120   0.412E-03    0.173E-03
DAV:   8    -0.999474253464E+02   -0.20393E-04   -0.15260E-06    96   0.298E-03    0.102E-03
DAV:   9    -0.999474455160E+02   -0.20170E-04   -0.17519E-06   120   0.277E-03    0.753E-04
DAV:  10    -0.999474618413E+02   -0.16325E-04   -0.15341E-06    96   0.235E-03    0.410E-04
DAV:  11    -0.999474652249E+02   -0.33836E-05   -0.79787E-08   108   0.827E-04    0.286E-04
DAV:  12    -0.999474708239E+02   -0.55990E-05   -0.26221E-07    84   0.107E-03    0.136E-04
DAV:  13    -0.999474721193E+02   -0.12954E-05   -0.46705E-08    96   0.481E-04    0.114E-04
DAV:  14    -0.999474730591E+02   -0.93982E-06   -0.60809E-09    84   0.298E-04
  47 F= -.99947473E+02 E0= -.99947473E+02  d E =-.346871E-10
       N       E                     dE             d eps       ncg     rms          rms(c)
DAV:   1    -0.999470995378E+02    0.37258E-03   -0.20140E-01    96   0.121E+00    0.137E-01
DAV:   2    -0.999479510885E+02   -0.85155E-03   -0.10284E-02   120   0.293E-01    0.822E-02
DAV:   3    -0.999478940221E+02    0.57066E-04   -0.15294E-04   132   0.444E-02    0.447E-02
DAV:   4    -0.999478661567E+02    0.27865E-04   -0.70267E-05   108   0.321E-02    0.808E-03
DAV:   5    -0.999478596852E+02    0.64716E-05   -0.16638E-05   132   0.147E-02    0.522E-03
DAV:   6    -0.999478607227E+02   -0.10375E-05   -0.35276E-06   108   0.557E-03    0.307E-03
DAV:   7    -0.999478677212E+02   -0.69986E-05   -0.66254E-07    96   0.279E-03    0.131E-03
DAV:   8    -0.999478784947E+02   -0.10773E-04   -0.80385E-07    96   0.241E-03    0.850E-04
DAV:   9    -0.999478906839E+02   -0.12189E-04   -0.57913E-07    84   0.183E-03    0.499E-04
DAV:  10    -0.999478997250E+02   -0.90411E-05   -0.51055E-07    96   0.137E-03    0.280E-04
DAV:  11    -0.999479037848E+02   -0.40597E-05   -0.85715E-08    84   0.724E-04    0.162E-04
DAV:  12    -0.999479077789E+02   -0.39941E-05   -0.92796E-08    96   0.638E-04    0.101E-04
DAV:  13    -0.999479093118E+02   -0.15329E-05   -0.21137E-08   108   0.332E-04    0.657E-05
DAV:  14    -0.999479105373E+02   -0.12255E-05   -0.10671E-08    84   0.260E-04    0.315E-05
DAV:  15    -0.999479110851E+02   -0.54777E-06    0.17824E-10    84   0.164E-04
  48 F= -.99947911E+02 E0= -.99947911E+02  d E =-.836691E-10
       N       E                     dE             d eps       ncg     rms          rms(c)
DAV:   1    -0.999470324408E+02    0.87810E-03   -0.41543E-01    96   0.172E+00    0.181E-01
DAV:   2    -0.999483372478E+02   -0.13048E-02   -0.15699E-02   144   0.370E-01    0.903E-02
DAV:   3    -0.999482732628E+02    0.63985E-04   -0.28297E-04   132   0.607E-02    0.462E-02
DAV:   4    -0.999482469406E+02    0.26322E-04   -0.88899E-05   132   0.403E-02    0.107E-02
DAV:   5    -0.999482430131E+02    0.39275E-05   -0.24318E-05   132   0.187E-02    0.687E-03
DAV:   6    -0.999482468120E+02   -0.37990E-05   -0.42979E-06   132   0.692E-03    0.397E-03
DAV:   7    -0.999482555439E+02   -0.87318E-05   -0.68591E-07    84   0.316E-03    0.149E-03
DAV:   8    -0.999482657069E+02   -0.10163E-04   -0.73279E-07   120   0.271E-03    0.919E-04
DAV:   9    -0.999482826349E+02   -0.16928E-04   -0.14354E-06    96   0.324E-03    0.389E-04
DAV:  10    -0.999482898970E+02   -0.72621E-05   -0.50211E-07    96   0.191E-03    0.384E-04
DAV:  11    -0.999482933013E+02   -0.34042E-05   -0.10890E-07    96   0.939E-04    0.227E-04
DAV:  12    -0.999482974483E+02   -0.41470E-05   -0.17150E-07    84   0.890E-04    0.154E-04
DAV:  13    -0.999482987877E+02   -0.13394E-05   -0.40209E-08    96   0.446E-04    0.113E-04
DAV:  14    -0.999482998690E+02   -0.10813E-05   -0.18954E-08    84   0.328E-04    0.443E-05
DAV:  15    -0.999483003430E+02   -0.47398E-06   -0.26894E-09    96   0.208E-04
  49 F= -.99948300E+02 E0= -.99948300E+02  d E =-.191496E-10
       N       E                     dE             d eps       ncg     rms          rms(c)
DAV:   1    -0.999458968931E+02    0.24030E-02   -0.19917E-01    96   0.134E+00    0.144E-01
DAV:   2    -0.999469301320E+02   -0.10332E-02   -0.12544E-02   108   0.339E-01    0.777E-02
DAV:   3    -0.999468925186E+02    0.37613E-04   -0.22890E-04   144   0.501E-02    0.432E-02
DAV:   4    -0.999468667896E+02    0.25729E-04   -0.50199E-05   120   0.291E-02    0.898E-03
DAV:   5    -0.999468588850E+02    0.79045E-05   -0.13401E-05   132   0.141E-02    0.520E-03
DAV:   6    -0.999468595064E+02   -0.62133E-06   -0.30521E-06   132   0.659E-03
  50 F= -.99946860E+02 E0= -.99946860E+02  d E =-.556032E-10
       N       E                     dE             d eps       ncg     rms          rms(c)
DAV:   1    -0.999457497271E+02    0.11092E-02   -0.40562E-01    96   0.188E+00    0.206E-01
DAV:   2    -0.999472885637E+02   -0.15388E-02   -0.18527E-02   132   0.439E-01    0.118E-01
DAV:   3    -0.999472110996E+02    0.77464E-04   -0.27125E-04   108   0.569E-02    0.614E-02
DAV:   4    -0.999471368627E+02    0.74237E-04   -0.10135E-04   120   0.358E-02    0.107E-02
DAV:   5    -0.999471253557E+02    0.11507E-04   -0.15350E-05   132   0.159E-02    0.607E-03
DAV:   6    -0.999471380229E+02   -0.12667E-04   -0.96808E-06   120   0.104E-02    0.315E-03
DAV:   7    -0.999471613701E+02   -0.23347E-04   -0.35862E-06   132   0.619E-03    0.206E-03
DAV:   8    -0.999471878478E+02   -0.26478E-04   -0.19709E-06    96   0.346E-03    0.101E-03
DAV:   9    -0.999472119284E+02   -0.24081E-04   -0.22494E-06   108   0.323E-03    0.765E-04
DAV:  10    -0.999472319553E+02   -0.20027E-04   -0.20164E-06    96   0.275E-03    0.287E-04
DAV:  11    -0.999472373919E+02   -0.54366E-05   -0.20491E-07   108   0.107E-03    0.241E-04
DAV:  12    -0.999472415535E+02   -0.41615E-05   -0.16875E-07    84   0.823E-04    0.108E-04
DAV:  13    -0.999472430321E+02   -0.14786E-05   -0.39621E-08    96   0.421E-04    0.611E-05
DAV:  14    -0.999472439972E+02   -0.96513E-06   -0.90755E-09    84   0.284E-04
  51 F= -.99947244E+02 E0= -.99947244E+02  d E =-.216009E-10
       N       E                     dE             d eps       ncg     rms          rms(c)
DAV:   1    -0.999474409114E+02   -0.19788E-03   -0.20220E-01   120   0.131E+00    0.152E-01
DAV:   2    -0.999481435333E+02   -0.70262E-03   -0.85805E-03   108   0.292E-01    0.757E-02
DAV:   3    -0.999481037023E+02    0.39831E-04   -0.15640E-04   132   0.438E-02    0.390E-02
DAV:   4    -0.999480820753E+02    0.21627E-04   -0.46977E-05   108   0.277E-02    0.784E-03
DAV:   5    -0.999480772733E+02    0.48019E-05   -0.11607E-05   132   0.133E-02    0.505E-03
DAV:   6    -0.999480784789E+02   -0.12056E-05   -0.33183E-06   108   0.593E-03    0.279E-03
DAV:   7    -0.999480840816E+02   -0.56027E-05   -0.58151E-07   108   0.324E-03    0.135E-03
DAV:   8    -0.999480946357E+02   -0.10554E-04   -0.93013E-07    96   0.307E-03    0.878E-04
DAV:   9    -0.999481053758E+02   -0.10740E-04   -0.61548E-07    96   0.225E-03    0.539E-04
DAV:  10    -0.999481128144E+02   -0.74385E-05   -0.37807E-07    84   0.145E-03    0.288E-04
DAV:  11    -0.999481177757E+02   -0.49613E-05   -0.11742E-07    96   0.805E-04    0.171E-04
DAV:  12    -0.999481204705E+02   -0.26948E-05   -0.56799E-08    84   0.522E-04    0.128E-04
DAV:  13    -0.999481220966E+02   -0.16261E-05   -0.21634E-08   108   0.337E-04    0.541E-05
DAV:  14    -0.999481229167E+02   -0.82011E-06   -0.42688E-09    84   0.218E-04
  52 F= -.99948123E+02 E0= -.99948123E+02  d E =-.189198E-10
       N       E                     dE             d eps       ncg     rms          rms(c)
DAV:   1    -0.999469792678E+02    0.11428E-02   -0.41201E-01    96   0.177E+00    0.200E-01
DAV:   2    -0.999483755653E+02   -0.13963E-02   -0.16610E-02   144   0.371E-01    0.863E-02
DAV:   3    -0.999483459154E+02    0.29650E-04   -0.32591E-04   144   0.624E-02    0.459E-02
DAV:   4    -0.999483306930E+02    0.15222E-04   -0.64780E-05   132   0.397E-02    0.101E-02
DAV:   5    -0.999483281654E+02    0.25276E-05   -0.30661E-05   132   0.210E-02    0.726E-03
DAV:   6    -0.999483291312E+02   -0.96587E-06   -0.33892E-06   132   0.609E-03
  53 F= -.99948329E+02 E0= -.99948329E+02  d E =-.746350E-10
       N       E                     dE             d eps       ncg     rms          rms(c)
DAV:   1    -0.999458625574E+02    0.24656E-02   -0.20624E-01    96   0.132E+00    0.150E-01
DAV:   2    -0.999465901998E+02   -0.72764E-03   -0.86403E-03   132   0.289E-01    0.722E-02
DAV:   3    -0.999465641937E+02    0.26006E-04   -0.15728E-04   108   0.430E-02    0.382E-02
DAV:   4    -0.999465597903E+02    0.44034E-05   -0.48819E-05   120   0.293E-02    0.767E-03
DAV:   5    -0.999465604516E+02   -0.66129E-06   -0.14913E-05   108   0.141E-02    0.510E-03
DAV:   6    -0.999465634572E+02   -0.30056E-05   -0.27166E-06   132   0.526E-03    0.290E-03
DAV:   7    -0.999465691536E+02   -0.56964E-05   -0.47034E-07    84   0.266E-03    0.136E-03
DAV:   8    -0.999465780760E+02   -0.89224E-05   -0.75150E-07    96   0.259E-03    0.743E-04
DAV:   9    -0.999465870646E+02   -0.89886E-05   -0.53702E-07    84   0.199E-03    0.499E-04
DAV:  10    -0.999465930409E+02   -0.59763E-05   -0.27197E-07    96   0.130E-03    0.262E-04
DAV:  11    -0.999465965943E+02   -0.35534E-05   -0.74963E-08    84   0.737E-04    0.168E-04
DAV:  12    -0.999465990222E+02   -0.24279E-05   -0.57055E-08    96   0.529E-04    0.140E-04
DAV:  13    -0.999466002302E+02   -0.12080E-05   -0.11750E-08    84   0.293E-04    0.669E-05
DAV:  14    -0.999466010507E+02   -0.82049E-06   -0.64391E-09    96   0.225E-04
  54 F= -.99946601E+02 E0= -.99946601E+02  d E =-.208677E-10
       N       E                     dE             d eps       ncg     rms          rms(c)
DAV:   1    -0.999454035285E+02    0.11967E-02   -0.41106E-01   120   0.183E+00    0.209E-01
DAV:   2    -0.999469322280E+02   -0.15287E-02   -0.18823E-02   108   0.444E-01    0.130E-01
DAV:   3    -0.999468024888E+02    0.12974E-03   -0.26621E-04   132   0.575E-02    0.687E-02
DAV:   4    -0.999467390904E+02    0.63398E-04   -0.14714E-04   120   0.445E-02    0.114E-02
DAV:   5    -0.999467351440E+02    0.39464E-05   -0.29698E-05   132   0.197E-02    0.703E-03
DAV:   6    -0.999467512822E+02   -0.16138E-04   -0.12212E-05   120   0.959E-03    0.399E-03
DAV:   7    -0.999467799399E+02   -0.28658E-04   -0.24409E-06   120   0.467E-03    0.212E-03
DAV:   8    -0.999468223198E+02   -0.42380E-04   -0.49604E-06   108   0.492E-03    0.124E-03
DAV:   9    -0.999468469067E+02   -0.24587E-04   -0.20033E-06   108   0.306E-03    0.868E-04
DAV:  10    -0.999468687619E+02   -0.21855E-04   -0.20074E-06    96   0.275E-03    0.422E-04
DAV:  11    -0.999468758508E+02   -0.70888E-05   -0.26581E-07    96   0.118E-03    0.321E-04
DAV:  12    -0.999468818130E+02   -0.59622E-05   -0.32844E-07    84   0.113E-03    0.141E-04
DAV:  13    -0.999468831254E+02   -0.13124E-05   -0.34934E-08   108   0.464E-04    0.101E-04
DAV:  14    -0.999468844348E+02   -0.13094E-05   -0.17915E-08    84   0.353E-04    0.464E-05
DAV:  15    -0.999468848262E+02   -0.39147E-06   -0.12371E-09    96   0.192E-04
  55 F= -.99946885E+02 E0= -.99946885E+02  d E =-.410591E-10
       N       E                     dE             d eps       ncg     rms          rms(c)
DAV:   1    -0.999469428085E+02   -0.58374E-04   -0.20117E-01    96   0.135E+00    0.153E-01
DAV:   2    -0.999480717173E+02   -0.11289E-02   -0.13594E-02   120   0.355E-01    0.834E-02
DAV:   3    -0.999480248668E+02    0.46850E-04   -0.22543E-04   132   0.511E-02    0.486E-02
DAV:   4    -0.999479922670E+02    0.32600E-04   -0.76590E-05   132   0.355E-02    0.904E-03
DAV:   5    -0.999479830337E+02    0.92333E-05   -0.21811E-05   144   0.172E-02    0.656E-03
DAV:   6    -0.999479832849E+02   -0.25117E-06   -0.37779E-06   108   0.649E-03
  56 F= -.99947983E+02 E0= -.99947983E+02  d E =-.376842E-10
       N       E                     dE             d eps       ncg     rms          rms(c)
DAV:   1    -0.999463568981E+02    0.16261E-02   -0.40672E-01    96   0.183E+00    0.208E-01
DAV:   2    -0.999478412551E+02   -0.14844E-02   -0.17456E-02   132   0.388E-01    0.976E-02
DAV:   3    -0.999478109718E+02    0.30283E-04   -0.32193E-04   108   0.617E-02    0.522E-02
DAV:   4    -0.999478063039E+02    0.46679E-05   -0.87012E-05   132   0.403E-02    0.113E-02
DAV:   5    -0.999478050540E+02    0.12500E-05   -0.27250E-05   132   0.196E-02    0.764E-03
DAV:   6    -0.999478067503E+02   -0.16963E-05   -0.41934E-06   132   0.682E-03    0.446E-03
DAV:   7    -0.999478113868E+02   -0.46365E-05   -0.67558E-07    84   0.349E-03    0.196E-03
DAV:   8    -0.999478188737E+02   -0.74869E-05   -0.92262E-07    96   0.346E-03    0.962E-04
DAV:   9    -0.999478289783E+02   -0.10105E-04   -0.75395E-07    84   0.275E-03    0.664E-04
DAV:  10    -0.999478348874E+02   -0.59091E-05   -0.33768E-07    96   0.167E-03    0.415E-04
DAV:  11    -0.999478384629E+02   -0.35756E-05   -0.76982E-08    84   0.835E-04    0.233E-04
DAV:  12    -0.999478415427E+02   -0.30798E-05   -0.84431E-08    96   0.650E-04    0.192E-04
DAV:  13    -0.999478431847E+02   -0.16420E-05   -0.27706E-08    84   0.388E-04    0.102E-04
DAV:  14    -0.999478443134E+02   -0.11287E-05   -0.16477E-08    96   0.301E-04    0.421E-05
DAV:  15    -0.999478448673E+02   -0.55386E-06   -0.85633E-10    84   0.181E-04
  57 F= -.99947845E+02 E0= -.99947845E+02  d E =-.280796E-10
       N       E                     dE             d eps       ncg     rms          rms(c)
DAV:   1    -0.999468988011E+02    0.94551E-03   -0.20204E-01    96   0.129E+00    0.151E-01
DAV:   2    -0.999475653316E+02   -0.66653E-03   -0.84294E-03   108   0.282E-01    0.813E-02
DAV:   3    -0.999475116168E+02    0.53715E-04   -0.14558E-04   144   0.412E-02    0.408E-02
DAV:   4    -0.999474727212E+02    0.38896E-04   -0.42020E-05   120   0.241E-02    0.801E-03
DAV:   5    -0.999474695674E+02    0.31538E-05   -0.71374E-06   132   0.110E-02    0.441E-03
DAV:   6    -0.999474803532E+02   -0.10786E-04   -0.45552E-06   132   0.679E-03    0.229E-03
DAV:   7    -0.999474964985E+02   -0.16145E-04   -0.16702E-06    96   0.420E-03    0.143E-03
DAV:   8    -0.999475167119E+02   -0.20213E-04   -0.15501E-06    96   0.303E-03    0.738E-04
DAV:   9    -0.999475314037E+02   -0.14692E-04   -0.11888E-06   108   0.238E-03    0.554E-04
DAV:  10    -0.999475432622E+02   -0.11858E-04   -0.99716E-07    96   0.193E-03    0.235E-04
DAV:  11    -0.999475470893E+02   -0.38271E-05   -0.13934E-07   108   0.849E-04    0.178E-04
DAV:  12    -0.999475503615E+02   -0.32722E-05   -0.15652E-07    84   0.756E-04    0.873E-05
DAV:  13    -0.999475511387E+02   -0.77711E-06   -0.19806E-08   108   0.325E-04
  58 F= -.99947551E+02 E0= -.99947551E+02  d E =-.245197E-10
       N       E                     dE             d eps       ncg     rms          rms(c)
DAV:   1    -0.999458458623E+02    0.17045E-02   -0.40651E-01   108   0.181E+00    0.192E-01
DAV:   2    -0.999473113253E+02   -0.14655E-02   -0.18117E-02   108   0.403E-01    0.110E-01
DAV:   3    -0.999472293811E+02    0.81944E-04   -0.29306E-04   132   0.578E-02    0.554E-02
DAV:   4    -0.999471730538E+02    0.56327E-04   -0.77475E-05   132   0.341E-02    0.105E-02
DAV:   5    -0.999471592756E+02    0.13778E-04   -0.16843E-05   132   0.167E-02    0.593E-03
DAV:   6    -0.999471644487E+02   -0.51730E-05   -0.79704E-06   132   0.960E-03    0.329E-03
DAV:   7    -0.999471805525E+02   -0.16104E-04   -0.23371E-06   108   0.558E-03    0.201E-03
DAV:   8    -0.999472033188E+02   -0.22766E-04   -0.12699E-06   108   0.328E-03    0.105E-03
DAV:   9    -0.999472247387E+02   -0.21420E-04   -0.13100E-06   108   0.277E-03    0.829E-04
DAV:  10    -0.999472467293E+02   -0.21991E-04   -0.12451E-06    96   0.226E-03    0.321E-04
DAV:  11    -0.999472537510E+02   -0.70217E-05   -0.13232E-07   108   0.912E-04    0.296E-04
DAV:  12    -0.999472617339E+02   -0.79829E-05   -0.20961E-07    84   0.923E-04    0.116E-04
DAV:  13    -0.999472633065E+02   -0.15726E-05   -0.24210E-08   108   0.375E-04    0.875E-05
DAV:  14    -0.999472648118E+02   -0.15053E-05   -0.83844E-09    84   0.291E-04    0.447E-05
DAV:  15    -0.999472655374E+02   -0.72564E-06   -0.19641E-09    96   0.195E-04
  59 F= -.99947266E+02 E0= -.99947266E+02  d E =-.398143E-10
       N       E                     dE             d eps       ncg     rms          rms(c)
DAV:   1    -0.999458031810E+02    0.14616E-02   -0.20320E-01   120   0.125E+00    0.147E-01
DAV:   2    -0.999466073094E+02   -0.80413E-03   -0.98603E-03   108   0.305E-01    0.882E-02
DAV:   3    -0.999465503302E+02    0.56979E-04   -0.16036E-04   132   0.439E-02    0.454E-02
DAV:   4    -0.999465198204E+02    0.30510E-04   -0.62301E-05   132   0.302E-02    0.782E-03
DAV:   5    -0.999465152897E+02    0.45308E-05   -0.13469E-05   120   0.135E-02    0.503E-03
DAV:   6    -0.999465209795E+02   -0.56898E-05   -0.51319E-06   132   0.635E-03    0.287E-03
DAV:   7    -0.999465328537E+02   -0.11874E-04   -0.69075E-07    96   0.270E-03    0.149E-03
DAV:   8    -0.999465530439E+02   -0.20190E-04   -0.21515E-06    96   0.314E-03    0.891E-04
DAV:   9    -0.999465663579E+02   -0.13314E-04   -0.87505E-07   108   0.210E-03    0.615E-04
DAV:  10    -0.999465779356E+02   -0.11578E-04   -0.80096E-07    96   0.177E-03    0.258E-04
DAV:  11    -0.999465821554E+02   -0.42198E-05   -0.11128E-07   108   0.798E-04    0.226E-04
DAV:  12    -0.999465861961E+02   -0.40407E-05   -0.17018E-07    84   0.812E-04    0.107E-04
DAV:  13    -0.999465870807E+02   -0.88459E-06   -0.15780E-08   120   0.321E-04
  60 F= -.99946587E+02 E0= -.99946587E+02  d E =-.312819E-10
       N       E                     dE             d eps       ncg     rms          rms(c)
DAV:   1    -0.999454791280E+02    0.11071E-02   -0.40830E-01   120   0.178E+00    0.214E-01
DAV:   2    -0.999468973215E+02   -0.14182E-02   -0.17777E-02   108   0.416E-01    0.127E-01
DAV:   3    -0.999467773280E+02    0.11999E-03   -0.27955E-04   132   0.596E-02    0.646E-02
DAV:   4    -0.999467138038E+02    0.63524E-04   -0.12205E-04   132   0.417E-02    0.113E-02
DAV:   5    -0.999467113436E+02    0.24602E-05   -0.22405E-05   132   0.181E-02    0.721E-03
DAV:   6    -0.999467295351E+02   -0.18191E-04   -0.11856E-05   132   0.951E-03    0.390E-03
DAV:   7    -0.999467572893E+02   -0.27754E-04   -0.22169E-06   108   0.462E-03    0.216E-03
DAV:   8    -0.999467992557E+02   -0.41966E-04   -0.45721E-06   108   0.463E-03    0.118E-03
DAV:   9    -0.999468236976E+02   -0.24442E-04   -0.19792E-06   120   0.302E-03    0.819E-04
DAV:  10    -0.999468450513E+02   -0.21354E-04   -0.19115E-06    96   0.269E-03    0.391E-04
DAV:  11    -0.999468533873E+02   -0.83361E-05   -0.36804E-07    96   0.134E-03    0.283E-04
DAV:  12    -0.999468587530E+02   -0.53657E-05   -0.30170E-07    84   0.105E-03    0.149E-04
DAV:  13    -0.999468601231E+02   -0.13700E-05   -0.32685E-08   108   0.445E-04    0.758E-05
DAV:  14    -0.999468612627E+02   -0.11396E-05   -0.15464E-08    84   0.330E-04    0.516E-05
DAV:  15    -0.999468616392E+02   -0.37654E-06    0.42936E-10    96   0.167E-04
  61 F= -.99946862E+02 E0= -.99946862E+02  d E =-.249034E-10
       N       E                     dE             d eps       ncg     rms          rms(c)
DAV:   1    -0.999499957673E+02   -0.31345E-02   -0.21803E-01   108   0.155E+00    0.127E-01
DAV:   2    -0.999503026002E+02   -0.30683E-03   -0.50664E-03   108   0.230E-01    0.788E-02
DAV:   3    -0.999502342131E+02    0.68387E-04   -0.14374E-04   132   0.406E-02    0.323E-02
DAV:   4    -0.999502215826E+02    0.12631E-04   -0.58062E-05   132   0.254E-02    0.731E-03
DAV:   5    -0.999502184162E+02    0.31664E-05   -0.52703E-06   108   0.907E-03    0.485E-03
DAV:   6    -0.999502190260E+02   -0.60989E-06   -0.30546E-06   132   0.580E-03
  62 F= -.99950219E+02 E0= -.99950219E+02  d E =-.339939E-10
       N       E                     dE             d eps       ncg     rms          rms(c)
DAV:   1    -0.999502680960E+02   -0.49680E-04   -0.52837E-01    96   0.242E+00    0.176E-01
DAV:   2    -0.999501330140E+02    0.13508E-03   -0.27958E-03   108   0.177E-01    0.980E-02
DAV:   3    -0.999500040015E+02    0.12901E-03   -0.40886E-04   108   0.601E-02    0.202E-02
DAV:   4    -0.999500096021E+02   -0.56006E-05   -0.62693E-05   132   0.253E-02    0.992E-03
DAV:   5    -0.999500121478E+02   -0.25458E-05   -0.32919E-06   132   0.622E-03    0.641E-03
DAV:   6    -0.999500190291E+02   -0.68812E-05   -0.21397E-06   108   0.491E-03    0.138E-03
DAV:   7    -0.999500237185E+02   -0.46894E-05   -0.64207E-07    96   0.272E-03    0.114E-03
DAV:   8    -0.999500293278E+02   -0.56093E-05   -0.20370E-07    84   0.153E-03    0.500E-04
DAV:   9    -0.999500353116E+02   -0.59838E-05   -0.30024E-07    96   0.151E-03    0.416E-04
DAV:  10    -0.999500383582E+02   -0.30467E-05   -0.12517E-07    84   0.914E-04    0.189E-04
DAV:  11    -0.999500407488E+02   -0.23906E-05   -0.87530E-08    96   0.653E-04    0.224E-04
DAV:  12    -0.999500417164E+02   -0.96760E-06   -0.20842E-08   108   0.385E-04
  63 F= -.99950042E+02 E0= -.99950042E+02  d E =-.257220E-10
       N       E                     dE             d eps       ncg     rms          rms(c)
DAV:   1    -0.999494101755E+02    0.63057E-03   -0.27328E-01   108   0.175E+00    0.146E-01
DAV:   2    -0.999493532333E+02    0.56942E-04   -0.21950E-03   108   0.150E-01    0.799E-02
DAV:   3    -0.999492539727E+02    0.99261E-04   -0.27218E-04   132   0.453E-02    0.215E-02
DAV:   4    -0.999492490482E+02    0.49245E-05   -0.48235E-05   108   0.201E-02    0.827E-03
DAV:   5    -0.999492477686E+02    0.12796E-05   -0.35636E-06   120   0.731E-03    0.365E-03
DAV:   6    -0.999492494976E+02   -0.17291E-05   -0.23644E-06   108   0.512E-03    0.139E-03
DAV:   7    -0.999492524582E+02   -0.29606E-05   -0.54886E-07    96   0.260E-03    0.843E-04
DAV:   8    -0.999492555404E+02   -0.30823E-05   -0.19640E-07    84   0.153E-03    0.502E-04
DAV:   9    -0.999492591699E+02   -0.36295E-05   -0.21990E-07    84   0.128E-03    0.256E-04
DAV:  10    -0.999492622142E+02   -0.30443E-05   -0.16253E-07    96   0.928E-04    0.144E-04
DAV:  11    -0.999492637048E+02   -0.14906E-05   -0.23520E-08    84   0.420E-04    0.960E-05
DAV:  12    -0.999492651601E+02   -0.14552E-05   -0.24376E-08    84   0.335E-04    0.520E-05
DAV:  13    -0.999492656275E+02   -0.46748E-06   -0.12047E-09   108   0.174E-04
  64 F= -.99949266E+02 E0= -.99949266E+02  d E =-.275332E-10
[...]
DAV:   7    -0.999486059122E+02   -0.69800E-05   -0.83057E-07    96   0.301E-03    0.117E-03
DAV:   8    -0.999486120803E+02   -0.61682E-05   -0.27499E-07    96   0.160E-03    0.641E-04
DAV:   9    -0.999486206383E+02   -0.85579E-05   -0.76980E-07    96   0.182E-03    0.319E-04
DAV:  10    -0.999486239945E+02   -0.33562E-05   -0.17534E-07    96   0.105E-03    0.185E-04
DAV:  11    -0.999486260686E+02   -0.20741E-05   -0.89548E-08    84   0.628E-04    0.123E-04
DAV:  12    -0.999486277296E+02   -0.16611E-05   -0.56227E-08    96   0.485E-04    0.776E-05
DAV:  13    -0.999486283766E+02   -0.64700E-06   -0.13023E-08    84   0.288E-04
 129 F= -.99948628E+02 E0= -.99948628E+02  d E =-.232243E-10
       N       E                     dE             d eps       ncg     rms          rms(c)
DAV:   1    -0.999509690162E+02   -0.23413E-02   -0.26771E-01    96   0.157E+00    0.133E-01
DAV:   2    -0.999509132173E+02    0.55799E-04   -0.17747E-03    96   0.137E-01    0.733E-02
DAV:   3    -0.999508341112E+02    0.79106E-04   -0.24283E-04   132   0.430E-02    0.169E-02
DAV:   4    -0.999508320710E+02    0.20402E-05   -0.33473E-05   108   0.178E-02    0.717E-03
DAV:   5    -0.999508313916E+02    0.67945E-06   -0.26752E-06   120   0.600E-03
 130 F= -.99950831E+02 E0= -.99950831E+02  d E =-.293524E-10
       N       E                     dE             d eps       ncg     rms          rms(c)
DAV:   1    -0.999507755456E+02    0.56525E-04   -0.52276E-01    96   0.224E+00    0.157E-01
DAV:   2    -0.999506857484E+02    0.89797E-04   -0.21991E-03   108   0.153E-01    0.905E-02
DAV:   3    -0.999505983074E+02    0.87441E-04   -0.34390E-04   120   0.568E-02    0.125E-02
DAV:   4    -0.999506041937E+02   -0.58863E-05   -0.47563E-05   120   0.228E-02    0.745E-03
DAV:   5    -0.999506049852E+02   -0.79156E-06   -0.14842E-06   108   0.431E-03
 131 F= -.99950605E+02 E0= -.99950605E+02  d E =-.332805E-10
       N       E                     dE             d eps       ncg     rms          rms(c)
DAV:   1    -0.999502382423E+02    0.36595E-03   -0.26065E-01    96   0.157E+00    0.110E-01
DAV:   2    -0.999501899251E+02    0.48317E-04   -0.10824E-03   108   0.107E-01    0.635E-02
DAV:   3    -0.999501457382E+02    0.44187E-04   -0.16753E-04   108   0.400E-02    0.904E-03
DAV:   4    -0.999501485190E+02   -0.27808E-05   -0.25810E-05   132   0.165E-02    0.599E-03
DAV:   5    -0.999501487919E+02   -0.27289E-06   -0.70189E-07   108   0.308E-03
 132 F= -.99950149E+02 E0= -.99950149E+02  d E =-.275176E-10
       N       E                     dE             d eps       ncg     rms          rms(c)
DAV:   1    -0.999506645935E+02   -0.51607E-03   -0.52762E-01    96   0.222E+00    0.168E-01
DAV:   2    -0.999505621134E+02    0.10248E-03   -0.24695E-03   108   0.166E-01    0.950E-02
DAV:   3    -0.999504488196E+02    0.11329E-03   -0.38221E-04   120   0.602E-02    0.173E-02
DAV:   4    -0.999504521717E+02   -0.33521E-05   -0.62861E-05   120   0.259E-02    0.981E-03
DAV:   5    -0.999504518045E+02    0.36712E-06   -0.24987E-06   132   0.567E-03
 133 F= -.99950452E+02 E0= -.99950452E+02  d E =-.277501E-10
       N       E                     dE             d eps       ncg     rms          rms(c)
DAV:   1    -0.999502670464E+02    0.18513E-03   -0.27076E-01    96   0.197E+00    0.143E-01
DAV:   2    -0.999502151012E+02    0.51945E-04   -0.18956E-03   108   0.159E-01    0.778E-02
DAV:   3    -0.999501439232E+02    0.71178E-04   -0.18071E-04   120   0.427E-02    0.222E-02
DAV:   4    -0.999501444523E+02   -0.52911E-06   -0.44103E-05   108   0.208E-02    0.685E-03
DAV:   5    -0.999501437597E+02    0.69259E-06   -0.26862E-06   132   0.618E-03
 134 F= -.99950144E+02 E0= -.99950144E+02  d E =-.325006E-10
       N       E                     dE             d eps       ncg     rms          rms(c)
DAV:   1    -0.999504977561E+02   -0.35330E-03   -0.55347E-01    96   0.254E+00    0.233E-01
DAV:   2    -0.999501686619E+02    0.32909E-03   -0.32896E-03   108   0.196E-01    0.120E-01
DAV:   3    -0.999499544213E+02    0.21424E-03   -0.47466E-04   120   0.632E-02    0.371E-02
DAV:   4    -0.999499479500E+02    0.64713E-05   -0.97567E-05   108   0.301E-02    0.121E-02
DAV:   5    -0.999499482406E+02   -0.29061E-06   -0.63695E-06   132   0.101E-02
 135 F= -.99949948E+02 E0= -.99949948E+02  d E =-.273264E-10
       N       E                     dE             d eps       ncg     rms          rms(c)
DAV:   1    -0.999494376877E+02    0.51026E-03   -0.29052E-01    96   0.187E+00    0.212E-01
DAV:   2    -0.999491858489E+02    0.25184E-03   -0.24356E-03   108   0.173E-01    0.102E-01
DAV:   3    -0.999490446364E+02    0.14121E-03   -0.39364E-04   120   0.620E-02    0.361E-02
DAV:   4    -0.999490446351E+02    0.12683E-08   -0.11405E-04   108   0.327E-02    0.141E-02
DAV:   5    -0.999490430865E+02    0.15486E-05   -0.52560E-06   120   0.960E-03    0.583E-03
DAV:   6    -0.999490432723E+02   -0.18581E-06   -0.28180E-06   108   0.594E-03
 136 F= -.99949043E+02 E0= -.99949043E+02  d E =-.253817E-10
       N       E                     dE             d eps       ncg     rms          rms(c)
DAV:   1    -0.999497354084E+02   -0.69232E-03   -0.57314E-01    96   0.260E+00    0.273E-01
DAV:   2    -0.999491959153E+02    0.53949E-03   -0.46353E-03   108   0.245E-01    0.138E-01
DAV:   3    -0.999488975837E+02    0.29833E-03   -0.86350E-04   120   0.921E-02    0.445E-02
DAV:   4    -0.999488986095E+02   -0.10259E-05   -0.19435E-04   120   0.450E-02    0.204E-02
DAV:   5    -0.999488979579E+02    0.65169E-06   -0.68562E-06   108   0.106E-02
 137 F= -.99948898E+02 E0= -.99948898E+02  d E =-.309721E-10
       N       E                     dE             d eps       ncg     rms          rms(c)
DAV:   1    -0.999507302282E+02   -0.18316E-02   -0.28857E-01    96   0.185E+00    0.202E-01
DAV:   2    -0.999504555923E+02    0.27464E-03   -0.22663E-03   108   0.172E-01    0.100E-01
DAV:   3    -0.999503174521E+02    0.13814E-03   -0.42165E-04   120   0.641E-02    0.321E-02
DAV:   4    -0.999503194849E+02   -0.20328E-05   -0.97393E-05   108   0.312E-02    0.142E-02
DAV:   5    -0.999503184808E+02    0.10041E-05   -0.37448E-06   132   0.825E-03    0.572E-03
DAV:   6    -0.999503187192E+02   -0.23838E-06   -0.26683E-06   108   0.601E-03
 138 F= -.99950319E+02 E0= -.99950319E+02  d E =-.268775E-10
       N       E                     dE             d eps       ncg     rms          rms(c)
DAV:   1    -0.999506141589E+02   -0.29568E-03   -0.54776E-01    96   0.256E+00    0.225E-01
DAV:   2    -0.999502875684E+02    0.32659E-03   -0.32768E-03   108   0.203E-01    0.120E-01
DAV:   3    -0.999500873075E+02    0.20026E-03   -0.49776E-04   120   0.673E-02    0.331E-02
DAV:   4    -0.999500896127E+02   -0.23052E-05   -0.86014E-05   132   0.293E-02    0.120E-02
DAV:   5    -0.999500900183E+02   -0.40558E-06   -0.50502E-06   108   0.895E-03
 139 F= -.99950090E+02 E0= -.99950090E+02  d E =-.319020E-10
       N       E                     dE             d eps       ncg     rms          rms(c)
DAV:   1    -0.999501023713E+02   -0.12759E-04   -0.27639E-01    96   0.189E+00    0.168E-01
DAV:   2    -0.999499994665E+02    0.10290E-03   -0.19250E-03   108   0.147E-01    0.876E-02
DAV:   3    -0.999499060095E+02    0.93457E-04   -0.25172E-04   120   0.441E-02    0.276E-02
DAV:   4    -0.999499025658E+02    0.34437E-05   -0.41804E-05   108   0.189E-02    0.985E-03
DAV:   5    -0.999499010404E+02    0.15254E-05   -0.26646E-06   132   0.713E-03    0.460E-03
DAV:   6    -0.999499011241E+02   -0.83753E-07   -0.20777E-06   108   0.531E-03
 140 F= -.99949901E+02 E0= -.99949901E+02  d E =-.292142E-10
       N       E                     dE             d eps       ncg     rms          rms(c)
DAV:   1    -0.999502152119E+02   -0.31417E-03   -0.55674E-01    96   0.259E+00    0.245E-01
DAV:   2    -0.999498622839E+02    0.35293E-03   -0.35579E-03   108   0.204E-01    0.125E-01
DAV:   3    -0.999496354457E+02    0.22684E-03   -0.51686E-04   120   0.657E-02    0.416E-02
DAV:   4    -0.999496250524E+02    0.10393E-04   -0.11740E-04   108   0.325E-02    0.134E-02
DAV:   5    -0.999496250572E+02   -0.47808E-08   -0.76933E-06   132   0.112E-02
 141 F= -.99949625E+02 E0= -.99949625E+02  d E =-.282660E-10
       N       E                     dE             d eps       ncg     rms          rms(c)
DAV:   1    -0.999489807253E+02    0.64433E-03   -0.27291E-01    96   0.181E+00    0.139E-01
DAV:   2    -0.999488523071E+02    0.12842E-03   -0.15140E-03   120   0.134E-01    0.785E-02
DAV:   3    -0.999487657199E+02    0.86587E-04   -0.26368E-04   108   0.510E-02    0.163E-02
DAV:   4    -0.999487705723E+02   -0.48524E-05   -0.46677E-05   132   0.224E-02    0.823E-03
DAV:   5    -0.999487712395E+02   -0.66726E-06   -0.10684E-06    84   0.427E-03
 142 F= -.99948771E+02 E0= -.99948771E+02  d E =-.283203E-10
       N       E                     dE             d eps       ncg     rms          rms(c)
DAV:   1    -0.999495398556E+02   -0.76928E-03   -0.57977E-01    96   0.264E+00    0.285E-01
DAV:   2    -0.999490091992E+02    0.53066E-03   -0.48616E-03   108   0.248E-01    0.142E-01
DAV:   3    -0.999487010740E+02    0.30813E-03   -0.82261E-04   120   0.918E-02    0.476E-02
DAV:   4    -0.999487008962E+02    0.17785E-06   -0.22813E-04   108   0.472E-02    0.186E-02
DAV:   5    -0.999486983352E+02    0.25610E-05   -0.97856E-06   132   0.125E-02    0.801E-03
DAV:   6    -0.999486986960E+02   -0.36083E-06   -0.53236E-06   108   0.815E-03
 143 F= -.99948699E+02 E0= -.99948699E+02  d E =-.272017E-10
       N       E                     dE             d eps       ncg     rms          rms(c)
DAV:   1    -0.999510029670E+02   -0.23046E-02   -0.28249E-01    96   0.183E+00    0.167E-01
DAV:   2    -0.999508010385E+02    0.20193E-03   -0.19345E-03   108   0.153E-01    0.894E-02
DAV:   3    -0.999506832611E+02    0.11778E-03   -0.33163E-04   120   0.587E-02    0.262E-02
DAV:   4    -0.999506882786E+02   -0.50175E-05   -0.82703E-05   108   0.293E-02    0.120E-02
DAV:   5    -0.999506884530E+02   -0.17439E-06   -0.30010E-06   132   0.685E-03
 144 F= -.99950688E+02 E0= -.99950688E+02  d E =-.298225E-10
       N       E                     dE             d eps       ncg     rms          rms(c)
DAV:   1    -0.999511588827E+02   -0.47060E-03   -0.55009E-01    96   0.257E+00    0.199E-01
DAV:   2    -0.999509085737E+02    0.25031E-03   -0.29297E-03   120   0.178E-01    0.112E-01
DAV:   3    -0.999507303126E+02    0.17826E-03   -0.48763E-04   120   0.666E-02    0.227E-02
DAV:   4    -0.999507359166E+02   -0.56041E-05   -0.71060E-05   120   0.275E-02    0.870E-03
DAV:   5    -0.999507363079E+02   -0.39129E-06   -0.30059E-06   132   0.636E-03
 145 F= -.99950736E+02 E0= -.99950736E+02  d E =-.297258E-10
       N       E                     dE             d eps       ncg     rms          rms(c)
DAV:   1    -0.999501453794E+02    0.59054E-03   -0.27243E-01    96   0.195E+00    0.135E-01
DAV:   2    -0.999500885947E+02    0.56785E-04   -0.18733E-03   120   0.152E-01    0.759E-02
DAV:   3    -0.999500131855E+02    0.75409E-04   -0.22756E-04   108   0.485E-02    0.185E-02
DAV:   4    -0.999500162966E+02   -0.31112E-05   -0.46830E-05   120   0.220E-02    0.692E-03
DAV:   5    -0.999500162538E+02    0.42896E-07   -0.16571E-06    96   0.519E-03
 146 F= -.99950016E+02 E0= -.99950016E+02  d E =-.288384E-10
       N       E                     dE             d eps       ncg     rms          rms(c)
DAV:   1    -0.999501911300E+02   -0.17483E-03   -0.53608E-01    96   0.238E+00    0.177E-01
DAV:   2    -0.999500490258E+02    0.14210E-03   -0.31726E-03   108   0.183E-01    0.100E-01
DAV:   3    -0.999498952253E+02    0.15380E-03   -0.47820E-04   108   0.643E-02    0.192E-02
DAV:   4    -0.999498985149E+02   -0.32897E-05   -0.87197E-05   132   0.291E-02    0.102E-02
DAV:   5    -0.999498976062E+02    0.90869E-06   -0.27869E-06   132   0.582E-03
 147 F= -.99949898E+02 E0= -.99949898E+02  d E =-.262047E-10
       N       E                     dE             d eps       ncg     rms          rms(c)
DAV:   1    -0.999487541986E+02    0.11443E-02   -0.26373E-01    96   0.168E+00    0.111E-01
DAV:   2    -0.999486984875E+02    0.55711E-04   -0.10750E-03    96   0.104E-01    0.642E-02
DAV:   3    -0.999486387064E+02    0.59781E-04   -0.16410E-04   120   0.381E-02    0.106E-02
DAV:   4    -0.999486413105E+02   -0.26041E-05   -0.24063E-05   120   0.159E-02    0.558E-03
DAV:   5    -0.999486429180E+02   -0.16076E-05   -0.98514E-07   108   0.369E-03    0.337E-03
DAV:   6    -0.999486462988E+02   -0.33807E-05   -0.92281E-07    96   0.321E-03    0.710E-04
DAV:   7    -0.999486484176E+02   -0.21188E-05   -0.21726E-07    96   0.163E-03    0.591E-04
DAV:   8    -0.999486517499E+02   -0.33323E-05   -0.19555E-07    84   0.138E-03    0.315E-04
DAV:   9    -0.999486537924E+02   -0.20425E-05   -0.11224E-07    96   0.930E-04    0.210E-04
DAV:  10    -0.999486562985E+02   -0.25060E-05   -0.11597E-07    84   0.733E-04    0.113E-04
DAV:  11    -0.999486569717E+02   -0.67318E-06   -0.18088E-08    96   0.345E-04
 148 F= -.99948657E+02 E0= -.99948657E+02  d E =-.266124E-10
       N       E                     dE             d eps       ncg     rms          rms(c)
DAV:   1    -0.999492187566E+02   -0.56246E-03   -0.54100E-01   108   0.242E+00    0.203E-01
DAV:   2    -0.999491561120E+02    0.62645E-04   -0.43591E-03    96   0.203E-01    0.111E-01
DAV:   3    -0.999489596089E+02    0.19650E-03   -0.47134E-04   132   0.600E-02    0.323E-02
DAV:   4    -0.999489480653E+02    0.11544E-04   -0.10079E-04   108   0.277E-02    0.110E-02
DAV:   5    -0.999489454612E+02    0.26041E-05   -0.67098E-06   132   0.980E-03    0.531E-03
DAV:   6    -0.999489480654E+02   -0.26042E-05   -0.42264E-06   108   0.696E-03    0.186E-03
DAV:   7    -0.999489526040E+02   -0.45386E-05   -0.11022E-06   108   0.357E-03    0.128E-03
DAV:   8    -0.999489586392E+02   -0.60352E-05   -0.37784E-07    84   0.209E-03    0.633E-04
DAV:   9    -0.999489638302E+02   -0.51910E-05   -0.30143E-07    96   0.143E-03    0.373E-04
DAV:  10    -0.999489700599E+02   -0.62297E-05   -0.31447E-07    84   0.119E-03    0.259E-04
DAV:  11    -0.999489726471E+02   -0.25872E-05   -0.63288E-08    96   0.640E-04    0.139E-04
DAV:  12    -0.999489753989E+02   -0.27519E-05   -0.53030E-08    84   0.483E-04    0.131E-04
DAV:  13    -0.999489763109E+02   -0.91200E-06   -0.99517E-09   108   0.279E-04
 149 F= -.99948976E+02 E0= -.99948976E+02  d E =-.243849E-10
       N       E                     dE             d eps       ncg     rms          rms(c)
DAV:   1    -0.999508412804E+02   -0.18659E-02   -0.26721E-01   108   0.170E+00    0.127E-01
DAV:   2    -0.999507758299E+02    0.65451E-04   -0.15296E-03    96   0.125E-01    0.715E-02
DAV:   3    -0.999506990395E+02    0.76790E-04   -0.22308E-04   120   0.440E-02    0.156E-02
DAV:   4    -0.999506994900E+02   -0.45043E-06   -0.37551E-05   132   0.192E-02    0.720E-03
DAV:   5    -0.999506999247E+02   -0.43475E-06   -0.18456E-06   120   0.502E-03
 150 F= -.99950700E+02 E0= -.99950700E+02  d E =-.383428E-10
       N       E                     dE             d eps       ncg     rms          rms(c)
DAV:   1    -0.999509889750E+02   -0.28949E-03   -0.53155E-01    96   0.237E+00    0.159E-01
DAV:   2    -0.999508800163E+02    0.10896E-03   -0.22003E-03   120   0.145E-01    0.923E-02
DAV:   3    -0.999507667554E+02    0.11326E-03   -0.37998E-04   120   0.596E-02    0.114E-02
DAV:   4    -0.999507734470E+02   -0.66916E-05   -0.55183E-05   132   0.242E-02    0.725E-03
DAV:   5    -0.999507747880E+02   -0.13410E-05   -0.15838E-06   108   0.459E-03    0.483E-03
DAV:   6    -0.999507788852E+02   -0.40971E-05   -0.18442E-06    96   0.435E-03    0.897E-04
DAV:   7    -0.999507814351E+02   -0.25500E-05   -0.42589E-07   108   0.220E-03    0.807E-04
DAV:   8    -0.999507847237E+02   -0.32886E-05   -0.16746E-07    84   0.160E-03    0.458E-04
DAV:   9    -0.999507884948E+02   -0.37711E-05   -0.22991E-07    96   0.161E-03    0.243E-04
DAV:  10    -0.999507913159E+02   -0.28210E-05   -0.16389E-07    84   0.103E-03    0.167E-04
DAV:  11    -0.999507922732E+02   -0.95733E-06   -0.24630E-08   108   0.423E-04
 151 F= -.99950792E+02 E0= -.99950792E+02  d E =-.201272E-10
       N       E                     dE             d eps       ncg     rms          rms(c)
DAV:   1    -0.999486132164E+02    0.21781E-02   -0.26851E-01    96   0.179E+00    0.130E-01
DAV:   2    -0.999485638773E+02    0.49339E-04   -0.19431E-03   108   0.147E-01    0.713E-02
DAV:   3    -0.999484828360E+02    0.81041E-04   -0.23089E-04   120   0.482E-02    0.185E-02
DAV:   4    -0.999484839936E+02   -0.11576E-05   -0.54633E-05   132   0.227E-02    0.689E-03
DAV:   5    -0.999484844335E+02   -0.43982E-06   -0.25850E-06   108   0.580E-03
 152 F= -.99948484E+02 E0= -.99948484E+02  d E =-.290349E-10
       N       E                     dE             d eps       ncg     rms          rms(c)
DAV:   1    -0.999489734449E+02   -0.48945E-03   -0.54737E-01    96   0.246E+00    0.204E-01
DAV:   2    -0.999488171521E+02    0.15629E-03   -0.42493E-03   108   0.220E-01    0.114E-01
DAV:   3    -0.999486137628E+02    0.20339E-03   -0.65000E-04   108   0.732E-02    0.260E-02
DAV:   4    -0.999486139707E+02   -0.20789E-06   -0.11770E-04   132   0.327E-02    0.121E-02
DAV:   5    -0.999486115407E+02    0.24300E-05   -0.55995E-06   132   0.871E-03    0.616E-03
DAV:   6    -0.999486123997E+02   -0.85897E-06   -0.42147E-06   132   0.730E-03
 153 F= -.99948612E+02 E0= -.99948612E+02  d E =-.300387E-10
       N       E                     dE             d eps       ncg     rms          rms(c)
DAV:   1    -0.999508456987E+02   -0.22342E-02   -0.26998E-01    96   0.172E+00    0.139E-01
DAV:   2    -0.999507724809E+02    0.73218E-04   -0.17650E-03   108   0.140E-01    0.760E-02
DAV:   3    -0.999506967097E+02    0.75771E-04   -0.25125E-04   108   0.434E-02    0.182E-02
DAV:   4    -0.999506955507E+02    0.11590E-05   -0.33539E-05   120   0.178E-02    0.797E-03
DAV:   5    -0.999506947513E+02    0.79934E-06   -0.27149E-06   120   0.601E-03
 154 F= -.99950695E+02 E0= -.99950695E+02  d E =-.302068E-10
       N       E                     dE             d eps       ncg     rms          rms(c)
DAV:   1    -0.999508932905E+02   -0.19774E-03   -0.53142E-01    96   0.241E+00    0.159E-01
DAV:   2    -0.999507825758E+02    0.11071E-03   -0.20379E-03   108   0.144E-01    0.923E-02
DAV:   3    -0.999506740830E+02    0.10849E-03   -0.36802E-04   120   0.556E-02    0.128E-02
DAV:   4    -0.999506770454E+02   -0.29624E-05   -0.49179E-05   108   0.223E-02    0.771E-03
DAV:   5    -0.999506765020E+02    0.54336E-06   -0.18504E-06   132   0.474E-03
 155 F= -.99950677E+02 E0= -.99950677E+02  d E =-.283715E-10
       N       E                     dE             d eps       ncg     rms          rms(c)
DAV:   1    -0.999503340467E+02    0.34300E-03   -0.26464E-01    96   0.169E+00    0.115E-01
DAV:   2    -0.999502682844E+02    0.65762E-04   -0.11011E-03   108   0.112E-01    0.666E-02
DAV:   3    -0.999502185232E+02    0.49761E-04   -0.19184E-04   120   0.445E-02    0.876E-03
DAV:   4    -0.999502222322E+02   -0.37089E-05   -0.32469E-05   132   0.188E-02    0.616E-03
DAV:   5    -0.999502225916E+02   -0.35948E-06   -0.77037E-07    96   0.332E-03
 156 F= -.99950223E+02 E0= -.99950223E+02  d E =-.322051E-10
       N       E                     dE             d eps       ncg     rms          rms(c)
DAV:   1    -0.999505422952E+02   -0.32006E-03   -0.52632E-01    96   0.241E+00    0.172E-01
DAV:   2    -0.999504385474E+02    0.10375E-03   -0.26801E-03    96   0.175E-01    0.971E-02
DAV:   3    -0.999503081491E+02    0.13040E-03   -0.38453E-04   120   0.584E-02    0.187E-02
DAV:   4    -0.999503095163E+02   -0.13672E-05   -0.57718E-05   132   0.241E-02    0.910E-03
DAV:   5    -0.999503097011E+02   -0.18479E-06   -0.31446E-06   120   0.613E-03
 157 F= -.99950310E+02 E0= -.99950310E+02  d E =-.280584E-10
