       N       E                     dE             d eps       ncg     rms          rms(c)
DAV:   1     0.245429262641E+03    0.24543E+03   -0.10184E+04   120   0.484E+02
DAV:   2    -0.230092767528E+02   -0.26844E+03   -0.25440E+03   156   0.918E+01
DAV:   3    -0.102373840883E+03   -0.79365E+02   -0.79149E+02   120   0.556E+01
DAV:   4    -0.106224961940E+03   -0.38511E+01   -0.38372E+01   132   0.176E+01
DAV:   5    -0.106286316502E+03   -0.61355E-01   -0.61299E-01   156   0.247E+00    0.152E+01
DAV:   6    -0.102881037964E+03    0.34053E+01   -0.15651E+00   108   0.430E+00    0.876E+00
DAV:   7    -0.101142590958E+03    0.17384E+01   -0.41667E+00   120   0.626E+00    0.130E+00
DAV:   8    -0.101085357590E+03    0.57233E-01   -0.32949E-01   132   0.219E+00    0.673E-01
DAV:   9    -0.101052074037E+03    0.33284E-01   -0.60730E-02   144   0.666E-01    0.357E-01
DAV:  10    -0.101050711428E+03    0.13626E-02   -0.33765E-03   120   0.195E-01    0.149E-01
DAV:  11    -0.101049562286E+03    0.11491E-02   -0.65187E-03   120   0.219E-01    0.109E-01
DAV:  12    -0.101054630611E+03   -0.50683E-02   -0.13058E-03   108   0.996E-02    0.558E-02
DAV:  13    -0.101058741991E+03   -0.41114E-02   -0.19433E-03   132   0.110E-01    0.445E-02
DAV:  14    -0.101061764678E+03   -0.30227E-02   -0.19764E-04   144   0.451E-02    0.225E-02
DAV:  15    -0.101066799825E+03   -0.50351E-02   -0.57797E-04   108   0.599E-02    0.146E-02
DAV:  16    -0.101068291662E+03   -0.14918E-02   -0.96316E-05   132   0.301E-02    0.850E-03
DAV:  17    -0.101069531924E+03   -0.12403E-02   -0.11245E-04   108   0.230E-02    0.659E-03
DAV:  18    -0.101069799588E+03   -0.26766E-03   -0.72392E-06   132   0.656E-03    0.209E-03
DAV:  19    -0.101070051946E+03   -0.25236E-03   -0.11634E-05   108   0.759E-03    0.219E-03
DAV:  20    -0.101070105480E+03   -0.53534E-04   -0.93308E-07   108   0.308E-03    0.812E-04
DAV:  21    -0.101070137258E+03   -0.31777E-04   -0.76855E-07    84   0.214E-03    0.338E-04
DAV:  22    -0.101070148365E+03   -0.11108E-04   -0.27145E-07    96   0.119E-03    0.309E-04
DAV:  23    -0.101070152084E+03   -0.37186E-05   -0.63810E-08    96   0.590E-04    0.205E-04
DAV:  24    -0.101070155400E+03   -0.33158E-05   -0.56981E-08    84   0.612E-04    0.147E-04
DAV:  25    -0.101070156006E+03   -0.60669E-06   -0.57356E-09   108   0.297E-04
   1 F= -.10107016E+03 E0= -.10107016E+03  d E =-.105955E-10
       N       E                     dE             d eps       ncg     rms          rms(c)
DAV:   1    -0.101066835899E+03    0.33195E-02   -0.83976E-02    96   0.826E-01    0.116E-01
DAV:   2    -0.101067211573E+03   -0.37567E-03   -0.40660E-03   120   0.212E-01    0.544E-02
DAV:   3    -0.101067202386E+03    0.91864E-05   -0.13797E-04   144   0.437E-02    0.280E-02
DAV:   4    -0.101067205320E+03   -0.29335E-05   -0.32307E-05   108   0.214E-02    0.772E-03
DAV:   5    -0.101067204663E+03    0.65657E-06   -0.63294E-06   132   0.955E-03
   2 F= -.10106720E+03 E0= -.10106720E+03  d E =-.107131E-10
       N       E                     dE             d eps       ncg     rms          rms(c)
DAV:   1    -0.101065497252E+03    0.17081E-02   -0.33460E-01    96   0.165E+00    0.244E-01
DAV:   2    -0.101067001562E+03   -0.15043E-02   -0.16259E-02   120   0.421E-01    0.109E-01
DAV:   3    -0.101066970200E+03    0.31363E-04   -0.53648E-04   132   0.854E-02    0.581E-02
DAV:   4    -0.101066985719E+03   -0.15520E-04   -0.13132E-04   108   0.426E-02    0.156E-02
DAV:   5    -0.101066982321E+03    0.33983E-05   -0.25840E-05   132   0.192E-02    0.891E-03
DAV:   6    -0.101066981864E+03    0.45720E-06   -0.48928E-06   120   0.733E-03
   3 F= -.10106698E+03 E0= -.10106698E+03  d E =-.157429E-10
       N       E                     dE             d eps       ncg     rms          rms(c)
DAV:   1    -0.101066509115E+03    0.47321E-03   -0.16894E-01    96   0.118E+00    0.157E-01
DAV:   2    -0.101067217472E+03   -0.70836E-03   -0.76215E-03   120   0.289E-01    0.745E-02
DAV:   3    -0.101067211279E+03    0.61929E-05   -0.24763E-04   120   0.582E-02    0.387E-02
DAV:   4    -0.101067222865E+03   -0.11586E-04   -0.54788E-05   108   0.276E-02    0.112E-02
DAV:   5    -0.101067222544E+03    0.32095E-06   -0.10377E-05   132   0.127E-02    0.548E-03
DAV:   6    -0.101067223151E+03   -0.60708E-06   -0.27690E-06   132   0.551E-03
   4 F= -.10106722E+03 E0= -.10106722E+03  d E =-.815612E-11
       N       E                     dE             d eps       ncg     rms          rms(c)
DAV:   1    -0.101065697888E+03    0.15247E-02   -0.33496E-01    96   0.164E+00    0.196E-01
DAV:   2    -0.101067180081E+03   -0.14822E-02   -0.15557E-02   108   0.411E-01    0.105E-01
DAV:   3    -0.101067170823E+03    0.92580E-05   -0.45811E-04   108   0.827E-02    0.513E-02
DAV:   4    -0.101067187148E+03   -0.16326E-04   -0.11422E-04   132   0.413E-02    0.141E-02
DAV:   5    -0.101067182221E+03    0.49274E-05   -0.21156E-05   120   0.183E-02    0.751E-03
DAV:   6    -0.101067182111E+03    0.11011E-06   -0.66038E-06   132   0.884E-03
   5 F= -.10106718E+03 E0= -.10106718E+03  d E =-.256844E-10
       N       E                     dE             d eps       ncg     rms          rms(c)
DAV:   1    -0.101064800548E+03    0.23817E-02   -0.16728E-01    96   0.121E+00    0.148E-01
DAV:   2    -0.101065736096E+03   -0.93555E-03   -0.97440E-03   120   0.330E-01    0.907E-02
DAV:   3    -0.101065709638E+03    0.26458E-04   -0.26800E-04   108   0.652E-02    0.476E-02
DAV:   4    -0.101065717950E+03   -0.83124E-05   -0.10604E-04   108   0.387E-02    0.111E-02
DAV:   5    -0.101065716551E+03    0.13995E-05   -0.19263E-05   132   0.164E-02    0.718E-03
DAV:   6    -0.101065718499E+03   -0.19482E-05   -0.39215E-06   108   0.649E-03    0.412E-03
DAV:   7    -0.101065724223E+03   -0.57240E-05   -0.64826E-07   108   0.300E-03    0.129E-03
DAV:   8    -0.101065729516E+03   -0.52932E-05   -0.36435E-07    84   0.197E-03    0.613E-04
DAV:   9    -0.101065737387E+03   -0.78707E-05   -0.54233E-07    96   0.186E-03    0.459E-04
DAV:  10    -0.101065742882E+03   -0.54958E-05   -0.35550E-07    96   0.141E-03    0.228E-04
DAV:  11    -0.101065744983E+03   -0.21005E-05   -0.86373E-08   108   0.751E-04    0.166E-04
DAV:  12    -0.101065746946E+03   -0.19626E-05   -0.64297E-08    84   0.569E-04    0.829E-05
DAV:  13    -0.101065747781E+03   -0.83548E-06   -0.18571E-08    96   0.323E-04
   6 F= -.10106575E+03 E0= -.10106575E+03  d E =-.147316E-10
       N       E                     dE             d eps       ncg     rms          rms(c)
DAV:   1    -0.101063552629E+03    0.21943E-02   -0.33977E-01    96   0.171E+00    0.262E-01
DAV:   2    -0.101065880018E+03   -0.23274E-02   -0.25031E-02   132   0.523E-01    0.168E-01
DAV:   3    -0.101065716880E+03    0.16314E-03   -0.64760E-04   132   0.105E-01    0.883E-02
DAV:   4    -0.101065714776E+03    0.21044E-05   -0.42695E-04   108   0.737E-02    0.165E-02
DAV:   5    -0.101065705258E+03    0.95179E-05   -0.67023E-05   120   0.296E-02    0.121E-02
DAV:   6    -0.101065706412E+03   -0.11542E-05   -0.11272E-05   132   0.924E-03    0.787E-03
DAV:   7    -0.101065718899E+03   -0.12487E-04   -0.91757E-07    84   0.338E-03    0.347E-03
DAV:   8    -0.101065738807E+03   -0.19908E-04   -0.23506E-06   120   0.532E-03    0.159E-03
DAV:   9    -0.101065753229E+03   -0.14421E-04   -0.12307E-06   108   0.290E-03    0.164E-03
DAV:  10    -0.101065773730E+03   -0.20501E-04   -0.98533E-07   108   0.223E-03    0.104E-03
DAV:  11    -0.101065779444E+03   -0.57141E-05   -0.20756E-07   108   0.116E-03    0.625E-04
DAV:  12    -0.101065787586E+03   -0.81426E-05   -0.24167E-07    84   0.114E-03    0.310E-04
DAV:  13    -0.101065791013E+03   -0.34265E-05   -0.94109E-08   108   0.653E-04    0.259E-04
DAV:  14    -0.101065793006E+03   -0.19936E-05   -0.13406E-08    84   0.350E-04    0.146E-04
DAV:  15    -0.101065794718E+03   -0.17120E-05   -0.30594E-08    84   0.384E-04    0.933E-05
DAV:  16    -0.101065795178E+03   -0.45972E-06    0.25532E-09   108   0.174E-04
   7 F= -.10106580E+03 E0= -.10106580E+03  d E =-.794304E-11
       N       E                     dE             d eps       ncg     rms          rms(c)
DAV:   1    -0.101064696352E+03    0.10984E-02   -0.19294E-01    96   0.130E+00    0.187E-01
DAV:   2    -0.101066083211E+03   -0.13869E-02   -0.14357E-02   108   0.408E-01    0.120E-01
DAV:   3    -0.101066001183E+03    0.82028E-04   -0.37860E-04   144   0.807E-02    0.655E-02
DAV:   4    -0.101065999799E+03    0.13841E-05   -0.22957E-04   108   0.572E-02    0.118E-02
DAV:   5    -0.101065995155E+03    0.46440E-05   -0.46511E-05   132   0.242E-02    0.974E-03
DAV:   6    -0.101065995649E+03   -0.49400E-06   -0.46772E-06   132   0.659E-03
   8 F= -.10106600E+03 E0= -.10106600E+03  d E =-.108810E-10
       N       E                     dE             d eps       ncg     rms          rms(c)
DAV:   1    -0.101064543152E+03    0.14520E-02   -0.33747E-01    96   0.162E+00    0.256E-01
DAV:   2    -0.101066381125E+03   -0.18380E-02   -0.19043E-02   108   0.436E-01    0.153E-01
DAV:   3    -0.101066317507E+03    0.63618E-04   -0.56026E-04   108   0.867E-02    0.781E-02
DAV:   4    -0.101066319303E+03   -0.17951E-05   -0.21283E-04   132   0.518E-02    0.150E-02
DAV:   5    -0.101066309325E+03    0.99779E-05   -0.34200E-05   144   0.215E-02    0.989E-03
DAV:   6    -0.101066309373E+03   -0.48548E-07   -0.78530E-06   132   0.878E-03
   9 F= -.10106631E+03 E0= -.10106631E+03  d E =-.153806E-10
       N       E                     dE             d eps       ncg     rms          rms(c)
DAV:   1    -0.101064285625E+03    0.20237E-02   -0.17058E-01    96   0.115E+00    0.180E-01
DAV:   2    -0.101065341873E+03   -0.10562E-02   -0.10703E-02   132   0.327E-01    0.114E-01
DAV:   3    -0.101065323204E+03    0.18668E-04   -0.29364E-04   120   0.669E-02    0.580E-02
DAV:   4    -0.101065342726E+03   -0.19522E-04   -0.15852E-04   120   0.441E-02    0.119E-02
DAV:   5    -0.101065337153E+03    0.55735E-05   -0.28973E-05   120   0.190E-02    0.800E-03
DAV:   6    -0.101065338331E+03   -0.11784E-05   -0.73659E-06   108   0.727E-03    0.471E-03
DAV:   7    -0.101065345945E+03   -0.76136E-05   -0.79825E-07   120   0.318E-03    0.187E-03
DAV:   8    -0.101065354608E+03   -0.86627E-05   -0.77950E-07   108   0.261E-03    0.694E-04
DAV:   9    -0.101065363001E+03   -0.83937E-05   -0.55893E-07    96   0.194E-03    0.711E-04
DAV:  10    -0.101065372485E+03   -0.94839E-05   -0.85866E-07   108   0.183E-03    0.434E-04
DAV:  11    -0.101065375534E+03   -0.30484E-05   -0.90550E-08   108   0.809E-04    0.215E-04
DAV:  12    -0.101065378260E+03   -0.27262E-05   -0.95562E-08    84   0.649E-04    0.129E-04
DAV:  13    -0.101065380063E+03   -0.18035E-05   -0.58174E-08    96   0.474E-04    0.156E-04
DAV:  14    -0.101065380979E+03   -0.91593E-06   -0.11990E-08    84   0.279E-04
  10 F= -.10106538E+03 E0= -.10106538E+03  d E =-.122702E-10
       N       E                     dE             d eps       ncg     rms          rms(c)
DAV:   1    -0.101062678155E+03    0.27019E-02   -0.34533E-01    96   0.159E+00    0.259E-01
DAV:   2    -0.101065397129E+03   -0.27190E-02   -0.27548E-02   132   0.499E-01    0.186E-01
DAV:   3    -0.101065226488E+03    0.17064E-03   -0.63101E-04   144   0.980E-02    0.991E-02
DAV:   4    -0.101065236506E+03   -0.10018E-04   -0.48893E-04   120   0.766E-02    0.177E-02
DAV:   5    -0.101065222531E+03    0.13975E-04   -0.12170E-04   132   0.360E-02    0.126E-02
DAV:   6    -0.101065224155E+03   -0.16240E-05   -0.20678E-05   132   0.108E-02    0.803E-03
DAV:   7    -0.101065241934E+03   -0.17779E-04   -0.16328E-06   108   0.397E-03    0.377E-03
DAV:   8    -0.101065271126E+03   -0.29192E-04   -0.45702E-06   108   0.562E-03    0.157E-03
DAV:   9    -0.101065288820E+03   -0.17695E-04   -0.17445E-06   132   0.300E-03    0.184E-03
DAV:  10    -0.101065311461E+03   -0.22641E-04   -0.18253E-06   108   0.284E-03    0.540E-04
DAV:  11    -0.101065316493E+03   -0.50312E-05   -0.15806E-07   108   0.109E-03    0.348E-04
DAV:  12    -0.101065325170E+03   -0.86770E-05   -0.31131E-07    84   0.112E-03    0.151E-04
DAV:  13    -0.101065328106E+03   -0.29368E-05   -0.95765E-08   108   0.590E-04    0.194E-04
DAV:  14    -0.101065330579E+03   -0.24730E-05   -0.35380E-08    84   0.440E-04    0.102E-04
DAV:  15    -0.101065331360E+03   -0.78045E-06   -0.72682E-09   108   0.242E-04
  11 F= -.10106533E+03 E0= -.10106533E+03  d E =-.943589E-11
       N       E                     dE             d eps       ncg     rms          rms(c)
DAV:   1    -0.101065461877E+03   -0.13130E-03   -0.17137E-01    96   0.112E+00    0.182E-01
DAV:   2    -0.101066650915E+03   -0.11890E-02   -0.12323E-02   108   0.344E-01    0.123E-01
DAV:   3    -0.101066583778E+03    0.67136E-04   -0.30914E-04   144   0.689E-02    0.643E-02
DAV:   4    -0.101066586957E+03   -0.31785E-05   -0.20091E-04   108   0.502E-02    0.122E-02
DAV:   5    -0.101066580750E+03    0.62071E-05   -0.46283E-05   132   0.231E-02    0.904E-03
DAV:   6    -0.101066581825E+03   -0.10756E-05   -0.82691E-06   132   0.764E-03    0.565E-03
DAV:   7    -0.101066591116E+03   -0.92907E-05   -0.10304E-06    96   0.335E-03    0.231E-03
DAV:   8    -0.101066604529E+03   -0.13413E-04   -0.15652E-06   120   0.360E-03    0.922E-04
DAV:   9    -0.101066615199E+03   -0.10670E-04   -0.88213E-07    96   0.236E-03    0.107E-03
DAV:  10    -0.101066627491E+03   -0.12292E-04   -0.10077E-06   108   0.214E-03    0.361E-04
DAV:  11    -0.101066630734E+03   -0.32436E-05   -0.99539E-08   108   0.891E-04    0.248E-04
DAV:  12    -0.101066634659E+03   -0.39247E-05   -0.12705E-07    84   0.760E-04    0.112E-04
DAV:  13    -0.101066636725E+03   -0.20661E-05   -0.70400E-08    96   0.524E-04    0.128E-04
DAV:  14    -0.101066638094E+03   -0.13689E-05   -0.24073E-08    84   0.356E-04    0.661E-05
DAV:  15    -0.101066638527E+03   -0.43318E-06   -0.28239E-10   108   0.181E-04
  12 F= -.10106664E+03 E0= -.10106664E+03  d E =-.105417E-10
       N       E                     dE             d eps       ncg     rms          rms(c)
DAV:   1    -0.101065291496E+03    0.13466E-02   -0.33308E-01    96   0.157E+00    0.267E-01
DAV:   2    -0.101066875000E+03   -0.15835E-02   -0.16936E-02   108   0.405E-01    0.133E-01
DAV:   3    -0.101066828625E+03    0.46375E-04   -0.57175E-04   132   0.871E-02    0.705E-02
DAV:   4    -0.101066840678E+03   -0.12053E-04   -0.17926E-04   132   0.535E-02    0.154E-02
DAV:   5    -0.101066834948E+03    0.57294E-05   -0.46437E-05   132   0.255E-02    0.111E-02
DAV:   6    -0.101066834370E+03    0.57770E-06   -0.71521E-06   132   0.883E-03
  13 F= -.10106683E+03 E0= -.10106683E+03  d E =-.148335E-10
       N       E                     dE             d eps       ncg     rms          rms(c)
DAV:   1    -0.101064876126E+03    0.19588E-02   -0.15952E-01    96   0.121E+00    0.165E-01
DAV:   2    -0.101066010426E+03   -0.11343E-02   -0.11875E-02   132   0.362E-01    0.106E-01
DAV:   3    -0.101065974185E+03    0.36241E-04   -0.32837E-04   120   0.741E-02    0.586E-02
DAV:   4    -0.101065990307E+03   -0.16123E-04   -0.15122E-04   108   0.509E-02    0.121E-02
DAV:   5    -0.101065992671E+03   -0.23637E-05   -0.43845E-05   132   0.239E-02    0.825E-03
DAV:   6    -0.101065995027E+03   -0.23557E-05   -0.41512E-06   108   0.657E-03    0.619E-03
DAV:   7    -0.101066001925E+03   -0.68987E-05   -0.71334E-07    84   0.356E-03    0.231E-03
DAV:   8    -0.101066008555E+03   -0.66299E-05   -0.86913E-07   108   0.331E-03    0.851E-04
DAV:   9    -0.101066014485E+03   -0.59296E-05   -0.40003E-07    84   0.213E-03    0.598E-04
DAV:  10    -0.101066020453E+03   -0.59685E-05   -0.41499E-07    96   0.154E-03    0.462E-04
DAV:  11    -0.101066022482E+03   -0.20288E-05   -0.92123E-08   108   0.837E-04    0.388E-04
DAV:  12    -0.101066024778E+03   -0.22955E-05   -0.67144E-08    84   0.647E-04    0.205E-04
DAV:  13    -0.101066026233E+03   -0.14550E-05   -0.43912E-08    96   0.455E-04    0.103E-04
DAV:  14    -0.101066027412E+03   -0.11793E-05   -0.32483E-08    84   0.391E-04    0.820E-05
DAV:  15    -0.101066027698E+03   -0.28647E-06    0.13467E-10   108   0.178E-04
  14 F= -.10106603E+03 E0= -.10106603E+03  d E =-.137170E-10
       N       E                     dE             d eps       ncg     rms          rms(c)
DAV:   1    -0.101063695049E+03    0.23324E-02   -0.33425E-01    96   0.171E+00    0.247E-01
DAV:   2    -0.101066059466E+03   -0.23644E-02   -0.25168E-02   132   0.521E-01    0.160E-01
DAV:   3    -0.101065908554E+03    0.15091E-03   -0.62471E-04   132   0.103E-01    0.853E-02
DAV:   4    -0.101065905498E+03    0.30570E-05   -0.38978E-04   120   0.720E-02    0.162E-02
DAV:   5    -0.101065897525E+03    0.79721E-05   -0.72471E-05   132   0.307E-02    0.123E-02
DAV:   6    -0.101065897537E+03   -0.11270E-07   -0.11349E-05   132   0.966E-03    0.830E-03
DAV:   7    -0.101065907742E+03   -0.10205E-04   -0.99684E-07    84   0.370E-03    0.364E-03
DAV:   8    -0.101065925844E+03   -0.18102E-04   -0.21441E-06   120   0.512E-03    0.140E-03
DAV:   9    -0.101065939752E+03   -0.13908E-04   -0.11697E-06    96   0.293E-03    0.157E-03
DAV:  10    -0.101065957975E+03   -0.18222E-04   -0.82194E-07    96   0.217E-03    0.767E-04
DAV:  11    -0.101065963929E+03   -0.59544E-05   -0.28252E-07   108   0.119E-03    0.528E-04
DAV:  12    -0.101065970623E+03   -0.66940E-05   -0.16576E-07    84   0.949E-04    0.235E-04
DAV:  13    -0.101065974700E+03   -0.40773E-05   -0.12116E-07    96   0.693E-04    0.196E-04
DAV:  14    -0.101065977346E+03   -0.26453E-05   -0.38709E-08   108   0.451E-04    0.122E-04
DAV:  15    -0.101065978330E+03   -0.98426E-06   -0.87307E-09    84   0.273E-04
  15 F= -.10106598E+03 E0= -.10106598E+03  d E =-.821919E-11
       N       E                     dE             d eps       ncg     rms          rms(c)
DAV:   1    -0.101066118921E+03   -0.14158E-03   -0.16863E-01    96   0.122E+00    0.159E-01
DAV:   2    -0.101067194609E+03   -0.10757E-02   -0.11328E-02   108   0.355E-01    0.105E-01
DAV:   3    -0.101067140815E+03    0.53794E-04   -0.30913E-04   144   0.719E-02    0.574E-02
DAV:   4    -0.101067138657E+03    0.21578E-05   -0.15091E-04   108   0.457E-02    0.118E-02
DAV:   5    -0.101067134918E+03    0.37394E-05   -0.28164E-05   132   0.195E-02    0.867E-03
DAV:   6    -0.101067135699E+03   -0.78091E-06   -0.46276E-06   120   0.686E-03
  16 F= -.10106714E+03 E0= -.10106714E+03  d E =-.870500E-11
       N       E                     dE             d eps       ncg     rms          rms(c)
DAV:   1    -0.101065756860E+03    0.13781E-02   -0.33519E-01    96   0.163E+00    0.196E-01
DAV:   2    -0.101067241795E+03   -0.14849E-02   -0.15542E-02   132   0.413E-01    0.104E-01
DAV:   3    -0.101067237734E+03    0.40608E-05   -0.47404E-04   108   0.844E-02    0.494E-02
DAV:   4    -0.101067262948E+03   -0.25215E-04   -0.11688E-04   120   0.417E-02    0.141E-02
DAV:   5    -0.101067261431E+03    0.15171E-05   -0.19201E-05   120   0.176E-02    0.771E-03
DAV:   6    -0.101067262367E+03   -0.93558E-06   -0.64679E-06   132   0.883E-03
  17 F= -.10106726E+03 E0= -.10106726E+03  d E =-.214174E-10
       N       E                     dE             d eps       ncg     rms          rms(c)
DAV:   1    -0.101066245729E+03    0.10157E-02   -0.16761E-01    96   0.120E+00    0.147E-01
DAV:   2    -0.101066999559E+03   -0.75383E-03   -0.79528E-03   132   0.297E-01    0.754E-02
DAV:   3    -0.101066994497E+03    0.50626E-05   -0.24403E-04   108   0.597E-02    0.377E-02
DAV:   4    -0.101067009627E+03   -0.15131E-04   -0.64018E-05   108   0.300E-02    0.107E-02
DAV:   5    -0.101067009269E+03    0.35838E-06   -0.11111E-05   132   0.131E-02    0.550E-03
DAV:   6    -0.101067009912E+03   -0.64340E-06   -0.30925E-06   108   0.601E-03
  18 F= -.10106701E+03 E0= -.10106701E+03  d E =-.874330E-11
       N       E                     dE             d eps       ncg     rms          rms(c)
DAV:   1    -0.101065157135E+03    0.18521E-02   -0.33996E-01    96   0.168E+00    0.263E-01
DAV:   2    -0.101066695191E+03   -0.15381E-02   -0.16727E-02   120   0.443E-01    0.123E-01
DAV:   3    -0.101066641605E+03    0.53586E-04   -0.51192E-04   108   0.862E-02    0.699E-02
DAV:   4    -0.101066652427E+03   -0.10822E-04   -0.17612E-04   120   0.495E-02    0.179E-02
DAV:   5    -0.101066647527E+03    0.49000E-05   -0.35026E-05   120   0.217E-02    0.947E-03
DAV:   6    -0.101066647296E+03    0.23092E-06   -0.53015E-06   132   0.766E-03
  19 F= -.10106665E+03 E0= -.10106665E+03  d E =-.216225E-10
       N       E                     dE             d eps       ncg     rms          rms(c)
DAV:   1    -0.101065668497E+03    0.97903E-03   -0.16914E-01    96   0.124E+00    0.169E-01
DAV:   2    -0.101066706502E+03   -0.10380E-02   -0.11036E-02   132   0.354E-01    0.908E-02
DAV:   3    -0.101066668634E+03    0.37867E-04   -0.33394E-04   144   0.717E-02    0.491E-02
DAV:   4    -0.101066679655E+03   -0.11021E-04   -0.11888E-04   108   0.416E-02    0.117E-02
DAV:   5    -0.101066679069E+03    0.58571E-06   -0.24474E-05   132   0.185E-02    0.781E-03
DAV:   6    -0.101066679220E+03   -0.15120E-06   -0.36276E-06   132   0.648E-03
  20 F= -.10106668E+03 E0= -.10106668E+03  d E =-.112747E-10
       N       E                     dE             d eps       ncg     rms          rms(c)
DAV:   1    -0.101065055124E+03    0.16239E-02   -0.34317E-01    96   0.166E+00    0.216E-01
DAV:   2    -0.101066842158E+03   -0.17870E-02   -0.18755E-02   132   0.446E-01    0.130E-01
DAV:   3    -0.101066788083E+03    0.54075E-04   -0.54342E-04   144   0.905E-02    0.713E-02
DAV:   4    -0.101066798664E+03   -0.10581E-04   -0.20992E-04   108   0.539E-02    0.162E-02
DAV:   5    -0.101066792172E+03    0.64921E-05   -0.41315E-05   132   0.237E-02    0.102E-02
DAV:   6    -0.101066791990E+03    0.18198E-06   -0.70487E-06   120   0.844E-03
  21 F= -.10106679E+03 E0= -.10106679E+03  d E =-.146621E-10
       N       E                     dE             d eps       ncg     rms          rms(c)
DAV:   1    -0.101065229771E+03    0.15624E-02   -0.16835E-01    96   0.113E+00    0.170E-01
DAV:   2    -0.101065961746E+03   -0.73198E-03   -0.78998E-03   120   0.288E-01    0.777E-02
DAV:   3    -0.101065950527E+03    0.11219E-04   -0.25934E-04   120   0.593E-02    0.408E-02
DAV:   4    -0.101065963799E+03   -0.13272E-04   -0.62937E-05   108   0.295E-02    0.110E-02
DAV:   5    -0.101065965444E+03   -0.16441E-05   -0.12003E-05   120   0.131E-02    0.597E-03
DAV:   6    -0.101065967438E+03   -0.19944E-05   -0.24961E-06   108   0.526E-03    0.371E-03
DAV:   7    -0.101065971524E+03   -0.40861E-05   -0.35495E-07   108   0.208E-03    0.121E-03
DAV:   8    -0.101065975219E+03   -0.36945E-05   -0.29836E-07    84   0.186E-03    0.605E-04
DAV:   9    -0.101065979836E+03   -0.46176E-05   -0.26442E-07    96   0.170E-03    0.375E-04
DAV:  10    -0.101065983402E+03   -0.35655E-05   -0.25303E-07    84   0.133E-03    0.375E-04
DAV:  11    -0.101065984593E+03   -0.11909E-05   -0.39850E-08   108   0.712E-04    0.221E-04
DAV:  12    -0.101065986032E+03   -0.14399E-05   -0.38781E-08    84   0.506E-04    0.935E-05
DAV:  13    -0.101065986853E+03   -0.82016E-06   -0.15048E-08    96   0.302E-04
  22 F= -.10106599E+03 E0= -.10106599E+03  d E =-.111764E-10
       N       E                     dE             d eps       ncg     rms          rms(c)
DAV:   1    -0.101064211779E+03    0.17743E-02   -0.34135E-01    96   0.164E+00    0.263E-01
DAV:   2    -0.101066278763E+03   -0.20670E-02   -0.22270E-02   108   0.474E-01    0.156E-01
DAV:   3    -0.101066131409E+03    0.14735E-03   -0.60378E-04   132   0.963E-02    0.824E-02
DAV:   4    -0.101066130667E+03    0.74198E-06   -0.36177E-04   120   0.654E-02    0.170E-02
DAV:   5    -0.101066122973E+03    0.76942E-05   -0.58727E-05   132   0.271E-02    0.116E-02
DAV:   6    -0.101066123891E+03   -0.91801E-06   -0.97422E-06   108   0.876E-03
  23 F= -.10106612E+03 E0= -.10106612E+03  d E =-.130943E-10
       N       E                     dE             d eps       ncg     rms          rms(c)
DAV:   1    -0.101066308591E+03   -0.18562E-03   -0.17039E-01    96   0.115E+00    0.175E-01
DAV:   2    -0.101067175445E+03   -0.86685E-03   -0.91713E-03   132   0.315E-01    0.929E-02
DAV:   3    -0.101067154709E+03    0.20736E-04   -0.28144E-04   120   0.645E-02    0.494E-02
DAV:   4    -0.101067182513E+03   -0.27804E-04   -0.11338E-04   108   0.382E-02    0.115E-02
DAV:   5    -0.101067185995E+03   -0.34816E-05   -0.19583E-05   132   0.161E-02    0.738E-03
DAV:   6    -0.101067187763E+03   -0.17682E-05   -0.31361E-06   132   0.586E-03    0.469E-03
DAV:   7    -0.101067190885E+03   -0.31217E-05   -0.45337E-07    84   0.276E-03    0.142E-03
DAV:   8    -0.101067193067E+03   -0.21825E-05   -0.23929E-07   108   0.197E-03    0.498E-04
DAV:   9    -0.101067195824E+03   -0.27564E-05   -0.17574E-07    84   0.159E-03    0.406E-04
DAV:  10    -0.101067198069E+03   -0.22459E-05   -0.15192E-07    96   0.122E-03    0.271E-04
DAV:  11    -0.101067198860E+03   -0.79073E-06   -0.33688E-08   108   0.660E-04
  24 F= -.10106720E+03 E0= -.10106720E+03  d E =-.102864E-10
       N       E                     dE             d eps       ncg     rms          rms(c)
DAV:   1    -0.101065907135E+03    0.12909E-02   -0.34469E-01    96   0.165E+00    0.203E-01
DAV:   2    -0.101067248019E+03   -0.13409E-02   -0.14300E-02   120   0.390E-01    0.104E-01
DAV:   3    -0.101067238395E+03    0.96235E-05   -0.47557E-04   144   0.807E-02    0.541E-02
DAV:   4    -0.101067252031E+03   -0.13636E-04   -0.98700E-05   120   0.392E-02    0.156E-02
DAV:   5    -0.101067249440E+03    0.25912E-05   -0.19261E-05   132   0.179E-02    0.761E-03
DAV:   6    -0.101067251249E+03   -0.18088E-05   -0.60008E-06   132   0.845E-03    0.404E-03
DAV:   7    -0.101067255894E+03   -0.46455E-05   -0.63673E-07   108   0.292E-03    0.154E-03
DAV:   8    -0.101067261016E+03   -0.51214E-05   -0.29230E-07   108   0.212E-03    0.658E-04
DAV:   9    -0.101067266870E+03   -0.58545E-05   -0.30346E-07   108   0.208E-03    0.517E-04
DAV:  10    -0.101067274138E+03   -0.72674E-05   -0.57529E-07    84   0.224E-03    0.279E-04
DAV:  11    -0.101067275757E+03   -0.16197E-05   -0.12376E-07   108   0.122E-03    0.254E-04
DAV:  12    -0.101067276753E+03   -0.99565E-06   -0.20306E-08   108   0.475E-04
  25 F= -.10106728E+03 E0= -.10106728E+03  d E =-.121214E-10
       N       E                     dE             d eps       ncg     rms          rms(c)
DAV:   1    -0.101064907798E+03    0.23680E-02   -0.15571E-01    96   0.119E+00    0.149E-01
DAV:   2    -0.101065955443E+03   -0.10476E-02   -0.11098E-02   120   0.339E-01    0.101E-01
DAV:   3    -0.101065923087E+03    0.32356E-04   -0.26655E-04   132   0.623E-02    0.548E-02
DAV:   4    -0.101065912937E+03    0.10150E-04   -0.97328E-05   108   0.377E-02    0.942E-03
DAV:   5    -0.101065907796E+03    0.51408E-05   -0.19589E-05   132   0.164E-02    0.687E-03
DAV:   6    -0.101065907337E+03    0.45882E-06   -0.39218E-06   132   0.681E-03
  26 F= -.10106591E+03 E0= -.10106591E+03  d E =-.135085E-10
       N       E                     dE             d eps       ncg     rms          rms(c)
DAV:   1    -0.101063578484E+03    0.23293E-02   -0.34338E-01    96   0.161E+00    0.240E-01
DAV:   2    -0.101065649438E+03   -0.20710E-02   -0.20968E-02   132   0.465E-01    0.161E-01
DAV:   3    -0.101065611592E+03    0.37846E-04   -0.53631E-04   132   0.868E-02    0.807E-02
DAV:   4    -0.101065599045E+03    0.12547E-04   -0.24567E-04   108   0.531E-02    0.150E-02
DAV:   5    -0.101065586275E+03    0.12770E-04   -0.30509E-05   132   0.199E-02    0.100E-02
DAV:   6    -0.101065589220E+03   -0.29448E-05   -0.12676E-05   132   0.107E-02    0.538E-03
DAV:   7    -0.101065608855E+03   -0.19635E-04   -0.36300E-06   132   0.609E-03    0.200E-03
DAV:   8    -0.101065627713E+03   -0.18858E-04   -0.14484E-06   120   0.340E-03    0.122E-03
DAV:   9    -0.101065652723E+03   -0.25010E-04   -0.26750E-06    96   0.363E-03    0.953E-04
DAV:  10    -0.101065667129E+03   -0.14406E-04   -0.12066E-06   108   0.236E-03    0.531E-04
DAV:  11    -0.101065675252E+03   -0.81228E-05   -0.43725E-07    84   0.140E-03    0.295E-04
DAV:  12    -0.101065679833E+03   -0.45807E-05   -0.24049E-07    96   0.944E-04    0.168E-04
DAV:  13    -0.101065681836E+03   -0.20029E-05   -0.68347E-08    84   0.545E-04    0.101E-04
DAV:  14    -0.101065682763E+03   -0.92764E-06   -0.10814E-08   108   0.312E-04
  27 F= -.10106568E+03 E0= -.10106568E+03  d E =-.119301E-10
       N       E                     dE             d eps       ncg     rms          rms(c)
DAV:   1    -0.101065870566E+03   -0.18873E-03   -0.17017E-01    96   0.112E+00    0.179E-01
DAV:   2    -0.101066821770E+03   -0.95120E-03   -0.98888E-03   108   0.305E-01    0.104E-01
DAV:   3    -0.101066789000E+03    0.32770E-04   -0.26927E-04   144   0.612E-02    0.541E-02
DAV:   4    -0.101066789347E+03   -0.34728E-06   -0.12382E-04   108   0.410E-02    0.108E-02
DAV:   5    -0.101066785018E+03    0.43295E-05   -0.26961E-05   144   0.187E-02    0.777E-03
DAV:   6    -0.101066784560E+03    0.45743E-06   -0.49163E-06   108   0.665E-03
  28 F= -.10106678E+03 E0= -.10106678E+03  d E =-.966385E-11
       N       E                     dE             d eps       ncg     rms          rms(c)
DAV:   1    -0.101065852504E+03    0.93251E-03   -0.33242E-01    96   0.148E+00    0.238E-01
DAV:   2    -0.101067274847E+03   -0.14223E-02   -0.14578E-02   132   0.362E-01    0.115E-01
DAV:   3    -0.101067285173E+03   -0.10326E-04   -0.48460E-04   108   0.797E-02    0.609E-02
DAV:   4    -0.101067315207E+03   -0.30033E-04   -0.13354E-04   144   0.488E-02    0.131E-02
DAV:   5    -0.101067315666E+03   -0.45875E-06   -0.41448E-05   144   0.237E-02    0.953E-03
DAV:   6    -0.101067316653E+03   -0.98689E-06   -0.54708E-06   132   0.721E-03
  29 F= -.10106732E+03 E0= -.10106732E+03  d E =-.227599E-10
       N       E                     dE             d eps       ncg     rms          rms(c)
DAV:   1    -0.101064480552E+03    0.28351E-02   -0.17051E-01    96   0.111E+00    0.175E-01
DAV:   2    -0.101065374024E+03   -0.89347E-03   -0.92295E-03   132   0.299E-01    0.979E-02
DAV:   3    -0.101065355182E+03    0.18842E-04   -0.26466E-04   108   0.615E-02    0.499E-02
DAV:   4    -0.101065371751E+03   -0.16569E-04   -0.11634E-04   132   0.408E-02    0.106E-02
DAV:   5    -0.101065371026E+03    0.72526E-06   -0.25775E-05   132   0.181E-02    0.765E-03
DAV:   6    -0.101065372280E+03   -0.12543E-05   -0.45549E-06   132   0.623E-03    0.436E-03
DAV:   7    -0.101065376513E+03   -0.42324E-05   -0.78245E-07   108   0.317E-03    0.176E-03
DAV:   8    -0.101065382614E+03   -0.61013E-05   -0.58133E-07    84   0.262E-03    0.716E-04
DAV:   9    -0.101065388727E+03   -0.61125E-05   -0.36426E-07    96   0.179E-03    0.713E-04
DAV:  10    -0.101065396530E+03   -0.78036E-05   -0.39212E-07    84   0.160E-03    0.261E-04
DAV:  11    -0.101065399158E+03   -0.26280E-05   -0.97924E-08   108   0.869E-04    0.205E-04
DAV:  12    -0.101065402035E+03   -0.28766E-05   -0.57554E-08    84   0.573E-04    0.116E-04
DAV:  13    -0.101065403837E+03   -0.18023E-05   -0.42440E-08    96   0.434E-04    0.940E-05
DAV:  14    -0.101065404956E+03   -0.11187E-05   -0.12175E-08    84   0.269E-04    0.481E-05
DAV:  15    -0.101065405456E+03   -0.49987E-06    0.43219E-10    96   0.164E-04
  30 F= -.10106541E+03 E0= -.10106541E+03  d E =-.980022E-11
       N       E                     dE             d eps       ncg     rms          rms(c)
DAV:   1    -0.101063132464E+03    0.22725E-02   -0.35030E-01    96   0.159E+00    0.256E-01
DAV:   2    -0.101065515952E+03   -0.23835E-02   -0.24541E-02   120   0.494E-01    0.176E-01
DAV:   3    -0.101065401257E+03    0.11470E-03   -0.60907E-04   144   0.964E-02    0.909E-02
DAV:   4    -0.101065400231E+03    0.10258E-05   -0.38840E-04   120   0.689E-02    0.171E-02
DAV:   5    -0.101065391886E+03    0.83450E-05   -0.75482E-05   132   0.294E-02    0.124E-02
DAV:   6    -0.101065398364E+03   -0.64784E-05   -0.18353E-05   120   0.111E-02    0.719E-03
DAV:   7    -0.101065422275E+03   -0.23910E-04   -0.28294E-06   132   0.524E-03    0.288E-03
DAV:   8    -0.101065455877E+03   -0.33603E-04   -0.39783E-06    96   0.503E-03    0.132E-03
DAV:   9    -0.101065479229E+03   -0.23351E-04   -0.23372E-06   108   0.346E-03    0.161E-03
DAV:  10    -0.101065502184E+03   -0.22955E-04   -0.21675E-06    96   0.317E-03    0.413E-04
DAV:  11    -0.101065508127E+03   -0.59433E-05   -0.25772E-07   108   0.132E-03    0.360E-04
DAV:  12    -0.101065514392E+03   -0.62651E-05   -0.26827E-07    84   0.109E-03    0.182E-04
DAV:  13    -0.101065516788E+03   -0.23954E-05   -0.87078E-08    96   0.614E-04    0.136E-04
DAV:  14    -0.101065518463E+03   -0.16748E-05   -0.29488E-08    84   0.419E-04    0.559E-05
DAV:  15    -0.101065519076E+03   -0.61371E-06   -0.42039E-09   108   0.223E-04
  31 F= -.10106552E+03 E0= -.10106552E+03  d E =-.137780E-10
       N       E                     dE             d eps       ncg     rms          rms(c)
DAV:   1    -0.101064659341E+03    0.85912E-03   -0.18564E-01    96   0.136E+00    0.168E-01
DAV:   2    -0.101065981349E+03   -0.13220E-02   -0.14107E-02   108   0.410E-01    0.114E-01
DAV:   3    -0.101065925842E+03    0.55507E-04   -0.24665E-04   156   0.619E-02    0.671E-02
DAV:   4    -0.101065916996E+03    0.88451E-05   -0.16763E-04   120   0.489E-02    0.102E-02
DAV:   5    -0.101065912364E+03    0.46326E-05   -0.44721E-05   132   0.235E-02    0.741E-03
DAV:   6    -0.101065910841E+03    0.15233E-05   -0.63213E-06   132   0.794E-03    0.498E-03
DAV:   7    -0.101065917856E+03   -0.70154E-05   -0.20408E-06   120   0.473E-03    0.184E-03
DAV:   8    -0.101065930289E+03   -0.12433E-04   -0.10623E-06    96   0.339E-03    0.930E-04
DAV:   9    -0.101065940338E+03   -0.10050E-04   -0.59888E-07    96   0.217E-03    0.103E-03
DAV:  10    -0.101065950767E+03   -0.10429E-04   -0.53196E-07    84   0.170E-03    0.275E-04
DAV:  11    -0.101065955297E+03   -0.45300E-05   -0.16974E-07   108   0.913E-04    0.233E-04
DAV:  12    -0.101065958906E+03   -0.36088E-05   -0.82252E-08    84   0.637E-04    0.122E-04
DAV:  13    -0.101065960132E+03   -0.12262E-05   -0.20262E-08   108   0.340E-04    0.780E-05
DAV:  14    -0.101065961385E+03   -0.12530E-05   -0.13112E-08    84   0.291E-04    0.320E-05
DAV:  15    -0.101065961743E+03   -0.35733E-06    0.78975E-10   108   0.152E-04
  32 F= -.10106596E+03 E0= -.10106596E+03  d E =-.113571E-10
       N       E                     dE             d eps       ncg     rms          rms(c)
DAV:   1    -0.101064893761E+03    0.10676E-02   -0.41120E-01   108   0.191E+00    0.217E-01
DAV:   2    -0.101066269980E+03   -0.13762E-02   -0.16952E-02   108   0.435E-01    0.123E-01
DAV:   3    -0.101066157050E+03    0.11293E-03   -0.29332E-04   132   0.628E-02    0.618E-02
DAV:   4    -0.101066101326E+03    0.55723E-04   -0.11450E-04   108   0.413E-02    0.112E-02
DAV:   5    -0.101066097119E+03    0.42072E-05   -0.24357E-05   132   0.185E-02    0.706E-03
DAV:   6    -0.101066110262E+03   -0.13142E-04   -0.99034E-06   132   0.940E-03    0.393E-03
DAV:   7    -0.101066133469E+03   -0.23208E-04   -0.18199E-06    96   0.441E-03    0.206E-03
DAV:   8    -0.101066168345E+03   -0.34876E-04   -0.36253E-06    96   0.445E-03    0.115E-03
DAV:   9    -0.101066190519E+03   -0.22174E-04   -0.16898E-06   108   0.302E-03    0.789E-04
DAV:  10    -0.101066209845E+03   -0.19325E-04   -0.16446E-06    96   0.261E-03    0.346E-04
DAV:  11    -0.101066217164E+03   -0.73195E-05   -0.28017E-07    96   0.125E-03    0.295E-04
DAV:  12    -0.101066223044E+03   -0.58794E-05   -0.31930E-07    84   0.112E-03    0.123E-04
DAV:  13    -0.101066224358E+03   -0.13147E-05   -0.35191E-08   108   0.448E-04    0.877E-05
DAV:  14    -0.101066225576E+03   -0.12172E-05   -0.13416E-08    84   0.325E-04    0.467E-05
DAV:  15    -0.101066226113E+03   -0.53706E-06   -0.38049E-09    96   0.215E-04
  33 F= -.10106623E+03 E0= -.10106623E+03  d E =-.964308E-11
       N       E                     dE             d eps       ncg     rms          rms(c)
DAV:   1    -0.101065988901E+03    0.23667E-03   -0.20131E-01    96   0.133E+00    0.152E-01
DAV:   2    -0.101066760959E+03   -0.77206E-03   -0.93986E-03   108   0.329E-01    0.932E-02
DAV:   3    -0.101066693092E+03    0.67867E-04   -0.14226E-04   132   0.450E-02    0.485E-02
DAV:   4    -0.101066660077E+03    0.33015E-04   -0.73948E-05   108   0.321E-02    0.782E-03
DAV:   5    -0.101066654783E+03    0.52948E-05   -0.15954E-05   132   0.149E-02    0.531E-03
DAV:   6    -0.101066661019E+03   -0.62363E-05   -0.55442E-06   132   0.640E-03    0.272E-03
DAV:   7    -0.101066674306E+03   -0.13287E-04   -0.60011E-07    84   0.229E-03    0.140E-03
DAV:   8    -0.101066696311E+03   -0.22004E-04   -0.25248E-06   108   0.336E-03    0.986E-04
DAV:   9    -0.101066711250E+03   -0.14940E-04   -0.85928E-07    84   0.214E-03    0.499E-04
DAV:  10    -0.101066721977E+03   -0.10727E-04   -0.91837E-07   108   0.175E-03    0.300E-04
DAV:  11    -0.101066727798E+03   -0.58209E-05   -0.20400E-07    84   0.103E-03    0.212E-04
DAV:  12    -0.101066729924E+03   -0.21259E-05   -0.66759E-08   108   0.560E-04    0.132E-04
DAV:  13    -0.101066731326E+03   -0.14023E-05   -0.20265E-08    84   0.355E-04    0.578E-05
DAV:  14    -0.101066732206E+03   -0.87998E-06   -0.75346E-09    96   0.261E-04
  34 F= -.10106673E+03 E0= -.10106673E+03  d E =-.105710E-10
       N       E                     dE             d eps       ncg     rms          rms(c)
DAV:   1    -0.101064962344E+03    0.17690E-02   -0.40504E-01    96   0.188E+00    0.221E-01
DAV:   2    -0.101066387610E+03   -0.14253E-02   -0.17305E-02   108   0.431E-01    0.114E-01
DAV:   3    -0.101066296514E+03    0.91096E-04   -0.30963E-04   132   0.643E-02    0.593E-02
DAV:   4    -0.101066253971E+03    0.42543E-04   -0.10545E-04   132   0.415E-02    0.114E-02
DAV:   5    -0.101066243629E+03    0.10342E-04   -0.24590E-05   132   0.195E-02    0.785E-03
DAV:   6    -0.101066245630E+03   -0.20013E-05   -0.66928E-06   132   0.842E-03    0.467E-03
DAV:   7    -0.101066256630E+03   -0.10999E-04   -0.11308E-06   108   0.452E-03    0.198E-03
DAV:   8    -0.101066274486E+03   -0.17856E-04   -0.18112E-06    96   0.440E-03    0.143E-03
DAV:   9    -0.101066295225E+03   -0.20739E-04   -0.13856E-06   120   0.332E-03    0.750E-04
DAV:  10    -0.101066306829E+03   -0.11604E-04   -0.50645E-07    84   0.190E-03    0.484E-04
DAV:  11    -0.101066313600E+03   -0.67713E-05   -0.17750E-07   108   0.106E-03    0.287E-04
DAV:  12    -0.101066321095E+03   -0.74954E-05   -0.25659E-07    84   0.105E-03    0.227E-04
DAV:  13    -0.101066322614E+03   -0.15192E-05   -0.24813E-08   108   0.432E-04    0.144E-04
DAV:  14    -0.101066325114E+03   -0.24993E-05   -0.45260E-08    96   0.445E-04    0.575E-05
DAV:  15    -0.101066325696E+03   -0.58253E-06   -0.16759E-09   108   0.209E-04
  35 F= -.10106633E+03 E0= -.10106633E+03  d E =-.107426E-10
       N       E                     dE             d eps       ncg     rms          rms(c)
DAV:   1    -0.101066301468E+03    0.23646E-04   -0.20208E-01    96   0.137E+00    0.155E-01
DAV:   2    -0.101067010856E+03   -0.70939E-03   -0.88333E-03    96   0.311E-01    0.849E-02
DAV:   3    -0.101066951402E+03    0.59454E-04   -0.14811E-04   144   0.441E-02    0.437E-02
DAV:   4    -0.101066910516E+03    0.40885E-04   -0.46221E-05   108   0.248E-02    0.824E-03
DAV:   5    -0.101066906222E+03    0.42939E-05   -0.62212E-06   132   0.108E-02    0.466E-03
DAV:   6    -0.101066917284E+03   -0.11061E-04   -0.45113E-06   120   0.810E-03    0.219E-03
DAV:   7    -0.101066934724E+03   -0.17441E-04   -0.26102E-06    96   0.531E-03    0.154E-03
DAV:   8    -0.101066955006E+03   -0.20281E-04   -0.13640E-06    96   0.310E-03    0.792E-04
DAV:   9    -0.101066971470E+03   -0.16464E-04   -0.14085E-06    96   0.268E-03    0.532E-04
DAV:  10    -0.101066983249E+03   -0.11779E-04   -0.10159E-06   108   0.212E-03    0.244E-04
DAV:  11    -0.101066988563E+03   -0.53139E-05   -0.29387E-07    84   0.124E-03    0.200E-04
DAV:  12    -0.101066990497E+03   -0.19338E-05   -0.71946E-08    96   0.576E-04    0.103E-04
DAV:  13    -0.101066991814E+03   -0.13172E-05   -0.42201E-08    84   0.444E-04    0.473E-05
DAV:  14    -0.101066992310E+03   -0.49596E-06   -0.53146E-09   108   0.249E-04
  36 F= -.10106699E+03 E0= -.10106699E+03  d E =-.111358E-10
       N       E                     dE             d eps       ncg     rms          rms(c)
DAV:   1    -0.101065239485E+03    0.17523E-02   -0.40907E-01    96   0.190E+00    0.220E-01
DAV:   2    -0.101066613113E+03   -0.13736E-02   -0.16694E-02   108   0.423E-01    0.106E-01
DAV:   3    -0.101066529846E+03    0.83267E-04   -0.30661E-04   132   0.623E-02    0.551E-02
DAV:   4    -0.101066485977E+03    0.43869E-04   -0.89207E-05   132   0.375E-02    0.118E-02
DAV:   5    -0.101066475780E+03    0.10197E-04   -0.20969E-05   132   0.185E-02    0.726E-03
DAV:   6    -0.101066478002E+03   -0.22217E-05   -0.57913E-06   132   0.896E-03    0.416E-03
DAV:   7    -0.101066490010E+03   -0.12009E-04   -0.14474E-06    84   0.578E-03    0.161E-03
DAV:   8    -0.101066505875E+03   -0.15865E-04   -0.16178E-06   120   0.467E-03    0.138E-03
DAV:   9    -0.101066529313E+03   -0.23438E-04   -0.16280E-06    96   0.358E-03    0.524E-04
DAV:  10    -0.101066538443E+03   -0.91302E-05   -0.37367E-07    96   0.176E-03    0.460E-04
DAV:  11    -0.101066546952E+03   -0.85085E-05   -0.24042E-07    84   0.116E-03    0.213E-04
DAV:  12    -0.101066552528E+03   -0.55757E-05   -0.15786E-07    96   0.835E-04    0.153E-04
DAV:  13    -0.101066555494E+03   -0.29665E-05   -0.43689E-08    84   0.491E-04    0.669E-05
DAV:  14    -0.101066557053E+03   -0.15585E-05   -0.24061E-08   108   0.335E-04    0.562E-05
DAV:  15    -0.101066557995E+03   -0.94195E-06   -0.47622E-09    84   0.238E-04
  37 F= -.10106656E+03 E0= -.10106656E+03  d E =-.994841E-11
       N       E                     dE             d eps       ncg     rms          rms(c)
DAV:   1    -0.101064767886E+03    0.17892E-02   -0.20254E-01   120   0.138E+00    0.157E-01
DAV:   2    -0.101065769944E+03   -0.10021E-02   -0.12081E-02   108   0.352E-01    0.858E-02
DAV:   3    -0.101065726764E+03    0.43180E-04   -0.20417E-04   132   0.483E-02    0.495E-02
DAV:   4    -0.101065691093E+03    0.35671E-04   -0.70123E-05   132   0.324E-02    0.867E-03
DAV:   5    -0.101065685076E+03    0.60174E-05   -0.16063E-05   132   0.150E-02    0.567E-03
DAV:   6    -0.101065688625E+03   -0.35493E-05   -0.48193E-06   132   0.780E-03    0.298E-03
DAV:   7    -0.101065700651E+03   -0.12026E-04   -0.12270E-06   108   0.441E-03    0.143E-03
DAV:   8    -0.101065719436E+03   -0.18786E-04   -0.16730E-06    96   0.379E-03    0.940E-04
DAV:   9    -0.101065735023E+03   -0.15587E-04   -0.10737E-06   108   0.275E-03    0.605E-04
DAV:  10    -0.101065745597E+03   -0.10574E-04   -0.50708E-07    84   0.167E-03    0.307E-04
DAV:  11    -0.101065750847E+03   -0.52501E-05   -0.22902E-07    96   0.964E-04    0.223E-04
DAV:  12    -0.101065755677E+03   -0.48295E-05   -0.18957E-07    84   0.877E-04    0.983E-05
DAV:  13    -0.101065757117E+03   -0.14400E-05   -0.39006E-08    96   0.428E-04    0.758E-05
DAV:  14    -0.101065758312E+03   -0.11950E-05   -0.17261E-08    84   0.308E-04    0.352E-05
DAV:  15    -0.101065758744E+03   -0.43212E-06   -0.25864E-09    96   0.199E-04
  38 F= -.10106576E+03 E0= -.10106576E+03  d E =-.667996E-11
       N       E                     dE             d eps       ncg     rms          rms(c)
DAV:   1    -0.101064850620E+03    0.90769E-03   -0.41295E-01   108   0.187E+00    0.219E-01
DAV:   2    -0.101066209372E+03   -0.13588E-02   -0.16933E-02   108   0.438E-01    0.123E-01
DAV:   3    -0.101066094861E+03    0.11451E-03   -0.26939E-04   132   0.594E-02    0.629E-02
DAV:   4    -0.101066035260E+03    0.59601E-04   -0.11660E-04   108   0.418E-02    0.108E-02
DAV:   5    -0.101066031770E+03    0.34906E-05   -0.27404E-05   132   0.193E-02    0.702E-03
DAV:   6    -0.101066045039E+03   -0.13269E-04   -0.99682E-06   132   0.903E-03    0.412E-03
DAV:   7    -0.101066068563E+03   -0.23524E-04   -0.14898E-06    96   0.380E-03    0.213E-03
DAV:   8    -0.101066105847E+03   -0.37284E-04   -0.39979E-06   108   0.447E-03    0.120E-03
DAV:   9    -0.101066130449E+03   -0.24602E-04   -0.19208E-06   120   0.312E-03    0.796E-04
DAV:  10    -0.101066149405E+03   -0.18956E-04   -0.15085E-06    96   0.252E-03    0.367E-04
DAV:  11    -0.101066157671E+03   -0.82660E-05   -0.29629E-07    96   0.128E-03    0.286E-04
DAV:  12    -0.101066163601E+03   -0.59299E-05   -0.31007E-07    84   0.109E-03    0.175E-04
DAV:  13    -0.101066165098E+03   -0.14971E-05   -0.33296E-08   108   0.448E-04    0.980E-05
DAV:  14    -0.101066166447E+03   -0.13485E-05   -0.16043E-08    84   0.350E-04    0.604E-05
DAV:  15    -0.101066166989E+03   -0.54195E-06   -0.27150E-09   108   0.212E-04
  39 F= -.10106617E+03 E0= -.10106617E+03  d E =-.210468E-10
       N       E                     dE             d eps       ncg     rms          rms(c)
DAV:   1    -0.101065344352E+03    0.82209E-03   -0.20500E-01   108   0.137E+00    0.154E-01
DAV:   2    -0.101066009488E+03   -0.66514E-03   -0.82264E-03   108   0.300E-01    0.767E-02
DAV:   3    -0.101065964941E+03    0.44547E-04   -0.13360E-04   132   0.410E-02    0.400E-02
DAV:   4    -0.101065936657E+03    0.28284E-04   -0.42287E-05   132   0.260E-02    0.785E-03
DAV:   5    -0.101065930370E+03    0.62866E-05   -0.10853E-05   132   0.129E-02    0.468E-03
DAV:   6    -0.101065931635E+03   -0.12643E-05   -0.35786E-06   132   0.652E-03    0.259E-03
DAV:   7    -0.101065938622E+03   -0.69877E-05   -0.83718E-07   108   0.388E-03    0.135E-03
DAV:   8    -0.101065950829E+03   -0.12206E-04   -0.10755E-06    96   0.336E-03    0.881E-04
DAV:   9    -0.101065962451E+03   -0.11622E-04   -0.65563E-07    96   0.235E-03    0.586E-04
DAV:  10    -0.101065971901E+03   -0.94497E-05   -0.45075E-07    84   0.153E-03    0.284E-04
DAV:  11    -0.101065978061E+03   -0.61605E-05   -0.15819E-07   108   0.869E-04    0.200E-04
DAV:  12    -0.101065982038E+03   -0.39766E-05   -0.79632E-08    84   0.614E-04    0.101E-04
DAV:  13    -0.101065983941E+03   -0.19031E-05   -0.31171E-08    96   0.379E-04    0.603E-05
DAV:  14    -0.101065985173E+03   -0.12325E-05   -0.85586E-09    84   0.263E-04    0.368E-05
DAV:  15    -0.101065985532E+03   -0.35871E-06    0.14479E-09   108   0.144E-04
  40 F= -.10106599E+03 E0= -.10106599E+03  d E =-.149766E-10
       N       E                     dE             d eps       ncg     rms          rms(c)
DAV:   1    -0.101065236718E+03    0.74846E-03   -0.40488E-01    96   0.192E+00    0.220E-01
DAV:   2    -0.101066616577E+03   -0.13799E-02   -0.17300E-02   108   0.437E-01    0.114E-01
DAV:   3    -0.101066514028E+03    0.10255E-03   -0.27091E-04   144   0.593E-02    0.586E-02
DAV:   4    -0.101066439096E+03    0.74931E-04   -0.83045E-05   132   0.350E-02    0.114E-02
DAV:   5    -0.101066435408E+03    0.36881E-05   -0.14707E-05   132   0.161E-02    0.658E-03
DAV:   6    -0.101066456032E+03   -0.20624E-04   -0.87106E-06   132   0.105E-02    0.328E-03
DAV:   7    -0.101066485524E+03   -0.29491E-04   -0.42666E-06   132   0.687E-03    0.222E-03
DAV:   8    -0.101066519031E+03   -0.33508E-04   -0.25863E-06   108   0.401E-03    0.111E-03
DAV:   9    -0.101066545821E+03   -0.26790E-04   -0.25199E-06    96   0.357E-03    0.854E-04
DAV:  10    -0.101066567278E+03   -0.21457E-04   -0.21604E-06   108   0.302E-03    0.320E-04
DAV:  11    -0.101066574691E+03   -0.74128E-05   -0.37892E-07    84   0.147E-03    0.302E-04
DAV:  12    -0.101066578561E+03   -0.38694E-05   -0.14122E-07   108   0.812E-04    0.130E-04
DAV:  13    -0.101066580542E+03   -0.19811E-05   -0.67269E-08    84   0.536E-04    0.699E-05
DAV:  14    -0.101066581494E+03   -0.95240E-06   -0.11434E-08   108   0.309E-04
  41 F= -.10106658E+03 E0= -.10106658E+03  d E =-.885994E-11
       N       E                     dE             d eps       ncg     rms          rms(c)
DAV:   1    -0.101066356121E+03    0.22442E-03   -0.20481E-01   120   0.134E+00    0.150E-01
DAV:   2    -0.101067016150E+03   -0.66003E-03   -0.79631E-03   108   0.287E-01    0.696E-02
DAV:   3    -0.101066986823E+03    0.29327E-04   -0.14315E-04   120   0.430E-02    0.370E-02
DAV:   4    -0.101066971871E+03    0.14952E-04   -0.40876E-05   108   0.293E-02    0.725E-03
DAV:   5    -0.101066969163E+03    0.27078E-05   -0.15258E-05   132   0.146E-02    0.570E-03
DAV:   6    -0.101066969742E+03   -0.57879E-06   -0.23321E-06   108   0.497E-03
  42 F= -.10106697E+03 E0= -.10106697E+03  d E =-.641186E-11
       N       E                     dE             d eps       ncg     rms          rms(c)
DAV:   1    -0.101066102845E+03    0.86632E-03   -0.41378E-01   120   0.183E+00    0.188E-01
DAV:   2    -0.101067367758E+03   -0.12649E-02   -0.15184E-02    96   0.381E-01    0.913E-02
DAV:   3    -0.101067331575E+03    0.36183E-04   -0.29646E-04   144   0.611E-02    0.482E-02
DAV:   4    -0.101067311850E+03    0.19725E-04   -0.73038E-05   132   0.392E-02    0.918E-03
DAV:   5    -0.101067309895E+03    0.19551E-05   -0.27191E-05   132   0.197E-02    0.752E-03
DAV:   6    -0.101067312189E+03   -0.22940E-05   -0.41381E-06   132   0.670E-03    0.498E-03
DAV:   7    -0.101067319450E+03   -0.72615E-05   -0.66537E-07   108   0.375E-03    0.203E-03
DAV:   8    -0.101067330023E+03   -0.10573E-04   -0.13089E-06   120   0.410E-03    0.130E-03
DAV:   9    -0.101067345424E+03   -0.15401E-04   -0.10554E-06    84   0.346E-03    0.705E-04
DAV:  10    -0.101067353539E+03   -0.81150E-05   -0.60655E-07   108   0.219E-03    0.771E-04
DAV:  11    -0.101067356574E+03   -0.30359E-05   -0.66676E-08   108   0.938E-04    0.513E-04
DAV:  12    -0.101067362957E+03   -0.63824E-05   -0.21704E-07    84   0.113E-03    0.285E-04
DAV:  13    -0.101067364792E+03   -0.18351E-05   -0.51729E-08    96   0.567E-04    0.370E-04
DAV:  14    -0.101067366265E+03   -0.14731E-05   -0.16332E-08    84   0.447E-04    0.862E-05
DAV:  15    -0.101067367253E+03   -0.98848E-06   -0.14834E-08    96   0.321E-04
  43 F= -.10106737E+03 E0= -.10106737E+03  d E =-.347427E-10
       N       E                     dE             d eps       ncg     rms          rms(c)
DAV:   1    -0.101066444806E+03    0.92146E-03   -0.19756E-01    96   0.126E+00    0.137E-01
DAV:   2    -0.101067204043E+03   -0.75924E-03   -0.92855E-03   120   0.285E-01    0.642E-02
DAV:   3    -0.101067177961E+03    0.26082E-04   -0.16378E-04   144   0.421E-02    0.355E-02
DAV:   4    -0.101067155196E+03    0.22765E-04   -0.31642E-05   108   0.241E-02    0.755E-03
DAV:   5    -0.101067151229E+03    0.39668E-05   -0.10251E-05   132   0.122E-02    0.505E-03
DAV:   6    -0.101067153716E+03   -0.24872E-05   -0.23396E-06   132   0.515E-03    0.334E-03
DAV:   7    -0.101067160614E+03   -0.68976E-05   -0.45203E-07    84   0.261E-03    0.135E-03
DAV:   8    -0.101067170212E+03   -0.95987E-05   -0.91987E-07   108   0.299E-03    0.974E-04
DAV:   9    -0.101067183079E+03   -0.12867E-04   -0.11399E-06    96   0.273E-03    0.599E-04
DAV:  10    -0.101067188776E+03   -0.56970E-05   -0.30002E-07    96   0.154E-03    0.550E-04
DAV:  11    -0.101067191024E+03   -0.22473E-05   -0.60129E-08   108   0.716E-04    0.275E-04
DAV:  12    -0.101067195122E+03   -0.40979E-05   -0.17635E-07    84   0.925E-04    0.260E-04
DAV:  13    -0.101067195775E+03   -0.65389E-06   -0.18254E-08   108   0.390E-04
  44 F= -.10106720E+03 E0= -.10106720E+03  d E =-.373072E-10
       N       E                     dE             d eps       ncg     rms          rms(c)
DAV:   1    -0.101065750918E+03    0.14442E-02   -0.41059E-01    96   0.162E+00    0.190E-01
DAV:   2    -0.101067129983E+03   -0.13791E-02   -0.16523E-02   132   0.353E-01    0.923E-02
DAV:   3    -0.101067063065E+03    0.66918E-04   -0.31439E-04   144   0.621E-02    0.479E-02
DAV:   4    -0.101067033071E+03    0.29994E-04   -0.80360E-05   144   0.386E-02    0.109E-02
DAV:   5    -0.101067029027E+03    0.40447E-05   -0.23380E-05   132   0.188E-02    0.693E-03
DAV:   6    -0.101067033181E+03   -0.41543E-05   -0.45386E-06   132   0.710E-03    0.437E-03
DAV:   7    -0.101067042325E+03   -0.91439E-05   -0.74840E-07    96   0.292E-03    0.182E-03
DAV:   8    -0.101067053698E+03   -0.11373E-04   -0.81736E-07   108   0.280E-03    0.957E-04
DAV:   9    -0.101067069203E+03   -0.15505E-04   -0.12562E-06    96   0.300E-03    0.607E-04
DAV:  10    -0.101067079189E+03   -0.99858E-05   -0.83769E-07   108   0.221E-03    0.550E-04
DAV:  11    -0.101067082475E+03   -0.32857E-05   -0.80383E-08   108   0.100E-03    0.258E-04
DAV:  12    -0.101067085982E+03   -0.35070E-05   -0.12425E-07    84   0.816E-04    0.225E-04
DAV:  13    -0.101067087603E+03   -0.16212E-05   -0.37886E-08    96   0.452E-04    0.142E-04
DAV:  14    -0.101067088869E+03   -0.12661E-05   -0.22530E-08    84   0.341E-04    0.505E-05
DAV:  15    -0.101067089415E+03   -0.54579E-06   -0.20155E-09    96   0.194E-04
  45 F= -.10106709E+03 E0= -.10106709E+03  d E =-.546739E-11
       N       E                     dE             d eps       ncg     rms          rms(c)
DAV:   1    -0.101065904977E+03    0.11839E-02   -0.19939E-01    96   0.115E+00    0.138E-01
DAV:   2    -0.101066654687E+03   -0.74971E-03   -0.92621E-03   132   0.262E-01    0.820E-02
DAV:   3    -0.101066593559E+03    0.61128E-04   -0.14844E-04   132   0.449E-02    0.403E-02
DAV:   4    -0.101066568033E+03    0.25526E-04   -0.61375E-05   108   0.295E-02    0.798E-03
DAV:   5    -0.101066561997E+03    0.60360E-05   -0.11140E-05   132   0.125E-02    0.502E-03
DAV:   6    -0.101066563486E+03   -0.14886E-05   -0.35270E-06   108   0.542E-03    0.242E-03
DAV:   7    -0.101066570652E+03   -0.71659E-05   -0.71852E-07   120   0.273E-03    0.123E-03
DAV:   8    -0.101066583004E+03   -0.12352E-04   -0.73896E-07    96   0.209E-03    0.721E-04
DAV:   9    -0.101066593884E+03   -0.10880E-04   -0.53613E-07   108   0.159E-03    0.503E-04
DAV:  10    -0.101066604769E+03   -0.10885E-04   -0.58091E-07    96   0.143E-03    0.283E-04
DAV:  11    -0.101066607861E+03   -0.30916E-05   -0.41208E-08   108   0.578E-04    0.182E-04
DAV:  12    -0.101066612121E+03   -0.42604E-05   -0.11722E-07    84   0.715E-04    0.930E-05
DAV:  13    -0.101066613139E+03   -0.10175E-05   -0.12528E-08   108   0.316E-04    0.735E-05
DAV:  14    -0.101066614086E+03   -0.94713E-06   -0.29138E-09    84   0.242E-04
  46 F= -.10106661E+03 E0= -.10106661E+03  d E =-.835598E-11
       N       E                     dE             d eps       ncg     rms          rms(c)
DAV:   1    -0.101065083324E+03    0.15298E-02   -0.39883E-01    96   0.164E+00    0.223E-01
DAV:   2    -0.101066574366E+03   -0.14910E-02   -0.18220E-02   120   0.366E-01    0.111E-01
DAV:   3    -0.101066469354E+03    0.10501E-03   -0.30687E-04   132   0.616E-02    0.585E-02
DAV:   4    -0.101066422178E+03    0.47177E-04   -0.11183E-04   108   0.396E-02    0.120E-02
DAV:   5    -0.101066414931E+03    0.72467E-05   -0.21732E-05   132   0.172E-02    0.666E-03
DAV:   6    -0.101066422725E+03   -0.77941E-05   -0.58677E-06   120   0.713E-03    0.359E-03
DAV:   7    -0.101066440499E+03   -0.17774E-04   -0.17005E-06   120   0.382E-03    0.163E-03
DAV:   8    -0.101066460656E+03   -0.20156E-04   -0.15091E-06    96   0.284E-03    0.948E-04
DAV:   9    -0.101066478359E+03   -0.17704E-04   -0.13493E-06   108   0.241E-03    0.666E-04
DAV:  10    -0.101066494497E+03   -0.16137E-04   -0.15693E-06    96   0.226E-03    0.328E-04
DAV:  11    -0.101066498226E+03   -0.37297E-05   -0.89369E-08   108   0.829E-04    0.219E-04
DAV:  12    -0.101066503106E+03   -0.48795E-05   -0.21776E-07    84   0.919E-04    0.125E-04
DAV:  13    -0.101066504484E+03   -0.13784E-05   -0.39688E-08   108   0.429E-04    0.861E-05
DAV:  14    -0.101066505502E+03   -0.10174E-05   -0.75509E-09    84   0.273E-04    0.393E-05
DAV:  15    -0.101066505934E+03   -0.43258E-06   -0.54950E-10   108   0.174E-04
  47 F= -.10106651E+03 E0= -.10106651E+03  d E =-.161983E-10
       N       E                     dE             d eps       ncg     rms          rms(c)
DAV:   1    -0.101066598003E+03   -0.92502E-04   -0.19842E-01    96   0.114E+00    0.146E-01
DAV:   2    -0.101067341087E+03   -0.74308E-03   -0.91726E-03   108   0.264E-01    0.805E-02
DAV:   3    -0.101067283398E+03    0.57689E-04   -0.15512E-04   132   0.445E-02    0.406E-02
DAV:   4    -0.101067258345E+03    0.25053E-04   -0.59138E-05   132   0.291E-02    0.810E-03
DAV:   5    -0.101067252397E+03    0.59482E-05   -0.11243E-05   132   0.127E-02    0.484E-03
DAV:   6    -0.101067253954E+03   -0.15577E-05   -0.32686E-06   132   0.528E-03    0.263E-03
DAV:   7    -0.101067261132E+03   -0.71779E-05   -0.59068E-07   108   0.264E-03    0.121E-03
DAV:   8    -0.101067272584E+03   -0.11452E-04   -0.78733E-07    96   0.222E-03    0.762E-04
DAV:   9    -0.101067283992E+03   -0.11408E-04   -0.58858E-07   108   0.173E-03    0.521E-04
DAV:  10    -0.101067293169E+03   -0.91778E-05   -0.40250E-07    96   0.131E-03    0.244E-04
DAV:  11    -0.101067296660E+03   -0.34911E-05   -0.89250E-08   108   0.674E-04    0.167E-04
DAV:  12    -0.101067300844E+03   -0.41834E-05   -0.12131E-07    84   0.696E-04    0.887E-05
DAV:  13    -0.101067302001E+03   -0.11570E-05   -0.17747E-08   108   0.329E-04    0.602E-05
DAV:  14    -0.101067303094E+03   -0.10930E-05   -0.92127E-09    84   0.253E-04    0.307E-05
DAV:  15    -0.101067303497E+03   -0.40297E-06    0.21302E-09    96   0.146E-04
  48 F= -.10106730E+03 E0= -.10106730E+03  d E =-.300061E-10
       N       E                     dE             d eps       ncg     rms          rms(c)
DAV:   1    -0.101065936991E+03    0.13661E-02   -0.41173E-01    96   0.161E+00    0.176E-01
DAV:   2    -0.101067191123E+03   -0.12541E-02   -0.15126E-02   144   0.343E-01    0.882E-02
DAV:   3    -0.101067130200E+03    0.60923E-04   -0.28754E-04   132   0.618E-02    0.436E-02
DAV:   4    -0.101067104852E+03    0.25348E-04   -0.80028E-05   132   0.389E-02    0.101E-02
DAV:   5    -0.101067100956E+03    0.38958E-05   -0.21374E-05   132   0.178E-02    0.692E-03
DAV:   6    -0.101067104483E+03   -0.35271E-05   -0.42838E-06   132   0.714E-03    0.373E-03
DAV:   7    -0.101067112741E+03   -0.82578E-05   -0.71714E-07   108   0.340E-03    0.152E-03
DAV:   8    -0.101067123331E+03   -0.10590E-04   -0.76914E-07    96   0.282E-03    0.919E-04
DAV:   9    -0.101067139979E+03   -0.16648E-04   -0.14089E-06   108   0.319E-03    0.396E-04
DAV:  10    -0.101067147749E+03   -0.77706E-05   -0.53301E-07    84   0.196E-03    0.356E-04
DAV:  11    -0.101067151471E+03   -0.37219E-05   -0.13008E-07   108   0.974E-04    0.227E-04
DAV:  12    -0.101067155542E+03   -0.40706E-05   -0.17466E-07    84   0.889E-04    0.140E-04
DAV:  13    -0.101067156778E+03   -0.12363E-05   -0.37752E-08    96   0.439E-04    0.100E-04
DAV:  14    -0.101067157732E+03   -0.95334E-06   -0.15140E-08    84   0.305E-04
  49 F= -.10106716E+03 E0= -.10106716E+03  d E =-.137743E-10
       N       E                     dE             d eps       ncg     rms          rms(c)
DAV:   1    -0.101066272221E+03    0.88456E-03   -0.20366E-01    96   0.134E+00    0.148E-01
DAV:   2    -0.101067218329E+03   -0.94611E-03   -0.11055E-02   120   0.312E-01    0.700E-02
DAV:   3    -0.101067192858E+03    0.25471E-04   -0.22663E-04   144   0.512E-02    0.388E-02
DAV:   4    -0.101067183885E+03    0.89733E-05   -0.54599E-05   120   0.297E-02    0.978E-03
DAV:   5    -0.101067180847E+03    0.30382E-05   -0.12142E-05   132   0.134E-02    0.567E-03
DAV:   6    -0.101067181782E+03   -0.93533E-06   -0.24362E-06   132   0.573E-03
  50 F= -.10106718E+03 E0= -.10106718E+03  d E =-.151380E-10
       N       E                     dE             d eps       ncg     rms          rms(c)
DAV:   1    -0.101065732299E+03    0.14485E-02   -0.41490E-01    96   0.189E+00    0.225E-01
DAV:   2    -0.101067038097E+03   -0.13058E-02   -0.15518E-02   108   0.393E-01    0.985E-02
DAV:   3    -0.101066982789E+03    0.55308E-04   -0.32219E-04   132   0.635E-02    0.518E-02
DAV:   4    -0.101066965591E+03    0.17198E-04   -0.93450E-05   108   0.413E-02    0.122E-02
DAV:   5    -0.101066961657E+03    0.39339E-05   -0.29008E-05   132   0.204E-02    0.820E-03
DAV:   6    -0.101066961786E+03   -0.12870E-06   -0.44997E-06   132   0.746E-03
  51 F= -.10106696E+03 E0= -.10106696E+03  d E =-.144452E-10
       N       E                     dE             d eps       ncg     rms          rms(c)
DAV:   1    -0.101066016803E+03    0.94485E-03   -0.20307E-01   108   0.137E+00    0.153E-01
DAV:   2    -0.101066721975E+03   -0.70517E-03   -0.84209E-03   132   0.301E-01    0.822E-02
DAV:   3    -0.101066691160E+03    0.30815E-04   -0.14745E-04   120   0.433E-02    0.413E-02
DAV:   4    -0.101066662347E+03    0.28814E-04   -0.44249E-05   120   0.245E-02    0.795E-03
DAV:   5    -0.101066655215E+03    0.71312E-05   -0.72489E-06   132   0.111E-02    0.433E-03
DAV:   6    -0.101066659654E+03   -0.44390E-05   -0.33729E-06    96   0.662E-03    0.222E-03
DAV:   7    -0.101066670047E+03   -0.10392E-04   -0.14542E-06   120   0.422E-03    0.126E-03
DAV:   8    -0.101066682553E+03   -0.12507E-04   -0.85555E-07    96   0.258E-03    0.659E-04
DAV:   9    -0.101066693463E+03   -0.10910E-04   -0.83599E-07   108   0.215E-03    0.460E-04
DAV:  10    -0.101066702779E+03   -0.93160E-05   -0.78159E-07    96   0.182E-03    0.204E-04
DAV:  11    -0.101066706196E+03   -0.34170E-05   -0.13456E-07    96   0.877E-04    0.152E-04
DAV:  12    -0.101066708476E+03   -0.22799E-05   -0.10830E-07    84   0.670E-04    0.789E-05
DAV:  13    -0.101066709100E+03   -0.62312E-06   -0.13028E-08   108   0.310E-04
  52 F= -.10106671E+03 E0= -.10106671E+03  d E =-.106930E-10
       N       E                     dE             d eps       ncg     rms          rms(c)
DAV:   1    -0.101064795592E+03    0.19129E-02   -0.40362E-01    96   0.191E+00    0.219E-01
DAV:   2    -0.101066201088E+03   -0.14055E-02   -0.17185E-02   108   0.431E-01    0.115E-01
DAV:   3    -0.101066100625E+03    0.10046E-03   -0.28915E-04   132   0.612E-02    0.588E-02
DAV:   4    -0.101066044394E+03    0.56231E-04   -0.92096E-05   108   0.368E-02    0.115E-02
DAV:   5    -0.101066031349E+03    0.13045E-04   -0.15740E-05   144   0.169E-02    0.672E-03
DAV:   6    -0.101066035048E+03   -0.36990E-05   -0.71442E-06   132   0.101E-02    0.348E-03
DAV:   7    -0.101066050599E+03   -0.15551E-04   -0.28409E-06   132   0.639E-03    0.194E-03
DAV:   8    -0.101066072066E+03   -0.21467E-04   -0.12053E-06    96   0.367E-03    0.113E-03
DAV:   9    -0.101066092849E+03   -0.20783E-04   -0.12036E-06   120   0.283E-03    0.761E-04
DAV:  10    -0.101066112075E+03   -0.19226E-04   -0.10016E-06    96   0.215E-03    0.361E-04
DAV:  11    -0.101066119998E+03   -0.79229E-05   -0.16505E-07   108   0.104E-03    0.247E-04
DAV:  12    -0.101066127373E+03   -0.73758E-05   -0.20476E-07    84   0.916E-04    0.143E-04
DAV:  13    -0.101066129554E+03   -0.21810E-05   -0.28726E-08   108   0.419E-04    0.846E-05
DAV:  14    -0.101066131123E+03   -0.15681E-05   -0.10981E-08    84   0.315E-04    0.487E-05
DAV:  15    -0.101066131705E+03   -0.58290E-06   -0.73706E-10   108   0.187E-04
  53 F= -.10106613E+03 E0= -.10106613E+03  d E =-.102393E-10
       N       E                     dE             d eps       ncg     rms          rms(c)
DAV:   1    -0.101064889351E+03    0.12418E-02   -0.20203E-01   108   0.133E+00    0.156E-01
DAV:   2    -0.101065681310E+03   -0.79196E-03   -0.96673E-03   108   0.326E-01    0.908E-02
DAV:   3    -0.101065620200E+03    0.61110E-04   -0.15382E-04   132   0.465E-02    0.478E-02
DAV:   4    -0.101065588779E+03    0.31421E-04   -0.68524E-05   132   0.319E-02    0.816E-03
DAV:   5    -0.101065583278E+03    0.55002E-05   -0.13482E-05   132   0.139E-02    0.548E-03
DAV:   6    -0.101065588294E+03   -0.50156E-05   -0.50504E-06   132   0.660E-03    0.308E-03
DAV:   7    -0.101065600367E+03   -0.12073E-04   -0.80975E-07   108   0.301E-03    0.149E-03
DAV:   8    -0.101065619356E+03   -0.18989E-04   -0.20934E-06    96   0.332E-03    0.100E-03
DAV:   9    -0.101065632790E+03   -0.13435E-04   -0.81902E-07    96   0.222E-03    0.612E-04
DAV:  10    -0.101065644266E+03   -0.11476E-04   -0.10265E-06    96   0.191E-03    0.273E-04
DAV:  11    -0.101065649452E+03   -0.51858E-05   -0.18033E-07    96   0.995E-04    0.240E-04
DAV:  12    -0.101065652168E+03   -0.27156E-05   -0.88511E-08    84   0.627E-04    0.135E-04
DAV:  13    -0.101065653548E+03   -0.13807E-05   -0.26348E-08   108   0.384E-04    0.623E-05
DAV:  14    -0.101065654368E+03   -0.82009E-06   -0.55726E-09    84   0.253E-04
  54 F= -.10106565E+03 E0= -.10106565E+03  d E =-.112703E-10
       N       E                     dE             d eps       ncg     rms          rms(c)
DAV:   1    -0.101064593775E+03    0.10598E-02   -0.40792E-01    96   0.190E+00    0.217E-01
DAV:   2    -0.101066122471E+03   -0.15287E-02   -0.18838E-02   132   0.456E-01    0.130E-01
DAV:   3    -0.101066001418E+03    0.12105E-03   -0.29952E-04   132   0.644E-02    0.684E-02
DAV:   4    -0.101065941100E+03    0.60318E-04   -0.13641E-04   132   0.447E-02    0.113E-02
DAV:   5    -0.101065936617E+03    0.44830E-05   -0.26297E-05   132   0.195E-02    0.783E-03
DAV:   6    -0.101065951831E+03   -0.15214E-04   -0.11367E-05   132   0.965E-03    0.435E-03
DAV:   7    -0.101065979759E+03   -0.27929E-04   -0.23827E-06   120   0.488E-03    0.215E-03
DAV:   8    -0.101066021412E+03   -0.41652E-04   -0.50552E-06   120   0.523E-03    0.143E-03
DAV:   9    -0.101066044920E+03   -0.23508E-04   -0.18441E-06   108   0.320E-03    0.922E-04
DAV:  10    -0.101066065277E+03   -0.20357E-04   -0.17948E-06    96   0.274E-03    0.436E-04
DAV:  11    -0.101066073795E+03   -0.85185E-05   -0.38044E-07    96   0.139E-03    0.368E-04
DAV:  12    -0.101066079177E+03   -0.53822E-05   -0.27878E-07    84   0.108E-03    0.136E-04
DAV:  13    -0.101066081061E+03   -0.18837E-05   -0.50527E-08   108   0.529E-04    0.982E-05
DAV:  14    -0.101066082403E+03   -0.13415E-05   -0.18055E-08    84   0.358E-04    0.643E-05
DAV:  15    -0.101066082798E+03   -0.39529E-06   -0.11486E-10   108   0.181E-04
  55 F= -.10106608E+03 E0= -.10106608E+03  d E =-.101236E-10
       N       E                     dE             d eps       ncg     rms          rms(c)
DAV:   1    -0.101065928027E+03    0.15438E-03   -0.20218E-01    96   0.137E+00    0.144E-01
DAV:   2    -0.101066902430E+03   -0.97440E-03   -0.11561E-02   108   0.346E-01    0.834E-02
DAV:   3    -0.101066864477E+03    0.37953E-04   -0.18037E-04   132   0.455E-02    0.481E-02
DAV:   4    -0.101066837583E+03    0.26894E-04   -0.71945E-05   132   0.326E-02    0.782E-03
DAV:   5    -0.101066832474E+03    0.51085E-05   -0.16787E-05   132   0.150E-02    0.539E-03
DAV:   6    -0.101066834917E+03   -0.24434E-05   -0.41908E-06   132   0.645E-03    0.331E-03
DAV:   7    -0.101066844568E+03   -0.96509E-05   -0.86899E-07   108   0.338E-03    0.138E-03
DAV:   8    -0.101066859039E+03   -0.14471E-04   -0.13659E-06    96   0.312E-03    0.100E-03
DAV:   9    -0.101066873909E+03   -0.14870E-04   -0.82396E-07    96   0.234E-03    0.532E-04
DAV:  10    -0.101066884137E+03   -0.10228E-04   -0.76065E-07    96   0.169E-03    0.318E-04
DAV:  11    -0.101066889286E+03   -0.51492E-05   -0.12694E-07    96   0.913E-04    0.183E-04
DAV:  12    -0.101066892822E+03   -0.35359E-05   -0.11242E-07    84   0.685E-04    0.130E-04
DAV:  13    -0.101066894542E+03   -0.17200E-05   -0.29927E-08    96   0.394E-04    0.814E-05
DAV:  14    -0.101066895655E+03   -0.11133E-05   -0.86709E-09    84   0.262E-04    0.377E-05
DAV:  15    -0.101066896335E+03   -0.68011E-06   -0.46899E-09    96   0.208E-04
  56 F= -.10106690E+03 E0= -.10106690E+03  d E =-.910927E-10
       N       E                     dE             d eps       ncg     rms          rms(c)
DAV:   1    -0.101065963312E+03    0.93234E-03   -0.41431E-01   120   0.183E+00    0.193E-01
DAV:   2    -0.101067257689E+03   -0.12944E-02   -0.15531E-02   108   0.388E-01    0.961E-02
DAV:   3    -0.101067200152E+03    0.57537E-04   -0.27165E-04   132   0.585E-02    0.506E-02
DAV:   4    -0.101067169938E+03    0.30214E-04   -0.82958E-05   132   0.412E-02    0.981E-03
DAV:   5    -0.101067164228E+03    0.57097E-05   -0.30368E-05   132   0.208E-02    0.704E-03
DAV:   6    -0.101067165515E+03   -0.12868E-05   -0.52311E-06   132   0.758E-03    0.445E-03
DAV:   7    -0.101067172575E+03   -0.70604E-05   -0.72669E-07   108   0.381E-03    0.195E-03
DAV:   8    -0.101067184915E+03   -0.12340E-04   -0.13417E-06   108   0.392E-03    0.119E-03
DAV:   9    -0.101067201962E+03   -0.17047E-04   -0.12225E-06    96   0.341E-03    0.634E-04
DAV:  10    -0.101067210512E+03   -0.85501E-05   -0.45745E-07   108   0.204E-03    0.570E-04
DAV:  11    -0.101067215077E+03   -0.45646E-05   -0.11170E-07    96   0.100E-03    0.335E-04
DAV:  12    -0.101067221453E+03   -0.63763E-05   -0.26068E-07    84   0.110E-03    0.288E-04
DAV:  13    -0.101067222433E+03   -0.97987E-06   -0.23379E-08   108   0.443E-04
  57 F= -.10106722E+03 E0= -.10106722E+03  d E =-.415308E-10
       N       E                     dE             d eps       ncg     rms          rms(c)
DAV:   1    -0.101065462483E+03    0.17590E-02   -0.20710E-01    96   0.131E+00    0.143E-01
DAV:   2    -0.101066050395E+03   -0.58791E-03   -0.70632E-03   108   0.249E-01    0.600E-02
DAV:   3    -0.101066033008E+03    0.17386E-04   -0.14009E-04   132   0.429E-02    0.318E-02
DAV:   4    -0.101066025430E+03    0.75783E-05   -0.34112E-05   120   0.299E-02    0.680E-03
DAV:   5    -0.101066025100E+03    0.32972E-06   -0.17949E-05   132   0.158E-02    0.583E-03
DAV:   6    -0.101066025498E+03   -0.39814E-06   -0.14079E-06   120   0.402E-03
  58 F= -.10106603E+03 E0= -.10106603E+03  d E =-.150709E-10
       N       E                     dE             d eps       ncg     rms          rms(c)
DAV:   1    -0.101065201243E+03    0.82386E-03   -0.40509E-01   108   0.190E+00    0.220E-01
DAV:   2    -0.101066688039E+03   -0.14868E-02   -0.18013E-02   108   0.447E-01    0.116E-01
DAV:   3    -0.101066600836E+03    0.87203E-04   -0.28882E-04   132   0.617E-02    0.608E-02
DAV:   4    -0.101066547172E+03    0.53664E-04   -0.10418E-04   108   0.409E-02    0.113E-02
DAV:   5    -0.101066541492E+03    0.56803E-05   -0.21671E-05   132   0.179E-02    0.776E-03
DAV:   6    -0.101066550541E+03   -0.90495E-05   -0.77632E-06   132   0.885E-03    0.412E-03
DAV:   7    -0.101066569113E+03   -0.18572E-04   -0.21786E-06   120   0.513E-03    0.201E-03
DAV:   8    -0.101066597185E+03   -0.28072E-04   -0.29284E-06   108   0.446E-03    0.116E-03
DAV:   9    -0.101066615018E+03   -0.17834E-04   -0.15521E-06   120   0.306E-03    0.875E-04
DAV:  10    -0.101066630043E+03   -0.15024E-04   -0.12248E-06    96   0.233E-03    0.351E-04
DAV:  11    -0.101066637029E+03   -0.69862E-05   -0.35662E-07    96   0.130E-03    0.316E-04
DAV:  12    -0.101066642094E+03   -0.50653E-05   -0.29861E-07    84   0.107E-03    0.124E-04
DAV:  13    -0.101066643734E+03   -0.16398E-05   -0.56398E-08   108   0.512E-04    0.800E-05
DAV:  14    -0.101066644695E+03   -0.96071E-06   -0.99843E-09    84   0.297E-04
  59 F= -.10106664E+03 E0= -.10106664E+03  d E =-.114359E-10
       N       E                     dE             d eps       ncg     rms          rms(c)
DAV:   1    -0.101065081837E+03    0.15619E-02   -0.20252E-01    96   0.137E+00    0.156E-01
DAV:   2    -0.101065814789E+03   -0.73295E-03   -0.90184E-03   108   0.317E-01    0.790E-02
DAV:   3    -0.101065766810E+03    0.47979E-04   -0.13198E-04   132   0.401E-02    0.420E-02
DAV:   4    -0.101065733160E+03    0.33650E-04   -0.41904E-05   132   0.245E-02    0.794E-03
DAV:   5    -0.101065725563E+03    0.75974E-05   -0.80200E-06   132   0.118E-02    0.444E-03
DAV:   6    -0.101065727485E+03   -0.19219E-05   -0.37756E-06   132   0.738E-03    0.233E-03
DAV:   7    -0.101065736827E+03   -0.93425E-05   -0.15616E-06   120   0.474E-03    0.137E-03
DAV:   8    -0.101065749474E+03   -0.12647E-04   -0.70742E-07   108   0.281E-03    0.803E-04
DAV:   9    -0.101065762767E+03   -0.13293E-04   -0.88291E-07   120   0.224E-03    0.559E-04
DAV:  10    -0.101065773547E+03   -0.10780E-04   -0.43518E-07    96   0.152E-03    0.263E-04
DAV:  11    -0.101065778916E+03   -0.53689E-05   -0.16529E-07   108   0.837E-04    0.191E-04
DAV:  12    -0.101065783444E+03   -0.45284E-05   -0.91181E-08    84   0.641E-04    0.940E-05
DAV:  13    -0.101065785284E+03   -0.18400E-05   -0.27263E-08    96   0.388E-04    0.581E-05
DAV:  14    -0.101065786422E+03   -0.11378E-05   -0.94102E-09    84   0.261E-04    0.352E-05
DAV:  15    -0.101065786824E+03   -0.40146E-06    0.22742E-09   108   0.146E-04
  60 F= -.10106579E+03 E0= -.10106579E+03  d E =-.134559E-10
       N       E                     dE             d eps       ncg     rms          rms(c)
DAV:   1    -0.101064875954E+03    0.91047E-03   -0.41020E-01   108   0.189E+00    0.208E-01
DAV:   2    -0.101066311962E+03   -0.14360E-02   -0.17969E-02   108   0.432E-01    0.124E-01
DAV:   3    -0.101066191372E+03    0.12059E-03   -0.25900E-04   132   0.583E-02    0.643E-02
DAV:   4    -0.101066119793E+03    0.71579E-04   -0.11310E-04   120   0.401E-02    0.112E-02
DAV:   5    -0.101066118502E+03    0.12911E-05   -0.19365E-05   132   0.176E-02    0.709E-03
DAV:   6    -0.101066140354E+03   -0.21852E-04   -0.11939E-05   132   0.107E-02    0.366E-03
DAV:   7    -0.101066171152E+03   -0.30798E-04   -0.38226E-06   132   0.639E-03    0.224E-03
DAV:   8    -0.101066212292E+03   -0.41139E-04   -0.39908E-06    96   0.476E-03    0.115E-03
DAV:   9    -0.101066239694E+03   -0.27402E-04   -0.26131E-06   120   0.357E-03    0.857E-04
DAV:  10    -0.101066261194E+03   -0.21500E-04   -0.19797E-06    96   0.280E-03    0.456E-04
DAV:  11    -0.101066268885E+03   -0.76903E-05   -0.37048E-07   108   0.136E-03    0.258E-04
DAV:  12    -0.101066273916E+03   -0.50313E-05   -0.26653E-07    84   0.105E-03    0.207E-04
DAV:  13    -0.101066275694E+03   -0.17780E-05   -0.46839E-08   108   0.553E-04    0.679E-05
DAV:  14    -0.101066276652E+03   -0.95796E-06   -0.11349E-08    84   0.325E-04
  61 F= -.10106628E+03 E0= -.10106628E+03  d E =-.117878E-10
       N       E                     dE             d eps       ncg     rms          rms(c)
DAV:   1    -0.101069069413E+03   -0.27937E-02   -0.23366E-01    96   0.171E+00    0.134E-01
DAV:   2    -0.101069505176E+03   -0.43576E-03   -0.62847E-03   108   0.269E-01    0.800E-02
DAV:   3    -0.101069444265E+03    0.60911E-04   -0.15093E-04   132   0.437E-02    0.376E-02
DAV:   4    -0.101069425932E+03    0.18333E-04   -0.63585E-05   108   0.283E-02    0.740E-03
DAV:   5    -0.101069422010E+03    0.39222E-05   -0.97683E-06   132   0.121E-02    0.515E-03
DAV:   6    -0.101069423382E+03   -0.13722E-05   -0.35201E-06   132   0.591E-03    0.243E-03
DAV:   7    -0.101069428300E+03   -0.49174E-05   -0.51461E-07   108   0.299E-03    0.114E-03
DAV:   8    -0.101069436365E+03   -0.80649E-05   -0.58620E-07    84   0.243E-03    0.822E-04
DAV:   9    -0.101069445758E+03   -0.93930E-05   -0.58809E-07    96   0.202E-03    0.466E-04
DAV:  10    -0.101069452853E+03   -0.70951E-05   -0.34553E-07    84   0.141E-03    0.286E-04
DAV:  11    -0.101069456685E+03   -0.38326E-05   -0.72228E-08   108   0.716E-04    0.168E-04
DAV:  12    -0.101069459591E+03   -0.29059E-05   -0.69399E-08    84   0.580E-04    0.104E-04
DAV:  13    -0.101069460380E+03   -0.78945E-06   -0.55949E-09   108   0.266E-04
  62 F= -.10106946E+03 E0= -.10106946E+03  d E =-.101754E-10
       N       E                     dE             d eps       ncg     rms          rms(c)
DAV:   1    -0.101069452255E+03    0.73357E-05   -0.52697E-01    96   0.267E+00    0.172E-01
DAV:   2    -0.101069341097E+03    0.11116E-03   -0.27781E-03   108   0.190E-01    0.975E-02
DAV:   3    -0.101069203823E+03    0.13727E-03   -0.39292E-04   132   0.622E-02    0.200E-02
DAV:   4    -0.101069206119E+03   -0.22958E-05   -0.65841E-05   132   0.264E-02    0.994E-03
DAV:   5    -0.101069206943E+03   -0.82401E-06   -0.27233E-06   132   0.609E-03
  63 F= -.10106921E+03 E0= -.10106921E+03  d E =-.135649E-10
       N       E                     dE             d eps       ncg     rms          rms(c)
DAV:   1    -0.101068390898E+03    0.81522E-03   -0.27166E-01    96   0.191E+00    0.147E-01
DAV:   2    -0.101068402973E+03   -0.12074E-04   -0.24528E-03   108   0.169E-01    0.803E-02
DAV:   3    -0.101068310376E+03    0.92597E-04   -0.23675E-04   108   0.477E-02    0.245E-02
DAV:   4    -0.101068307427E+03    0.29489E-05   -0.67218E-05   120   0.235E-02    0.811E-03
DAV:   5    -0.101068305790E+03    0.16371E-05   -0.28496E-06   132   0.719E-03    0.449E-03
DAV:   6    -0.101068305817E+03   -0.26632E-07   -0.24137E-06   108   0.596E-03
  64 F= -.10106831E+03 E0= -.10106831E+03  d E =-.126650E-10
       N       E                     dE             d eps       ncg     rms          rms(c)
DAV:   1    -0.101068312334E+03   -0.65444E-05   -0.53740E-01    96   0.271E+00    0.200E-01
DAV:   2    -0.101068268796E+03    0.43539E-04   -0.44420E-03    96   0.231E-01    0.108E-01
DAV:   3    -0.101068084955E+03    0.18384E-03   -0.44970E-04   120   0.618E-02    0.325E-02
DAV:   4    -0.101068069453E+03    0.15502E-04   -0.92803E-05   108   0.285E-02    0.109E-02
DAV:   5    -0.101068068764E+03    0.68902E-06   -0.60177E-06   132   0.997E-03
  65 F= -.10106807E+03 E0= -.10106807E+03  d E =-.120986E-10
       N       E                     dE             d eps       ncg     rms          rms(c)
DAV:   1    -0.101069382842E+03   -0.13134E-02   -0.27146E-01    96   0.189E+00    0.144E-01
DAV:   2    -0.101069373005E+03    0.98370E-05   -0.23869E-03   108   0.172E-01    0.789E-02
DAV:   3    -0.101069287561E+03    0.85444E-04   -0.25012E-04   120   0.519E-02    0.227E-02
DAV:   4    -0.101069290497E+03   -0.29357E-05   -0.72469E-05   120   0.261E-02    0.804E-03
DAV:   5    -0.101069289912E+03    0.58426E-06   -0.27132E-06   108   0.672E-03
  66 F= -.10106929E+03 E0= -.10106929E+03  d E =-.970369E-11
       N       E                     dE             d eps       ncg     rms          rms(c)
DAV:   1    -0.101069671256E+03   -0.38076E-03   -0.53407E-01    96   0.263E+00    0.170E-01
DAV:   2    -0.101069545094E+03    0.12616E-03   -0.28955E-03   108   0.191E-01    0.974E-02
DAV:   3    -0.101069403889E+03    0.14120E-03   -0.44493E-04   108   0.696E-02    0.174E-02
DAV:   4    -0.101069409273E+03   -0.53839E-05   -0.86868E-05   132   0.312E-02    0.969E-03
DAV:   5    -0.101069408241E+03    0.10328E-05   -0.18686E-06    84   0.539E-03    0.622E-03
DAV:   6    -0.101069408256E+03   -0.15048E-07   -0.32249E-06   120   0.614E-03
  67 F= -.10106941E+03 E0= -.10106941E+03  d E =-.120004E-10
       N       E                     dE             d eps       ncg     rms          rms(c)
DAV:   1    -0.101069918809E+03   -0.51057E-03   -0.26611E-01    96   0.200E+00    0.118E-01
DAV:   2    -0.101069905855E+03    0.12954E-04   -0.14897E-03   108   0.142E-01    0.683E-02
DAV:   3    -0.101069851300E+03    0.54554E-04   -0.13689E-04   132   0.374E-02    0.112E-02
DAV:   4    -0.101069852730E+03   -0.14300E-05   -0.21868E-05   132   0.152E-02    0.472E-03
DAV:   5    -0.101069852878E+03   -0.14761E-06   -0.54672E-07   108   0.293E-03
  68 F= -.10106985E+03 E0= -.10106985E+03  d E =-.109844E-10
       N       E                     dE             d eps       ncg     rms          rms(c)
DAV:   1    -0.101070098325E+03   -0.24559E-03   -0.52970E-01    96   0.271E+00    0.159E-01
DAV:   2    -0.101069969301E+03    0.12902E-03   -0.20457E-03   108   0.162E-01    0.919E-02
DAV:   3    -0.101069871531E+03    0.97770E-04   -0.36654E-04   132   0.631E-02    0.125E-02
[...]
DAV:  10    -0.101067737982E+03   -0.53669E-05   -0.47341E-07   108   0.155E-03    0.423E-04
DAV:  11    -0.101067739062E+03   -0.10802E-05   -0.48293E-08   108   0.717E-04    0.223E-04
DAV:  12    -0.101067739686E+03   -0.62366E-06   -0.87155E-09    84   0.348E-04
 129 F= -.10106774E+03 E0= -.10106774E+03  d E =-.986686E-11
       N       E                     dE             d eps       ncg     rms          rms(c)
DAV:   1    -0.101070177928E+03   -0.24389E-02   -0.28252E-01    96   0.165E+00    0.189E-01
DAV:   2    -0.101069971920E+03    0.20601E-03   -0.20984E-03   108   0.152E-01    0.936E-02
DAV:   3    -0.101069850443E+03    0.12148E-03   -0.34376E-04   132   0.537E-02    0.313E-02
DAV:   4    -0.101069847557E+03    0.28867E-05   -0.75754E-05   108   0.256E-02    0.110E-02
DAV:   5    -0.101069846396E+03    0.11602E-05   -0.37700E-06   132   0.819E-03    0.460E-03
DAV:   6    -0.101069847292E+03   -0.89556E-06   -0.23811E-06   108   0.522E-03
 130 F= -.10106985E+03 E0= -.10106985E+03  d E =-.158133E-10
       N       E                     dE             d eps       ncg     rms          rms(c)
DAV:   1    -0.101070179338E+03   -0.33294E-03   -0.54308E-01    96   0.231E+00    0.197E-01
DAV:   2    -0.101069938419E+03    0.24092E-03   -0.28442E-03   108   0.177E-01    0.111E-01
DAV:   3    -0.101069780277E+03    0.15814E-03   -0.46128E-04   132   0.657E-02    0.235E-02
DAV:   4    -0.101069786910E+03   -0.66327E-05   -0.69787E-05   132   0.272E-02    0.873E-03
DAV:   5    -0.101069787627E+03   -0.71668E-06   -0.33430E-06   132   0.671E-03
 131 F= -.10106979E+03 E0= -.10106979E+03  d E =-.104001E-10
       N       E                     dE             d eps       ncg     rms          rms(c)
DAV:   1    -0.101069488148E+03    0.29876E-03   -0.27102E-01    96   0.164E+00    0.139E-01
DAV:   2    -0.101069365941E+03    0.12221E-03   -0.14295E-03   108   0.125E-01    0.781E-02
DAV:   3    -0.101069288768E+03    0.77173E-04   -0.22261E-04   120   0.450E-02    0.174E-02
DAV:   4    -0.101069291870E+03   -0.31022E-05   -0.34121E-05   132   0.188E-02    0.620E-03
DAV:   5    -0.101069292489E+03   -0.61844E-06   -0.16118E-06   120   0.478E-03
 132 F= -.10106929E+03 E0= -.10106929E+03  d E =-.130313E-10
       N       E                     dE             d eps       ncg     rms          rms(c)
DAV:   1    -0.101069900563E+03   -0.60869E-03   -0.54988E-01    96   0.231E+00    0.222E-01
DAV:   2    -0.101069612072E+03    0.28849E-03   -0.33577E-03   108   0.190E-01    0.118E-01
DAV:   3    -0.101069430510E+03    0.18156E-03   -0.50273E-04   132   0.653E-02    0.347E-02
DAV:   4    -0.101069432379E+03   -0.18682E-05   -0.96771E-05   120   0.297E-02    0.115E-02
DAV:   5    -0.101069431418E+03    0.96101E-06   -0.57451E-06   108   0.920E-03
 133 F= -.10106943E+03 E0= -.10106943E+03  d E =-.101044E-10
       N       E                     dE             d eps       ncg     rms          rms(c)
DAV:   1    -0.101069607967E+03   -0.17559E-03   -0.27595E-01    96   0.189E+00    0.158E-01
DAV:   2    -0.101069501813E+03    0.10615E-03   -0.20294E-03   108   0.155E-01    0.854E-02
DAV:   3    -0.101069412671E+03    0.89143E-04   -0.23522E-04   120   0.467E-02    0.251E-02
DAV:   4    -0.101069413207E+03   -0.53663E-06   -0.54448E-05   108   0.224E-02    0.878E-03
DAV:   5    -0.101069412501E+03    0.70674E-06   -0.32140E-06   132   0.677E-03
 134 F= -.10106941E+03 E0= -.10106941E+03  d E =-.129279E-10
       N       E                     dE             d eps       ncg     rms          rms(c)
DAV:   1    -0.101069510026E+03   -0.96819E-04   -0.55271E-01    96   0.215E+00    0.229E-01
DAV:   2    -0.101069161460E+03    0.34857E-03   -0.30824E-03   108   0.168E-01    0.120E-01
DAV:   3    -0.101068947676E+03    0.21378E-03   -0.52055E-04   120   0.601E-02    0.335E-02
DAV:   4    -0.101068946170E+03    0.15055E-05   -0.98445E-05   108   0.282E-02    0.129E-02
DAV:   5    -0.101068946104E+03    0.66495E-07   -0.51412E-06   132   0.870E-03
 135 F= -.10106895E+03 E0= -.10106895E+03  d E =-.114898E-10
       N       E                     dE             d eps       ncg     rms          rms(c)
DAV:   1    -0.101068553260E+03    0.39291E-03   -0.29019E-01    96   0.157E+00    0.212E-01
DAV:   2    -0.101068272918E+03    0.28034E-03   -0.22382E-03   108   0.146E-01    0.102E-01
DAV:   3    -0.101068135425E+03    0.13749E-03   -0.39913E-04   120   0.548E-02    0.357E-02
DAV:   4    -0.101068135293E+03    0.13166E-06   -0.10399E-04   120   0.287E-02    0.145E-02
DAV:   5    -0.101068133982E+03    0.13110E-05   -0.45764E-06   108   0.800E-03    0.609E-03
DAV:   6    -0.101068134004E+03   -0.22300E-07   -0.23305E-06   132   0.502E-03
 136 F= -.10106813E+03 E0= -.10106813E+03  d E =-.103885E-10
       N       E                     dE             d eps       ncg     rms          rms(c)
DAV:   1    -0.101068980288E+03   -0.84631E-03   -0.57291E-01    96   0.217E+00    0.269E-01
DAV:   2    -0.101068438719E+03    0.54157E-03   -0.45931E-03   108   0.207E-01    0.137E-01
DAV:   3    -0.101068144423E+03    0.29430E-03   -0.83495E-04   120   0.790E-02    0.432E-02
DAV:   4    -0.101068145931E+03   -0.15088E-05   -0.18040E-04   132   0.380E-02    0.188E-02
DAV:   5    -0.101068145347E+03    0.58418E-06   -0.70443E-06   108   0.962E-03
 137 F= -.10106815E+03 E0= -.10106815E+03  d E =-.126221E-10
       N       E                     dE             d eps       ncg     rms          rms(c)
DAV:   1    -0.101069833224E+03   -0.16873E-02   -0.28877E-01    96   0.155E+00    0.202E-01
DAV:   2    -0.101069558628E+03    0.27460E-03   -0.22843E-03   120   0.149E-01    0.101E-01
DAV:   3    -0.101069420584E+03    0.13804E-03   -0.42399E-04   120   0.574E-02    0.321E-02
DAV:   4    -0.101069423145E+03   -0.25611E-05   -0.10336E-04   108   0.290E-02    0.140E-02
DAV:   5    -0.101069422009E+03    0.11360E-05   -0.41388E-06   132   0.787E-03    0.566E-03
DAV:   6    -0.101069422247E+03   -0.23767E-06   -0.25823E-06   108   0.517E-03
 138 F= -.10106942E+03 E0= -.10106942E+03  d E =-.116239E-10
       N       E                     dE             d eps       ncg     rms          rms(c)
DAV:   1    -0.101069692592E+03   -0.27058E-03   -0.54796E-01    96   0.218E+00    0.225E-01
DAV:   2    -0.101069357673E+03    0.33492E-03   -0.31058E-03   108   0.176E-01    0.120E-01
DAV:   3    -0.101069152984E+03    0.20469E-03   -0.52322E-04   120   0.659E-02    0.321E-02
DAV:   4    -0.101069156740E+03   -0.37559E-05   -0.97337E-05   120   0.305E-02    0.132E-02
DAV:   5    -0.101069156931E+03   -0.19110E-06   -0.47169E-06   132   0.832E-03
 139 F= -.10106916E+03 E0= -.10106916E+03  d E =-.120021E-10
       N       E                     dE             d eps       ncg     rms          rms(c)
DAV:   1    -0.101069259250E+03   -0.10251E-03   -0.27660E-01    96   0.163E+00    0.168E-01
DAV:   2    -0.101069135586E+03    0.12366E-03   -0.17610E-03   108   0.129E-01    0.873E-02
DAV:   3    -0.101069043884E+03    0.91702E-04   -0.26090E-04   120   0.405E-02    0.266E-02
DAV:   4    -0.101069041238E+03    0.26465E-05   -0.37078E-05   108   0.167E-02    0.993E-03
DAV:   5    -0.101069039604E+03    0.16335E-05   -0.27271E-06   132   0.659E-03    0.437E-03
DAV:   6    -0.101069039690E+03   -0.85785E-07   -0.20636E-06   108   0.466E-03
 140 F= -.10106904E+03 E0= -.10106904E+03  d E =-.116437E-10
       N       E                     dE             d eps       ncg     rms          rms(c)
DAV:   1    -0.101069347306E+03   -0.30770E-03   -0.55643E-01    96   0.209E+00    0.243E-01
DAV:   2    -0.101068983791E+03    0.36351E-03   -0.34369E-03   108   0.169E-01    0.124E-01
DAV:   3    -0.101068756997E+03    0.22679E-03   -0.54055E-04   120   0.598E-02    0.388E-02
DAV:   4    -0.101068749538E+03    0.74587E-05   -0.11643E-04   144   0.297E-02    0.137E-02
DAV:   5    -0.101068749229E+03    0.30938E-06   -0.60317E-06   132   0.938E-03
 141 F= -.10106875E+03 E0= -.10106875E+03  d E =-.121987E-10
       N       E                     dE             d eps       ncg     rms          rms(c)
DAV:   1    -0.101068163598E+03    0.58594E-03   -0.27284E-01    96   0.147E+00    0.138E-01
DAV:   2    -0.101068037011E+03    0.12659E-03   -0.14939E-03   120   0.115E-01    0.785E-02
DAV:   3    -0.101067951483E+03    0.85528E-04   -0.26462E-04   108   0.460E-02    0.155E-02
DAV:   4    -0.101067956362E+03   -0.48790E-05   -0.45265E-05   132   0.201E-02    0.784E-03
DAV:   5    -0.101067957117E+03   -0.75544E-06   -0.12251E-06   108   0.402E-03
 142 F= -.10106796E+03 E0= -.10106796E+03  d E =-.108653E-10
       N       E                     dE             d eps       ncg     rms          rms(c)
DAV:   1    -0.101068633419E+03   -0.67706E-03   -0.58100E-01    96   0.212E+00    0.284E-01
DAV:   2    -0.101068082573E+03    0.55085E-03   -0.46399E-03   108   0.208E-01    0.142E-01
DAV:   3    -0.101067772797E+03    0.30978E-03   -0.85561E-04   132   0.796E-02    0.458E-02
DAV:   4    -0.101067774256E+03   -0.14593E-05   -0.21090E-04   132   0.397E-02    0.192E-02
DAV:   5    -0.101067771762E+03    0.24934E-05   -0.84105E-06   132   0.105E-02    0.808E-03
DAV:   6    -0.101067771920E+03   -0.15760E-06   -0.52352E-06   108   0.718E-03
 143 F= -.10106777E+03 E0= -.10106777E+03  d E =-.116177E-10
       N       E                     dE             d eps       ncg     rms          rms(c)
DAV:   1    -0.101070242934E+03   -0.24712E-02   -0.28143E-01    96   0.147E+00    0.168E-01
DAV:   2    -0.101070027995E+03    0.21494E-03   -0.18441E-03   108   0.132E-01    0.892E-02
DAV:   3    -0.101069913485E+03    0.11451E-03   -0.33973E-04   120   0.518E-02    0.250E-02
DAV:   4    -0.101069918241E+03   -0.47552E-05   -0.72444E-05   108   0.244E-02    0.110E-02
DAV:   5    -0.101069918428E+03   -0.18736E-06   -0.26312E-06   132   0.590E-03
 144 F= -.10106992E+03 E0= -.10106992E+03  d E =-.118125E-10
       N       E                     dE             d eps       ncg     rms          rms(c)
DAV:   1    -0.101070172139E+03   -0.25390E-03   -0.54117E-01    96   0.210E+00    0.198E-01
DAV:   2    -0.101069897744E+03    0.27440E-03   -0.26602E-03   108   0.162E-01    0.112E-01
DAV:   3    -0.101069726479E+03    0.17126E-03   -0.46671E-04   132   0.643E-02    0.217E-02
DAV:   4    -0.101069731963E+03   -0.54832E-05   -0.67845E-05   132   0.262E-02    0.991E-03
DAV:   5    -0.101069732410E+03   -0.44726E-06   -0.27619E-06   132   0.599E-03
 145 F= -.10106973E+03 E0= -.10106973E+03  d E =-.120772E-10
       N       E                     dE             d eps       ncg     rms          rms(c)
DAV:   1    -0.101069208916E+03    0.52305E-03   -0.27020E-01    96   0.199E+00    0.134E-01
DAV:   2    -0.101069153952E+03    0.54964E-04   -0.19111E-03   120   0.163E-01    0.760E-02
DAV:   3    -0.101069079241E+03    0.74711E-04   -0.22392E-04   108   0.506E-02    0.187E-02
DAV:   4    -0.101069082771E+03   -0.35308E-05   -0.52391E-05   132   0.238E-02    0.776E-03
DAV:   5    -0.101069082597E+03    0.17481E-06   -0.15558E-06    84   0.516E-03
 146 F= -.10106908E+03 E0= -.10106908E+03  d E =-.116319E-10
       N       E                     dE             d eps       ncg     rms          rms(c)
DAV:   1    -0.101069309931E+03   -0.22716E-03   -0.53579E-01    96   0.273E+00    0.178E-01
DAV:   2    -0.101069191302E+03    0.11863E-03   -0.33935E-03   108   0.216E-01    0.101E-01
DAV:   3    -0.101069035362E+03    0.15594E-03   -0.48325E-04   108   0.721E-02    0.209E-02
DAV:   4    -0.101069039630E+03   -0.42684E-05   -0.10458E-04   132   0.343E-02    0.109E-02
DAV:   5    -0.101069038622E+03    0.10084E-05   -0.27326E-06    96   0.631E-03    0.673E-03
DAV:   6    -0.101069039456E+03   -0.83456E-06   -0.36617E-06   120   0.675E-03
 147 F= -.10106904E+03 E0= -.10106904E+03  d E =-.107720E-10
       N       E                     dE             d eps       ncg     rms          rms(c)
DAV:   1    -0.101068060608E+03    0.97801E-03   -0.26441E-01    96   0.193E+00    0.112E-01
DAV:   2    -0.101068001232E+03    0.59376E-04   -0.10311E-03   108   0.113E-01    0.641E-02
DAV:   3    -0.101067941631E+03    0.59601E-04   -0.17512E-04   108   0.412E-02    0.103E-02
DAV:   4    -0.101067943868E+03   -0.22373E-05   -0.23829E-05   132   0.166E-02    0.563E-03
DAV:   5    -0.101067945163E+03   -0.12956E-05   -0.99764E-07    96   0.370E-03    0.352E-03
DAV:   6    -0.101067948099E+03   -0.29356E-05   -0.85191E-07   108   0.336E-03    0.676E-04
DAV:   7    -0.101067950040E+03   -0.19411E-05   -0.29195E-07   108   0.189E-03    0.634E-04
DAV:   8    -0.101067953259E+03   -0.32194E-05   -0.19065E-07    84   0.156E-03    0.264E-04
DAV:   9    -0.101067955304E+03   -0.20445E-05   -0.14153E-07   108   0.106E-03    0.211E-04
DAV:  10    -0.101067957369E+03   -0.20653E-05   -0.78828E-08    84   0.728E-04    0.115E-04
DAV:  11    -0.101067958223E+03   -0.85364E-06   -0.27431E-08   108   0.393E-04
 148 F= -.10106796E+03 E0= -.10106796E+03  d E =-.103777E-10
       N       E                     dE             d eps       ncg     rms          rms(c)
DAV:   1    -0.101068113214E+03   -0.15585E-03   -0.54542E-01   108   0.277E+00    0.204E-01
DAV:   2    -0.101068086524E+03    0.26690E-04   -0.45665E-03   108   0.238E-01    0.111E-01
DAV:   3    -0.101067885580E+03    0.20094E-03   -0.47362E-04   132   0.661E-02    0.326E-02
DAV:   4    -0.101067873276E+03    0.12303E-04   -0.10830E-04   132   0.308E-02    0.107E-02
DAV:   5    -0.101067870512E+03    0.27648E-05   -0.68217E-06   132   0.108E-02    0.527E-03
DAV:   6    -0.101067873104E+03   -0.25923E-05   -0.44579E-06   132   0.783E-03    0.184E-03
DAV:   7    -0.101067877483E+03   -0.43795E-05   -0.12344E-06   120   0.393E-03    0.129E-03
DAV:   8    -0.101067883523E+03   -0.60391E-05   -0.41779E-07    84   0.226E-03    0.596E-04
DAV:   9    -0.101067888389E+03   -0.48665E-05   -0.29484E-07   108   0.147E-03    0.386E-04
DAV:  10    -0.101067894662E+03   -0.62729E-05   -0.31199E-07    84   0.123E-03    0.247E-04
DAV:  11    -0.101067897378E+03   -0.27161E-05   -0.70949E-08   108   0.676E-04    0.144E-04
DAV:  12    -0.101067900020E+03   -0.26423E-05   -0.46307E-08    84   0.464E-04    0.121E-04
DAV:  13    -0.101067901083E+03   -0.10626E-05   -0.11336E-08   108   0.292E-04    0.615E-05
DAV:  14    -0.101067902004E+03   -0.92139E-06   -0.65454E-09    84   0.237E-04
 149 F= -.10106790E+03 E0= -.10106790E+03  d E =-.103157E-10
       N       E                     dE             d eps       ncg     rms          rms(c)
DAV:   1    -0.101070055214E+03   -0.21541E-02   -0.26708E-01    96   0.196E+00    0.128E-01
DAV:   2    -0.101069981334E+03    0.73880E-04   -0.15296E-03   108   0.146E-01    0.717E-02
DAV:   3    -0.101069905500E+03    0.75834E-04   -0.22025E-04   132   0.468E-02    0.156E-02
DAV:   4    -0.101069905894E+03   -0.39381E-06   -0.39829E-05   132   0.206E-02    0.746E-03
DAV:   5    -0.101069906252E+03   -0.35830E-06   -0.16241E-06   108   0.495E-03
 150 F= -.10106991E+03 E0= -.10106991E+03  d E =-.137091E-10
       N       E                     dE             d eps       ncg     rms          rms(c)
DAV:   1    -0.101070043519E+03   -0.13763E-03   -0.52568E-01    96   0.275E+00    0.160E-01
DAV:   2    -0.101069919841E+03    0.12368E-03   -0.21485E-03    96   0.167E-01    0.921E-02
DAV:   3    -0.101069812284E+03    0.10756E-03   -0.36617E-04   120   0.607E-02    0.125E-02
DAV:   4    -0.101069818576E+03   -0.62922E-05   -0.51174E-05   132   0.239E-02    0.740E-03
DAV:   5    -0.101069819949E+03   -0.13734E-05   -0.17005E-06   120   0.453E-03    0.502E-03
DAV:   6    -0.101069823979E+03   -0.40295E-05   -0.14713E-06    96   0.405E-03    0.886E-04
DAV:   7    -0.101069826328E+03   -0.23491E-05   -0.44355E-07   108   0.224E-03    0.881E-04
DAV:   8    -0.101069829952E+03   -0.36240E-05   -0.18899E-07    84   0.175E-03    0.325E-04
DAV:   9    -0.101069833206E+03   -0.32544E-05   -0.23165E-07    96   0.155E-03    0.351E-04
DAV:  10    -0.101069835539E+03   -0.23324E-05   -0.10641E-07    84   0.960E-04    0.170E-04
DAV:  11    -0.101069836626E+03   -0.10868E-05   -0.34379E-08    96   0.458E-04    0.104E-04
DAV:  12    -0.101069837367E+03   -0.74172E-06   -0.14840E-08    84   0.316E-04
 151 F= -.10106984E+03 E0= -.10106984E+03  d E =-.905476E-11
       N       E                     dE             d eps       ncg     rms          rms(c)
DAV:   1    -0.101067830523E+03    0.20061E-02   -0.26680E-01    96   0.202E+00    0.131E-01
DAV:   2    -0.101067788826E+03    0.41697E-04   -0.20393E-03   108   0.167E-01    0.712E-02
DAV:   3    -0.101067708612E+03    0.80214E-04   -0.22095E-04   132   0.506E-02    0.197E-02
DAV:   4    -0.101067710245E+03   -0.16331E-05   -0.62805E-05   132   0.252E-02    0.736E-03
DAV:   5    -0.101067710438E+03   -0.19354E-06   -0.25401E-06   132   0.590E-03
 152 F= -.10106771E+03 E0= -.10106771E+03  d E =-.136321E-10
       N       E                     dE             d eps       ncg     rms          rms(c)
DAV:   1    -0.101067990488E+03   -0.28024E-03   -0.54512E-01   108   0.275E+00    0.207E-01
DAV:   2    -0.101067925988E+03    0.64501E-04   -0.48184E-03   108   0.243E-01    0.114E-01
DAV:   3    -0.101067716382E+03    0.20961E-03   -0.53931E-04   120   0.756E-02    0.321E-02
DAV:   4    -0.101067714897E+03    0.14847E-05   -0.15540E-04   132   0.382E-02    0.124E-02
DAV:   5    -0.101067712518E+03    0.23792E-05   -0.52276E-06   120   0.921E-03    0.748E-03
DAV:   6    -0.101067713018E+03   -0.50010E-06   -0.53721E-06   108   0.890E-03
 153 F= -.10106771E+03 E0= -.10106771E+03  d E =-.111360E-10
       N       E                     dE             d eps       ncg     rms          rms(c)
DAV:   1    -0.101069903229E+03   -0.21907E-02   -0.26884E-01    96   0.194E+00    0.140E-01
DAV:   2    -0.101069845998E+03    0.57231E-04   -0.18665E-03   108   0.153E-01    0.758E-02
DAV:   3    -0.101069770833E+03    0.75165E-04   -0.23617E-04   108   0.442E-02    0.204E-02
DAV:   4    -0.101069769179E+03    0.16545E-05   -0.37004E-05   120   0.188E-02    0.796E-03
DAV:   5    -0.101069768361E+03    0.81826E-06   -0.27685E-06   108   0.657E-03
 154 F= -.10106977E+03 E0= -.10106977E+03  d E =-.120736E-10
       N       E                     dE             d eps       ncg     rms          rms(c)
DAV:   1    -0.101070052669E+03   -0.28349E-03   -0.53145E-01    96   0.269E+00    0.161E-01
DAV:   2    -0.101069939352E+03    0.11332E-03   -0.20634E-03   108   0.162E-01    0.920E-02
DAV:   3    -0.101069833082E+03    0.10627E-03   -0.34535E-04   120   0.576E-02    0.142E-02
DAV:   4    -0.101069835261E+03   -0.21787E-05   -0.44447E-05   132   0.228E-02    0.747E-03
DAV:   5    -0.101069834723E+03    0.53746E-06   -0.17484E-06   120   0.492E-03
 155 F= -.10106983E+03 E0= -.10106983E+03  d E =-.115838E-10
       N       E                     dE             d eps       ncg     rms          rms(c)
DAV:   1    -0.101069397438E+03    0.43782E-03   -0.26532E-01    96   0.190E+00    0.116E-01
DAV:   2    -0.101069330610E+03    0.66828E-04   -0.11165E-03   108   0.123E-01    0.666E-02
DAV:   3    -0.101069279303E+03    0.51307E-04   -0.18820E-04   120   0.455E-02    0.939E-03
DAV:   4    -0.101069283041E+03   -0.37379E-05   -0.33045E-05   132   0.194E-02    0.601E-03
DAV:   5    -0.101069283465E+03   -0.42351E-06   -0.75848E-07   108   0.341E-03
 156 F= -.10106928E+03 E0= -.10106928E+03  d E =-.165580E-10
       N       E                     dE             d eps       ncg     rms          rms(c)
DAV:   1    -0.101069643536E+03   -0.36049E-03   -0.53109E-01    96   0.271E+00    0.174E-01
DAV:   2    -0.101069541544E+03    0.10199E-03   -0.27603E-03   120   0.190E-01    0.972E-02
DAV:   3    -0.101069408768E+03    0.13278E-03   -0.37536E-04   108   0.578E-02    0.204E-02
DAV:   4    -0.101069407792E+03    0.97621E-06   -0.56520E-05   132   0.237E-02    0.863E-03
DAV:   5    -0.101069407933E+03   -0.14153E-06   -0.36658E-06   120   0.669E-03
 157 F= -.10106941E+03 E0= -.10106941E+03  d E =-.898229E-11
