       N       E                     dE             d eps       ncg     rms          rms(c)
DAV:   1     0.203848416313E+03    0.20385E+03   -0.10482E+04   116   0.546E+02
DAV:   2    -0.255523935466E+02   -0.22940E+03   -0.21477E+03   136   0.103E+02
DAV:   3    -0.101349478768E+03   -0.75797E+02   -0.75618E+02   112   0.561E+01
DAV:   4    -0.105696648408E+03   -0.43472E+01   -0.43311E+01   104   0.187E+01
DAV:   5    -0.105772174056E+03   -0.75526E-01   -0.75461E-01   136   0.273E+00    0.147E+01
DAV:   6    -0.102594013333E+03    0.31782E+01   -0.15767E+00   104   0.452E+00    0.853E+00
DAV:   7    -0.100924295074E+03    0.16697E+01   -0.40055E+00   112   0.666E+00    0.121E+00
DAV:   8    -0.100871570234E+03    0.52725E-01   -0.25897E-01   104   0.214E+00    0.607E-01
DAV:   9    -0.100836428491E+03    0.35142E-01   -0.74913E-02   128   0.772E-01    0.328E-01
DAV:  10    -0.100836734371E+03   -0.30588E-03   -0.26108E-03   112   0.206E-01    0.155E-01
DAV:  11    -0.100836605866E+03    0.12850E-03   -0.71301E-03   104   0.247E-01    0.803E-02
DAV:  12    -0.100840989794E+03   -0.43839E-02   -0.88884E-04   102   0.912E-02    0.565E-02
DAV:  13    -0.100845723959E+03   -0.47342E-02   -0.17680E-03   112   0.106E-01    0.325E-02
DAV:  14    -0.100849529475E+03   -0.38055E-02   -0.31076E-04   112   0.501E-02    0.154E-02
DAV:  15    -0.100854179905E+03   -0.46504E-02   -0.58885E-04   110   0.624E-02    0.145E-02
DAV:  16    -0.100855060573E+03   -0.88067E-03   -0.39710E-05   112   0.183E-02    0.610E-03
DAV:  17    -0.100856123292E+03   -0.10627E-02   -0.89637E-05   104   0.224E-02    0.305E-03
DAV:  18    -0.100856390290E+03   -0.26700E-03   -0.84578E-06   104   0.805E-03    0.181E-03
DAV:  19    -0.100856567987E+03   -0.17770E-03   -0.67370E-06    96   0.645E-03    0.178E-03
DAV:  20    -0.100856614123E+03   -0.46136E-04   -0.77497E-07    88   0.309E-03    0.474E-04
DAV:  21    -0.100856641861E+03   -0.27738E-04   -0.95166E-07    80   0.249E-03    0.610E-04
DAV:  22    -0.100856649037E+03   -0.71757E-05   -0.16981E-07    88   0.131E-03    0.189E-04
DAV:  23    -0.100856652536E+03   -0.34986E-05   -0.93068E-08    80   0.787E-04    0.171E-04
DAV:  24    -0.100856654756E+03   -0.22200E-05   -0.31412E-08    88   0.503E-04    0.657E-05
DAV:  25    -0.100856655308E+03   -0.55228E-06   -0.10392E-08    88   0.272E-04
   1 F= -.10085666E+03 E0= -.10085666E+03  d E =-.100857E+03
       N       E                     dE             d eps       ncg     rms          rms(c)
DAV:   1    -0.100978275770E+03   -0.12162E+00   -0.59749E+00    84   0.998E+00    0.113E+00
DAV:   2    -0.101006828977E+03   -0.28553E-01   -0.33288E-01   120   0.232E+00    0.574E-01
DAV:   3    -0.101002831093E+03    0.39979E-02   -0.11718E-02   120   0.459E-01    0.299E-01
DAV:   4    -0.101002025378E+03    0.80571E-03   -0.65026E-03   112   0.298E-01    0.665E-02
DAV:   5    -0.101001878304E+03    0.14707E-03   -0.68841E-04   112   0.111E-01    0.431E-02
DAV:   6    -0.101001899631E+03   -0.21327E-04   -0.11903E-04   112   0.403E-02    0.257E-02
DAV:   7    -0.101002058543E+03   -0.15891E-03   -0.49109E-05   104   0.317E-02    0.664E-03
DAV:   8    -0.101002155726E+03   -0.97182E-04   -0.27816E-05   112   0.212E-02    0.912E-03
DAV:   9    -0.101002209895E+03   -0.54169E-04   -0.33282E-06   104   0.699E-03    0.737E-03
DAV:  10    -0.101002400176E+03   -0.19028E-03   -0.14420E-05   102   0.921E-03    0.361E-03
DAV:  11    -0.101002455334E+03   -0.55158E-04   -0.25054E-06   104   0.461E-03    0.272E-03
DAV:  12    -0.101002532021E+03   -0.76687E-04   -0.43266E-06   104   0.571E-03    0.158E-03
DAV:  13    -0.101002551129E+03   -0.19108E-04   -0.74097E-07    88   0.282E-03    0.652E-04
DAV:  14    -0.101002574283E+03   -0.23153E-04   -0.51163E-07    88   0.189E-03    0.384E-04
DAV:  15    -0.101002585844E+03   -0.11561E-04   -0.33494E-07    88   0.126E-03    0.447E-04
DAV:  16    -0.101002592946E+03   -0.71019E-05   -0.11209E-07    88   0.861E-04    0.265E-04
DAV:  17    -0.101002593842E+03   -0.89635E-06   -0.20426E-08    88   0.383E-04
   2 F= -.10100259E+03 E0= -.10100259E+03  d E =-.145939E+00
       N       E                     dE             d eps       ncg     rms          rms(c)
DAV:   1    -0.101007977371E+03   -0.53844E-02   -0.15710E-01    84   0.163E+00    0.172E-01
DAV:   2    -0.101008720717E+03   -0.74335E-03   -0.89502E-03   120   0.381E-01    0.968E-02
DAV:   3    -0.101008600553E+03    0.12016E-03   -0.33522E-04   120   0.769E-02    0.491E-02
DAV:   4    -0.101008570835E+03    0.29718E-04   -0.18043E-04   112   0.495E-02    0.118E-02
DAV:   5    -0.101008565256E+03    0.55788E-05   -0.18520E-05   112   0.183E-02    0.729E-03
DAV:   6    -0.101008569968E+03   -0.47111E-05   -0.39254E-06   112   0.714E-03    0.405E-03
DAV:   7    -0.101008583676E+03   -0.13708E-04   -0.16205E-06    88   0.543E-03    0.114E-03
DAV:   8    -0.101008590427E+03   -0.67515E-05   -0.98179E-07    88   0.391E-03    0.165E-03
DAV:   9    -0.101008593930E+03   -0.35024E-05   -0.22571E-07    88   0.188E-03    0.125E-03
DAV:  10    -0.101008605413E+03   -0.11483E-04   -0.96218E-07    86   0.229E-03    0.569E-04
DAV:  11    -0.101008608062E+03   -0.26486E-05   -0.10470E-07    88   0.915E-04    0.418E-04
DAV:  12    -0.101008612370E+03   -0.43085E-05   -0.25209E-07    88   0.126E-03    0.184E-04
DAV:  13    -0.101008613203E+03   -0.83328E-06   -0.41216E-08    88   0.594E-04
   3 F= -.10100861E+03 E0= -.10100861E+03  d E =-.151958E+00
       N       E                     dE             d eps       ncg     rms          rms(c)
DAV:   1    -0.101028805007E+03   -0.20193E-01   -0.62065E-01    84   0.327E+00    0.339E-01
DAV:   2    -0.101031922244E+03   -0.31172E-02   -0.36397E-02   120   0.722E-01    0.155E-01
DAV:   3    -0.101031663543E+03    0.25870E-03   -0.15407E-03   120   0.161E-01    0.845E-02
DAV:   4    -0.101031655622E+03    0.79212E-05   -0.48831E-04   112   0.860E-02    0.285E-02
DAV:   5    -0.101031652612E+03    0.30101E-05   -0.50940E-05   112   0.298E-02    0.152E-02
DAV:   6    -0.101031654017E+03   -0.14046E-05   -0.65464E-06   120   0.110E-02    0.850E-03
DAV:   7    -0.101031664959E+03   -0.10943E-04   -0.53395E-06    96   0.998E-03    0.159E-03
DAV:   8    -0.101031670841E+03   -0.58821E-05   -0.16045E-06    96   0.539E-03    0.201E-03
DAV:   9    -0.101031673913E+03   -0.30715E-05   -0.16222E-07    88   0.169E-03    0.114E-03
DAV:  10    -0.101031687063E+03   -0.13150E-04   -0.11846E-06    88   0.275E-03    0.912E-04
DAV:  11    -0.101031689081E+03   -0.20183E-05   -0.90616E-08    88   0.115E-03    0.457E-04
DAV:  12    -0.101031694187E+03   -0.51057E-05   -0.29049E-07    80   0.147E-03    0.341E-04
DAV:  13    -0.101031695705E+03   -0.15177E-05   -0.77439E-08    88   0.831E-04    0.161E-04
DAV:  14    -0.101031696419E+03   -0.71424E-06   -0.15355E-08    88   0.448E-04
   4 F= -.10103170E+03 E0= -.10103170E+03  d E =-.230832E-01
       N       E                     dE             d eps       ncg     rms          rms(c)
DAV:   1    -0.101032003179E+03   -0.30747E-03   -0.12398E-02    84   0.462E-01    0.469E-02
DAV:   2    -0.101032065701E+03   -0.62522E-04   -0.73355E-04   120   0.102E-01    0.220E-02
DAV:   3    -0.101032061049E+03    0.46513E-05   -0.31598E-05   120   0.231E-02    0.119E-02
DAV:   4    -0.101032061226E+03   -0.17637E-06   -0.99245E-06   112   0.122E-02
   5 F= -.10103206E+03 E0= -.10103206E+03  d E =-.234480E-01
       N       E                     dE             d eps       ncg     rms          rms(c)
DAV:   1    -0.101038993822E+03   -0.69328E-02   -0.15763E-01    86   0.184E+00    0.124E-01
DAV:   2    -0.101039200501E+03   -0.20668E-03   -0.40250E-03   120   0.245E-01    0.652E-02
DAV:   3    -0.101039157058E+03    0.43442E-04   -0.19209E-04   120   0.516E-02    0.331E-02
DAV:   4    -0.101039152210E+03    0.48483E-05   -0.56225E-05   112   0.245E-02    0.860E-03
DAV:   5    -0.101039151276E+03    0.93357E-06   -0.39729E-06   112   0.808E-03
   6 F= -.10103915E+03 E0= -.10103915E+03  d E =-.709005E-02
       N       E                     dE             d eps       ncg     rms          rms(c)
DAV:   1    -0.101041753474E+03   -0.26013E-02   -0.20720E-01    86   0.211E+00    0.142E-01
DAV:   2    -0.101042023743E+03   -0.27027E-03   -0.53311E-03   120   0.282E-01    0.747E-02
DAV:   3    -0.101041961422E+03    0.62321E-04   -0.25122E-04   120   0.592E-02    0.382E-02
DAV:   4    -0.101041954117E+03    0.73057E-05   -0.74656E-05   112   0.283E-02    0.986E-03
DAV:   5    -0.101041956711E+03   -0.25949E-05   -0.55221E-06   112   0.946E-03    0.598E-03
DAV:   6    -0.101041963798E+03   -0.70862E-05   -0.21080E-06    88   0.550E-03    0.174E-03
DAV:   7    -0.101041971831E+03   -0.80333E-05   -0.72004E-07    88   0.313E-03    0.103E-03
DAV:   8    -0.101041981328E+03   -0.94971E-05   -0.44856E-07    88   0.199E-03    0.548E-04
DAV:   9    -0.101041991162E+03   -0.98335E-05   -0.53648E-07    88   0.179E-03    0.385E-04
DAV:  10    -0.101041998491E+03   -0.73296E-05   -0.43716E-07    88   0.151E-03    0.176E-04
DAV:  11    -0.101042001760E+03   -0.32693E-05   -0.13487E-07    88   0.891E-04    0.155E-04
DAV:  12    -0.101042003131E+03   -0.13703E-05   -0.35374E-08    88   0.489E-04    0.665E-05
DAV:  13    -0.101042004128E+03   -0.99779E-06   -0.29519E-08    88   0.391E-04
   7 F= -.10104200E+03 E0= -.10104200E+03  d E =-.994290E-02
       N       E                     dE             d eps       ncg     rms          rms(c)
DAV:   1    -0.101046114391E+03   -0.41113E-02   -0.22827E-01    86   0.220E+00    0.140E-01
DAV:   2    -0.101046413052E+03   -0.29866E-03   -0.54050E-03   120   0.298E-01    0.772E-02
DAV:   3    -0.101046339824E+03    0.73228E-04   -0.28482E-04   128   0.716E-02    0.383E-02
DAV:   4    -0.101046339595E+03    0.22976E-06   -0.11918E-04   120   0.435E-02    0.893E-03
DAV:   5    -0.101046341746E+03   -0.21515E-05   -0.15916E-05   112   0.163E-02    0.676E-03
DAV:   6    -0.101046342603E+03   -0.85726E-06   -0.82152E-07    88   0.382E-03
   8 F= -.10104634E+03 E0= -.10104634E+03  d E =-.433847E-02
       N       E                     dE             d eps       ncg     rms          rms(c)
DAV:   1    -0.101046460510E+03   -0.11876E-03   -0.92047E-03    88   0.443E-01    0.284E-02
DAV:   2    -0.101046473693E+03   -0.13183E-04   -0.22254E-04   120   0.605E-02    0.156E-02
DAV:   3    -0.101046471585E+03    0.21085E-05   -0.11409E-05   128   0.144E-02    0.783E-03
DAV:   4    -0.101046473099E+03   -0.15147E-05   -0.49331E-06   120   0.891E-03    0.180E-03
DAV:   5    -0.101046474338E+03   -0.12387E-05   -0.64691E-07    88   0.342E-03    0.123E-03
DAV:   6    -0.101046475492E+03   -0.11538E-05   -0.10255E-07    88   0.131E-03    0.575E-04
DAV:   7    -0.101046476601E+03   -0.11096E-05   -0.41780E-08    88   0.777E-04    0.189E-04
DAV:   8    -0.101046477928E+03   -0.13268E-05   -0.41250E-08    88   0.588E-04    0.170E-04
DAV:   9    -0.101046478719E+03   -0.79084E-06   -0.17281E-08    88   0.378E-04
   9 F= -.10104648E+03 E0= -.10104648E+03  d E =-.447459E-02
       N       E                     dE             d eps       ncg     rms          rms(c)
DAV:   1    -0.101048867476E+03   -0.23895E-02   -0.96920E-02    84   0.140E+00    0.874E-02
DAV:   2    -0.101048995111E+03   -0.12764E-03   -0.22498E-03   120   0.183E-01    0.483E-02
DAV:   3    -0.101048960762E+03    0.34350E-04   -0.10214E-04   128   0.391E-02    0.238E-02
DAV:   4    -0.101048953320E+03    0.74417E-05   -0.34691E-05   112   0.214E-02    0.556E-03
DAV:   5    -0.101048951823E+03    0.14973E-05   -0.32900E-06   104   0.820E-03    0.316E-03
DAV:   6    -0.101048952122E+03   -0.29924E-06   -0.10174E-06    88   0.445E-03
  10 F= -.10104895E+03 E0= -.10104895E+03  d E =-.247340E-02
       N       E                     dE             d eps       ncg     rms          rms(c)
DAV:   1    -0.101049740615E+03   -0.78879E-03   -0.18893E-01    84   0.196E+00    0.122E-01
DAV:   2    -0.101049990806E+03   -0.25019E-03   -0.44221E-03   120   0.257E-01    0.675E-02
DAV:   3    -0.101049921377E+03    0.69429E-04   -0.20001E-04   128   0.547E-02    0.334E-02
DAV:   4    -0.101049907605E+03    0.13772E-04   -0.68001E-05   120   0.301E-02    0.783E-03
DAV:   5    -0.101049906971E+03    0.63354E-06   -0.68886E-06   112   0.117E-02
  11 F= -.10104991E+03 E0= -.10104991E+03  d E =-.342825E-02
       N       E                     dE             d eps       ncg     rms          rms(c)
DAV:   1    -0.101051128111E+03   -0.12205E-02   -0.16205E-01    84   0.178E+00    0.115E-01
DAV:   2    -0.101051462046E+03   -0.33394E-03   -0.47736E-03   120   0.273E-01    0.686E-02
DAV:   3    -0.101051408090E+03    0.53956E-04   -0.19965E-04   128   0.606E-02    0.331E-02
DAV:   4    -0.101051415714E+03   -0.76232E-05   -0.79517E-05   120   0.338E-02    0.870E-03
DAV:   5    -0.101051420605E+03   -0.48916E-05   -0.81036E-06   112   0.120E-02    0.437E-03
DAV:   6    -0.101051423880E+03   -0.32745E-05   -0.14721E-06    88   0.467E-03    0.202E-03
DAV:   7    -0.101051428199E+03   -0.43195E-05   -0.37604E-07    88   0.247E-03    0.526E-04
DAV:   8    -0.101051431601E+03   -0.34014E-05   -0.18419E-07    88   0.170E-03    0.465E-04
DAV:   9    -0.101051436879E+03   -0.52785E-05   -0.23991E-07    80   0.178E-03    0.305E-04
DAV:  10    -0.101051439093E+03   -0.22135E-05   -0.12949E-07    88   0.111E-03    0.201E-04
DAV:  11    -0.101051440059E+03   -0.96609E-06   -0.31319E-08    88   0.611E-04
  12 F= -.10105144E+03 E0= -.10105144E+03  d E =-.153309E-02
       N       E                     dE             d eps       ncg     rms          rms(c)
DAV:   1    -0.101051468027E+03   -0.28934E-04   -0.44883E-03    84   0.296E-01    0.192E-02
DAV:   2    -0.101051476610E+03   -0.85835E-05   -0.13186E-04   120   0.454E-02    0.114E-02
DAV:   3    -0.101051474730E+03    0.18803E-05   -0.55259E-06   128   0.100E-02    0.551E-03
DAV:   4    -0.101051474790E+03   -0.60011E-07   -0.20296E-06    96   0.554E-03
  13 F= -.10105147E+03 E0= -.10105147E+03  d E =-.156782E-02
       N       E                     dE             d eps       ncg     rms          rms(c)
DAV:   1    -0.101052294704E+03   -0.81997E-03   -0.95094E-02    84   0.135E+00    0.103E-01
DAV:   2    -0.101052493757E+03   -0.19905E-03   -0.31186E-03   120   0.211E-01    0.558E-02
DAV:   3    -0.101052446570E+03    0.47187E-04   -0.12086E-04   120   0.430E-02    0.289E-02
DAV:   4    -0.101052435055E+03    0.11515E-04   -0.49399E-05   112   0.257E-02    0.748E-03
DAV:   5    -0.101052435745E+03   -0.69021E-06   -0.57180E-06   120   0.101E-02
  14 F= -.10105244E+03 E0= -.10105244E+03  d E =-.960955E-03
       N       E                     dE             d eps       ncg     rms          rms(c)
DAV:   1    -0.101052448933E+03   -0.13878E-04   -0.11739E-03    84   0.150E-01    0.114E-02
DAV:   2    -0.101052454213E+03   -0.52802E-05   -0.34722E-05   112   0.224E-02    0.630E-03
DAV:   3    -0.101052456631E+03   -0.24177E-05   -0.15230E-06    96   0.491E-03    0.312E-03
DAV:   4    -0.101052459755E+03   -0.31237E-05   -0.82615E-07    88   0.325E-03    0.723E-04
DAV:   5    -0.101052461340E+03   -0.15849E-05   -0.16473E-07    88   0.161E-03    0.373E-04
DAV:   6    -0.101052462674E+03   -0.13347E-05   -0.58209E-08    88   0.825E-04    0.199E-04
DAV:   7    -0.101052464148E+03   -0.14733E-05   -0.44462E-08    80   0.568E-04    0.834E-05
DAV:   8    -0.101052464915E+03   -0.76751E-06   -0.17147E-08    88   0.337E-04
  15 F= -.10105246E+03 E0= -.10105246E+03  d E =-.990125E-03
       N       E                     dE             d eps       ncg     rms          rms(c)
DAV:   1    -0.101052628024E+03   -0.16388E-03   -0.14996E-02    84   0.531E-01    0.456E-02
DAV:   2    -0.101052683770E+03   -0.55745E-04   -0.74120E-04   120   0.103E-01    0.248E-02
DAV:   3    -0.101052674927E+03    0.88428E-05   -0.28135E-05   120   0.219E-02    0.134E-02
DAV:   4    -0.101052672264E+03    0.26630E-05   -0.10750E-05   112   0.130E-02    0.341E-03
DAV:   5    -0.101052671710E+03    0.55344E-06   -0.12977E-06    96   0.562E-03
  16 F= -.10105267E+03 E0= -.10105267E+03  d E =-.206795E-03
       N       E                     dE             d eps       ncg     rms          rms(c)
DAV:   1    -0.101052673612E+03   -0.13478E-05   -0.14850E-04    88   0.529E-02    0.440E-03
DAV:   2    -0.101052674531E+03   -0.91989E-06   -0.62530E-06   112   0.954E-03
  17 F= -.10105267E+03 E0= -.10105267E+03  d E =-.209616E-03
