       N       E                     dE             d eps       ncg     rms          rms(c)
DAV:   1     0.203819154766E+03    0.20382E+03   -0.10482E+04   116   0.546E+02
DAV:   2    -0.249184907918E+02   -0.22874E+03   -0.21454E+03   136   0.103E+02
DAV:   3    -0.101144368389E+03   -0.76226E+02   -0.76040E+02   112   0.560E+01
DAV:   4    -0.105554488423E+03   -0.44101E+01   -0.43930E+01   104   0.187E+01
DAV:   5    -0.105630181803E+03   -0.75693E-01   -0.75553E-01   128   0.277E+00    0.146E+01
DAV:   6    -0.102476358412E+03    0.31538E+01   -0.15304E+00    96   0.447E+00    0.851E+00
DAV:   7    -0.100811303197E+03    0.16651E+01   -0.40567E+00   104   0.667E+00    0.123E+00
DAV:   8    -0.100758569777E+03    0.52733E-01   -0.25686E-01   104   0.215E+00    0.610E-01
DAV:   9    -0.100722990487E+03    0.35579E-01   -0.72642E-02   120   0.756E-01    0.339E-01
DAV:  10    -0.100723301037E+03   -0.31055E-03   -0.26247E-03   112   0.196E-01    0.151E-01
DAV:  11    -0.100722976222E+03    0.32481E-03   -0.68654E-03   104   0.242E-01    0.932E-02
DAV:  12    -0.100726705819E+03   -0.37296E-02   -0.92423E-04    96   0.900E-02    0.628E-02
DAV:  13    -0.100732264088E+03   -0.55583E-02   -0.20596E-03   112   0.119E-01    0.416E-02
DAV:  14    -0.100735491418E+03   -0.32273E-02   -0.24181E-04   112   0.484E-02    0.180E-02
DAV:  15    -0.100740393929E+03   -0.49025E-02   -0.65342E-04   102   0.673E-02    0.186E-02
DAV:  16    -0.100741463046E+03   -0.10691E-02   -0.64426E-05   112   0.244E-02    0.832E-03
DAV:  17    -0.100742522159E+03   -0.10591E-02   -0.10415E-04   104   0.254E-02    0.396E-03
DAV:  18    -0.100742687155E+03   -0.16500E-03   -0.60883E-06   120   0.811E-03    0.252E-03
DAV:  19    -0.100742885308E+03   -0.19815E-03   -0.72287E-06    96   0.639E-03    0.167E-03
DAV:  20    -0.100742935051E+03   -0.49742E-04   -0.10106E-06    88   0.324E-03    0.709E-04
DAV:  21    -0.100742963714E+03   -0.28663E-04   -0.70897E-07    80   0.227E-03    0.609E-04
DAV:  22    -0.100742974661E+03   -0.10947E-04   -0.26191E-07    80   0.140E-03    0.293E-04
DAV:  23    -0.100742977310E+03   -0.26485E-05   -0.61127E-08    88   0.698E-04    0.217E-04
DAV:  24    -0.100742981137E+03   -0.38270E-05   -0.71585E-08    78   0.670E-04    0.126E-04
DAV:  25    -0.100742981552E+03   -0.41499E-06   -0.11179E-08    88   0.300E-04
   1 F= -.10074298E+03 E0= -.10074298E+03  d E =-.100743E+03
       N       E                     dE             d eps       ncg     rms          rms(c)
DAV:   1    -0.100823038579E+03   -0.80057E-01   -0.47977E+00    84   0.874E+00    0.998E-01
DAV:   2    -0.100846152451E+03   -0.23114E-01   -0.26548E-01   120   0.202E+00    0.530E-01
DAV:   3    -0.100843115933E+03    0.30365E-02   -0.81053E-03   120   0.377E-01    0.277E-01
DAV:   4    -0.100842270099E+03    0.84583E-03   -0.43940E-03   112   0.236E-01    0.543E-02
DAV:   5    -0.100842146916E+03    0.12318E-03   -0.44758E-04   112   0.886E-02    0.350E-02
DAV:   6    -0.100842192409E+03   -0.45492E-04   -0.10120E-04   112   0.381E-02    0.211E-02
DAV:   7    -0.100842403301E+03   -0.21089E-03   -0.51101E-05   104   0.281E-02    0.657E-03
DAV:   8    -0.100842528217E+03   -0.12492E-03   -0.17328E-05   120   0.166E-02    0.718E-03
DAV:   9    -0.100842636657E+03   -0.10844E-03   -0.50024E-06   112   0.698E-03    0.491E-03
DAV:  10    -0.100842813008E+03   -0.17635E-03   -0.12730E-05   112   0.851E-03    0.256E-03
DAV:  11    -0.100842867256E+03   -0.54248E-04   -0.21223E-06    96   0.414E-03    0.176E-03
DAV:  12    -0.100842936589E+03   -0.69334E-04   -0.40992E-06   104   0.485E-03    0.733E-04
DAV:  13    -0.100842949414E+03   -0.12825E-04   -0.25805E-07    88   0.181E-03    0.489E-04
DAV:  14    -0.100842970640E+03   -0.21226E-04   -0.62314E-07    86   0.186E-03    0.371E-04
DAV:  15    -0.100842974622E+03   -0.39822E-05   -0.80093E-08    88   0.725E-04    0.272E-04
DAV:  16    -0.100842980105E+03   -0.54827E-05   -0.96277E-08    88   0.782E-04    0.291E-04
DAV:  17    -0.100842980451E+03   -0.34622E-06   -0.92069E-09    88   0.292E-04
   2 F= -.10084298E+03 E0= -.10084298E+03  d E =-.999989E-01
       N       E                     dE             d eps       ncg     rms          rms(c)
DAV:   1    -0.100854156224E+03   -0.11176E-01   -0.28364E-01    84   0.215E+00    0.228E-01
DAV:   2    -0.100855565908E+03   -0.14097E-02   -0.16446E-02   120   0.503E-01    0.135E-01
DAV:   3    -0.100855361072E+03    0.20484E-03   -0.53219E-04   120   0.965E-02    0.686E-02
DAV:   4    -0.100855294490E+03    0.66583E-04   -0.27667E-04   112   0.591E-02    0.138E-02
DAV:   5    -0.100855285716E+03    0.87733E-05   -0.26712E-05   112   0.217E-02    0.882E-03
DAV:   6    -0.100855295851E+03   -0.10135E-04   -0.72687E-06   112   0.983E-03    0.492E-03
DAV:   7    -0.100855323634E+03   -0.27782E-04   -0.42141E-06   112   0.750E-03    0.191E-03
DAV:   8    -0.100855337880E+03   -0.14246E-04   -0.12785E-06    88   0.458E-03    0.199E-03
DAV:   9    -0.100855351270E+03   -0.13391E-04   -0.73015E-07    88   0.258E-03    0.130E-03
DAV:  10    -0.100855369673E+03   -0.18403E-04   -0.15687E-06    96   0.303E-03    0.652E-04
DAV:  11    -0.100855373354E+03   -0.36803E-05   -0.13573E-07    88   0.118E-03    0.369E-04
DAV:  12    -0.100855379751E+03   -0.63974E-05   -0.37580E-07    88   0.138E-03    0.174E-04
DAV:  13    -0.100855381377E+03   -0.16259E-05   -0.59384E-08    88   0.635E-04    0.115E-04
DAV:  14    -0.100855383011E+03   -0.16342E-05   -0.55860E-08    88   0.559E-04    0.810E-05
DAV:  15    -0.100855383318E+03   -0.30664E-06   -0.81624E-09    88   0.233E-04
   3 F= -.10085538E+03 E0= -.10085538E+03  d E =-.112402E+00
       N       E                     dE             d eps       ncg     rms          rms(c)
DAV:   1    -0.100874197475E+03   -0.18814E-01   -0.41854E-01    84   0.265E+00    0.288E-01
DAV:   2    -0.100875512391E+03   -0.13149E-02   -0.17640E-02   120   0.511E-01    0.129E-01
DAV:   3    -0.100875321360E+03    0.19103E-03   -0.91597E-04   112   0.115E-01    0.653E-02
DAV:   4    -0.100875312994E+03    0.83659E-05   -0.30133E-04   112   0.604E-02    0.239E-02
DAV:   5    -0.100875304593E+03    0.84006E-05   -0.21142E-05   112   0.196E-02    0.113E-02
DAV:   6    -0.100875304909E+03   -0.31620E-06   -0.81635E-06   120   0.113E-02
   4 F= -.10087530E+03 E0= -.10087530E+03  d E =-.199216E-01
       N       E                     dE             d eps       ncg     rms          rms(c)
DAV:   1    -0.100877801195E+03   -0.24966E-02   -0.12181E-01    84   0.143E+00    0.154E-01
DAV:   2    -0.100878180713E+03   -0.37952E-03   -0.52310E-03   120   0.278E-01    0.700E-02
DAV:   3    -0.100878120693E+03    0.60020E-04   -0.27756E-04   112   0.632E-02    0.354E-02
DAV:   4    -0.100878120616E+03    0.76152E-07   -0.92405E-05   112   0.334E-02    0.132E-02
DAV:   5    -0.100878122914E+03   -0.22971E-05   -0.64924E-06   112   0.109E-02    0.633E-03
DAV:   6    -0.100878127401E+03   -0.44879E-05   -0.27085E-06   104   0.655E-03    0.258E-03
DAV:   7    -0.100878136075E+03   -0.86739E-05   -0.14876E-06    96   0.491E-03    0.153E-03
DAV:   8    -0.100878139060E+03   -0.29849E-05   -0.42369E-07    88   0.250E-03    0.131E-03
DAV:   9    -0.100878142981E+03   -0.39205E-05   -0.13091E-07    88   0.119E-03    0.569E-04
DAV:  10    -0.100878151928E+03   -0.89470E-05   -0.59281E-07    88   0.182E-03    0.536E-04
DAV:  11    -0.100878153727E+03   -0.17996E-05   -0.85695E-08    88   0.877E-04    0.165E-04
DAV:  12    -0.100878156525E+03   -0.27976E-05   -0.12237E-07    88   0.850E-04    0.119E-04
DAV:  13    -0.100878157498E+03   -0.97270E-06   -0.35023E-08    88   0.479E-04
   5 F= -.10087816E+03 E0= -.10087816E+03  d E =-.227742E-01
       N       E                     dE             d eps       ncg     rms          rms(c)
DAV:   1    -0.100884234285E+03   -0.60778E-02   -0.18353E-01    84   0.192E+00    0.145E-01
DAV:   2    -0.100884638468E+03   -0.40418E-03   -0.58018E-03   120   0.287E-01    0.750E-02
DAV:   3    -0.100884588414E+03    0.50054E-04   -0.21163E-04   120   0.541E-02    0.397E-02
DAV:   4    -0.100884583210E+03    0.52033E-05   -0.74278E-05   112   0.278E-02    0.907E-03
DAV:   5    -0.100884581770E+03    0.14400E-05   -0.53325E-06   112   0.878E-03    0.515E-03
DAV:   6    -0.100884582132E+03   -0.36168E-06   -0.13091E-06    88   0.427E-03
   6 F= -.10088458E+03 E0= -.10088458E+03  d E =-.642463E-02
       N       E                     dE             d eps       ncg     rms          rms(c)
DAV:   1    -0.100885730790E+03   -0.11490E-02   -0.92016E-02    84   0.136E+00    0.102E-01
DAV:   2    -0.100885935436E+03   -0.20465E-03   -0.29341E-03   120   0.204E-01    0.535E-02
DAV:   3    -0.100885910068E+03    0.25368E-04   -0.10668E-04   120   0.385E-02    0.284E-02
DAV:   4    -0.100885909004E+03    0.10634E-05   -0.37856E-05   112   0.199E-02    0.652E-03
DAV:   5    -0.100885910241E+03   -0.12370E-05   -0.27961E-06   112   0.634E-03    0.370E-03
DAV:   6    -0.100885913212E+03   -0.29711E-05   -0.75147E-07    88   0.317E-03    0.125E-03
DAV:   7    -0.100885917121E+03   -0.39082E-05   -0.36394E-07    88   0.212E-03    0.641E-04
DAV:   8    -0.100885922391E+03   -0.52706E-05   -0.22526E-07    88   0.144E-03    0.331E-04
DAV:   9    -0.100885926510E+03   -0.41190E-05   -0.21098E-07    88   0.109E-03    0.224E-04
DAV:  10    -0.100885930295E+03   -0.37850E-05   -0.20593E-07    88   0.983E-04    0.119E-04
DAV:  11    -0.100885931733E+03   -0.14374E-05   -0.54113E-08    88   0.548E-04    0.744E-05
DAV:  12    -0.100885932530E+03   -0.79779E-06   -0.19934E-08    88   0.319E-04
   7 F= -.10088593E+03 E0= -.10088593E+03  d E =-.777503E-02
       N       E                     dE             d eps       ncg     rms          rms(c)
DAV:   1    -0.100890237151E+03   -0.43054E-02   -0.20109E-01    84   0.209E+00    0.124E-01
DAV:   2    -0.100890446433E+03   -0.20928E-03   -0.42864E-03   120   0.260E-01    0.679E-02
DAV:   3    -0.100890402478E+03    0.43955E-04   -0.23974E-04   128   0.626E-02    0.325E-02
DAV:   4    -0.100890401817E+03    0.66072E-06   -0.65591E-05   120   0.323E-02    0.836E-03
DAV:   5    -0.100890403617E+03   -0.17999E-05   -0.94351E-06   112   0.120E-02    0.613E-03
DAV:   6    -0.100890404681E+03   -0.10636E-05   -0.68060E-07    88   0.324E-03    0.244E-03
DAV:   7    -0.100890406363E+03   -0.16819E-05   -0.32118E-07    88   0.205E-03    0.553E-04
DAV:   8    -0.100890408659E+03   -0.22962E-05   -0.11486E-07    88   0.137E-03    0.319E-04
DAV:   9    -0.100890410895E+03   -0.22366E-05   -0.10886E-07    88   0.106E-03    0.196E-04
DAV:  10    -0.100890412611E+03   -0.17155E-05   -0.73406E-08    88   0.743E-04    0.979E-05
DAV:  11    -0.100890413469E+03   -0.85843E-06   -0.24890E-08    88   0.436E-04
   8 F= -.10089041E+03 E0= -.10089041E+03  d E =-.448094E-02
       N       E                     dE             d eps       ncg     rms          rms(c)
DAV:   1    -0.100890788219E+03   -0.37561E-03   -0.32609E-02    84   0.841E-01    0.496E-02
DAV:   2    -0.100890822826E+03   -0.34607E-04   -0.69652E-04   120   0.105E-01    0.274E-02
DAV:   3    -0.100890816289E+03    0.65375E-05   -0.38821E-05   128   0.252E-02    0.131E-02
DAV:   4    -0.100890816500E+03   -0.21155E-06   -0.10573E-05   120   0.130E-02    0.341E-03
DAV:   5    -0.100890816815E+03   -0.31448E-06   -0.14336E-06    88   0.479E-03
   9 F= -.10089082E+03 E0= -.10089082E+03  d E =-.488428E-02
       N       E                     dE             d eps       ncg     rms          rms(c)
DAV:   1    -0.100892775010E+03   -0.19585E-02   -0.87231E-02    84   0.134E+00    0.876E-02
DAV:   2    -0.100892915154E+03   -0.14014E-03   -0.23311E-03   120   0.185E-01    0.472E-02
DAV:   3    -0.100892881620E+03    0.33534E-04   -0.10042E-04   128   0.381E-02    0.247E-02
DAV:   4    -0.100892872534E+03    0.90860E-05   -0.34955E-05   120   0.219E-02    0.528E-03
DAV:   5    -0.100892871155E+03    0.13787E-05   -0.46282E-06   112   0.896E-03    0.375E-03
DAV:   6    -0.100892871776E+03   -0.62070E-06   -0.73531E-07    96   0.373E-03
  10 F= -.10089287E+03 E0= -.10089287E+03  d E =-.205496E-02
       N       E                     dE             d eps       ncg     rms          rms(c)
DAV:   1    -0.100893252013E+03   -0.38086E-03   -0.68098E-02    84   0.118E+00    0.778E-02
DAV:   2    -0.100893363742E+03   -0.11173E-03   -0.18507E-03   120   0.165E-01    0.419E-02
DAV:   3    -0.100893336511E+03    0.27231E-04   -0.79201E-05   128   0.338E-02    0.220E-02
DAV:   4    -0.100893329666E+03    0.68446E-05   -0.27521E-05   120   0.195E-02    0.471E-03
DAV:   5    -0.100893330101E+03   -0.43516E-06   -0.38342E-06   120   0.817E-03
  11 F= -.10089333E+03 E0= -.10089333E+03  d E =-.251329E-02
       N       E                     dE             d eps       ncg     rms          rms(c)
DAV:   1    -0.100894330438E+03   -0.10008E-02   -0.12508E-01    84   0.156E+00    0.106E-01
DAV:   2    -0.100894628568E+03   -0.29813E-03   -0.41848E-03   120   0.248E-01    0.599E-02
DAV:   3    -0.100894587871E+03    0.40696E-04   -0.17313E-04   128   0.539E-02    0.310E-02
DAV:   4    -0.100894589892E+03   -0.20209E-05   -0.57933E-05   120   0.297E-02    0.815E-03
DAV:   5    -0.100894592621E+03   -0.27291E-05   -0.56268E-06   120   0.992E-03    0.425E-03
DAV:   6    -0.100894594604E+03   -0.19829E-05   -0.10039E-06    88   0.396E-03    0.201E-03
DAV:   7    -0.100894597577E+03   -0.29726E-05   -0.40428E-07    88   0.249E-03    0.554E-04
DAV:   8    -0.100894599739E+03   -0.21622E-05   -0.13945E-07    88   0.150E-03    0.455E-04
DAV:   9    -0.100894603807E+03   -0.40679E-05   -0.22396E-07    88   0.156E-03    0.359E-04
DAV:  10    -0.100894605339E+03   -0.15324E-05   -0.85402E-08    88   0.892E-04    0.205E-04
DAV:  11    -0.100894606392E+03   -0.10530E-05   -0.29656E-08    88   0.530E-04    0.846E-05
DAV:  12    -0.100894607366E+03   -0.97336E-06   -0.21643E-08    88   0.360E-04
  12 F= -.10089461E+03 E0= -.10089461E+03  d E =-.127726E-02
       N       E                     dE             d eps       ncg     rms          rms(c)
DAV:   1    -0.100894616107E+03   -0.97148E-05   -0.11708E-03    84   0.151E-01    0.103E-02
DAV:   2    -0.100894618726E+03   -0.26189E-05   -0.39038E-05   120   0.240E-02    0.581E-03
DAV:   3    -0.100894618199E+03    0.52684E-06   -0.15216E-06    96   0.518E-03
  13 F= -.10089462E+03 E0= -.10089462E+03  d E =-.128810E-02
       N       E                     dE             d eps       ncg     rms          rms(c)
DAV:   1    -0.100895395358E+03   -0.77663E-03   -0.67621E-02    84   0.115E+00    0.870E-02
DAV:   2    -0.100895516729E+03   -0.12137E-03   -0.19900E-03   112   0.164E-01    0.442E-02
DAV:   3    -0.100895484581E+03    0.32148E-04   -0.88175E-05   120   0.360E-02    0.221E-02
DAV:   4    -0.100895479481E+03    0.50997E-05   -0.28912E-05   112   0.193E-02    0.651E-03
DAV:   5    -0.100895480461E+03   -0.98034E-06   -0.28174E-06   112   0.708E-03
  14 F= -.10089548E+03 E0= -.10089548E+03  d E =-.862262E-03
       N       E                     dE             d eps       ncg     rms          rms(c)
DAV:   1    -0.100895491155E+03   -0.11674E-04   -0.13722E-03    88   0.164E-01    0.125E-02
DAV:   2    -0.100895493358E+03   -0.22029E-05   -0.42390E-05   120   0.239E-02    0.620E-03
DAV:   3    -0.100895492599E+03    0.75942E-06   -0.16558E-06    88   0.512E-03
  15 F= -.10089549E+03 E0= -.10089549E+03  d E =-.874400E-03
       N       E                     dE             d eps       ncg     rms          rms(c)
DAV:   1    -0.100895660190E+03   -0.16683E-03   -0.17672E-02    84   0.582E-01    0.448E-02
DAV:   2    -0.100895717330E+03   -0.57140E-04   -0.77429E-04   120   0.107E-01    0.267E-02
DAV:   3    -0.100895708210E+03    0.91204E-05   -0.28461E-05   120   0.220E-02    0.139E-02
DAV:   4    -0.100895706975E+03    0.12343E-05   -0.10831E-05   112   0.123E-02    0.356E-03
DAV:   5    -0.100895707236E+03   -0.26059E-06   -0.89856E-07    88   0.461E-03
  16 F= -.10089571E+03 E0= -.10089571E+03  d E =-.214637E-03
       N       E                     dE             d eps       ncg     rms          rms(c)
DAV:   1    -0.100895709606E+03   -0.26308E-05   -0.17311E-04    84   0.578E-02    0.433E-03
DAV:   2    -0.100895711012E+03   -0.14056E-05   -0.65161E-06   120   0.999E-03    0.273E-03
DAV:   3    -0.100895711814E+03   -0.80276E-06   -0.25707E-07    80   0.229E-03
  17 F= -.10089571E+03 E0= -.10089571E+03  d E =-.219216E-03
       N       E                     dE             d eps       ncg     rms          rms(c)
DAV:   1    -0.100895794850E+03   -0.83838E-04   -0.67877E-03    84   0.375E-01    0.288E-02
DAV:   2    -0.100895802024E+03   -0.71743E-05   -0.16469E-04   120   0.509E-02    0.146E-02
DAV:   3    -0.100895798574E+03    0.34504E-05   -0.10555E-05   120   0.123E-02    0.680E-03
DAV:   4    -0.100895798408E+03    0.16524E-06   -0.29371E-06   112   0.603E-03
  18 F= -.10089580E+03 E0= -.10089580E+03  d E =-.865941E-04
