       N       E                     dE             d eps       ncg     rms          rms(c)
DAV:   1     0.204291974315E+03    0.20429E+03   -0.10478E+04   116   0.546E+02
DAV:   2    -0.259087144281E+02   -0.23020E+03   -0.21584E+03   136   0.103E+02
DAV:   3    -0.101433871762E+03   -0.75525E+02   -0.75355E+02   104   0.564E+01
DAV:   4    -0.105828283356E+03   -0.43944E+01   -0.43784E+01   104   0.195E+01
DAV:   5    -0.105909685993E+03   -0.81403E-01   -0.81320E-01   120   0.299E+00    0.148E+01
DAV:   6    -0.102712601580E+03    0.31971E+01   -0.15804E+00   112   0.455E+00    0.858E+00
DAV:   7    -0.101037652975E+03    0.16749E+01   -0.40690E+00   104   0.673E+00    0.122E+00
DAV:   8    -0.100985562776E+03    0.52090E-01   -0.26894E-01   104   0.220E+00    0.616E-01
DAV:   9    -0.100949458607E+03    0.36104E-01   -0.77508E-02   128   0.785E-01    0.342E-01
DAV:  10    -0.100949541781E+03   -0.83174E-04   -0.27936E-03   112   0.212E-01    0.161E-01
DAV:  11    -0.100949262351E+03    0.27943E-03   -0.67929E-03   104   0.243E-01    0.848E-02
DAV:  12    -0.100953585406E+03   -0.43231E-02   -0.91433E-04    94   0.940E-02    0.584E-02
DAV:  13    -0.100958182859E+03   -0.45975E-02   -0.19535E-03   112   0.113E-01    0.360E-02
DAV:  14    -0.100962245590E+03   -0.40627E-02   -0.34575E-04   112   0.540E-02    0.157E-02
DAV:  15    -0.100966524485E+03   -0.42789E-02   -0.48973E-04   112   0.588E-02    0.151E-02
DAV:  16    -0.100967865148E+03   -0.13407E-02   -0.84772E-05   112   0.260E-02    0.659E-03
DAV:  17    -0.100968871595E+03   -0.10064E-02   -0.82415E-05   104   0.219E-02    0.397E-03
DAV:  18    -0.100969170181E+03   -0.29859E-03   -0.94584E-06   104   0.826E-03    0.182E-03
DAV:  19    -0.100969338663E+03   -0.16848E-03   -0.71133E-06    96   0.678E-03    0.194E-03
DAV:  20    -0.100969387690E+03   -0.49027E-04   -0.88049E-07    88   0.334E-03    0.553E-04
DAV:  21    -0.100969417705E+03   -0.30015E-04   -0.89885E-07    80   0.246E-03    0.467E-04
DAV:  22    -0.100969425898E+03   -0.81937E-05   -0.17564E-07    88   0.123E-03    0.189E-04
DAV:  23    -0.100969430366E+03   -0.44676E-05   -0.11837E-07    80   0.840E-04    0.141E-04
DAV:  24    -0.100969432598E+03   -0.22315E-05   -0.33159E-08    88   0.472E-04    0.475E-05
DAV:  25    -0.100969433379E+03   -0.78164E-06   -0.14221E-08    80   0.303E-04
   1 F= -.10096943E+03 E0= -.10096943E+03  d E =-.100969E+03
       N       E                     dE             d eps       ncg     rms          rms(c)
DAV:   1    -0.101119740377E+03   -0.15031E+00   -0.68649E+00    84   0.109E+01    0.121E+00
DAV:   2    -0.101150061452E+03   -0.30321E-01   -0.36414E-01   120   0.243E+00    0.601E-01
DAV:   3    -0.101145430696E+03    0.46308E-02   -0.13392E-02   128   0.481E-01    0.309E-01
DAV:   4    -0.101144549362E+03    0.88133E-03   -0.72796E-03   112   0.309E-01    0.702E-02
DAV:   5    -0.101144384892E+03    0.16447E-03   -0.69197E-04   112   0.113E-01    0.449E-02
DAV:   6    -0.101144407220E+03   -0.22328E-04   -0.14387E-04   120   0.442E-02    0.250E-02
DAV:   7    -0.101144560847E+03   -0.15363E-03   -0.48329E-05   104   0.338E-02    0.717E-03
DAV:   8    -0.101144654688E+03   -0.93842E-04   -0.28770E-05   112   0.220E-02    0.956E-03
DAV:   9    -0.101144709101E+03   -0.54412E-04   -0.35572E-06   104   0.712E-03    0.763E-03
DAV:  10    -0.101144901400E+03   -0.19230E-03   -0.15892E-05   112   0.972E-03    0.444E-03
DAV:  11    -0.101144947106E+03   -0.45706E-04   -0.20571E-06    96   0.456E-03    0.341E-03
DAV:  12    -0.101145017685E+03   -0.70579E-04   -0.38156E-06   104   0.609E-03    0.208E-03
DAV:  13    -0.101145039923E+03   -0.22238E-04   -0.88214E-07    88   0.319E-03    0.696E-04
DAV:  14    -0.101145062417E+03   -0.22494E-04   -0.49959E-07    88   0.197E-03    0.421E-04
DAV:  15    -0.101145076599E+03   -0.14182E-04   -0.38072E-07    88   0.137E-03    0.522E-04
DAV:  16    -0.101145084266E+03   -0.76666E-05   -0.12021E-07    88   0.904E-04    0.318E-04
DAV:  17    -0.101145085603E+03   -0.13372E-05   -0.29979E-08    88   0.450E-04    0.346E-04
DAV:  18    -0.101145087348E+03   -0.17451E-05   -0.24745E-08    80   0.500E-04    0.161E-04
DAV:  19    -0.101145087978E+03   -0.62986E-06   -0.11249E-08    88   0.281E-04
   2 F= -.10114509E+03 E0= -.10114509E+03  d E =-.175655E+00
       N       E                     dE             d eps       ncg     rms          rms(c)
DAV:   1    -0.101148662728E+03   -0.35754E-02   -0.10970E-01    84   0.138E+00    0.142E-01
DAV:   2    -0.101149119391E+03   -0.45666E-03   -0.57911E-03   120   0.306E-01    0.789E-02
DAV:   3    -0.101149033559E+03    0.85832E-04   -0.23283E-04   120   0.633E-02    0.390E-02
DAV:   4    -0.101149014504E+03    0.19055E-04   -0.11866E-04   112   0.394E-02    0.102E-02
DAV:   5    -0.101149011295E+03    0.32093E-05   -0.10068E-05   112   0.138E-02    0.578E-03
DAV:   6    -0.101149015037E+03   -0.37420E-05   -0.28891E-06   104   0.624E-03    0.287E-03
DAV:   7    -0.101149024160E+03   -0.91234E-05   -0.96209E-07    80   0.447E-03    0.879E-04
DAV:   8    -0.101149028743E+03   -0.45828E-05   -0.62316E-07    88   0.303E-03    0.122E-03
DAV:   9    -0.101149031868E+03   -0.31251E-05   -0.15255E-07    88   0.152E-03    0.772E-04
DAV:  10    -0.101149040399E+03   -0.85309E-05   -0.75151E-07    80   0.200E-03    0.561E-04
DAV:  11    -0.101149041730E+03   -0.13313E-05   -0.84030E-08    88   0.801E-04    0.342E-04
DAV:  12    -0.101149044178E+03   -0.24481E-05   -0.12858E-07    80   0.962E-04    0.111E-04
DAV:  13    -0.101149045170E+03   -0.99177E-06   -0.51754E-08    88   0.584E-04
   3 F= -.10114905E+03 E0= -.10114905E+03  d E =-.179612E+00
       N       E                     dE             d eps       ncg     rms          rms(c)
DAV:   1    -0.101174171880E+03   -0.25128E-01   -0.71525E-01    84   0.357E+00    0.351E-01
DAV:   2    -0.101177614875E+03   -0.34430E-02   -0.41388E-02   120   0.749E-01    0.160E-01
DAV:   3    -0.101177334299E+03    0.28058E-03   -0.18029E-03   128   0.170E-01    0.854E-02
DAV:   4    -0.101177308267E+03    0.26033E-04   -0.47331E-04   112   0.832E-02    0.291E-02
DAV:   5    -0.101177305430E+03    0.28363E-05   -0.49059E-05   120   0.301E-02    0.153E-02
DAV:   6    -0.101177309092E+03   -0.36614E-05   -0.80860E-06   120   0.129E-02    0.809E-03
DAV:   7    -0.101177324062E+03   -0.14971E-04   -0.60436E-06   112   0.106E-02    0.195E-03
DAV:   8    -0.101177331649E+03   -0.75865E-05   -0.17506E-06    96   0.554E-03    0.209E-03
DAV:   9    -0.101177335734E+03   -0.40850E-05   -0.19526E-07    88   0.169E-03    0.129E-03
DAV:  10    -0.101177350940E+03   -0.15206E-04   -0.11638E-06    80   0.296E-03    0.684E-04
DAV:  11    -0.101177354993E+03   -0.40524E-05   -0.28782E-07    88   0.147E-03    0.646E-04
DAV:  12    -0.101177360291E+03   -0.52987E-05   -0.23846E-07    88   0.130E-03    0.204E-04
DAV:  13    -0.101177362745E+03   -0.24541E-05   -0.12941E-07    88   0.883E-04    0.213E-04
DAV:  14    -0.101177364157E+03   -0.14118E-05   -0.38313E-08    88   0.559E-04    0.894E-05
DAV:  15    -0.101177365107E+03   -0.94984E-06   -0.36664E-08    88   0.458E-04
   4 F= -.10117737E+03 E0= -.10117737E+03  d E =-.283199E-01
       N       E                     dE             d eps       ncg     rms          rms(c)
DAV:   1    -0.101178105594E+03   -0.74144E-03   -0.31159E-02    84   0.747E-01    0.722E-02
DAV:   2    -0.101178256708E+03   -0.15111E-03   -0.18262E-03   120   0.157E-01    0.336E-02
DAV:   3    -0.101178244898E+03    0.11810E-04   -0.80500E-05   128   0.360E-02    0.178E-02
DAV:   4    -0.101178243875E+03    0.10234E-05   -0.21236E-05   110   0.176E-02    0.629E-03
DAV:   5    -0.101178242926E+03    0.94847E-06   -0.20408E-06    96   0.631E-03
   5 F= -.10117824E+03 E0= -.10117824E+03  d E =-.291978E-01
       N       E                     dE             d eps       ncg     rms          rms(c)
DAV:   1    -0.101188232562E+03   -0.99887E-02   -0.24388E-01    84   0.229E+00    0.158E-01
DAV:   2    -0.101188631454E+03   -0.39889E-03   -0.77765E-03   120   0.339E-01    0.864E-02
DAV:   3    -0.101188546777E+03    0.84676E-04   -0.37747E-04   120   0.737E-02    0.454E-02
DAV:   4    -0.101188529129E+03    0.17648E-04   -0.10937E-04   112   0.348E-02    0.122E-02
DAV:   5    -0.101188527169E+03    0.19603E-05   -0.82548E-06   112   0.122E-02    0.747E-03
DAV:   6    -0.101188530632E+03   -0.34636E-05   -0.33885E-06    96   0.806E-03    0.236E-03
DAV:   7    -0.101188538758E+03   -0.81255E-05   -0.17730E-06    96   0.474E-03    0.151E-03
DAV:   8    -0.101188545706E+03   -0.69483E-05   -0.27394E-07    88   0.179E-03    0.860E-04
DAV:   9    -0.101188557092E+03   -0.11386E-04   -0.65166E-07    88   0.187E-03    0.463E-04
DAV:  10    -0.101188563711E+03   -0.66185E-05   -0.32864E-07    88   0.132E-03    0.339E-04
DAV:  11    -0.101188570210E+03   -0.64998E-05   -0.35034E-07    88   0.131E-03    0.142E-04
DAV:  12    -0.101188572220E+03   -0.20094E-05   -0.66014E-08    88   0.687E-04    0.110E-04
DAV:  13    -0.101188574255E+03   -0.20351E-05   -0.70730E-08    88   0.613E-04    0.811E-05
DAV:  14    -0.101188574710E+03   -0.45525E-06   -0.13672E-08    88   0.300E-04
   6 F= -.10118857E+03 E0= -.10118857E+03  d E =-.103318E-01
       N       E                     dE             d eps       ncg     rms          rms(c)
DAV:   1    -0.101190997587E+03   -0.24233E-02   -0.15558E-01    84   0.183E+00    0.126E-01
DAV:   2    -0.101191255685E+03   -0.25810E-03   -0.49825E-03   120   0.272E-01    0.693E-02
DAV:   3    -0.101191202203E+03    0.53483E-04   -0.24061E-04   120   0.589E-02    0.365E-02
DAV:   4    -0.101191190248E+03    0.11955E-04   -0.69834E-05   112   0.278E-02    0.973E-03
DAV:   5    -0.101191187954E+03    0.22942E-05   -0.52547E-06   112   0.973E-03    0.595E-03
DAV:   6    -0.101191189086E+03   -0.11321E-05   -0.19839E-06    88   0.635E-03    0.186E-03
DAV:   7    -0.101191193832E+03   -0.47458E-05   -0.12109E-06    80   0.393E-03    0.114E-03
DAV:   8    -0.101191199028E+03   -0.51964E-05   -0.25530E-07    88   0.178E-03    0.608E-04
DAV:   9    -0.101191205890E+03   -0.68618E-05   -0.38823E-07    88   0.150E-03    0.342E-04
DAV:  10    -0.101191211829E+03   -0.59391E-05   -0.33296E-07    88   0.134E-03    0.218E-04
DAV:  11    -0.101191214994E+03   -0.31647E-05   -0.13162E-07    88   0.866E-04    0.974E-05
DAV:  12    -0.101191216687E+03   -0.16934E-05   -0.45704E-08    88   0.510E-04    0.733E-05
DAV:  13    -0.101191217642E+03   -0.95460E-06   -0.27437E-08    88   0.358E-04
   7 F= -.10119122E+03 E0= -.10119122E+03  d E =-.129747E-01
       N       E                     dE             d eps       ncg     rms          rms(c)
DAV:   1    -0.101196784123E+03   -0.55674E-02   -0.31570E-01    84   0.260E+00    0.176E-01
DAV:   2    -0.101197119283E+03   -0.33516E-03   -0.70536E-03   120   0.344E-01    0.935E-02
DAV:   3    -0.101196986196E+03    0.13309E-03   -0.45529E-04   128   0.897E-02    0.459E-02
DAV:   4    -0.101196984981E+03    0.12145E-05   -0.20243E-04   120   0.550E-02    0.130E-02
DAV:   5    -0.101196987411E+03   -0.24300E-05   -0.23394E-05   112   0.199E-02    0.859E-03
DAV:   6    -0.101196988770E+03   -0.13584E-05   -0.20325E-06   104   0.546E-03    0.375E-03
DAV:   7    -0.101196991381E+03   -0.26109E-05   -0.55909E-07    88   0.329E-03    0.106E-03
DAV:   8    -0.101196994076E+03   -0.26957E-05   -0.31911E-07    88   0.223E-03    0.814E-04
DAV:   9    -0.101196996697E+03   -0.26208E-05   -0.95576E-08    88   0.137E-03    0.264E-04
DAV:  10    -0.101197000096E+03   -0.33987E-05   -0.18875E-07    88   0.128E-03    0.260E-04
DAV:  11    -0.101197000869E+03   -0.77376E-06   -0.35088E-08    88   0.674E-04
   8 F= -.10119700E+03 E0= -.10119700E+03  d E =-.578323E-02
       N       E                     dE             d eps       ncg     rms          rms(c)
DAV:   1    -0.101197164700E+03   -0.16460E-03   -0.13148E-02    84   0.531E-01    0.360E-02
DAV:   2    -0.101197179020E+03   -0.14320E-04   -0.29316E-04   120   0.701E-02    0.191E-02
DAV:   3    -0.101197173855E+03    0.51657E-05   -0.18976E-05   128   0.183E-02    0.939E-03
DAV:   4    -0.101197174230E+03   -0.37591E-06   -0.84182E-06   120   0.112E-02
   9 F= -.10119717E+03 E0= -.10119717E+03  d E =-.595659E-02
       N       E                     dE             d eps       ncg     rms          rms(c)
DAV:   1    -0.101201238453E+03   -0.40646E-02   -0.18958E-01    84   0.199E+00    0.115E-01
DAV:   2    -0.101201372014E+03   -0.13356E-03   -0.37397E-03   120   0.247E-01    0.665E-02
DAV:   3    -0.101201297529E+03    0.74485E-04   -0.25339E-04   128   0.614E-02    0.302E-02
DAV:   4    -0.101201284007E+03    0.13523E-04   -0.65474E-05   120   0.313E-02    0.816E-03
DAV:   5    -0.101201280800E+03    0.32065E-05   -0.80220E-06   120   0.128E-02    0.539E-03
DAV:   6    -0.101201281872E+03   -0.10717E-05   -0.16033E-06    88   0.633E-03    0.228E-03
DAV:   7    -0.101201285845E+03   -0.39727E-05   -0.50337E-07    88   0.424E-03    0.951E-04
DAV:   8    -0.101201293055E+03   -0.72107E-05   -0.58062E-07    88   0.376E-03    0.776E-04
DAV:   9    -0.101201301501E+03   -0.84454E-05   -0.75028E-07    80   0.306E-03    0.288E-04
DAV:  10    -0.101201304733E+03   -0.32326E-05   -0.22109E-07    88   0.167E-03    0.350E-04
DAV:  11    -0.101201306798E+03   -0.20648E-05   -0.66871E-08    88   0.838E-04    0.197E-04
DAV:  12    -0.101201310261E+03   -0.34624E-05   -0.17157E-07    80   0.100E-03    0.154E-04
DAV:  13    -0.101201310762E+03   -0.50178E-06   -0.19282E-08    88   0.426E-04
  10 F= -.10120131E+03 E0= -.10120131E+03  d E =-.413653E-02
       N       E                     dE             d eps       ncg     rms          rms(c)
DAV:   1    -0.101202749107E+03   -0.14388E-02   -0.22212E-01    84   0.216E+00    0.125E-01
DAV:   2    -0.101202907638E+03   -0.15853E-03   -0.43788E-03   120   0.267E-01    0.719E-02
DAV:   3    -0.101202820637E+03    0.87001E-04   -0.29787E-04   128   0.666E-02    0.325E-02
DAV:   4    -0.101202805086E+03    0.15551E-04   -0.76644E-05   120   0.339E-02    0.885E-03
DAV:   5    -0.101202800957E+03    0.41292E-05   -0.90674E-06   120   0.136E-02    0.582E-03
DAV:   6    -0.101202801577E+03   -0.62012E-06   -0.17999E-06    88   0.679E-03
  11 F= -.10120280E+03 E0= -.10120280E+03  d E =-.562735E-02
       N       E                     dE             d eps       ncg     rms          rms(c)
DAV:   1    -0.101204253500E+03   -0.14525E-02   -0.14010E-01    84   0.164E+00    0.109E-01
DAV:   2    -0.101204595615E+03   -0.34212E-03   -0.45884E-03   120   0.267E-01    0.663E-02
DAV:   3    -0.101204546523E+03    0.49092E-04   -0.17458E-04   128   0.558E-02    0.325E-02
DAV:   4    -0.101204551790E+03   -0.52671E-05   -0.81209E-05   120   0.324E-02    0.844E-03
DAV:   5    -0.101204554650E+03   -0.28591E-05   -0.82772E-06   112   0.117E-02    0.407E-03
DAV:   6    -0.101204556726E+03   -0.20765E-05   -0.13887E-06    88   0.443E-03    0.199E-03
DAV:   7    -0.101204559844E+03   -0.31183E-05   -0.36121E-07    88   0.270E-03    0.548E-04
DAV:   8    -0.101204562424E+03   -0.25800E-05   -0.24502E-07    88   0.189E-03    0.463E-04
DAV:   9    -0.101204564831E+03   -0.24061E-05   -0.10623E-07    88   0.114E-03    0.215E-04
DAV:  10    -0.101204567893E+03   -0.30620E-05   -0.18273E-07    80   0.107E-03    0.198E-04
DAV:  11    -0.101204568506E+03   -0.61368E-06   -0.30808E-08    96   0.558E-04
  12 F= -.10120457E+03 E0= -.10120457E+03  d E =-.176693E-02
       N       E                     dE             d eps       ncg     rms          rms(c)
DAV:   1    -0.101204582072E+03   -0.14180E-04   -0.14329E-03    84   0.166E-01    0.110E-02
DAV:   2    -0.101204585106E+03   -0.30333E-05   -0.47040E-05   120   0.271E-02    0.672E-03
DAV:   3    -0.101204584382E+03    0.72345E-06   -0.16585E-06    96   0.564E-03
  13 F= -.10120458E+03 E0= -.10120458E+03  d E =-.178281E-02
       N       E                     dE             d eps       ncg     rms          rms(c)
DAV:   1    -0.101205933377E+03   -0.13483E-02   -0.11614E-01    84   0.152E+00    0.107E-01
DAV:   2    -0.101206079050E+03   -0.14567E-03   -0.30581E-03   112   0.210E-01    0.596E-02
DAV:   3    -0.101206024350E+03    0.54700E-04   -0.14995E-04   128   0.480E-02    0.295E-02
DAV:   4    -0.101206016353E+03    0.79970E-05   -0.52106E-05   120   0.255E-02    0.856E-03
DAV:   5    -0.101206016893E+03   -0.54032E-06   -0.40924E-06   112   0.885E-03
  14 F= -.10120602E+03 E0= -.10120602E+03  d E =-.143251E-02
       N       E                     dE             d eps       ncg     rms          rms(c)
DAV:   1    -0.101206086431E+03   -0.70078E-04   -0.13851E-02    84   0.524E-01    0.369E-02
DAV:   2    -0.101206102366E+03   -0.15935E-04   -0.37573E-04   112   0.735E-02    0.204E-02
DAV:   3    -0.101206094497E+03    0.78692E-05   -0.17924E-05   128   0.167E-02    0.103E-02
DAV:   4    -0.101206094224E+03    0.27285E-06   -0.64442E-06   120   0.908E-03
  15 F= -.10120609E+03 E0= -.10120609E+03  d E =-.150984E-02
       N       E                     dE             d eps       ncg     rms          rms(c)
DAV:   1    -0.101206097583E+03   -0.30868E-05   -0.22457E-04    84   0.671E-02    0.448E-03
DAV:   2    -0.101206099722E+03   -0.21390E-05   -0.50963E-06   112   0.876E-03    0.268E-03
DAV:   3    -0.101206101627E+03   -0.19043E-05   -0.32752E-07    88   0.230E-03    0.120E-03
DAV:   4    -0.101206103832E+03   -0.22056E-05   -0.20286E-07    88   0.158E-03    0.343E-04
DAV:   5    -0.101206105503E+03   -0.16705E-05   -0.60842E-08    88   0.900E-04    0.190E-04
DAV:   6    -0.101206107230E+03   -0.17272E-05   -0.57948E-08    88   0.666E-04    0.114E-04
DAV:   7    -0.101206108476E+03   -0.12461E-05   -0.35784E-08    88   0.472E-04    0.669E-05
DAV:   8    -0.101206109366E+03   -0.88972E-06   -0.29000E-08    88   0.393E-04
  16 F= -.10120611E+03 E0= -.10120611E+03  d E =-.152498E-02
       N       E                     dE             d eps       ncg     rms          rms(c)
DAV:   1    -0.101206155269E+03   -0.46793E-04   -0.74803E-03    84   0.370E-01    0.305E-02
DAV:   2    -0.101206193678E+03   -0.38409E-04   -0.44212E-04   120   0.797E-02    0.172E-02
DAV:   3    -0.101206190567E+03    0.31110E-05   -0.14251E-05   128   0.159E-02    0.100E-02
DAV:   4    -0.101206190066E+03    0.50019E-06   -0.57653E-06   104   0.102E-02
  17 F= -.10120619E+03 E0= -.10120619E+03  d E =-.807005E-04
       N       E                     dE             d eps       ncg     rms          rms(c)
DAV:   1    -0.101206203112E+03   -0.12545E-04   -0.62789E-04    84   0.107E-01    0.828E-03
DAV:   2    -0.101206206209E+03   -0.30976E-05   -0.36513E-05   120   0.230E-02    0.508E-03
DAV:   3    -0.101206206090E+03    0.11940E-06   -0.11421E-06    88   0.469E-03
  18 F= -.10120621E+03 E0= -.10120621E+03  d E =-.967241E-04
