       N       E                     dE             d eps       ncg     rms          rms(c)
DAV:   1     0.247849539742E+03    0.24785E+03   -0.10156E+04   120   0.484E+02
DAV:   2    -0.206683220089E+02   -0.26852E+03   -0.25417E+03   156   0.918E+01
DAV:   3    -0.101211938713E+03   -0.80544E+02   -0.80300E+02   120   0.557E+01
DAV:   4    -0.105185175244E+03   -0.39732E+01   -0.39586E+01   120   0.177E+01
DAV:   5    -0.105257940339E+03   -0.72765E-01   -0.72593E-01   144   0.267E+00    0.149E+01
DAV:   6    -0.101872532813E+03    0.33854E+01   -0.15607E+00   120   0.430E+00    0.858E+00
DAV:   7    -0.100158571607E+03    0.17140E+01   -0.41846E+00   120   0.628E+00    0.129E+00
DAV:   8    -0.100101322839E+03    0.57249E-01   -0.34133E-01   132   0.223E+00    0.692E-01
DAV:   9    -0.100066628250E+03    0.34695E-01   -0.60024E-02   144   0.671E-01    0.370E-01
DAV:  10    -0.100064918758E+03    0.17095E-02   -0.38387E-03   132   0.207E-01    0.146E-01
DAV:  11    -0.100063866704E+03    0.10521E-02   -0.65077E-03   120   0.222E-01    0.115E-01
DAV:  12    -0.100070164920E+03   -0.62982E-02   -0.18679E-03   120   0.114E-01    0.525E-02
DAV:  13    -0.100073356059E+03   -0.31911E-02   -0.17208E-03   120   0.112E-01    0.471E-02
DAV:  14    -0.100076208506E+03   -0.28524E-02   -0.20560E-04   132   0.495E-02    0.219E-02
DAV:  15    -0.100080980896E+03   -0.47724E-02   -0.53733E-04    96   0.578E-02    0.133E-02
DAV:  16    -0.100082989128E+03   -0.20082E-02   -0.17511E-04   132   0.353E-02    0.878E-03
DAV:  17    -0.100083828412E+03   -0.83928E-03   -0.55084E-05   108   0.171E-02    0.630E-03
DAV:  18    -0.100084222182E+03   -0.39377E-03   -0.14672E-05   132   0.916E-03    0.187E-03
DAV:  19    -0.100084392927E+03   -0.17075E-03   -0.61390E-06   108   0.564E-03    0.199E-03
DAV:  20    -0.100084458319E+03   -0.65392E-04   -0.13156E-06    84   0.322E-03    0.659E-04
DAV:  21    -0.100084476872E+03   -0.18553E-04   -0.48056E-07    96   0.177E-03    0.647E-04
DAV:  22    -0.100084490001E+03   -0.13129E-04   -0.24221E-07    84   0.128E-03    0.224E-04
DAV:  23    -0.100084494605E+03   -0.46041E-05   -0.10357E-07    96   0.721E-04    0.132E-04
DAV:  24    -0.100084498885E+03   -0.42799E-05   -0.76820E-08    84   0.563E-04    0.960E-05
DAV:  25    -0.100084499441E+03   -0.55606E-06   -0.31575E-09   108   0.233E-04
   1 F= -.10008450E+03 E0= -.10008450E+03  d E =-.155262E-10
       N       E                     dE             d eps       ncg     rms          rms(c)
DAV:   1    -0.100081220768E+03    0.32781E-02   -0.84409E-02    96   0.792E-01    0.926E-02
DAV:   2    -0.100081583900E+03   -0.36313E-03   -0.38093E-03   120   0.196E-01    0.504E-02
DAV:   3    -0.100081582200E+03    0.16991E-05   -0.11456E-04   156   0.402E-02    0.238E-02
DAV:   4    -0.100081584996E+03   -0.27960E-05   -0.25470E-05   108   0.196E-02    0.660E-03
DAV:   5    -0.100081583876E+03    0.11204E-05   -0.49121E-06   132   0.864E-03    0.312E-03
DAV:   6    -0.100081584481E+03   -0.60494E-06   -0.14569E-06   120   0.396E-03
   2 F= -.10008158E+03 E0= -.10008158E+03  d E =-.287726E-10
       N       E                     dE             d eps       ncg     rms          rms(c)
DAV:   1    -0.100079997540E+03    0.15863E-02   -0.33619E-01    96   0.158E+00    0.189E-01
DAV:   2    -0.100081466559E+03   -0.14690E-02   -0.15275E-02   120   0.389E-01    0.101E-01
DAV:   3    -0.100081468725E+03   -0.21653E-05   -0.46250E-04   120   0.797E-02    0.496E-02
DAV:   4    -0.100081484620E+03   -0.15895E-04   -0.10090E-04   132   0.391E-02    0.134E-02
DAV:   5    -0.100081480431E+03    0.41883E-05   -0.20040E-05   120   0.176E-02    0.657E-03
DAV:   6    -0.100081481079E+03   -0.64783E-06   -0.61196E-06   132   0.795E-03
   3 F= -.10008148E+03 E0= -.10008148E+03  d E =-.258481E-10
       N       E                     dE             d eps       ncg     rms          rms(c)
DAV:   1    -0.100080746231E+03    0.73420E-03   -0.16737E-01    96   0.113E+00    0.133E-01
DAV:   2    -0.100081462483E+03   -0.71625E-03   -0.74255E-03   132   0.274E-01    0.705E-02
DAV:   3    -0.100081469225E+03   -0.67416E-05   -0.23182E-04   120   0.567E-02    0.339E-02
DAV:   4    -0.100081481407E+03   -0.12182E-04   -0.48298E-05   108   0.269E-02    0.949E-03
DAV:   5    -0.100081480816E+03    0.59034E-06   -0.85273E-06   120   0.117E-02
   4 F= -.10008148E+03 E0= -.10008148E+03  d E =-.242890E-10
       N       E                     dE             d eps       ncg     rms          rms(c)
DAV:   1    -0.100079990470E+03    0.14909E-02   -0.33425E-01    96   0.160E+00    0.190E-01
DAV:   2    -0.100081497757E+03   -0.15073E-02   -0.15594E-02   120   0.401E-01    0.104E-01
DAV:   3    -0.100081496869E+03    0.88772E-06   -0.45024E-04   120   0.800E-02    0.532E-02
DAV:   4    -0.100081512411E+03   -0.15542E-04   -0.10714E-04   120   0.405E-02    0.138E-02
DAV:   5    -0.100081507484E+03    0.49270E-05   -0.22598E-05   120   0.185E-02    0.665E-03
DAV:   6    -0.100081507718E+03   -0.23454E-06   -0.60485E-06   132   0.796E-03
   5 F= -.10008151E+03 E0= -.10008151E+03  d E =-.282504E-10
       N       E                     dE             d eps       ncg     rms          rms(c)
DAV:   1    -0.100079435552E+03    0.20719E-02   -0.16824E-01    96   0.114E+00    0.142E-01
DAV:   2    -0.100080326243E+03   -0.89069E-03   -0.92639E-03   120   0.306E-01    0.879E-02
DAV:   3    -0.100080310427E+03    0.15816E-04   -0.27627E-04   108   0.633E-02    0.467E-02
DAV:   4    -0.100080318500E+03   -0.80736E-05   -0.91821E-05   120   0.350E-02    0.105E-02
DAV:   5    -0.100080317623E+03    0.87689E-06   -0.19822E-05   108   0.159E-02    0.653E-03
DAV:   6    -0.100080319889E+03   -0.22660E-05   -0.39609E-06   132   0.595E-03    0.361E-03
DAV:   7    -0.100080325647E+03   -0.57571E-05   -0.52735E-07    84   0.247E-03    0.137E-03
DAV:   8    -0.100080332126E+03   -0.64795E-05   -0.45838E-07   108   0.182E-03    0.573E-04
DAV:   9    -0.100080338558E+03   -0.64318E-05   -0.34950E-07    96   0.155E-03    0.543E-04
DAV:  10    -0.100080345677E+03   -0.71188E-05   -0.61199E-07    96   0.157E-03    0.235E-04
DAV:  11    -0.100080347489E+03   -0.18124E-05   -0.51093E-08   120   0.706E-04    0.177E-04
DAV:  12    -0.100080349433E+03   -0.19440E-05   -0.51561E-08    84   0.508E-04    0.901E-05
DAV:  13    -0.100080350620E+03   -0.11874E-05   -0.26607E-08    96   0.346E-04    0.803E-05
DAV:  14    -0.100080351361E+03   -0.74034E-06   -0.77494E-09    84   0.230E-04
   6 F= -.10008035E+03 E0= -.10008035E+03  d E =-.325639E-10
       N       E                     dE             d eps       ncg     rms          rms(c)
DAV:   1    -0.100077759560E+03    0.25911E-02   -0.34519E-01    96   0.154E+00    0.233E-01
DAV:   2    -0.100079925854E+03   -0.21663E-02   -0.23388E-02   108   0.444E-01    0.164E-01
DAV:   3    -0.100079779932E+03    0.14592E-03   -0.65435E-04   132   0.981E-02    0.752E-02
DAV:   4    -0.100079786449E+03   -0.65171E-05   -0.39181E-04   108   0.621E-02    0.163E-02
DAV:   5    -0.100079774704E+03    0.11745E-04   -0.49081E-05   120   0.235E-02    0.103E-02
DAV:   6    -0.100079776487E+03   -0.17830E-05   -0.13365E-05   108   0.874E-03    0.507E-03
DAV:   7    -0.100079790009E+03   -0.13521E-04   -0.10267E-06   120   0.307E-03    0.236E-03
DAV:   8    -0.100079814497E+03   -0.24488E-04   -0.21782E-06   108   0.380E-03    0.135E-03
DAV:   9    -0.100079830887E+03   -0.16391E-04   -0.87066E-07   108   0.204E-03    0.137E-03
DAV:  10    -0.100079852213E+03   -0.21326E-04   -0.12433E-06   108   0.220E-03    0.378E-04
DAV:  11    -0.100079857303E+03   -0.50898E-05   -0.10543E-07   120   0.879E-04    0.296E-04
DAV:  12    -0.100079865409E+03   -0.81060E-05   -0.24644E-07    84   0.100E-03    0.216E-04
DAV:  13    -0.100079867379E+03   -0.19696E-05   -0.39444E-08   108   0.439E-04    0.152E-04
DAV:  14    -0.100079869352E+03   -0.19732E-05   -0.18494E-08    84   0.351E-04    0.501E-05
DAV:  15    -0.100079870112E+03   -0.76056E-06   -0.38784E-09    96   0.214E-04
   7 F= -.10007987E+03 E0= -.10007987E+03  d E =-.101930E-10
       N       E                     dE             d eps       ncg     rms          rms(c)
DAV:   1    -0.100078736582E+03    0.11328E-02   -0.16848E-01    96   0.129E+00    0.158E-01
DAV:   2    -0.100080162593E+03   -0.14260E-02   -0.14864E-02   132   0.401E-01    0.123E-01
DAV:   3    -0.100080086514E+03    0.76079E-04   -0.32195E-04   132   0.701E-02    0.732E-02
DAV:   4    -0.100080068337E+03    0.18176E-04   -0.20043E-04   120   0.547E-02    0.118E-02
DAV:   5    -0.100080065192E+03    0.31450E-05   -0.58789E-05   132   0.262E-02    0.862E-03
DAV:   6    -0.100080063215E+03    0.19778E-05   -0.63223E-06   108   0.821E-03    0.579E-03
DAV:   7    -0.100080073548E+03   -0.10334E-04   -0.31167E-06   120   0.623E-03    0.227E-03
DAV:   8    -0.100080089765E+03   -0.16216E-04   -0.14034E-06    96   0.437E-03    0.112E-03
DAV:   9    -0.100080102506E+03   -0.12741E-04   -0.73487E-07    96   0.255E-03    0.140E-03
DAV:  10    -0.100080117242E+03   -0.14736E-04   -0.94575E-07    96   0.195E-03    0.504E-04
DAV:  11    -0.100080122318E+03   -0.50764E-05   -0.16852E-07   108   0.927E-04    0.327E-04
DAV:  12    -0.100080127406E+03   -0.50873E-05   -0.15393E-07    84   0.824E-04    0.151E-04
DAV:  13    -0.100080129628E+03   -0.22228E-05   -0.57232E-08    96   0.536E-04    0.122E-04
DAV:  14    -0.100080131279E+03   -0.16506E-05   -0.19751E-08    84   0.356E-04    0.709E-05
DAV:  15    -0.100080131756E+03   -0.47695E-06   -0.12595E-09   108   0.183E-04
   8 F= -.10008013E+03 E0= -.10008013E+03  d E =-.168064E-10
       N       E                     dE             d eps       ncg     rms          rms(c)
DAV:   1    -0.100077803958E+03    0.23273E-02   -0.34369E-01    96   0.172E+00    0.221E-01
DAV:   2    -0.100080158007E+03   -0.23540E-02   -0.24024E-02   132   0.493E-01    0.165E-01
DAV:   3    -0.100080077790E+03    0.80218E-04   -0.49374E-04   132   0.851E-02    0.977E-02
DAV:   4    -0.100080046135E+03    0.31655E-04   -0.27477E-04   132   0.600E-02    0.146E-02
DAV:   5    -0.100080044371E+03    0.17644E-05   -0.52230E-05   132   0.252E-02    0.108E-02
DAV:   6    -0.100080055004E+03   -0.10634E-04   -0.13205E-05   120   0.115E-02    0.648E-03
DAV:   7    -0.100080086440E+03   -0.31436E-04   -0.60009E-06   108   0.775E-03    0.244E-03
DAV:   8    -0.100080123364E+03   -0.36924E-04   -0.31543E-06   120   0.514E-03    0.141E-03
DAV:   9    -0.100080155799E+03   -0.32434E-04   -0.33748E-06   108   0.416E-03    0.150E-03
DAV:  10    -0.100080176652E+03   -0.20853E-04   -0.16373E-06   108   0.260E-03    0.607E-04
DAV:  11    -0.100080184760E+03   -0.81078E-05   -0.37867E-07   108   0.128E-03    0.295E-04
DAV:  12    -0.100080190844E+03   -0.60844E-05   -0.28943E-07    84   0.105E-03    0.185E-04
DAV:  13    -0.100080193689E+03   -0.28448E-05   -0.10706E-07    96   0.675E-04    0.141E-04
DAV:  14    -0.100080195146E+03   -0.14565E-05   -0.21598E-08    84   0.378E-04    0.539E-05
DAV:  15    -0.100080195612E+03   -0.46610E-06   -0.74266E-10   108   0.191E-04
   9 F= -.10008020E+03 E0= -.10008020E+03  d E =-.147312E-10
       N       E                     dE             d eps       ncg     rms          rms(c)
DAV:   1    -0.100080471610E+03   -0.27646E-03   -0.16801E-01    96   0.120E+00    0.149E-01
DAV:   2    -0.100081492489E+03   -0.10209E-02   -0.10394E-02   108   0.352E-01    0.103E-01
DAV:   3    -0.100081467147E+03    0.25342E-04   -0.23680E-04   132   0.623E-02    0.549E-02
DAV:   4    -0.100081466868E+03    0.27861E-06   -0.11591E-04   132   0.439E-02    0.101E-02
DAV:   5    -0.100081462484E+03    0.43838E-05   -0.27669E-05   132   0.200E-02    0.720E-03
DAV:   6    -0.100081462179E+03    0.30555E-06   -0.51416E-06   132   0.726E-03
  10 F= -.10008146E+03 E0= -.10008146E+03  d E =-.253326E-10
       N       E                     dE             d eps       ncg     rms          rms(c)
DAV:   1    -0.100079701221E+03    0.17613E-02   -0.33404E-01    96   0.172E+00    0.194E-01
DAV:   2    -0.100081371871E+03   -0.16707E-02   -0.16712E-02   132   0.429E-01    0.113E-01
DAV:   3    -0.100081403149E+03   -0.31279E-04   -0.48144E-04   120   0.848E-02    0.584E-02
DAV:   4    -0.100081435062E+03   -0.31913E-04   -0.12497E-04   132   0.506E-02    0.121E-02
DAV:   5    -0.100081435507E+03   -0.44468E-06   -0.38543E-05   132   0.233E-02    0.925E-03
DAV:   6    -0.100081436691E+03   -0.11844E-05   -0.55411E-06   132   0.761E-03    0.569E-03
DAV:   7    -0.100081440710E+03   -0.40188E-05   -0.71926E-07   108   0.360E-03    0.236E-03
DAV:   8    -0.100081446219E+03   -0.55093E-05   -0.84072E-07    84   0.366E-03    0.101E-03
DAV:   9    -0.100081453741E+03   -0.75212E-05   -0.52173E-07   108   0.290E-03    0.681E-04
DAV:  10    -0.100081459139E+03   -0.53979E-05   -0.36171E-07    84   0.204E-03    0.493E-04
DAV:  11    -0.100081461300E+03   -0.21609E-05   -0.85971E-08   108   0.108E-03    0.363E-04
DAV:  12    -0.100081464596E+03   -0.32969E-05   -0.83925E-08    84   0.761E-04    0.162E-04
DAV:  13    -0.100081466294E+03   -0.16977E-05   -0.45816E-08    96   0.485E-04    0.165E-04
DAV:  14    -0.100081467599E+03   -0.13050E-05   -0.20570E-08    84   0.358E-04    0.708E-05
DAV:  15    -0.100081468221E+03   -0.62157E-06   -0.61196E-09    96   0.239E-04
  11 F= -.10008147E+03 E0= -.10008147E+03  d E =-.167518E-10
       N       E                     dE             d eps       ncg     rms          rms(c)
DAV:   1    -0.100078535928E+03    0.29317E-02   -0.16933E-01    96   0.126E+00    0.146E-01
DAV:   2    -0.100079560635E+03   -0.10247E-02   -0.10430E-02   108   0.342E-01    0.967E-02
DAV:   3    -0.100079544503E+03    0.16132E-04   -0.25968E-04   144   0.644E-02    0.517E-02
DAV:   4    -0.100079551467E+03   -0.69640E-05   -0.11519E-04   120   0.446E-02    0.105E-02
DAV:   5    -0.100079548751E+03    0.27163E-05   -0.33175E-05   132   0.212E-02    0.791E-03
DAV:   6    -0.100079547509E+03    0.12424E-05   -0.49977E-06   132   0.720E-03    0.471E-03
DAV:   7    -0.100079550217E+03   -0.27080E-05   -0.11565E-06   120   0.426E-03    0.197E-03
DAV:   8    -0.100079556370E+03   -0.61537E-05   -0.72404E-07    96   0.337E-03    0.805E-04
DAV:   9    -0.100079563383E+03   -0.70131E-05   -0.52572E-07    96   0.237E-03    0.903E-04
DAV:  10    -0.100079570684E+03   -0.73004E-05   -0.37134E-07    84   0.174E-03    0.303E-04
DAV:  11    -0.100079574542E+03   -0.38585E-05   -0.12517E-07    96   0.943E-04    0.205E-04
DAV:  12    -0.100079577646E+03   -0.31038E-05   -0.73904E-08    84   0.624E-04    0.148E-04
DAV:  13    -0.100079578679E+03   -0.10325E-05   -0.10701E-08   108   0.311E-04    0.104E-04
DAV:  14    -0.100079579882E+03   -0.12033E-05   -0.14547E-08    84   0.284E-04    0.386E-05
DAV:  15    -0.100079580199E+03   -0.31762E-06    0.29567E-09    96   0.135E-04
  12 F= -.10007958E+03 E0= -.10007958E+03  d E =-.121751E-10
       N       E                     dE             d eps       ncg     rms          rms(c)
DAV:   1    -0.100077225815E+03    0.23541E-02   -0.35110E-01    96   0.173E+00    0.247E-01
DAV:   2    -0.100080006719E+03   -0.27809E-02   -0.28118E-02   144   0.564E-01    0.180E-01
DAV:   3    -0.100079880808E+03    0.12591E-03   -0.59959E-04   156   0.973E-02    0.104E-01
DAV:   4    -0.100079866739E+03    0.14069E-04   -0.41863E-04   132   0.763E-02    0.163E-02
DAV:   5    -0.100079861578E+03    0.51610E-05   -0.11465E-04   120   0.367E-02    0.124E-02
DAV:   6    -0.100079865693E+03   -0.41149E-05   -0.17901E-05   132   0.118E-02    0.816E-03
DAV:   7    -0.100079890228E+03   -0.24535E-04   -0.40601E-06   120   0.634E-03    0.332E-03
DAV:   8    -0.100079925545E+03   -0.35317E-04   -0.40647E-06   132   0.528E-03    0.131E-03
DAV:   9    -0.100079953823E+03   -0.28278E-04   -0.30559E-06   120   0.382E-03    0.177E-03
DAV:  10    -0.100079973319E+03   -0.19496E-04   -0.14760E-06   108   0.270E-03    0.632E-04
DAV:  11    -0.100079981677E+03   -0.83586E-05   -0.43499E-07   108   0.146E-03    0.293E-04
DAV:  12    -0.100079987763E+03   -0.60855E-05   -0.32133E-07    84   0.109E-03    0.251E-04
DAV:  13    -0.100079989683E+03   -0.19206E-05   -0.52738E-08    96   0.489E-04    0.206E-04
DAV:  14    -0.100079991286E+03   -0.16031E-05   -0.27423E-08    84   0.399E-04    0.677E-05
DAV:  15    -0.100079991888E+03   -0.60138E-06   -0.53678E-09    96   0.236E-04
  13 F= -.10007999E+03 E0= -.10007999E+03  d E =-.225422E-10
       N       E                     dE             d eps       ncg     rms          rms(c)
DAV:   1    -0.100079853926E+03    0.13736E-03   -0.17177E-01    96   0.129E+00    0.156E-01
DAV:   2    -0.100081153014E+03   -0.12991E-02   -0.13335E-02   108   0.403E-01    0.111E-01
DAV:   3    -0.100081107862E+03    0.45151E-04   -0.30303E-04   156   0.705E-02    0.657E-02
DAV:   4    -0.100081094937E+03    0.12926E-04   -0.17710E-04   120   0.554E-02    0.111E-02
DAV:   5    -0.100081091238E+03    0.36987E-05   -0.60353E-05   132   0.283E-02    0.908E-03
DAV:   6    -0.100081088728E+03    0.25100E-05   -0.66921E-06   108   0.859E-03    0.601E-03
DAV:   7    -0.100081094822E+03   -0.60943E-05   -0.24332E-06   120   0.607E-03    0.242E-03
DAV:   8    -0.100081108173E+03   -0.13351E-04   -0.15757E-06   108   0.506E-03    0.119E-03
DAV:   9    -0.100081121385E+03   -0.13212E-04   -0.98867E-07    96   0.331E-03    0.143E-03
DAV:  10    -0.100081133020E+03   -0.11635E-04   -0.61712E-07    84   0.218E-03    0.481E-04
DAV:  11    -0.100081139862E+03   -0.68418E-05   -0.33177E-07    96   0.134E-03    0.262E-04
DAV:  12    -0.100081144186E+03   -0.43233E-05   -0.11863E-07    84   0.790E-04    0.186E-04
DAV:  13    -0.100081146409E+03   -0.22231E-05   -0.57964E-08    96   0.515E-04    0.126E-04
DAV:  14    -0.100081147948E+03   -0.15393E-05   -0.22526E-08    96   0.370E-04    0.644E-05
DAV:  15    -0.100081148548E+03   -0.59964E-06   -0.42990E-09    96   0.217E-04
  14 F= -.10008115E+03 E0= -.10008115E+03  d E =-.157088E-10
       N       E                     dE             d eps       ncg     rms          rms(c)
DAV:   1    -0.100079381896E+03    0.17661E-02   -0.33466E-01    96   0.173E+00    0.200E-01
DAV:   2    -0.100081219904E+03   -0.18380E-02   -0.18580E-02   132   0.468E-01    0.127E-01
DAV:   3    -0.100081208801E+03    0.11103E-04   -0.46969E-04   132   0.863E-02    0.668E-02
DAV:   4    -0.100081221708E+03   -0.12907E-04   -0.17450E-04   132   0.571E-02    0.130E-02
DAV:   5    -0.100081217200E+03    0.45083E-05   -0.51472E-05   132   0.270E-02    0.101E-02
DAV:   6    -0.100081216937E+03    0.26308E-06   -0.77141E-06   132   0.890E-03
  15 F= -.10008122E+03 E0= -.10008122E+03  d E =-.282201E-10
       N       E                     dE             d eps       ncg     rms          rms(c)
DAV:   1    -0.100079219254E+03    0.19979E-02   -0.17074E-01    96   0.128E+00    0.154E-01
DAV:   2    -0.100080418409E+03   -0.11992E-02   -0.11911E-02   132   0.361E-01    0.114E-01
DAV:   3    -0.100080400806E+03    0.17603E-04   -0.24329E-04   132   0.617E-02    0.651E-02
DAV:   4    -0.100080402499E+03   -0.16929E-05   -0.14880E-04   120   0.454E-02    0.106E-02
DAV:   5    -0.100080398656E+03    0.38431E-05   -0.31010E-05   144   0.200E-02    0.793E-03
DAV:   6    -0.100080398582E+03    0.74238E-07   -0.59002E-06   108   0.774E-03
  16 F= -.10008040E+03 E0= -.10008040E+03  d E =-.183671E-10
       N       E                     dE             d eps       ncg     rms          rms(c)
DAV:   1    -0.100078267403E+03    0.21313E-02   -0.33680E-01    96   0.177E+00    0.218E-01
DAV:   2    -0.100080456406E+03   -0.21890E-02   -0.22024E-02   144   0.496E-01    0.155E-01
DAV:   3    -0.100080416352E+03    0.40053E-04   -0.46879E-04   108   0.847E-02    0.840E-02
DAV:   4    -0.100080415906E+03    0.44616E-06   -0.23690E-04   120   0.582E-02    0.140E-02
DAV:   5    -0.100080402824E+03    0.13083E-04   -0.47178E-05   144   0.257E-02    0.949E-03
DAV:   6    -0.100080398718E+03    0.41052E-05   -0.94453E-06   132   0.983E-03    0.615E-03
DAV:   7    -0.100080404806E+03   -0.60874E-05   -0.20697E-06   132   0.583E-03    0.244E-03
DAV:   8    -0.100080415332E+03   -0.10527E-04   -0.15722E-06   108   0.522E-03    0.133E-03
DAV:   9    -0.100080428473E+03   -0.13140E-04   -0.13168E-06   120   0.328E-03    0.144E-03
DAV:  10    -0.100080441173E+03   -0.12700E-04   -0.45743E-07    84   0.176E-03    0.481E-04
DAV:  11    -0.100080448213E+03   -0.70397E-05   -0.32237E-07    96   0.118E-03    0.320E-04
DAV:  12    -0.100080455367E+03   -0.71546E-05   -0.17326E-07    84   0.894E-04    0.157E-04
DAV:  13    -0.100080459000E+03   -0.36322E-05   -0.88179E-08    96   0.596E-04    0.165E-04
DAV:  14    -0.100080461050E+03   -0.20508E-05   -0.19371E-08    84   0.358E-04    0.911E-05
DAV:  15    -0.100080462309E+03   -0.12582E-05   -0.10484E-08   108   0.273E-04    0.463E-05
DAV:  16    -0.100080462895E+03   -0.58639E-06    0.67496E-10    84   0.168E-04
  17 F= -.10008046E+03 E0= -.10008046E+03  d E =-.162966E-10
       N       E                     dE             d eps       ncg     rms          rms(c)
DAV:   1    -0.100078183892E+03    0.22784E-02   -0.17494E-01    96   0.123E+00    0.168E-01
DAV:   2    -0.100079577498E+03   -0.13936E-02   -0.14087E-02   132   0.395E-01    0.126E-01
DAV:   3    -0.100079507919E+03    0.69579E-04   -0.28493E-04   132   0.692E-02    0.722E-02
DAV:   4    -0.100079502605E+03    0.53142E-05   -0.23181E-04   132   0.589E-02    0.127E-02
DAV:   5    -0.100079499428E+03    0.31766E-05   -0.69156E-05   132   0.291E-02    0.933E-03
DAV:   6    -0.100079498861E+03    0.56692E-06   -0.93457E-06   132   0.871E-03
  18 F= -.10007950E+03 E0= -.10007950E+03  d E =-.168093E-10
       N       E                     dE             d eps       ncg     rms          rms(c)
DAV:   1    -0.100077186317E+03    0.23131E-02   -0.35116E-01    96   0.174E+00    0.247E-01
DAV:   2    -0.100080000059E+03   -0.28137E-02   -0.28124E-02   144   0.563E-01    0.181E-01
DAV:   3    -0.100079894219E+03    0.10584E-03   -0.59951E-04   144   0.973E-02    0.104E-01
DAV:   4    -0.100079899149E+03   -0.49300E-05   -0.42910E-04   120   0.767E-02    0.164E-02
DAV:   5    -0.100079893762E+03    0.53876E-05   -0.11652E-04   132   0.370E-02    0.123E-02
DAV:   6    -0.100079894938E+03   -0.11763E-05   -0.17499E-05   108   0.117E-02    0.823E-03
DAV:   7    -0.100079913687E+03   -0.18749E-04   -0.37180E-06   120   0.613E-03    0.334E-03
DAV:   8    -0.100079939878E+03   -0.26191E-04   -0.31926E-06   132   0.483E-03    0.117E-03
DAV:   9    -0.100079961870E+03   -0.21993E-04   -0.25002E-06   108   0.350E-03    0.163E-03
DAV:  10    -0.100079977277E+03   -0.15407E-04   -0.11804E-06   108   0.240E-03    0.674E-04
DAV:  11    -0.100079984558E+03   -0.72809E-05   -0.40679E-07   108   0.140E-03    0.278E-04
DAV:  12    -0.100079989896E+03   -0.53384E-05   -0.31835E-07    84   0.107E-03    0.237E-04
DAV:  13    -0.100079991516E+03   -0.16192E-05   -0.46869E-08    96   0.460E-04    0.204E-04
DAV:  14    -0.100079992846E+03   -0.13305E-05   -0.22564E-08    84   0.367E-04    0.834E-05
DAV:  15    -0.100079993448E+03   -0.60147E-06   -0.71958E-09    96   0.244E-04
  19 F= -.10007999E+03 E0= -.10007999E+03  d E =-.225021E-10
       N       E                     dE             d eps       ncg     rms          rms(c)
DAV:   1    -0.100079594779E+03    0.39807E-03   -0.16920E-01    96   0.130E+00    0.160E-01
DAV:   2    -0.100080988209E+03   -0.13934E-02   -0.14029E-02   108   0.411E-01    0.114E-01
DAV:   3    -0.100080947984E+03    0.40224E-04   -0.28019E-04   156   0.685E-02    0.692E-02
DAV:   4    -0.100080942199E+03    0.57849E-05   -0.19068E-04   120   0.562E-02    0.114E-02
DAV:   5    -0.100080938793E+03    0.34059E-05   -0.59912E-05   132   0.279E-02    0.852E-03
DAV:   6    -0.100080937215E+03    0.15781E-05   -0.61960E-06   132   0.793E-03    0.564E-03
DAV:   7    -0.100080944366E+03   -0.71511E-05   -0.24295E-06   108   0.558E-03    0.210E-03
DAV:   8    -0.100080957594E+03   -0.13227E-04   -0.12894E-06   108   0.444E-03    0.118E-03
DAV:   9    -0.100080969120E+03   -0.11526E-04   -0.82640E-07    84   0.277E-03    0.123E-03
DAV:  10    -0.100080980695E+03   -0.11575E-04   -0.64244E-07    96   0.195E-03    0.371E-04
DAV:  11    -0.100080985835E+03   -0.51402E-05   -0.23852E-07    84   0.106E-03    0.267E-04
DAV:  12    -0.100080990525E+03   -0.46901E-05   -0.16946E-07    96   0.876E-04    0.108E-04
DAV:  13    -0.100080991879E+03   -0.13541E-05   -0.28719E-08   108   0.428E-04    0.816E-05
DAV:  14    -0.100080993191E+03   -0.13119E-05   -0.19172E-08    84   0.332E-04    0.685E-05
DAV:  15    -0.100080993797E+03   -0.60612E-06   -0.32858E-09    96   0.211E-04
  20 F= -.10008099E+03 E0= -.10008099E+03  d E =-.154947E-10
       N       E                     dE             d eps       ncg     rms          rms(c)
DAV:   1    -0.100079132622E+03    0.18606E-02   -0.33514E-01    96   0.175E+00    0.204E-01
DAV:   2    -0.100081077131E+03   -0.19445E-02   -0.19681E-02   108   0.483E-01    0.134E-01
DAV:   3    -0.100081051051E+03    0.26080E-04   -0.47049E-04   132   0.869E-02    0.716E-02
DAV:   4    -0.100081061516E+03   -0.10465E-04   -0.20153E-04   120   0.600E-02    0.135E-02
DAV:   5    -0.100081055761E+03    0.57553E-05   -0.57524E-05   132   0.284E-02    0.104E-02
DAV:   6    -0.100081055115E+03    0.64591E-06   -0.87710E-06   132   0.945E-03
  21 F= -.10008106E+03 E0= -.10008106E+03  d E =-.274067E-10
       N       E                     dE             d eps       ncg     rms          rms(c)
DAV:   1    -0.100079527719E+03    0.15280E-02   -0.16935E-01    96   0.120E+00    0.135E-01
DAV:   2    -0.100080334087E+03   -0.80637E-03   -0.80453E-03   132   0.290E-01    0.778E-02
DAV:   3    -0.100080356974E+03   -0.22887E-04   -0.22710E-04   108   0.580E-02    0.385E-02
DAV:   4    -0.100080380274E+03   -0.23300E-04   -0.58823E-05   108   0.333E-02    0.849E-03
DAV:   5    -0.100080383902E+03   -0.36286E-05   -0.15458E-05   132   0.147E-02    0.607E-03
DAV:   6    -0.100080387129E+03   -0.32263E-05   -0.25984E-06   132   0.505E-03    0.360E-03
DAV:   7    -0.100080392694E+03   -0.55657E-05   -0.35926E-07    96   0.238E-03    0.136E-03
DAV:   8    -0.100080398744E+03   -0.60496E-05   -0.47057E-07   108   0.245E-03    0.777E-04
DAV:   9    -0.100080406815E+03   -0.80711E-05   -0.42474E-07    84   0.238E-03    0.374E-04
DAV:  10    -0.100080410137E+03   -0.33220E-05   -0.21309E-07    96   0.139E-03    0.387E-04
DAV:  11    -0.100080411449E+03   -0.13120E-05   -0.21788E-08   108   0.621E-04    0.280E-04
DAV:  12    -0.100080414469E+03   -0.30201E-05   -0.67371E-08    84   0.674E-04    0.115E-04
DAV:  13    -0.100080415685E+03   -0.12157E-05   -0.22945E-08    96   0.372E-04    0.155E-04
DAV:  14    -0.100080416750E+03   -0.10648E-05   -0.84721E-09    84   0.293E-04    0.449E-05
DAV:  15    -0.100080417322E+03   -0.57197E-06   -0.38919E-09    96   0.213E-04
  22 F= -.10008042E+03 E0= -.10008042E+03  d E =-.188540E-10
       N       E                     dE             d eps       ncg     rms          rms(c)
DAV:   1    -0.100077927903E+03    0.24888E-02   -0.34348E-01    96   0.179E+00    0.219E-01
DAV:   2    -0.100080369785E+03   -0.24419E-02   -0.24645E-02   132   0.530E-01    0.161E-01
DAV:   3    -0.100080286874E+03    0.82910E-04   -0.51938E-04   132   0.909E-02    0.942E-02
DAV:   4    -0.100080273697E+03    0.13177E-04   -0.32038E-04   132   0.719E-02    0.155E-02
DAV:   5    -0.100080270869E+03    0.28277E-05   -0.93000E-05   132   0.349E-02    0.123E-02
DAV:   6    -0.100080273902E+03   -0.30328E-05   -0.13712E-05   132   0.118E-02    0.814E-03
DAV:   7    -0.100080293066E+03   -0.19164E-04   -0.41802E-06   132   0.716E-03    0.327E-03
DAV:   8    -0.100080319241E+03   -0.26175E-04   -0.25234E-06   108   0.503E-03    0.124E-03
DAV:   9    -0.100080343723E+03   -0.24482E-04   -0.24171E-06   120   0.381E-03    0.155E-03
DAV:  10    -0.100080361321E+03   -0.17598E-04   -0.13877E-06   108   0.260E-03    0.681E-04
DAV:  11    -0.100080369260E+03   -0.79393E-05   -0.40791E-07   108   0.145E-03    0.262E-04
DAV:  12    -0.100080375308E+03   -0.60482E-05   -0.33940E-07    84   0.113E-03    0.222E-04
DAV:  13    -0.100080377478E+03   -0.21699E-05   -0.67989E-08    96   0.562E-04    0.165E-04
DAV:  14    -0.100080378841E+03   -0.13630E-05   -0.25563E-08    84   0.393E-04    0.810E-05
DAV:  15    -0.100080379361E+03   -0.52017E-06   -0.28259E-09   108   0.217E-04
  23 F= -.10008038E+03 E0= -.10008038E+03  d E =-.146150E-10
       N       E                     dE             d eps       ncg     rms          rms(c)
DAV:   1    -0.100078703346E+03    0.16755E-02   -0.16903E-01    96   0.128E+00    0.151E-01
DAV:   2    -0.100079761240E+03   -0.10579E-02   -0.10873E-02   144   0.344E-01    0.108E-01
DAV:   3    -0.100079732538E+03    0.28702E-04   -0.23906E-04   132   0.589E-02    0.576E-02
DAV:   4    -0.100079720175E+03    0.12363E-04   -0.96345E-05   132   0.371E-02    0.947E-03
DAV:   5    -0.100079713676E+03    0.64986E-05   -0.18277E-05   132   0.162E-02    0.594E-03
DAV:   6    -0.100079714464E+03   -0.78813E-06   -0.43534E-06   132   0.672E-03
  24 F= -.10007971E+03 E0= -.10007971E+03  d E =-.172007E-10
       N       E                     dE             d eps       ncg     rms          rms(c)
DAV:   1    -0.100077640992E+03    0.20727E-02   -0.35300E-01    96   0.173E+00    0.234E-01
DAV:   2    -0.100080149097E+03   -0.25081E-02   -0.25016E-02   144   0.524E-01    0.171E-01
DAV:   3    -0.100080089611E+03    0.59486E-04   -0.53606E-04   144   0.909E-02    0.971E-02
DAV:   4    -0.100080075063E+03    0.14548E-04   -0.33253E-04   108   0.655E-02    0.155E-02
DAV:   5    -0.100080066043E+03    0.90201E-05   -0.72029E-05   144   0.284E-02    0.110E-02
DAV:   6    -0.100080068083E+03   -0.20398E-05   -0.15402E-05   120   0.113E-02    0.679E-03
DAV:   7    -0.100080090873E+03   -0.22790E-04   -0.41965E-06   120   0.657E-03    0.245E-03
DAV:   8    -0.100080118020E+03   -0.27147E-04   -0.26910E-06   120   0.465E-03    0.125E-03
DAV:   9    -0.100080144065E+03   -0.26045E-04   -0.28474E-06   120   0.371E-03    0.134E-03
DAV:  10    -0.100080160308E+03   -0.16243E-04   -0.11955E-06   120   0.242E-03    0.448E-04
DAV:  11    -0.100080167102E+03   -0.67937E-05   -0.33563E-07    84   0.127E-03    0.323E-04
DAV:  12    -0.100080172520E+03   -0.54182E-05   -0.29113E-07    96   0.108E-03    0.162E-04
DAV:  13    -0.100080174387E+03   -0.18675E-05   -0.66128E-08   108   0.562E-04    0.131E-04
DAV:  14    -0.100080175654E+03   -0.12664E-05   -0.19666E-08    84   0.366E-04    0.606E-05
DAV:  15    -0.100080176279E+03   -0.62500E-06   -0.59706E-09    96   0.233E-04
  25 F= -.10008018E+03 E0= -.10008018E+03  d E =-.209432E-10
       N       E                     dE             d eps       ncg     rms          rms(c)
DAV:   1    -0.100079683420E+03    0.49223E-03   -0.18519E-01    96   0.135E+00    0.165E-01
DAV:   2    -0.100080905175E+03   -0.12218E-02   -0.13309E-02   108   0.397E-01    0.104E-01
DAV:   3    -0.100080854944E+03    0.50231E-04   -0.25864E-04   144   0.642E-02    0.596E-02
DAV:   4    -0.100080828316E+03    0.26628E-04   -0.12708E-04   108   0.449E-02    0.104E-02
DAV:   5    -0.100080822411E+03    0.59053E-05   -0.29918E-05   132   0.203E-02    0.696E-03
DAV:   6    -0.100080821894E+03    0.51716E-06   -0.46668E-06   108   0.769E-03
  26 F= -.10008082E+03 E0= -.10008082E+03  d E =-.168417E-10
       N       E                     dE             d eps       ncg     rms          rms(c)
DAV:   1    -0.100079295744E+03    0.15267E-02   -0.40065E-01    96   0.175E+00    0.215E-01
DAV:   2    -0.100080810017E+03   -0.15143E-02   -0.18157E-02    96   0.414E-01    0.111E-01
DAV:   3    -0.100080750407E+03    0.59610E-04   -0.30938E-04   132   0.574E-02    0.583E-02
DAV:   4    -0.100080711459E+03    0.38949E-04   -0.87225E-05   108   0.336E-02    0.111E-02
DAV:   5    -0.100080700021E+03    0.11438E-04   -0.14317E-05   132   0.152E-02    0.640E-03
DAV:   6    -0.100080700696E+03   -0.67495E-06   -0.60712E-06   108   0.894E-03
  27 F= -.10008070E+03 E0= -.10008070E+03  d E =-.322808E-10
       N       E                     dE             d eps       ncg     rms          rms(c)
DAV:   1    -0.100079313444E+03    0.13866E-02   -0.20314E-01   108   0.122E+00    0.152E-01
DAV:   2    -0.100080072729E+03   -0.75928E-03   -0.89815E-03   132   0.305E-01    0.829E-02
DAV:   3    -0.100080053884E+03    0.18844E-04   -0.16271E-04   108   0.440E-02    0.427E-02
DAV:   4    -0.100080038622E+03    0.15262E-04   -0.55728E-05   120   0.279E-02    0.807E-03
DAV:   5    -0.100080034827E+03    0.37949E-05   -0.10189E-05   132   0.123E-02    0.489E-03
DAV:   6    -0.100080039259E+03   -0.44312E-05   -0.39574E-06   108   0.616E-03    0.261E-03
DAV:   7    -0.100080048406E+03   -0.91478E-05   -0.74972E-07    96   0.320E-03    0.131E-03
DAV:   8    -0.100080061961E+03   -0.13554E-04   -0.12165E-06    96   0.277E-03    0.763E-04
DAV:   9    -0.100080072657E+03   -0.10697E-04   -0.68179E-07    96   0.204E-03    0.487E-04
DAV:  10    -0.100080081318E+03   -0.86605E-05   -0.70769E-07    84   0.164E-03    0.231E-04
DAV:  11    -0.100080085642E+03   -0.43237E-05   -0.20204E-07    96   0.895E-04    0.178E-04
DAV:  12    -0.100080088351E+03   -0.27098E-05   -0.89306E-08    84   0.628E-04    0.799E-05
DAV:  13    -0.100080089344E+03   -0.99287E-06   -0.20970E-08    96   0.329E-04
  28 F= -.10008009E+03 E0= -.10008009E+03  d E =-.185291E-10
       N       E                     dE             d eps       ncg     rms          rms(c)
DAV:   1    -0.100078546886E+03    0.15415E-02   -0.40443E-01    96   0.188E+00    0.210E-01
DAV:   2    -0.100080146586E+03   -0.15997E-02   -0.19618E-02   108   0.448E-01    0.132E-01
DAV:   3    -0.100080020129E+03    0.12646E-03   -0.29984E-04   132   0.624E-02    0.680E-02
DAV:   4    -0.100079960569E+03    0.59560E-04   -0.15291E-04   120   0.459E-02    0.112E-02
DAV:   5    -0.100079952558E+03    0.80110E-05   -0.33523E-05   132   0.209E-02    0.741E-03
DAV:   6    -0.100079963710E+03   -0.11152E-04   -0.11571E-05   108   0.924E-03    0.380E-03
DAV:   7    -0.100079986489E+03   -0.22779E-04   -0.12011E-06    96   0.335E-03    0.201E-03
DAV:   8    -0.100080025409E+03   -0.38920E-04   -0.49491E-06   108   0.469E-03    0.132E-03
DAV:   9    -0.100080049375E+03   -0.23966E-04   -0.15377E-06   108   0.280E-03    0.744E-04
DAV:  10    -0.100080068784E+03   -0.19409E-04   -0.13904E-06    96   0.238E-03    0.425E-04
DAV:  11    -0.100080077688E+03   -0.89042E-05   -0.27190E-07    96   0.119E-03    0.288E-04
DAV:  12    -0.100080083718E+03   -0.60298E-05   -0.23578E-07    84   0.962E-04    0.123E-04
DAV:  13    -0.100080085786E+03   -0.20679E-05   -0.30307E-08   108   0.432E-04    0.791E-05
DAV:  14    -0.100080087384E+03   -0.15982E-05   -0.17843E-08    84   0.340E-04    0.607E-05
DAV:  15    -0.100080087993E+03   -0.60853E-06   -0.10804E-09    96   0.191E-04
  29 F= -.10008009E+03 E0= -.10008009E+03  d E =-.153079E-10
       N       E                     dE             d eps       ncg     rms          rms(c)
DAV:   1    -0.100080651147E+03   -0.56376E-03   -0.20316E-01    96   0.134E+00    0.146E-01
DAV:   2    -0.100081482621E+03   -0.83147E-03   -0.10143E-02   108   0.303E-01    0.869E-02
DAV:   3    -0.100081429534E+03    0.53086E-04   -0.17681E-04   132   0.449E-02    0.456E-02
DAV:   4    -0.100081399787E+03    0.29747E-04   -0.64500E-05   108   0.307E-02    0.767E-03
DAV:   5    -0.100081396075E+03    0.37115E-05   -0.14284E-05   132   0.140E-02    0.523E-03
DAV:   6    -0.100081401464E+03   -0.53883E-05   -0.49914E-06   108   0.620E-03    0.297E-03
DAV:   7    -0.100081412942E+03   -0.11478E-04   -0.69855E-07    96   0.278E-03    0.151E-03
DAV:   8    -0.100081432380E+03   -0.19438E-04   -0.21926E-06    96   0.329E-03    0.936E-04
DAV:   9    -0.100081444980E+03   -0.12601E-04   -0.85302E-07   108   0.216E-03    0.670E-04
DAV:  10    -0.100081456833E+03   -0.11853E-04   -0.87334E-07    96   0.188E-03    0.265E-04
DAV:  11    -0.100081460997E+03   -0.41638E-05   -0.11870E-07   108   0.833E-04    0.245E-04
DAV:  12    -0.100081465362E+03   -0.43652E-05   -0.19291E-07    84   0.873E-04    0.116E-04
DAV:  13    -0.100081466500E+03   -0.11376E-05   -0.27911E-08    96   0.376E-04    0.836E-05
DAV:  14    -0.100081467493E+03   -0.99297E-06   -0.75637E-09    96   0.272E-04
  30 F= -.10008147E+03 E0= -.10008147E+03  d E =-.142380E-10
       N       E                     dE             d eps       ncg     rms          rms(c)
DAV:   1    -0.100080051005E+03    0.14155E-02   -0.40385E-01    96   0.169E+00    0.186E-01
DAV:   2    -0.100081655542E+03   -0.16045E-02   -0.19202E-02   132   0.377E-01    0.936E-02
DAV:   3    -0.100081620019E+03    0.35523E-04   -0.36183E-04   132   0.625E-02    0.504E-02
DAV:   4    -0.100081595741E+03    0.24278E-04   -0.77885E-05   132   0.396E-02    0.107E-02
DAV:   5    -0.100081589244E+03    0.64964E-05   -0.29234E-05   132   0.205E-02    0.735E-03
DAV:   6    -0.100081590196E+03   -0.95124E-06   -0.42755E-06   132   0.671E-03
  31 F= -.10008159E+03 E0= -.10008159E+03  d E =-.417323E-10
       N       E                     dE             d eps       ncg     rms          rms(c)
DAV:   1    -0.100079058453E+03    0.25308E-02   -0.19979E-01    96   0.135E+00    0.152E-01
DAV:   2    -0.100080252222E+03   -0.11938E-02   -0.14094E-02   132   0.355E-01    0.829E-02
DAV:   3    -0.100080229089E+03    0.23133E-04   -0.26508E-04   120   0.554E-02    0.471E-02
DAV:   4    -0.100080226298E+03    0.27911E-05   -0.70259E-05   108   0.352E-02    0.974E-03
DAV:   5    -0.100080222955E+03    0.33431E-05   -0.22425E-05   120   0.173E-02    0.655E-03
DAV:   6    -0.100080223760E+03   -0.80562E-06   -0.31298E-06   108   0.580E-03
  32 F= -.10008022E+03 E0= -.10008022E+03  d E =-.237212E-10
       N       E                     dE             d eps       ncg     rms          rms(c)
DAV:   1    -0.100078859945E+03    0.13630E-02   -0.40518E-01    96   0.183E+00    0.212E-01
DAV:   2    -0.100080552570E+03   -0.16926E-02   -0.20047E-02   132   0.450E-01    0.128E-01
DAV:   3    -0.100080467289E+03    0.85281E-04   -0.31608E-04   108   0.616E-02    0.699E-02
DAV:   4    -0.100080414460E+03    0.52829E-04   -0.14934E-04   120   0.459E-02    0.114E-02
DAV:   5    -0.100080400639E+03    0.13820E-04   -0.33153E-05   132   0.212E-02    0.734E-03
DAV:   6    -0.100080404849E+03   -0.42095E-05   -0.99084E-06   108   0.885E-03    0.436E-03
DAV:   7    -0.100080420543E+03   -0.15694E-04   -0.13771E-06   108   0.389E-03    0.217E-03
DAV:   8    -0.100080445291E+03   -0.24747E-04   -0.28358E-06    96   0.408E-03    0.109E-03
DAV:   9    -0.100080460872E+03   -0.15581E-04   -0.11839E-06   108   0.260E-03    0.944E-04
DAV:  10    -0.100080477547E+03   -0.16675E-04   -0.14258E-06    96   0.245E-03    0.316E-04
DAV:  11    -0.100080483269E+03   -0.57223E-05   -0.22336E-07    96   0.113E-03    0.285E-04
DAV:  12    -0.100080488540E+03   -0.52711E-05   -0.25681E-07    84   0.103E-03    0.139E-04
DAV:  13    -0.100080490000E+03   -0.14595E-05   -0.50792E-08   108   0.474E-04    0.118E-04
DAV:  14    -0.100080491343E+03   -0.13436E-05   -0.19372E-08    84   0.359E-04    0.458E-05
DAV:  15    -0.100080491720E+03   -0.37677E-06   -0.15953E-09    96   0.196E-04
  33 F= -.10008049E+03 E0= -.10008049E+03  d E =-.168326E-10
       N       E                     dE             d eps       ncg     rms          rms(c)
DAV:   1    -0.100080212257E+03    0.27909E-03   -0.20286E-01   108   0.130E+00    0.147E-01
DAV:   2    -0.100080955913E+03   -0.74366E-03   -0.92149E-03   108   0.293E-01    0.925E-02
DAV:   3    -0.100080889510E+03    0.66403E-04   -0.14118E-04   132   0.425E-02    0.474E-02
DAV:   4    -0.100080855465E+03    0.34045E-04   -0.73369E-05   108   0.315E-02    0.792E-03
DAV:   5    -0.100080850599E+03    0.48653E-05   -0.15483E-05   120   0.142E-02    0.516E-03
DAV:   6    -0.100080856934E+03   -0.63348E-05   -0.58340E-06   132   0.633E-03    0.259E-03
DAV:   7    -0.100080869940E+03   -0.13005E-04   -0.58377E-07    84   0.228E-03    0.140E-03
DAV:   8    -0.100080893100E+03   -0.23161E-04   -0.25558E-06    96   0.322E-03    0.903E-04
DAV:   9    -0.100080907711E+03   -0.14611E-04   -0.79948E-07    96   0.199E-03    0.437E-04
DAV:  10    -0.100080918774E+03   -0.11063E-04   -0.90860E-07    96   0.169E-03    0.277E-04
DAV:  11    -0.100080925226E+03   -0.64526E-05   -0.27516E-07    96   0.113E-03    0.212E-04
DAV:  12    -0.100080926746E+03   -0.15198E-05   -0.41489E-08   108   0.482E-04    0.111E-04
DAV:  13    -0.100080928091E+03   -0.13447E-05   -0.19614E-08    84   0.353E-04    0.491E-05
DAV:  14    -0.100080928924E+03   -0.83284E-06   -0.68833E-09    96   0.253E-04
  34 F= -.10008093E+03 E0= -.10008093E+03  d E =-.169561E-10
       N       E                     dE             d eps       ncg     rms          rms(c)
DAV:   1    -0.100079206583E+03    0.17215E-02   -0.40444E-01   108   0.183E+00    0.214E-01
DAV:   2    -0.100080801859E+03   -0.15953E-02   -0.19243E-02   108   0.420E-01    0.114E-01
DAV:   3    -0.100080719315E+03    0.82544E-04   -0.33547E-04   132   0.619E-02    0.604E-02
DAV:   4    -0.100080676474E+03    0.42842E-04   -0.11370E-04   108   0.414E-02    0.114E-02
DAV:   5    -0.100080666068E+03    0.10406E-04   -0.25854E-05   132   0.193E-02    0.741E-03
DAV:   6    -0.100080667809E+03   -0.17415E-05   -0.71905E-06   108   0.837E-03    0.409E-03
DAV:   7    -0.100080678743E+03   -0.10934E-04   -0.14478E-06   108   0.468E-03    0.190E-03
DAV:   8    -0.100080698098E+03   -0.19355E-04   -0.15205E-06    96   0.409E-03    0.121E-03
DAV:   9    -0.100080715787E+03   -0.17688E-04   -0.11807E-06    96   0.295E-03    0.903E-04
DAV:  10    -0.100080729653E+03   -0.13867E-04   -0.54200E-07    96   0.185E-03    0.369E-04
DAV:  11    -0.100080737690E+03   -0.80364E-05   -0.27627E-07    84   0.111E-03    0.314E-04
DAV:  12    -0.100080744685E+03   -0.69947E-05   -0.20778E-07    96   0.920E-04    0.165E-04
DAV:  13    -0.100080747032E+03   -0.23479E-05   -0.36748E-08   108   0.451E-04    0.910E-05
DAV:  14    -0.100080748808E+03   -0.17755E-05   -0.20114E-08    84   0.330E-04    0.599E-05
DAV:  15    -0.100080749454E+03   -0.64571E-06   -0.86942E-10    96   0.193E-04
  35 F= -.10008075E+03 E0= -.10008075E+03  d E =-.179576E-10
       N       E                     dE             d eps       ncg     rms          rms(c)
DAV:   1    -0.100080442593E+03    0.30622E-03   -0.20309E-01    96   0.129E+00    0.145E-01
DAV:   2    -0.100081222210E+03   -0.77962E-03   -0.97033E-03   108   0.297E-01    0.845E-02
DAV:   3    -0.100081165755E+03    0.56455E-04   -0.14580E-04   132   0.392E-02    0.452E-02
DAV:   4    -0.100081121748E+03    0.44007E-04   -0.51592E-05   108   0.252E-02    0.781E-03
DAV:   5    -0.100081118570E+03    0.31783E-05   -0.81111E-06   132   0.114E-02    0.449E-03
DAV:   6    -0.100081129916E+03   -0.11346E-04   -0.51696E-06   108   0.750E-03    0.238E-03
DAV:   7    -0.100081147990E+03   -0.18075E-04   -0.23206E-06   108   0.472E-03    0.158E-03
DAV:   8    -0.100081168337E+03   -0.20346E-04   -0.14018E-06    96   0.285E-03    0.796E-04
DAV:   9    -0.100081186264E+03   -0.17927E-04   -0.16377E-06    96   0.265E-03    0.599E-04
DAV:  10    -0.100081199426E+03   -0.13162E-04   -0.11960E-06   108   0.209E-03    0.246E-04
DAV:  11    -0.100081203601E+03   -0.41749E-05   -0.16178E-07    96   0.897E-04    0.186E-04
DAV:  12    -0.100081206300E+03   -0.26994E-05   -0.11225E-07    84   0.641E-04    0.103E-04
DAV:  13    -0.100081207424E+03   -0.11238E-05   -0.27609E-08    96   0.355E-04    0.471E-05
DAV:  14    -0.100081208067E+03   -0.64339E-06   -0.53244E-09    84   0.241E-04
  36 F= -.10008121E+03 E0= -.10008121E+03  d E =-.130312E-10
       N       E                     dE             d eps       ncg     rms          rms(c)
DAV:   1    -0.100079689294E+03    0.15181E-02   -0.40353E-01    96   0.169E+00    0.183E-01
DAV:   2    -0.100081343896E+03   -0.16546E-02   -0.20034E-02   108   0.400E-01    0.102E-01
DAV:   3    -0.100081290119E+03    0.53778E-04   -0.34917E-04   132   0.597E-02    0.552E-02
DAV:   4    -0.100081245818E+03    0.44301E-04   -0.80864E-05   132   0.367E-02    0.107E-02
DAV:   5    -0.100081234730E+03    0.11088E-04   -0.22347E-05   132   0.184E-02    0.663E-03
DAV:   6    -0.100081237202E+03   -0.24714E-05   -0.56786E-06   132   0.807E-03    0.404E-03
DAV:   7    -0.100081248913E+03   -0.11711E-04   -0.17718E-06   108   0.533E-03    0.180E-03
DAV:   8    -0.100081266412E+03   -0.17499E-04   -0.13783E-06   108   0.422E-03    0.126E-03
DAV:   9    -0.100081289920E+03   -0.23508E-04   -0.16963E-06   108   0.346E-03    0.686E-04
DAV:  10    -0.100081303765E+03   -0.13845E-04   -0.63392E-07    84   0.204E-03    0.492E-04
DAV:  11    -0.100081312733E+03   -0.89674E-05   -0.30633E-07    96   0.121E-03    0.239E-04
DAV:  12    -0.100081316836E+03   -0.41029E-05   -0.94901E-08    84   0.665E-04    0.158E-04
DAV:  13    -0.100081319570E+03   -0.27346E-05   -0.39298E-08    96   0.464E-04    0.651E-05
DAV:  14    -0.100081320887E+03   -0.13167E-05   -0.14135E-08    84   0.279E-04    0.555E-05
DAV:  15    -0.100081321828E+03   -0.94101E-06   -0.47666E-09    84   0.230E-04
  37 F= -.10008132E+03 E0= -.10008132E+03  d E =-.307347E-10
       N       E                     dE             d eps       ncg     rms          rms(c)
DAV:   1    -0.100078974080E+03    0.23468E-02   -0.19977E-01    96   0.136E+00    0.146E-01
DAV:   2    -0.100080179482E+03   -0.12054E-02   -0.14537E-02   108   0.365E-01    0.858E-02
DAV:   3    -0.100080144251E+03    0.35231E-04   -0.23919E-04   144   0.496E-02    0.508E-02
DAV:   4    -0.100080110289E+03    0.33962E-04   -0.62164E-05   108   0.311E-02    0.926E-03
DAV:   5    -0.100080103115E+03    0.71741E-05   -0.15596E-05   132   0.149E-02    0.536E-03
DAV:   6    -0.100080107089E+03   -0.39741E-05   -0.40597E-06    96   0.732E-03    0.289E-03
DAV:   7    -0.100080120281E+03   -0.13192E-04   -0.20940E-06    96   0.519E-03    0.137E-03
DAV:   8    -0.100080140031E+03   -0.19750E-04   -0.13978E-06    96   0.363E-03    0.837E-04
DAV:   9    -0.100080155251E+03   -0.15220E-04   -0.10008E-06   108   0.256E-03    0.584E-04
DAV:  10    -0.100080168298E+03   -0.13047E-04   -0.82541E-07    96   0.192E-03    0.314E-04
DAV:  11    -0.100080172445E+03   -0.41475E-05   -0.10966E-07    96   0.822E-04    0.251E-04
DAV:  12    -0.100080176603E+03   -0.41575E-05   -0.15333E-07    84   0.822E-04    0.979E-05
DAV:  13    -0.100080177827E+03   -0.12242E-05   -0.25873E-08   108   0.393E-04    0.800E-05
DAV:  14    -0.100080178631E+03   -0.80431E-06   -0.39884E-09    84   0.256E-04
  38 F= -.10008018E+03 E0= -.10008018E+03  d E =-.168696E-10
       N       E                     dE             d eps       ncg     rms          rms(c)
DAV:   1    -0.100078779718E+03    0.13981E-02   -0.40594E-01    96   0.184E+00    0.212E-01
DAV:   2    -0.100080427529E+03   -0.16478E-02   -0.20082E-02   120   0.454E-01    0.130E-01
DAV:   3    -0.100080310619E+03    0.11691E-03   -0.31117E-04   132   0.618E-02    0.708E-02
DAV:   4    -0.100080250971E+03    0.59648E-04   -0.14910E-04   108   0.465E-02    0.114E-02
DAV:   5    -0.100080244145E+03    0.68256E-05   -0.35648E-05   132   0.218E-02    0.742E-03
DAV:   6    -0.100080255780E+03   -0.11634E-04   -0.11152E-05   108   0.918E-03    0.447E-03
DAV:   7    -0.100080279990E+03   -0.24211E-04   -0.16097E-06   108   0.393E-03    0.229E-03
DAV:   8    -0.100080318139E+03   -0.38148E-04   -0.44219E-06   108   0.474E-03    0.127E-03
DAV:   9    -0.100080339426E+03   -0.21288E-04   -0.15272E-06   108   0.286E-03    0.992E-04
DAV:  10    -0.100080361130E+03   -0.21704E-04   -0.18742E-06    96   0.276E-03    0.363E-04
DAV:  11    -0.100080368540E+03   -0.74097E-05   -0.26453E-07   108   0.123E-03    0.315E-04
DAV:  12    -0.100080375103E+03   -0.65633E-05   -0.31273E-07    84   0.113E-03    0.171E-04
DAV:  13    -0.100080376695E+03   -0.15915E-05   -0.44394E-08    96   0.471E-04    0.131E-04
DAV:  14    -0.100080378352E+03   -0.16576E-05   -0.22455E-08    84   0.383E-04    0.539E-05
DAV:  15    -0.100080378827E+03   -0.47477E-06   -0.19336E-09   108   0.207E-04
  39 F= -.10008038E+03 E0= -.10008038E+03  d E =-.169088E-10
       N       E                     dE             d eps       ncg     rms          rms(c)
DAV:   1    -0.100079812498E+03    0.56585E-03   -0.20296E-01    96   0.134E+00    0.151E-01
DAV:   2    -0.100080565348E+03   -0.75285E-03   -0.91959E-03    96   0.308E-01    0.792E-02
DAV:   3    -0.100080522445E+03    0.42903E-04   -0.16090E-04   144   0.430E-02    0.418E-02
DAV:   4    -0.100080494839E+03    0.27606E-04   -0.47099E-05   108   0.261E-02    0.785E-03
DAV:   5    -0.100080487912E+03    0.69270E-05   -0.97247E-06   132   0.123E-02    0.478E-03
DAV:   6    -0.100080489006E+03   -0.10940E-05   -0.34926E-06   108   0.642E-03    0.259E-03
DAV:   7    -0.100080496298E+03   -0.72922E-05   -0.95486E-07    96   0.413E-03    0.126E-03
DAV:   8    -0.100080508472E+03   -0.12174E-04   -0.10991E-06    96   0.343E-03    0.947E-04
DAV:   9    -0.100080521849E+03   -0.13377E-04   -0.77665E-07    84   0.242E-03    0.464E-04
DAV:  10    -0.100080529059E+03   -0.72094E-05   -0.31464E-07    96   0.129E-03    0.322E-04
DAV:  11    -0.100080536232E+03   -0.71730E-05   -0.20491E-07    84   0.926E-04    0.164E-04
DAV:  12    -0.100080538936E+03   -0.27039E-05   -0.51476E-08    96   0.491E-04    0.112E-04
DAV:  13    -0.100080541536E+03   -0.26007E-05   -0.43530E-08    84   0.412E-04    0.530E-05
DAV:  14    -0.100080542526E+03   -0.98971E-06   -0.73573E-09    96   0.239E-04
  40 F= -.10008054E+03 E0= -.10008054E+03  d E =-.217127E-10
       N       E                     dE             d eps       ncg     rms          rms(c)
DAV:   1    -0.100079262621E+03    0.12789E-02   -0.40608E-01   108   0.184E+00    0.216E-01
DAV:   2    -0.100080771624E+03   -0.15090E-02   -0.18607E-02    96   0.428E-01    0.117E-01
DAV:   3    -0.100080672314E+03    0.99310E-04   -0.31164E-04   144   0.595E-02    0.627E-02
DAV:   4    -0.100080597493E+03    0.74821E-04   -0.99723E-05   108   0.366E-02    0.114E-02
DAV:   5    -0.100080593055E+03    0.44379E-05   -0.17649E-05   132   0.165E-02    0.684E-03
DAV:   6    -0.100080610505E+03   -0.17450E-04   -0.87548E-06   108   0.996E-03    0.350E-03
DAV:   7    -0.100080639645E+03   -0.29140E-04   -0.42276E-06   108   0.664E-03    0.216E-03
DAV:   8    -0.100080674409E+03   -0.34764E-04   -0.28254E-06    96   0.438E-03    0.112E-03
DAV:   9    -0.100080701466E+03   -0.27057E-04   -0.25729E-06   108   0.364E-03    0.836E-04
DAV:  10    -0.100080722519E+03   -0.21053E-04   -0.19758E-06    96   0.285E-03    0.360E-04
DAV:  11    -0.100080729688E+03   -0.71692E-05   -0.31876E-07    96   0.130E-03    0.255E-04
DAV:  12    -0.100080734499E+03   -0.48112E-05   -0.22791E-07    84   0.939E-04    0.142E-04
DAV:  13    -0.100080736119E+03   -0.16194E-05   -0.46540E-08    96   0.476E-04    0.672E-05
DAV:  14    -0.100080737099E+03   -0.98067E-06   -0.11660E-08    84   0.311E-04
  41 F= -.10008074E+03 E0= -.10008074E+03  d E =-.138965E-10
       N       E                     dE             d eps       ncg     rms          rms(c)
DAV:   1    -0.100080724403E+03    0.11716E-04   -0.20125E-01    96   0.129E+00    0.148E-01
DAV:   2    -0.100081486845E+03   -0.76244E-03   -0.91251E-03   108   0.277E-01    0.700E-02
DAV:   3    -0.100081461715E+03    0.25130E-04   -0.18014E-04   132   0.449E-02    0.367E-02
DAV:   4    -0.100081449228E+03    0.12487E-04   -0.44356E-05   120   0.285E-02    0.787E-03
DAV:   5    -0.100081446335E+03    0.28927E-05   -0.12893E-05   132   0.136E-02    0.521E-03
DAV:   6    -0.100081446989E+03   -0.65347E-06   -0.21865E-06    96   0.498E-03
  42 F= -.10008145E+03 E0= -.10008145E+03  d E =-.188539E-10
       N       E                     dE             d eps       ncg     rms          rms(c)
DAV:   1    -0.100080032883E+03    0.14135E-02   -0.40401E-01    96   0.168E+00    0.186E-01
DAV:   2    -0.100081647372E+03   -0.16145E-02   -0.19193E-02   120   0.376E-01    0.935E-02
DAV:   3    -0.100081618847E+03    0.28525E-04   -0.35890E-04   132   0.618E-02    0.503E-02
DAV:   4    -0.100081603282E+03    0.15565E-04   -0.78190E-05   108   0.393E-02    0.108E-02
DAV:   5    -0.100081599638E+03    0.36439E-05   -0.28121E-05   132   0.201E-02    0.725E-03
DAV:   6    -0.100081601841E+03   -0.22024E-05   -0.41741E-06   132   0.662E-03    0.485E-03
DAV:   7    -0.100081609068E+03   -0.72271E-05   -0.84860E-07   108   0.388E-03    0.188E-03
DAV:   8    -0.100081619117E+03   -0.10049E-04   -0.12678E-06   120   0.380E-03    0.125E-03
DAV:   9    -0.100081635568E+03   -0.16452E-04   -0.11917E-06    96   0.337E-03    0.601E-04
DAV:  10    -0.100081641860E+03   -0.62916E-05   -0.34719E-07   108   0.182E-03    0.645E-04
DAV:  11    -0.100081646241E+03   -0.43814E-05   -0.91443E-08    84   0.893E-04    0.335E-04
DAV:  12    -0.100081652048E+03   -0.58069E-05   -0.21254E-07    96   0.947E-04    0.260E-04
DAV:  13    -0.100081653556E+03   -0.15075E-05   -0.24267E-08   108   0.409E-04    0.171E-04
DAV:  14    -0.100081655527E+03   -0.19718E-05   -0.43983E-08    84   0.420E-04    0.549E-05
DAV:  15    -0.100081656123E+03   -0.59591E-06   -0.16299E-09    96   0.200E-04
  43 F= -.10008166E+03 E0= -.10008166E+03  d E =-.326105E-10
       N       E                     dE             d eps       ncg     rms          rms(c)
DAV:   1    -0.100079681471E+03    0.19741E-02   -0.19870E-01    96   0.135E+00    0.146E-01
DAV:   2    -0.100080685112E+03   -0.10036E-02   -0.11995E-02   108   0.325E-01    0.785E-02
DAV:   3    -0.100080641633E+03    0.43478E-04   -0.23100E-04   144   0.520E-02    0.429E-02
DAV:   4    -0.100080612744E+03    0.28889E-04   -0.55384E-05   108   0.305E-02    0.921E-03
DAV:   5    -0.100080605336E+03    0.74086E-05   -0.16053E-05   132   0.153E-02    0.551E-03
DAV:   6    -0.100080607945E+03   -0.26094E-05   -0.30760E-06   108   0.617E-03    0.338E-03
DAV:   7    -0.100080618179E+03   -0.10234E-04   -0.11083E-06   108   0.373E-03    0.127E-03
DAV:   8    -0.100080630420E+03   -0.12241E-04   -0.88377E-07    96   0.291E-03    0.895E-04
DAV:   9    -0.100080646107E+03   -0.15686E-04   -0.12518E-06   108   0.272E-03    0.466E-04
DAV:  10    -0.100080653945E+03   -0.78383E-05   -0.47172E-07    96   0.170E-03    0.321E-04
DAV:  11    -0.100080658468E+03   -0.45230E-05   -0.19576E-07    84   0.991E-04    0.191E-04
DAV:  12    -0.100080661317E+03   -0.28488E-05   -0.11061E-07    96   0.685E-04    0.114E-04
DAV:  13    -0.100080662563E+03   -0.12466E-05   -0.26905E-08    84   0.381E-04    0.687E-05
DAV:  14    -0.100080663348E+03   -0.78534E-06   -0.12845E-08    96   0.266E-04
  44 F= -.10008066E+03 E0= -.10008066E+03  d E =-.209891E-10
       N       E                     dE             d eps       ncg     rms          rms(c)
DAV:   1    -0.100079205687E+03    0.14569E-02   -0.39458E-01    96   0.173E+00    0.214E-01
DAV:   2    -0.100080719880E+03   -0.15142E-02   -0.18551E-02   132   0.394E-01    0.121E-01
DAV:   3    -0.100080586224E+03    0.13366E-03   -0.33430E-04   132   0.666E-02    0.613E-02
DAV:   4    -0.100080541583E+03    0.44641E-04   -0.14109E-04   120   0.435E-02    0.123E-02
DAV:   5    -0.100080530970E+03    0.10613E-04   -0.22208E-05   132   0.176E-02    0.722E-03
DAV:   6    -0.100080534088E+03   -0.31180E-05   -0.66201E-06   120   0.743E-03    0.382E-03
DAV:   7    -0.100080548090E+03   -0.14001E-04   -0.17100E-06   120   0.407E-03    0.171E-03
DAV:   8    -0.100080568906E+03   -0.20816E-04   -0.11266E-06    96   0.268E-03    0.105E-03
DAV:   9    -0.100080589450E+03   -0.20545E-04   -0.11020E-06   108   0.217E-03    0.698E-04
DAV:  10    -0.100080606841E+03   -0.17391E-04   -0.96688E-07   120   0.185E-03    0.361E-04
DAV:  11    -0.100080613204E+03   -0.63627E-05   -0.10834E-07    84   0.857E-04    0.205E-04
DAV:  12    -0.100080619320E+03   -0.61163E-05   -0.18796E-07    96   0.861E-04    0.127E-04
DAV:  13    -0.100080620946E+03   -0.16256E-05   -0.16153E-08   108   0.370E-04    0.783E-05
DAV:  14    -0.100080622180E+03   -0.12341E-05   -0.65343E-09    84   0.259E-04    0.418E-05
DAV:  15    -0.100080622691E+03   -0.51135E-06    0.18992E-09    96   0.150E-04
  45 F= -.10008062E+03 E0= -.10008062E+03  d E =-.135766E-10
       N       E                     dE             d eps       ncg     rms          rms(c)
DAV:   1    -0.100080980530E+03   -0.35835E-03   -0.20111E-01    96   0.127E+00    0.159E-01
DAV:   2    -0.100081703220E+03   -0.72269E-03   -0.88727E-03   108   0.296E-01    0.792E-02
DAV:   3    -0.100081645275E+03    0.57945E-04   -0.16824E-04   132   0.480E-02    0.408E-02
DAV:   4    -0.100081622742E+03    0.22533E-04   -0.63280E-05   108   0.307E-02    0.868E-03
DAV:   5    -0.100081618198E+03    0.45435E-05   -0.11595E-05   132   0.130E-02    0.521E-03
DAV:   6    -0.100081621153E+03   -0.29549E-05   -0.29436E-06   108   0.563E-03    0.268E-03
DAV:   7    -0.100081629480E+03   -0.83267E-05   -0.73889E-07    96   0.296E-03    0.114E-03
DAV:   8    -0.100081639738E+03   -0.10258E-04   -0.78068E-07    96   0.227E-03    0.728E-04
DAV:   9    -0.100081650451E+03   -0.10713E-04   -0.71656E-07   108   0.193E-03    0.436E-04
DAV:  10    -0.100081658413E+03   -0.79617E-05   -0.56229E-07    84   0.153E-03    0.244E-04
DAV:  11    -0.100081660741E+03   -0.23285E-05   -0.91855E-08   108   0.730E-04    0.155E-04
DAV:  12    -0.100081663608E+03   -0.28664E-05   -0.12617E-07    84   0.728E-04    0.827E-05
DAV:  13    -0.100081664453E+03   -0.84500E-06   -0.23097E-08    96   0.352E-04
  46 F= -.10008166E+03 E0= -.10008166E+03  d E =-.165572E-10
       N       E                     dE             d eps       ncg     rms          rms(c)
DAV:   1    -0.100080404431E+03    0.12592E-02   -0.41326E-01    96   0.184E+00    0.222E-01
DAV:   2    -0.100081694219E+03   -0.12898E-02   -0.15580E-02   132   0.382E-01    0.879E-02
DAV:   3    -0.100081628141E+03    0.66078E-04   -0.36535E-04   120   0.661E-02    0.459E-02
DAV:   4    -0.100081609872E+03    0.18269E-04   -0.83868E-05   132   0.367E-02    0.141E-02
DAV:   5    -0.100081606389E+03    0.34832E-05   -0.18615E-05   132   0.174E-02    0.715E-03
DAV:   6    -0.100081607289E+03   -0.90009E-06   -0.37860E-06   120   0.703E-03
  47 F= -.10008161E+03 E0= -.10008161E+03  d E =-.241345E-10
       N       E                     dE             d eps       ncg     rms          rms(c)
DAV:   1    -0.100080915883E+03    0.69051E-03   -0.20548E-01    96   0.130E+00    0.153E-01
DAV:   2    -0.100081597566E+03   -0.68168E-03   -0.80655E-03   132   0.267E-01    0.624E-02
DAV:   3    -0.100081573859E+03    0.23707E-04   -0.18247E-04   132   0.461E-02    0.329E-02
DAV:   4    -0.100081572891E+03    0.96770E-06   -0.43308E-05   108   0.265E-02    0.921E-03
DAV:   5    -0.100081573299E+03   -0.40759E-06   -0.10342E-05   120   0.127E-02    0.536E-03
DAV:   6    -0.100081574601E+03   -0.13025E-05   -0.19682E-06   120   0.512E-03    0.293E-03
DAV:   7    -0.100081577006E+03   -0.24051E-05   -0.23908E-07    84   0.204E-03    0.105E-03
DAV:   8    -0.100081579737E+03   -0.27309E-05   -0.16327E-07    96   0.160E-03    0.491E-04
DAV:   9    -0.100081583794E+03   -0.40566E-05   -0.20424E-07    84   0.159E-03    0.257E-04
DAV:  10    -0.100081586514E+03   -0.27203E-05   -0.17264E-07    96   0.118E-03    0.195E-04
DAV:  11    -0.100081587976E+03   -0.14623E-05   -0.36318E-08   108   0.635E-04    0.149E-04
DAV:  12    -0.100081589060E+03   -0.10835E-05   -0.18795E-08    84   0.381E-04    0.712E-05
DAV:  13    -0.100081589766E+03   -0.70658E-06   -0.88776E-09    84   0.255E-04
  48 F= -.10008159E+03 E0= -.10008159E+03  d E =-.307772E-10
       N       E                     dE             d eps       ncg     rms          rms(c)
DAV:   1    -0.100080377228E+03    0.12118E-02   -0.41013E-01    96   0.177E+00    0.181E-01
DAV:   2    -0.100081693868E+03   -0.13166E-02   -0.15730E-02   120   0.369E-01    0.919E-02
DAV:   3    -0.100081625863E+03    0.68004E-04   -0.32026E-04   132   0.634E-02    0.467E-02
DAV:   4    -0.100081603484E+03    0.22380E-04   -0.95286E-05   108   0.396E-02    0.110E-02
DAV:   5    -0.100081599417E+03    0.40663E-05   -0.21448E-05   132   0.181E-02    0.699E-03
DAV:   6    -0.100081602900E+03   -0.34823E-05   -0.43401E-06   132   0.709E-03    0.382E-03
DAV:   7    -0.100081611085E+03   -0.81858E-05   -0.70829E-07    84   0.326E-03    0.145E-03
DAV:   8    -0.100081620888E+03   -0.98027E-05   -0.72530E-07   108   0.271E-03    0.904E-04
DAV:   9    -0.100081635145E+03   -0.14257E-04   -0.10489E-06    96   0.276E-03    0.408E-04
DAV:  10    -0.100081643069E+03   -0.79241E-05   -0.52659E-07    96   0.185E-03    0.357E-04
DAV:  11    -0.100081646740E+03   -0.36713E-05   -0.13770E-07    84   0.995E-04    0.192E-04
DAV:  12    -0.100081650202E+03   -0.34614E-05   -0.14419E-07    84   0.785E-04    0.120E-04
DAV:  13    -0.100081651272E+03   -0.10699E-05   -0.24980E-08   108   0.369E-04    0.839E-05
DAV:  14    -0.100081652374E+03   -0.11027E-05   -0.21817E-08    84   0.318E-04    0.352E-05
DAV:  15    -0.100081652756E+03   -0.38161E-06   -0.14229E-11    96   0.175E-04
  49 F= -.10008165E+03 E0= -.10008165E+03  d E =-.137143E-10
       N       E                     dE             d eps       ncg     rms          rms(c)
DAV:   1    -0.100080258287E+03    0.13941E-02   -0.19997E-01    96   0.131E+00    0.156E-01
DAV:   2    -0.100081343308E+03   -0.10850E-02   -0.12922E-02   120   0.316E-01    0.709E-02
DAV:   3    -0.100081299945E+03    0.43364E-04   -0.26609E-04   144   0.551E-02    0.393E-02
DAV:   4    -0.100081282805E+03    0.17139E-04   -0.61394E-05   120   0.309E-02    0.106E-02
DAV:   5    -0.100081277965E+03    0.48406E-05   -0.14970E-05   132   0.154E-02    0.596E-03
DAV:   6    -0.100081278537E+03   -0.57273E-06   -0.28363E-06   120   0.622E-03
  50 F= -.10008128E+03 E0= -.10008128E+03  d E =-.228146E-10
       N       E                     dE             d eps       ncg     rms          rms(c)
DAV:   1    -0.100079864014E+03    0.14140E-02   -0.40863E-01    96   0.183E+00    0.224E-01
DAV:   2    -0.100081310934E+03   -0.14469E-02   -0.17271E-02   144   0.413E-01    0.102E-01
DAV:   3    -0.100081239069E+03    0.71865E-04   -0.36572E-04   120   0.676E-02    0.533E-02
DAV:   4    -0.100081212860E+03    0.26209E-04   -0.10346E-04   120   0.396E-02    0.128E-02
DAV:   5    -0.100081205127E+03    0.77327E-05   -0.21267E-05   132   0.180E-02    0.696E-03
DAV:   6    -0.100081206527E+03   -0.14001E-05   -0.44835E-06   108   0.734E-03    0.385E-03
DAV:   7    -0.100081213678E+03   -0.71506E-05   -0.89244E-07   120   0.337E-03    0.148E-03
DAV:   8    -0.100081221587E+03   -0.79092E-05   -0.48172E-07    84   0.239E-03    0.794E-04
DAV:   9    -0.100081232357E+03   -0.10770E-04   -0.82564E-07   108   0.235E-03    0.549E-04
DAV:  10    -0.100081241715E+03   -0.93584E-05   -0.79653E-07    96   0.202E-03    0.329E-04
DAV:  11    -0.100081244015E+03   -0.23001E-05   -0.60590E-08   108   0.848E-04    0.243E-04
DAV:  12    -0.100081246905E+03   -0.28897E-05   -0.80933E-08    84   0.679E-04    0.124E-04
DAV:  13    -0.100081248787E+03   -0.18817E-05   -0.60167E-08    84   0.493E-04    0.115E-04
DAV:  14    -0.100081249724E+03   -0.93748E-06   -0.10070E-08    96   0.273E-04
  51 F= -.10008125E+03 E0= -.10008125E+03  d E =-.173997E-10
       N       E                     dE             d eps       ncg     rms          rms(c)
DAV:   1    -0.100080252000E+03    0.99679E-03   -0.20628E-01    96   0.129E+00    0.159E-01
DAV:   2    -0.100080859534E+03   -0.60753E-03   -0.74464E-03   108   0.269E-01    0.629E-02
DAV:   3    -0.100080825258E+03    0.34276E-04   -0.17731E-04   132   0.465E-02    0.326E-02
DAV:   4    -0.100080815445E+03    0.98130E-05   -0.42303E-05   132   0.262E-02    0.985E-03
DAV:   5    -0.100080813230E+03    0.22151E-05   -0.95862E-06   144   0.124E-02    0.511E-03
DAV:   6    -0.100080813388E+03   -0.15814E-06   -0.17474E-06   120   0.493E-03
  52 F= -.10008081E+03 E0= -.10008081E+03  d E =-.208650E-10
       N       E                     dE             d eps       ncg     rms          rms(c)
DAV:   1    -0.100079311127E+03    0.15021E-02   -0.39693E-01    96   0.180E+00    0.214E-01
DAV:   2    -0.100080876613E+03   -0.15655E-02   -0.18889E-02   132   0.420E-01    0.117E-01
DAV:   3    -0.100080764429E+03    0.11218E-03   -0.34532E-04   108   0.690E-02    0.600E-02
DAV:   4    -0.100080727629E+03    0.36800E-04   -0.14526E-04   120   0.452E-02    0.126E-02
DAV:   5    -0.100080716305E+03    0.11324E-04   -0.24789E-05   132   0.188E-02    0.755E-03
DAV:   6    -0.100080716711E+03   -0.40589E-06   -0.63228E-06   108   0.782E-03
  53 F= -.10008072E+03 E0= -.10008072E+03  d E =-.200228E-10
       N       E                     dE             d eps       ncg     rms          rms(c)
DAV:   1    -0.100081042809E+03   -0.32650E-03   -0.20336E-01    96   0.130E+00    0.152E-01
DAV:   2    -0.100081787808E+03   -0.74500E-03   -0.86763E-03   132   0.278E-01    0.708E-02
DAV:   3    -0.100081767369E+03    0.20440E-04   -0.16996E-04   108   0.462E-02    0.370E-02
DAV:   4    -0.100081775615E+03   -0.82462E-05   -0.52747E-05   108   0.282E-02    0.856E-03
DAV:   5    -0.100081777615E+03   -0.20004E-05   -0.10306E-05   132   0.123E-02    0.511E-03
DAV:   6    -0.100081779104E+03   -0.14884E-05   -0.20752E-06    96   0.519E-03    0.244E-03
DAV:   7    -0.100081781358E+03   -0.22543E-05   -0.50907E-07    96   0.278E-03    0.940E-04
DAV:   8    -0.100081783743E+03   -0.23850E-05   -0.22044E-07    84   0.178E-03    0.451E-04
DAV:   9    -0.100081786492E+03   -0.27490E-05   -0.17907E-07    96   0.141E-03    0.275E-04
DAV:  10    -0.100081788983E+03   -0.24911E-05   -0.16099E-07    84   0.110E-03    0.150E-04
DAV:  11    -0.100081790285E+03   -0.13023E-05   -0.42225E-08   108   0.619E-04    0.133E-04
DAV:  12    -0.100081791288E+03   -0.10029E-05   -0.22077E-08    84   0.404E-04    0.567E-05
DAV:  13    -0.100081791819E+03   -0.53106E-06   -0.82501E-09    96   0.260E-04
  54 F= -.10008179E+03 E0= -.10008179E+03  d E =-.326540E-10
       N       E                     dE             d eps       ncg     rms          rms(c)
DAV:   1    -0.100080768346E+03    0.10229E-02   -0.41602E-01   108   0.172E+00    0.181E-01
DAV:   2    -0.100081906396E+03   -0.11381E-02   -0.13673E-02   108   0.335E-01    0.825E-02
DAV:   3    -0.100081853810E+03    0.52586E-04   -0.30635E-04   144   0.616E-02    0.408E-02
DAV:   4    -0.100081841150E+03    0.12660E-04   -0.78254E-05   108   0.363E-02    0.109E-02
DAV:   5    -0.100081839183E+03    0.19670E-05   -0.17357E-05   144   0.162E-02    0.681E-03
DAV:   6    -0.100081840862E+03   -0.16797E-05   -0.33001E-06   132   0.633E-03    0.363E-03
DAV:   7    -0.100081845128E+03   -0.42662E-05   -0.42863E-07    84   0.295E-03    0.117E-03
DAV:   8    -0.100081850227E+03   -0.50981E-05   -0.37346E-07    96   0.245E-03    0.786E-04
DAV:   9    -0.100081860027E+03   -0.98000E-05   -0.75553E-07    84   0.286E-03    0.278E-04
DAV:  10    -0.100081863514E+03   -0.34875E-05   -0.32563E-07    96   0.166E-03    0.397E-04
DAV:  11    -0.100081864833E+03   -0.13189E-05   -0.25950E-08   108   0.611E-04    0.299E-04
DAV:  12    -0.100081867989E+03   -0.31563E-05   -0.10449E-07    84   0.802E-04    0.120E-04
DAV:  13    -0.100081869104E+03   -0.11146E-05   -0.39899E-08    96   0.457E-04    0.180E-04
DAV:  14    -0.100081869669E+03   -0.56539E-06   -0.61338E-10    84   0.239E-04
  55 F= -.10008187E+03 E0= -.10008187E+03  d E =-.130709E-10
       N       E                     dE             d eps       ncg     rms          rms(c)
DAV:   1    -0.100080378566E+03    0.14905E-02   -0.19878E-01    96   0.130E+00    0.160E-01
DAV:   2    -0.100081439032E+03   -0.10605E-02   -0.12341E-02   108   0.299E-01    0.660E-02
DAV:   3    -0.100081416255E+03    0.22776E-04   -0.23861E-04   144   0.494E-02    0.370E-02
DAV:   4    -0.100081405475E+03    0.10781E-04   -0.46160E-05   108   0.246E-02    0.974E-03
DAV:   5    -0.100081401986E+03    0.34885E-05   -0.79809E-06   132   0.113E-02    0.531E-03
DAV:   6    -0.100081402102E+03   -0.11597E-06   -0.21592E-06   120   0.596E-03
  56 F= -.10008140E+03 E0= -.10008140E+03  d E =-.227256E-10
       N       E                     dE             d eps       ncg     rms          rms(c)
DAV:   1    -0.100080024131E+03    0.13779E-02   -0.41023E-01    96   0.183E+00    0.224E-01
DAV:   2    -0.100081430365E+03   -0.14062E-02   -0.16805E-02   132   0.407E-01    0.977E-02
DAV:   3    -0.100081363782E+03    0.66583E-04   -0.37018E-04   132   0.677E-02    0.513E-02
DAV:   4    -0.100081340564E+03    0.23218E-04   -0.95821E-05   108   0.387E-02    0.129E-02
DAV:   5    -0.100081332960E+03    0.76040E-05   -0.21106E-05   132   0.181E-02    0.697E-03
DAV:   6    -0.100081333755E+03   -0.79553E-06   -0.42443E-06   108   0.726E-03
  57 F= -.10008133E+03 E0= -.10008133E+03  d E =-.199988E-10
       N       E                     dE             d eps       ncg     rms          rms(c)
DAV:   1    -0.100080192512E+03    0.11404E-02   -0.19776E-01    96   0.129E+00    0.152E-01
DAV:   2    -0.100080981414E+03   -0.78890E-03   -0.94381E-03   144   0.284E-01    0.859E-02
DAV:   3    -0.100080930490E+03    0.50925E-04   -0.17276E-04   132   0.482E-02    0.436E-02
DAV:   4    -0.100080918729E+03    0.11760E-04   -0.77135E-05   108   0.319E-02    0.890E-03
DAV:   5    -0.100080912780E+03    0.59488E-05   -0.11914E-05   132   0.129E-02    0.528E-03
DAV:   6    -0.100080911522E+03    0.12588E-05   -0.30629E-06   108   0.517E-03    0.269E-03
DAV:   7    -0.100080914130E+03   -0.26084E-05   -0.65258E-07    96   0.281E-03    0.107E-03
DAV:   8    -0.100080919193E+03   -0.50632E-05   -0.43620E-07    84   0.187E-03    0.693E-04
DAV:   9    -0.100080926127E+03   -0.69341E-05   -0.37971E-07    96   0.141E-03    0.429E-04
DAV:  10    -0.100080932387E+03   -0.62601E-05   -0.34949E-07    84   0.114E-03    0.244E-04
DAV:  11    -0.100080934743E+03   -0.23557E-05   -0.49221E-08   108   0.579E-04    0.145E-04
DAV:  12    -0.100080937879E+03   -0.31361E-05   -0.94360E-08    84   0.628E-04    0.781E-05
DAV:  13    -0.100080938749E+03   -0.86993E-06   -0.12581E-08   108   0.293E-04
  58 F= -.10008094E+03 E0= -.10008094E+03  d E =-.141357E-10
       N       E                     dE             d eps       ncg     rms          rms(c)
DAV:   1    -0.100079452834E+03    0.14850E-02   -0.40035E-01    96   0.181E+00    0.221E-01
DAV:   2    -0.100080949939E+03   -0.14971E-02   -0.18237E-02   108   0.413E-01    0.113E-01
DAV:   3    -0.100080842507E+03    0.10743E-03   -0.35298E-04   144   0.692E-02    0.591E-02
DAV:   4    -0.100080798880E+03    0.43627E-04   -0.12375E-04   108   0.426E-02    0.122E-02
DAV:   5    -0.100080791737E+03    0.71425E-05   -0.22424E-05   132   0.180E-02    0.712E-03
DAV:   6    -0.100080798834E+03   -0.70969E-05   -0.58008E-06   120   0.754E-03    0.374E-03
DAV:   7    -0.100080816043E+03   -0.17209E-04   -0.18695E-06   108   0.418E-03    0.161E-03
DAV:   8    -0.100080835461E+03   -0.19418E-04   -0.13924E-06   108   0.286E-03    0.972E-04
DAV:   9    -0.100080853384E+03   -0.17923E-04   -0.14057E-06   120   0.247E-03    0.684E-04
DAV:  10    -0.100080868769E+03   -0.15386E-04   -0.14322E-06   108   0.219E-03    0.357E-04
DAV:  11    -0.100080872038E+03   -0.32688E-05   -0.78332E-08   108   0.766E-04    0.258E-04
DAV:  12    -0.100080877280E+03   -0.52417E-05   -0.23241E-07    84   0.984E-04    0.128E-04
DAV:  13    -0.100080878650E+03   -0.13701E-05   -0.46412E-08    96   0.464E-04    0.102E-04
DAV:  14    -0.100080879560E+03   -0.90964E-06   -0.43443E-09    96   0.280E-04
  59 F= -.10008088E+03 E0= -.10008088E+03  d E =-.226685E-10
       N       E                     dE             d eps       ncg     rms          rms(c)
DAV:   1    -0.100080819815E+03    0.58835E-04   -0.19876E-01    96   0.125E+00    0.146E-01
DAV:   2    -0.100081620459E+03   -0.80064E-03   -0.97364E-03   108   0.292E-01    0.826E-02
DAV:   3    -0.100081562673E+03    0.57787E-04   -0.17331E-04   144   0.482E-02    0.435E-02
DAV:   4    -0.100081537133E+03    0.25539E-04   -0.70893E-05   108   0.320E-02    0.830E-03
DAV:   5    -0.100081531303E+03    0.58298E-05   -0.14150E-05   132   0.141E-02    0.543E-03
DAV:   6    -0.100081532138E+03   -0.83406E-06   -0.34506E-06   108   0.572E-03
  60 F= -.10008153E+03 E0= -.10008153E+03  d E =-.410009E-10
       N       E                     dE             d eps       ncg     rms          rms(c)
DAV:   1    -0.100080330232E+03    0.12011E-02   -0.41035E-01    96   0.177E+00    0.181E-01
DAV:   2    -0.100081673186E+03   -0.13430E-02   -0.15780E-02   144   0.369E-01    0.923E-02
DAV:   3    -0.100081628536E+03    0.44650E-04   -0.32153E-04   108   0.635E-02    0.468E-02
DAV:   4    -0.100081625243E+03    0.32923E-05   -0.97124E-05   120   0.396E-02    0.110E-02
DAV:   5    -0.100081620318E+03    0.49254E-05   -0.21337E-05   132   0.179E-02    0.694E-03
DAV:   6    -0.100081619913E+03    0.40474E-06   -0.41621E-06   120   0.694E-03
  61 F= -.10008162E+03 E0= -.10008162E+03  d E =-.165909E-10
       N       E                     dE             d eps       ncg     rms          rms(c)
DAV:   1    -0.100083309833E+03   -0.16895E-02   -0.23834E-01    96   0.162E+00    0.149E-01
DAV:   2    -0.100083697275E+03   -0.38744E-03   -0.61418E-03   132   0.238E-01    0.783E-02
DAV:   3    -0.100083641334E+03    0.55941E-04   -0.20654E-04   120   0.493E-02    0.344E-02
DAV:   4    -0.100083641748E+03   -0.41339E-06   -0.67483E-05   120   0.277E-02    0.848E-03
DAV:   5    -0.100083640812E+03    0.93551E-06   -0.69365E-06   132   0.103E-02
  62 F= -.10008364E+03 E0= -.10008364E+03  d E =-.178315E-10
       N       E                     dE             d eps       ncg     rms          rms(c)
DAV:   1    -0.100084057211E+03   -0.41546E-03   -0.54973E-01    96   0.252E+00    0.230E-01
DAV:   2    -0.100083712859E+03    0.34435E-03   -0.34365E-03   108   0.197E-01    0.122E-01
DAV:   3    -0.100083504320E+03    0.20854E-03   -0.53297E-04   120   0.703E-02    0.353E-02
DAV:   4    -0.100083506528E+03   -0.22079E-05   -0.10764E-04   108   0.326E-02    0.129E-02
DAV:   5    -0.100083507142E+03   -0.61446E-06   -0.60248E-06   132   0.978E-03
  63 F= -.10008351E+03 E0= -.10008351E+03  d E =-.190106E-10
       N       E                     dE             d eps       ncg     rms          rms(c)
DAV:   1    -0.100082852499E+03    0.65403E-03   -0.28975E-01    96   0.181E+00    0.212E-01
DAV:   2    -0.100082618421E+03    0.23408E-03   -0.23627E-03   120   0.159E-01    0.102E-01
DAV:   3    -0.100082474259E+03    0.14416E-03   -0.37972E-04   108   0.569E-02    0.359E-02
DAV:   4    -0.100082467472E+03    0.67871E-05   -0.98346E-05   132   0.283E-02    0.128E-02
DAV:   5    -0.100082464998E+03    0.24736E-05   -0.48748E-06   108   0.948E-03    0.464E-03
DAV:   6    -0.100082465409E+03   -0.41108E-06   -0.27480E-06   132   0.545E-03
  64 F= -.10008247E+03 E0= -.10008247E+03  d E =-.169652E-10
       N       E                     dE             d eps       ncg     rms          rms(c)
DAV:   1    -0.100083195427E+03   -0.73043E-03   -0.56783E-01    96   0.240E+00    0.274E-01
DAV:   2    -0.100082724334E+03    0.47109E-03   -0.40798E-03   108   0.205E-01    0.136E-01
DAV:   3    -0.100082454604E+03    0.26973E-03   -0.69321E-04   120   0.731E-02    0.453E-02
DAV:   4    -0.100082441169E+03    0.13435E-04   -0.14441E-04   120   0.351E-02    0.171E-02
DAV:   5    -0.100082440045E+03    0.11240E-05   -0.80779E-06   132   0.122E-02    0.675E-03
DAV:   6    -0.100082443599E+03   -0.35536E-05   -0.49202E-06   108   0.728E-03    0.243E-03
DAV:   7    -0.100082447418E+03   -0.38190E-05   -0.82654E-07   120   0.327E-03    0.105E-03
DAV:   8    -0.100082452165E+03   -0.47471E-05   -0.28285E-07    84   0.204E-03    0.585E-04
DAV:   9    -0.100082455138E+03   -0.29730E-05   -0.21965E-07    96   0.145E-03    0.581E-04
DAV:  10    -0.100082460398E+03   -0.52600E-05   -0.36839E-07    84   0.145E-03    0.318E-04
DAV:  11    -0.100082461400E+03   -0.10026E-05   -0.64326E-08    96   0.687E-04    0.213E-04
DAV:  12    -0.100082462045E+03   -0.64457E-06   -0.94388E-09   108   0.345E-04
  65 F= -.10008246E+03 E0= -.10008246E+03  d E =-.149877E-10
       N       E                     dE             d eps       ncg     rms          rms(c)
DAV:   1    -0.100084203053E+03   -0.17417E-02   -0.29028E-01    96   0.171E+00    0.205E-01
DAV:   2    -0.100083912300E+03    0.29075E-03   -0.22494E-03   108   0.156E-01    0.101E-01
DAV:   3    -0.100083761866E+03    0.15043E-03   -0.46074E-04   132   0.623E-02    0.330E-02
DAV:   4    -0.100083759772E+03    0.20935E-05   -0.10010E-04   108   0.295E-02    0.140E-02
DAV:   5    -0.100083758578E+03    0.11943E-05   -0.37527E-06   120   0.802E-03    0.597E-03
DAV:   6    -0.100083759208E+03   -0.62947E-06   -0.28026E-06   132   0.592E-03
  66 F= -.10008376E+03 E0= -.10008376E+03  d E =-.157186E-10
       N       E                     dE             d eps       ncg     rms          rms(c)
DAV:   1    -0.100084002275E+03   -0.24370E-03   -0.55763E-01    96   0.227E+00    0.224E-01
DAV:   2    -0.100083616588E+03    0.38569E-03   -0.36656E-03   108   0.190E-01    0.122E-01
DAV:   3    -0.100083383317E+03    0.23327E-03   -0.68468E-04   120   0.765E-02    0.309E-02
DAV:   4    -0.100083391440E+03   -0.81236E-05   -0.13494E-04   108   0.358E-02    0.156E-02
DAV:   5    -0.100083390743E+03    0.69711E-06   -0.39470E-06   132   0.740E-03
  67 F= -.10008339E+03 E0= -.10008339E+03  d E =-.204494E-10
       N       E                     dE             d eps       ncg     rms          rms(c)
DAV:   1    -0.100084237279E+03   -0.84584E-03   -0.27719E-01    96   0.170E+00    0.150E-01
DAV:   2    -0.100084168159E+03    0.69119E-04   -0.18845E-03   108   0.144E-01    0.856E-02
DAV:   3    -0.100084081757E+03    0.86402E-04   -0.19743E-04   120   0.440E-02    0.189E-02
DAV:   4    -0.100084083230E+03   -0.14731E-05   -0.35397E-05   132   0.191E-02    0.636E-03
DAV:   5    -0.100084083366E+03   -0.13530E-06   -0.10711E-06   108   0.437E-03
  68 F= -.10008408E+03 E0= -.10008408E+03  d E =-.173685E-10
       N       E                     dE             d eps       ncg     rms          rms(c)
DAV:   1    -0.100084679602E+03   -0.59637E-03   -0.55230E-01    96   0.265E+00    0.201E-01
DAV:   2    -0.100084407921E+03    0.27168E-03   -0.29604E-03   120   0.176E-01    0.113E-01
DAV:   3    -0.100084229525E+03    0.17840E-03   -0.50795E-04   120   0.712E-02    0.232E-02
DAV:   4    -0.100084238465E+03   -0.89400E-05   -0.93021E-05   132   0.318E-02    0.921E-03
DAV:   5    -0.100084238724E+03   -0.25889E-06   -0.31713E-06   132   0.686E-03
  69 F= -.10008424E+03 E0= -.10008424E+03  d E =-.170352E-10
       N       E                     dE             d eps       ncg     rms          rms(c)
DAV:   1    -0.100084115137E+03    0.12333E-03   -0.27598E-01    96   0.188E+00    0.142E-01
DAV:   2    -0.100083976333E+03    0.13880E-03   -0.14826E-03   108   0.122E-01    0.806E-02
DAV:   3    -0.100083885672E+03    0.90661E-04   -0.25766E-04   108   0.462E-02    0.174E-02
DAV:   4    -0.100083887441E+03   -0.17686E-05   -0.38340E-05   132   0.193E-02    0.637E-03
DAV:   5    -0.100083887145E+03    0.29600E-06   -0.13792E-06   120   0.457E-03
  70 F= -.10008389E+03 E0= -.10008389E+03  d E =-.188810E-10
       N       E                     dE             d eps       ncg     rms          rms(c)
DAV:   1    -0.100084624610E+03   -0.73717E-03   -0.55070E-01    96   0.239E+00    0.205E-01
DAV:   2    -0.100084353838E+03    0.27077E-03   -0.30314E-03   108   0.175E-01    0.114E-01
DAV:   3    -0.100084160675E+03    0.19316E-03   -0.48425E-04   120   0.631E-02    0.258E-02
[...]
DAV:   3    -0.100083803668E+03    0.11471E-03   -0.37754E-04   120   0.545E-02    0.176E-02
DAV:   4    -0.100083806451E+03   -0.27825E-05   -0.57063E-05   120   0.227E-02    0.830E-03
DAV:   5    -0.100083806213E+03    0.23809E-06   -0.26098E-06   120   0.566E-03
 133 F= -.10008381E+03 E0= -.10008381E+03  d E =-.231042E-10
       N       E                     dE             d eps       ncg     rms          rms(c)
DAV:   1    -0.100083608654E+03    0.19780E-03   -0.26525E-01    96   0.188E+00    0.121E-01
DAV:   2    -0.100083609515E+03   -0.86043E-06   -0.16914E-03   108   0.145E-01    0.689E-02
DAV:   3    -0.100083556656E+03    0.52859E-04   -0.15317E-04   108   0.366E-02    0.158E-02
DAV:   4    -0.100083557216E+03   -0.56032E-06   -0.27803E-05   132   0.159E-02    0.554E-03
DAV:   5    -0.100083556855E+03    0.36162E-06   -0.19365E-06    96   0.472E-03
 134 F= -.10008356E+03 E0= -.10008356E+03  d E =-.186718E-10
       N       E                     dE             d eps       ncg     rms          rms(c)
DAV:   1    -0.100083834718E+03   -0.27750E-03   -0.53160E-01    96   0.252E+00    0.178E-01
DAV:   2    -0.100083722356E+03    0.11236E-03   -0.27446E-03   108   0.166E-01    0.971E-02
DAV:   3    -0.100083589178E+03    0.13318E-03   -0.34369E-04   120   0.507E-02    0.243E-02
DAV:   4    -0.100083584061E+03    0.51176E-05   -0.52627E-05   108   0.221E-02    0.917E-03
DAV:   5    -0.100083584156E+03   -0.95210E-07   -0.43974E-06   132   0.723E-03
 135 F= -.10008358E+03 E0= -.10008358E+03  d E =-.167393E-10
       N       E                     dE             d eps       ncg     rms          rms(c)
DAV:   1    -0.100082838712E+03    0.74535E-03   -0.27218E-01   108   0.181E+00    0.147E-01
DAV:   2    -0.100082808543E+03    0.30169E-04   -0.22873E-03   108   0.152E-01    0.804E-02
DAV:   3    -0.100082720155E+03    0.88388E-04   -0.25333E-04   120   0.466E-02    0.235E-02
DAV:   4    -0.100082719270E+03    0.88484E-06   -0.61391E-05   108   0.225E-02    0.799E-03
DAV:   5    -0.100082717877E+03    0.13933E-05   -0.30657E-06   132   0.679E-03    0.417E-03
DAV:   6    -0.100082718202E+03   -0.32519E-06   -0.22213E-06   108   0.507E-03
 136 F= -.10008272E+03 E0= -.10008272E+03  d E =-.168568E-10
       N       E                     dE             d eps       ncg     rms          rms(c)
DAV:   1    -0.100082810958E+03   -0.93081E-04   -0.54159E-01    96   0.249E+00    0.197E-01
DAV:   2    -0.100082673128E+03    0.13783E-03   -0.41405E-03   108   0.211E-01    0.108E-01
DAV:   3    -0.100082478224E+03    0.19490E-03   -0.58210E-04   108   0.694E-02    0.273E-02
DAV:   4    -0.100082476210E+03    0.20141E-05   -0.11983E-04   132   0.326E-02    0.119E-02
DAV:   5    -0.100082474617E+03    0.15930E-05   -0.47380E-06   108   0.769E-03    0.636E-03
DAV:   6    -0.100082476865E+03   -0.22484E-05   -0.41398E-06   120   0.650E-03    0.138E-03
DAV:   7    -0.100082479930E+03   -0.30643E-05   -0.96708E-07   120   0.323E-03    0.973E-04
DAV:   8    -0.100082484339E+03   -0.44088E-05   -0.27966E-07    84   0.133E-03    0.373E-04
DAV:   9    -0.100082487073E+03   -0.27343E-05   -0.13472E-07    96   0.829E-04    0.258E-04
DAV:  10    -0.100082490459E+03   -0.33859E-05   -0.19934E-07    84   0.851E-04    0.165E-04
DAV:  11    -0.100082491753E+03   -0.12938E-05   -0.49324E-08    96   0.464E-04    0.908E-05
DAV:  12    -0.100082492899E+03   -0.11465E-05   -0.32445E-08    84   0.383E-04    0.643E-05
DAV:  13    -0.100082493419E+03   -0.52005E-06   -0.77875E-09    96   0.232E-04
 137 F= -.10008249E+03 E0= -.10008249E+03  d E =-.147344E-10
       N       E                     dE             d eps       ncg     rms          rms(c)
DAV:   1    -0.100083899179E+03   -0.14063E-02   -0.27220E-01   108   0.176E+00    0.144E-01
DAV:   2    -0.100083845314E+03    0.53866E-04   -0.22222E-03   108   0.155E-01    0.785E-02
DAV:   3    -0.100083745340E+03    0.99974E-04   -0.27629E-04   132   0.489E-02    0.208E-02
DAV:   4    -0.100083744509E+03    0.83020E-06   -0.66968E-05   108   0.242E-02    0.865E-03
DAV:   5    -0.100083743714E+03    0.79567E-06   -0.25243E-06   132   0.611E-03
 138 F= -.10008374E+03 E0= -.10008374E+03  d E =-.192931E-10
       N       E                     dE             d eps       ncg     rms          rms(c)
DAV:   1    -0.100083935283E+03   -0.19077E-03   -0.52834E-01    96   0.256E+00    0.173E-01
DAV:   2    -0.100083824423E+03    0.11086E-03   -0.26004E-03   108   0.166E-01    0.969E-02
DAV:   3    -0.100083705149E+03    0.11927E-03   -0.37271E-04   120   0.567E-02    0.197E-02
DAV:   4    -0.100083708633E+03   -0.34839E-05   -0.59827E-05   132   0.241E-02    0.879E-03
DAV:   5    -0.100083708749E+03   -0.11617E-06   -0.30218E-06   108   0.622E-03
 139 F= -.10008371E+03 E0= -.10008371E+03  d E =-.203433E-10
       N       E                     dE             d eps       ncg     rms          rms(c)
DAV:   1    -0.100083399123E+03    0.30951E-03   -0.26602E-01    96   0.189E+00    0.124E-01
DAV:   2    -0.100083378517E+03    0.20606E-04   -0.15737E-03   108   0.126E-01    0.708E-02
DAV:   3    -0.100083310161E+03    0.68356E-04   -0.22885E-04   108   0.392E-02    0.134E-02
DAV:   4    -0.100083309037E+03    0.11240E-05   -0.26604E-05   132   0.152E-02    0.729E-03
DAV:   5    -0.100083307803E+03    0.12335E-05   -0.19021E-06    96   0.535E-03    0.384E-03
DAV:   6    -0.100083307856E+03   -0.53029E-07   -0.18429E-06   120   0.479E-03
 140 F= -.10008331E+03 E0= -.10008331E+03  d E =-.180230E-10
       N       E                     dE             d eps       ncg     rms          rms(c)
DAV:   1    -0.100083598685E+03   -0.29088E-03   -0.53293E-01    96   0.251E+00    0.185E-01
DAV:   2    -0.100083476667E+03    0.12202E-03   -0.30394E-03   108   0.175E-01    0.996E-02
DAV:   3    -0.100083332368E+03    0.14430E-03   -0.36498E-04   120   0.513E-02    0.272E-02
DAV:   4    -0.100083322759E+03    0.96094E-05   -0.57370E-05   120   0.227E-02    0.977E-03
DAV:   5    -0.100083323164E+03   -0.40484E-06   -0.53885E-06   132   0.820E-03
 141 F= -.10008332E+03 E0= -.10008332E+03  d E =-.175642E-10
       N       E                     dE             d eps       ncg     rms          rms(c)
DAV:   1    -0.100082361707E+03    0.96105E-03   -0.26457E-01    96   0.176E+00    0.111E-01
DAV:   2    -0.100082305278E+03    0.56430E-04   -0.10799E-03   120   0.107E-01    0.642E-02
DAV:   3    -0.100082255085E+03    0.50192E-04   -0.20509E-04   108   0.437E-02    0.840E-03
DAV:   4    -0.100082259995E+03   -0.49098E-05   -0.35929E-05   132   0.188E-02    0.587E-03
DAV:   5    -0.100082261123E+03   -0.11276E-05   -0.81601E-07    96   0.340E-03    0.384E-03
DAV:   6    -0.100082264181E+03   -0.30587E-05   -0.11729E-06    96   0.372E-03    0.577E-04
DAV:   7    -0.100082265563E+03   -0.13817E-05   -0.32300E-07    96   0.198E-03    0.551E-04
DAV:   8    -0.100082267395E+03   -0.18322E-05   -0.92463E-08    84   0.106E-03    0.249E-04
DAV:   9    -0.100082269051E+03   -0.16559E-05   -0.85487E-08    96   0.805E-04    0.175E-04
DAV:  10    -0.100082270232E+03   -0.11814E-05   -0.36132E-08    84   0.531E-04    0.961E-05
DAV:  11    -0.100082271092E+03   -0.85940E-06   -0.25516E-08    96   0.352E-04
 142 F= -.10008227E+03 E0= -.10008227E+03  d E =-.143161E-10
       N       E                     dE             d eps       ncg     rms          rms(c)
DAV:   1    -0.100082802966E+03   -0.53273E-03   -0.54663E-01   108   0.251E+00    0.202E-01
DAV:   2    -0.100082664754E+03    0.13821E-03   -0.41483E-03   108   0.209E-01    0.111E-01
DAV:   3    -0.100082457335E+03    0.20742E-03   -0.57813E-04   120   0.715E-02    0.279E-02
DAV:   4    -0.100082457008E+03    0.32699E-06   -0.13951E-04   120   0.346E-02    0.120E-02
DAV:   5    -0.100082455335E+03    0.16726E-05   -0.46541E-06   132   0.802E-03    0.704E-03
DAV:   6    -0.100082457461E+03   -0.21257E-05   -0.51413E-06   108   0.789E-03    0.160E-03
DAV:   7    -0.100082461067E+03   -0.36064E-05   -0.16491E-06   120   0.413E-03    0.131E-03
DAV:   8    -0.100082466748E+03   -0.56806E-05   -0.33359E-07    84   0.148E-03    0.428E-04
DAV:   9    -0.100082470216E+03   -0.34680E-05   -0.16287E-07    96   0.931E-04    0.383E-04
DAV:  10    -0.100082475104E+03   -0.48887E-05   -0.21143E-07    84   0.100E-03    0.181E-04
DAV:  11    -0.100082477457E+03   -0.23524E-05   -0.77869E-08    96   0.619E-04    0.153E-04
DAV:  12    -0.100082479130E+03   -0.16730E-05   -0.26662E-08    84   0.409E-04    0.803E-05
DAV:  13    -0.100082480047E+03   -0.91667E-06   -0.77493E-09    96   0.252E-04
 143 F= -.10008248E+03 E0= -.10008248E+03  d E =-.159058E-10
       N       E                     dE             d eps       ncg     rms          rms(c)
DAV:   1    -0.100084334093E+03   -0.18550E-02   -0.26942E-01    96   0.176E+00    0.127E-01
DAV:   2    -0.100084255815E+03    0.78278E-04   -0.15610E-03   108   0.136E-01    0.716E-02
DAV:   3    -0.100084174233E+03    0.81581E-04   -0.25088E-04   120   0.484E-02    0.142E-02
DAV:   4    -0.100084176305E+03   -0.20720E-05   -0.48561E-05   132   0.223E-02    0.742E-03
DAV:   5    -0.100084176178E+03    0.12725E-06   -0.15275E-06    96   0.449E-03
 144 F= -.10008418E+03 E0= -.10008418E+03  d E =-.170291E-10
       N       E                     dE             d eps       ncg     rms          rms(c)
DAV:   1    -0.100084476631E+03   -0.30033E-03   -0.52657E-01    96   0.261E+00    0.160E-01
DAV:   2    -0.100084351838E+03    0.12479E-03   -0.20539E-03   108   0.150E-01    0.920E-02
DAV:   3    -0.100084244453E+03    0.10739E-03   -0.36372E-04   132   0.594E-02    0.122E-02
DAV:   4    -0.100084250639E+03   -0.61868E-05   -0.53947E-05   120   0.240E-02    0.734E-03
DAV:   5    -0.100084251649E+03   -0.10095E-05   -0.16706E-06   120   0.455E-03    0.506E-03
DAV:   6    -0.100084254731E+03   -0.30825E-05   -0.13663E-06    84   0.408E-03    0.927E-04
DAV:   7    -0.100084256585E+03   -0.18538E-05   -0.49035E-07    96   0.231E-03    0.864E-04
DAV:   8    -0.100084258977E+03   -0.23922E-05   -0.14695E-07    84   0.162E-03    0.389E-04
DAV:   9    -0.100084261825E+03   -0.28481E-05   -0.21055E-07    96   0.162E-03    0.321E-04
DAV:  10    -0.100084263459E+03   -0.16340E-05   -0.78264E-08   108   0.935E-04    0.158E-04
DAV:  11    -0.100084264478E+03   -0.10189E-05   -0.29268E-08    84   0.447E-04    0.121E-04
DAV:  12    -0.100084265119E+03   -0.64116E-06   -0.11228E-08    96   0.305E-04
 145 F= -.10008427E+03 E0= -.10008427E+03  d E =-.136055E-10
       N       E                     dE             d eps       ncg     rms          rms(c)
DAV:   1    -0.100083628960E+03    0.63552E-03   -0.26671E-01    96   0.200E+00    0.120E-01
DAV:   2    -0.100083604104E+03    0.24856E-04   -0.16913E-03   108   0.150E-01    0.688E-02
DAV:   3    -0.100083539233E+03    0.64871E-04   -0.20926E-04   120   0.479E-02    0.146E-02
DAV:   4    -0.100083542082E+03   -0.28492E-05   -0.48347E-05   120   0.226E-02    0.701E-03
DAV:   5    -0.100083541783E+03    0.29934E-06   -0.13934E-06   108   0.468E-03
 146 F= -.10008354E+03 E0= -.10008354E+03  d E =-.163455E-10
       N       E                     dE             d eps       ncg     rms          rms(c)
DAV:   1    -0.100083555280E+03   -0.13197E-04   -0.53663E-01    96   0.259E+00    0.177E-01
DAV:   2    -0.100083415507E+03    0.13977E-03   -0.31414E-03   108   0.186E-01    0.101E-01
DAV:   3    -0.100083257602E+03    0.15790E-03   -0.49797E-04   108   0.674E-02    0.197E-02
DAV:   4    -0.100083262662E+03   -0.50600E-05   -0.10437E-04   144   0.318E-02    0.111E-02
DAV:   5    -0.100083261828E+03    0.83412E-06   -0.24778E-06   108   0.570E-03
 147 F= -.10008326E+03 E0= -.10008326E+03  d E =-.176658E-10
       N       E                     dE             d eps       ncg     rms          rms(c)
DAV:   1    -0.100082386359E+03    0.87630E-03   -0.26392E-01    96   0.181E+00    0.112E-01
DAV:   2    -0.100082326823E+03    0.59536E-04   -0.10835E-03   108   0.105E-01    0.639E-02
DAV:   3    -0.100082268971E+03    0.57853E-04   -0.16824E-04   120   0.380E-02    0.107E-02
DAV:   4    -0.100082271481E+03   -0.25110E-05   -0.24908E-05   108   0.160E-02    0.561E-03
DAV:   5    -0.100082272917E+03   -0.14358E-05   -0.10094E-06   108   0.355E-03    0.340E-03
DAV:   6    -0.100082275998E+03   -0.30809E-05   -0.77876E-07    84   0.305E-03    0.688E-04
DAV:   7    -0.100082278164E+03   -0.21656E-05   -0.26029E-07    96   0.173E-03    0.580E-04
DAV:   8    -0.100082281821E+03   -0.36576E-05   -0.23721E-07    84   0.162E-03    0.268E-04
DAV:   9    -0.100082283614E+03   -0.17928E-05   -0.12481E-07    96   0.958E-04    0.220E-04
DAV:  10    -0.100082285587E+03   -0.19725E-05   -0.65128E-08    84   0.620E-04    0.110E-04
DAV:  11    -0.100082286569E+03   -0.98251E-06   -0.32913E-08    96   0.386E-04
 148 F= -.10008229E+03 E0= -.10008229E+03  d E =-.141921E-10
       N       E                     dE             d eps       ncg     rms          rms(c)
DAV:   1    -0.100082556490E+03   -0.27090E-03   -0.54349E-01   108   0.252E+00    0.206E-01
DAV:   2    -0.100082457272E+03    0.99218E-04   -0.41766E-03    96   0.202E-01    0.110E-01
DAV:   3    -0.100082269098E+03    0.18817E-03   -0.47365E-04   144   0.591E-02    0.329E-02
DAV:   4    -0.100082257010E+03    0.12089E-04   -0.98533E-05   108   0.274E-02    0.107E-02
DAV:   5    -0.100082254340E+03    0.26695E-05   -0.64105E-06   132   0.101E-02    0.509E-03
DAV:   6    -0.100082256908E+03   -0.25678E-05   -0.43812E-06   108   0.709E-03    0.188E-03
DAV:   7    -0.100082261408E+03   -0.45001E-05   -0.11865E-06   120   0.371E-03    0.130E-03
DAV:   8    -0.100082267094E+03   -0.56860E-05   -0.34596E-07    84   0.186E-03    0.600E-04
DAV:   9    -0.100082272475E+03   -0.53809E-05   -0.33213E-07    96   0.165E-03    0.388E-04
DAV:  10    -0.100082279041E+03   -0.65657E-05   -0.39454E-07    84   0.135E-03    0.216E-04
DAV:  11    -0.100082281186E+03   -0.21455E-05   -0.52704E-08   108   0.636E-04    0.152E-04
DAV:  12    -0.100082283587E+03   -0.24008E-05   -0.37818E-08    84   0.443E-04    0.853E-05
DAV:  13    -0.100082284865E+03   -0.12780E-05   -0.24639E-08    96   0.325E-04    0.567E-05
DAV:  14    -0.100082285665E+03   -0.79990E-06   -0.24361E-09    84   0.197E-04
 149 F= -.10008229E+03 E0= -.10008229E+03  d E =-.158855E-10
       N       E                     dE             d eps       ncg     rms          rms(c)
DAV:   1    -0.100084317563E+03   -0.20327E-02   -0.26583E-01    96   0.177E+00    0.129E-01
DAV:   2    -0.100084235646E+03    0.81916E-04   -0.14791E-03   108   0.135E-01    0.713E-02
DAV:   3    -0.100084162365E+03    0.73281E-04   -0.21174E-04   120   0.444E-02    0.162E-02
DAV:   4    -0.100084162852E+03   -0.48702E-06   -0.38692E-05   132   0.196E-02    0.756E-03
DAV:   5    -0.100084163195E+03   -0.34246E-06   -0.16878E-06   108   0.467E-03
 150 F= -.10008416E+03 E0= -.10008416E+03  d E =-.177903E-10
       N       E                     dE             d eps       ncg     rms          rms(c)
DAV:   1    -0.100084476812E+03   -0.31396E-03   -0.52646E-01    96   0.263E+00    0.160E-01
DAV:   2    -0.100084350937E+03    0.12587E-03   -0.20618E-03   108   0.150E-01    0.920E-02
DAV:   3    -0.100084241658E+03    0.10928E-03   -0.36432E-04   132   0.596E-02    0.122E-02
DAV:   4    -0.100084248181E+03   -0.65230E-05   -0.54509E-05   120   0.242E-02    0.740E-03
DAV:   5    -0.100084249492E+03   -0.13110E-05   -0.16792E-06   120   0.456E-03    0.513E-03
DAV:   6    -0.100084253530E+03   -0.40377E-05   -0.13997E-06    84   0.414E-03    0.950E-04
DAV:   7    -0.100084255978E+03   -0.24482E-05   -0.52688E-07    96   0.236E-03    0.896E-04
DAV:   8    -0.100084259059E+03   -0.30809E-05   -0.16719E-07    84   0.166E-03    0.408E-04
DAV:   9    -0.100084262827E+03   -0.37680E-05   -0.27218E-07    96   0.173E-03    0.341E-04
DAV:  10    -0.100084264842E+03   -0.20153E-05   -0.10101E-07    96   0.101E-03    0.168E-04
DAV:  11    -0.100084266023E+03   -0.11806E-05   -0.36679E-08    84   0.480E-04    0.137E-04
DAV:  12    -0.100084266719E+03   -0.69624E-06   -0.13136E-08    96   0.318E-04
 151 F= -.10008427E+03 E0= -.10008427E+03  d E =-.138170E-10
       N       E                     dE             d eps       ncg     rms          rms(c)
DAV:   1    -0.100082071232E+03    0.21948E-02   -0.26682E-01    96   0.190E+00    0.131E-01
DAV:   2    -0.100082031065E+03    0.40166E-04   -0.20331E-03   108   0.150E-01    0.715E-02
DAV:   3    -0.100081949104E+03    0.81961E-04   -0.22281E-04   120   0.475E-02    0.197E-02
DAV:   4    -0.100081950061E+03   -0.95765E-06   -0.58585E-05   120   0.231E-02    0.714E-03
DAV:   5    -0.100081950259E+03   -0.19794E-06   -0.28740E-06   132   0.592E-03
 152 F= -.10008195E+03 E0= -.10008195E+03  d E =-.154178E-10
       N       E                     dE             d eps       ncg     rms          rms(c)
DAV:   1    -0.100082376115E+03   -0.42605E-03   -0.54591E-01   108   0.247E+00    0.209E-01
DAV:   2    -0.100082291651E+03    0.84464E-04   -0.47534E-03   108   0.221E-01    0.114E-01
DAV:   3    -0.100082083675E+03    0.20798E-03   -0.55531E-04   108   0.694E-02    0.324E-02
DAV:   4    -0.100082081088E+03    0.25875E-05   -0.14104E-04   132   0.339E-02    0.117E-02
DAV:   5    -0.100082078409E+03    0.26785E-05   -0.57659E-06   108   0.924E-03    0.631E-03
DAV:   6    -0.100082079172E+03   -0.76300E-06   -0.49210E-06   120   0.762E-03
 153 F= -.10008208E+03 E0= -.10008208E+03  d E =-.197075E-10
       N       E                     dE             d eps       ncg     rms          rms(c)
DAV:   1    -0.100084366189E+03   -0.22878E-02   -0.26935E-01    96   0.175E+00    0.141E-01
DAV:   2    -0.100084292118E+03    0.74071E-04   -0.18187E-03   108   0.142E-01    0.760E-02
DAV:   3    -0.100084217176E+03    0.74942E-04   -0.24556E-04   108   0.420E-02    0.203E-02
DAV:   4    -0.100084215237E+03    0.19392E-05   -0.35173E-05   120   0.178E-02    0.801E-03
DAV:   5    -0.100084214104E+03    0.11331E-05   -0.32422E-06   108   0.650E-03    0.353E-03
DAV:   6    -0.100084214950E+03   -0.84582E-06   -0.17434E-06   120   0.421E-03
 154 F= -.10008421E+03 E0= -.10008421E+03  d E =-.155576E-10
       N       E                     dE             d eps       ncg     rms          rms(c)
DAV:   1    -0.100084282743E+03   -0.68639E-04   -0.53238E-01    96   0.251E+00    0.161E-01
DAV:   2    -0.100084174781E+03    0.10796E-03   -0.21415E-03   108   0.153E-01    0.923E-02
DAV:   3    -0.100084066197E+03    0.10858E-03   -0.35309E-04   120   0.547E-02    0.146E-02
DAV:   4    -0.100084068708E+03   -0.25114E-05   -0.50150E-05   108   0.223E-02    0.743E-03
DAV:   5    -0.100084068177E+03    0.53140E-06   -0.20374E-06   132   0.496E-03
 155 F= -.10008407E+03 E0= -.10008407E+03  d E =-.182720E-10
       N       E                     dE             d eps       ncg     rms          rms(c)
DAV:   1    -0.100083886274E+03    0.18243E-03   -0.26442E-01    96   0.180E+00    0.115E-01
DAV:   2    -0.100083820639E+03    0.65635E-04   -0.11099E-03   120   0.112E-01    0.665E-02
DAV:   3    -0.100083771088E+03    0.49551E-04   -0.18715E-04   108   0.433E-02    0.908E-03
DAV:   4    -0.100083775037E+03   -0.39482E-05   -0.33454E-05   132   0.184E-02    0.576E-03
DAV:   5    -0.100083775448E+03   -0.41111E-06   -0.76052E-07    96   0.333E-03
 156 F= -.10008378E+03 E0= -.10008378E+03  d E =-.169045E-10
       N       E                     dE             d eps       ncg     rms          rms(c)
DAV:   1    -0.100083965140E+03   -0.19010E-03   -0.52837E-01    96   0.253E+00    0.173E-01
DAV:   2    -0.100083854529E+03    0.11061E-03   -0.25856E-03   108   0.166E-01    0.967E-02
DAV:   3    -0.100083723548E+03    0.13098E-03   -0.37470E-04   132   0.569E-02    0.193E-02
DAV:   4    -0.100083724805E+03   -0.12574E-05   -0.59489E-05   120   0.240E-02    0.880E-03
DAV:   5    -0.100083724985E+03   -0.17967E-06   -0.30231E-06   132   0.624E-03
 157 F= -.10008372E+03 E0= -.10008372E+03  d E =-.197517E-10
