       N       E                     dE             d eps       ncg     rms          rms(c)
DAV:   1     0.204091271446E+03    0.20409E+03   -0.10482E+04   116   0.546E+02
DAV:   2    -0.271893720333E+02   -0.23128E+03   -0.21584E+03   144   0.103E+02
DAV:   3    -0.101546746146E+03   -0.74357E+02   -0.74185E+02   104   0.547E+01
DAV:   4    -0.105835039764E+03   -0.42883E+01   -0.42707E+01   112   0.190E+01
DAV:   5    -0.105911981997E+03   -0.76942E-01   -0.76887E-01   144   0.260E+00    0.148E+01
DAV:   6    -0.102712695665E+03    0.31993E+01   -0.15963E+00   104   0.456E+00    0.856E+00
DAV:   7    -0.101038467839E+03    0.16742E+01   -0.40456E+00   104   0.670E+00    0.122E+00
DAV:   8    -0.100985125728E+03    0.53342E-01   -0.27337E-01   112   0.220E+00    0.610E-01
DAV:   9    -0.100949977270E+03    0.35148E-01   -0.69888E-02   112   0.757E-01    0.331E-01
DAV:  10    -0.100949928901E+03    0.48369E-04   -0.27825E-03   112   0.210E-01    0.154E-01
DAV:  11    -0.100949765455E+03    0.16345E-03   -0.67239E-03   104   0.238E-01    0.799E-02
DAV:  12    -0.100953848278E+03   -0.40828E-02   -0.10103E-03   104   0.957E-02    0.588E-02
DAV:  13    -0.100958741128E+03   -0.48928E-02   -0.17375E-03   112   0.108E-01    0.334E-02
DAV:  14    -0.100962570719E+03   -0.38296E-02   -0.30575E-04   112   0.499E-02    0.165E-02
DAV:  15    -0.100966963040E+03   -0.43923E-02   -0.50518E-04   112   0.588E-02    0.144E-02
DAV:  16    -0.100968296302E+03   -0.13333E-02   -0.81010E-05   112   0.247E-02    0.629E-03
DAV:  17    -0.100969324123E+03   -0.10278E-02   -0.88902E-05   104   0.224E-02    0.370E-03
DAV:  18    -0.100969594430E+03   -0.27031E-03   -0.81118E-06   104   0.784E-03    0.199E-03
DAV:  19    -0.100969754402E+03   -0.15997E-03   -0.63512E-06    96   0.658E-03    0.188E-03
DAV:  20    -0.100969802346E+03   -0.47944E-04   -0.82801E-07    88   0.323E-03    0.488E-04
DAV:  21    -0.100969827619E+03   -0.25273E-04   -0.80343E-07    80   0.233E-03    0.461E-04
DAV:  22    -0.100969834875E+03   -0.72566E-05   -0.13412E-07    88   0.111E-03    0.186E-04
DAV:  23    -0.100969839585E+03   -0.47095E-05   -0.13701E-07    80   0.889E-04    0.135E-04
DAV:  24    -0.100969841671E+03   -0.20858E-05   -0.35440E-08    80   0.493E-04    0.448E-05
DAV:  25    -0.100969842473E+03   -0.80277E-06   -0.14041E-08    80   0.314E-04
   1 F= -.10096984E+03 E0= -.10096984E+03  d E =-.100970E+03
       N       E                     dE             d eps       ncg     rms          rms(c)
DAV:   1    -0.101124988186E+03   -0.15515E+00   -0.69361E+00    84   0.109E+01    0.121E+00
DAV:   2    -0.101156460031E+03   -0.31472E-01   -0.37486E-01   120   0.244E+00    0.605E-01
DAV:   3    -0.101151778707E+03    0.46813E-02   -0.14115E-02   120   0.492E-01    0.310E-01
DAV:   4    -0.101150893788E+03    0.88492E-03   -0.73920E-03   112   0.316E-01    0.721E-02
DAV:   5    -0.101150720054E+03    0.17373E-03   -0.78006E-04   112   0.119E-01    0.453E-02
DAV:   6    -0.101150741509E+03   -0.21455E-04   -0.14092E-04   112   0.428E-02    0.269E-02
DAV:   7    -0.101150902815E+03   -0.16131E-03   -0.52531E-05   112   0.316E-02    0.734E-03
DAV:   8    -0.101150996506E+03   -0.93690E-04   -0.26905E-05   112   0.207E-02    0.889E-03
DAV:   9    -0.101151071844E+03   -0.75339E-04   -0.45164E-06   112   0.784E-03    0.688E-03
DAV:  10    -0.101151269350E+03   -0.19751E-03   -0.16186E-05   104   0.973E-03    0.349E-03
DAV:  11    -0.101151323182E+03   -0.53833E-04   -0.22460E-06    96   0.452E-03    0.209E-03
DAV:  12    -0.101151410828E+03   -0.87646E-04   -0.56398E-06   104   0.621E-03    0.189E-03
DAV:  13    -0.101151423179E+03   -0.12351E-04   -0.47857E-07    88   0.291E-03    0.733E-04
DAV:  14    -0.101151450493E+03   -0.27314E-04   -0.61368E-07    88   0.213E-03    0.587E-04
DAV:  15    -0.101151462200E+03   -0.11707E-04   -0.33403E-07    88   0.141E-03    0.587E-04
DAV:  16    -0.101151470671E+03   -0.84710E-05   -0.14051E-07    88   0.933E-04    0.282E-04
DAV:  17    -0.101151471668E+03   -0.99682E-06   -0.19961E-08    88   0.388E-04
   2 F= -.10115147E+03 E0= -.10115147E+03  d E =-.181629E+00
       N       E                     dE             d eps       ncg     rms          rms(c)
DAV:   1    -0.101154480491E+03   -0.30098E-02   -0.93509E-02    84   0.127E+00    0.131E-01
DAV:   2    -0.101154887257E+03   -0.40677E-03   -0.50922E-03   120   0.285E-01    0.730E-02
DAV:   3    -0.101154814068E+03    0.73189E-04   -0.20431E-04   120   0.593E-02    0.364E-02
DAV:   4    -0.101154797471E+03    0.16597E-04   -0.10290E-04   112   0.374E-02    0.947E-03
DAV:   5    -0.101154794381E+03    0.30905E-05   -0.10427E-05   112   0.138E-02    0.540E-03
DAV:   6    -0.101154797431E+03   -0.30504E-05   -0.23333E-06   104   0.548E-03    0.287E-03
DAV:   7    -0.101154805616E+03   -0.81845E-05   -0.84868E-07    80   0.398E-03    0.855E-04
DAV:   8    -0.101154809420E+03   -0.38042E-05   -0.56397E-07    88   0.283E-03    0.114E-03
DAV:   9    -0.101154812207E+03   -0.27869E-05   -0.12856E-07    88   0.140E-03    0.725E-04
DAV:  10    -0.101154820128E+03   -0.79214E-05   -0.67552E-07    80   0.192E-03    0.537E-04
DAV:  11    -0.101154821491E+03   -0.13631E-05   -0.80574E-08    88   0.804E-04    0.279E-04
DAV:  12    -0.101154824200E+03   -0.27082E-05   -0.16469E-07    78   0.986E-04    0.101E-04
DAV:  13    -0.101154824902E+03   -0.70264E-06   -0.35542E-08    88   0.500E-04
   3 F= -.10115482E+03 E0= -.10115482E+03  d E =-.184982E+00
       N       E                     dE             d eps       ncg     rms          rms(c)
DAV:   1    -0.101177540270E+03   -0.22716E-01   -0.71786E-01    92   0.354E+00    0.345E-01
DAV:   2    -0.101181294394E+03   -0.37541E-02   -0.43714E-02   120   0.763E-01    0.160E-01
DAV:   3    -0.101181037545E+03    0.25685E-03   -0.17818E-03   120   0.169E-01    0.880E-02
DAV:   4    -0.101181019560E+03    0.17985E-04   -0.49202E-04   112   0.864E-02    0.290E-02
DAV:   5    -0.101181016525E+03    0.30349E-05   -0.60010E-05   120   0.314E-02    0.150E-02
DAV:   6    -0.101181020531E+03   -0.40054E-05   -0.65135E-06   112   0.105E-02    0.876E-03
DAV:   7    -0.101181037483E+03   -0.16953E-04   -0.54453E-06   104   0.930E-03    0.173E-03
DAV:   8    -0.101181043733E+03   -0.62498E-05   -0.12712E-06    96   0.495E-03    0.173E-03
DAV:   9    -0.101181049407E+03   -0.56739E-05   -0.23408E-07    88   0.187E-03    0.804E-04
DAV:  10    -0.101181064350E+03   -0.14943E-04   -0.12500E-06    88   0.283E-03    0.586E-04
DAV:  11    -0.101181069604E+03   -0.52536E-05   -0.25813E-07    88   0.146E-03    0.291E-04
DAV:  12    -0.101181073981E+03   -0.43773E-05   -0.22751E-07    88   0.112E-03    0.190E-04
DAV:  13    -0.101181075450E+03   -0.14692E-05   -0.40463E-08    88   0.556E-04    0.142E-04
DAV:  14    -0.101181077126E+03   -0.16763E-05   -0.63142E-08    88   0.627E-04    0.146E-04
DAV:  15    -0.101181077324E+03   -0.19791E-06   -0.95166E-09    88   0.268E-04
   4 F= -.10118108E+03 E0= -.10118108E+03  d E =-.262524E-01
       N       E                     dE             d eps       ncg     rms          rms(c)
DAV:   1    -0.101181278491E+03   -0.20136E-03   -0.78619E-03    88   0.370E-01    0.353E-02
DAV:   2    -0.101181319526E+03   -0.41035E-04   -0.48153E-04   120   0.800E-02    0.169E-02
DAV:   3    -0.101181317106E+03    0.24201E-05   -0.19919E-05   120   0.179E-02    0.924E-03
DAV:   4    -0.101181316923E+03    0.18291E-06   -0.54263E-06   112   0.904E-03
   5 F= -.10118132E+03 E0= -.10118132E+03  d E =-.264920E-01
       N       E                     dE             d eps       ncg     rms          rms(c)
DAV:   1    -0.101188886957E+03   -0.75699E-02   -0.16824E-01    84   0.191E+00    0.122E-01
DAV:   2    -0.101188982570E+03   -0.95613E-04   -0.37519E-03   120   0.247E-01    0.670E-02
DAV:   3    -0.101188924756E+03    0.57814E-04   -0.24631E-04   128   0.587E-02    0.340E-02
DAV:   4    -0.101188909212E+03    0.15544E-04   -0.53424E-05   112   0.259E-02    0.887E-03
DAV:   5    -0.101188906812E+03    0.24007E-05   -0.48887E-06   112   0.915E-03    0.503E-03
DAV:   6    -0.101188909927E+03   -0.31158E-05   -0.14561E-06    88   0.532E-03    0.158E-03
DAV:   7    -0.101188916398E+03   -0.64703E-05   -0.84356E-07    80   0.334E-03    0.103E-03
DAV:   8    -0.101188924784E+03   -0.83862E-05   -0.38524E-07    80   0.185E-03    0.499E-04
DAV:   9    -0.101188932861E+03   -0.80767E-05   -0.46275E-07    88   0.158E-03    0.370E-04
DAV:  10    -0.101188939843E+03   -0.69826E-05   -0.38865E-07    88   0.143E-03    0.190E-04
DAV:  11    -0.101188943346E+03   -0.35029E-05   -0.13598E-07    88   0.901E-04    0.106E-04
DAV:  12    -0.101188945348E+03   -0.20019E-05   -0.60607E-08    88   0.551E-04    0.789E-05
DAV:  13    -0.101188946322E+03   -0.97442E-06   -0.28374E-08    88   0.370E-04
   6 F= -.10118895E+03 E0= -.10118895E+03  d E =-.762940E-02
       N       E                     dE             d eps       ncg     rms          rms(c)
DAV:   1    -0.101191419496E+03   -0.24741E-02   -0.15625E-01    84   0.184E+00    0.117E-01
DAV:   2    -0.101191512154E+03   -0.92658E-04   -0.35077E-03   120   0.239E-01    0.647E-02
DAV:   3    -0.101191458648E+03    0.53507E-04   -0.22775E-04   128   0.566E-02    0.329E-02
DAV:   4    -0.101191443671E+03    0.14977E-04   -0.49809E-05   112   0.250E-02    0.852E-03
DAV:   5    -0.101191440854E+03    0.28172E-05   -0.45776E-06   112   0.884E-03    0.486E-03
DAV:   6    -0.101191443095E+03   -0.22411E-05   -0.13181E-06    88   0.508E-03    0.153E-03
DAV:   7    -0.101191448784E+03   -0.56890E-05   -0.76467E-07    80   0.319E-03    0.985E-04
DAV:   8    -0.101191456457E+03   -0.76737E-05   -0.35025E-07    80   0.177E-03    0.478E-04
DAV:   9    -0.101191463869E+03   -0.74119E-05   -0.41161E-07    88   0.150E-03    0.354E-04
DAV:  10    -0.101191470515E+03   -0.66456E-05   -0.35925E-07    88   0.137E-03    0.182E-04
DAV:  11    -0.101191473827E+03   -0.33118E-05   -0.12374E-07    88   0.857E-04    0.101E-04
DAV:  12    -0.101191475791E+03   -0.19641E-05   -0.58864E-08    88   0.538E-04    0.757E-05
DAV:  13    -0.101191476690E+03   -0.89941E-06   -0.24846E-08    88   0.348E-04
   7 F= -.10119148E+03 E0= -.10119148E+03  d E =-.101598E-01
       N       E                     dE             d eps       ncg     rms          rms(c)
DAV:   1    -0.101196764118E+03   -0.52883E-02   -0.20127E-01    88   0.208E+00    0.132E-01
DAV:   2    -0.101196913786E+03   -0.14967E-03   -0.37598E-03   120   0.251E-01    0.710E-02
DAV:   3    -0.101196844905E+03    0.68881E-04   -0.24642E-04   128   0.638E-02    0.333E-02
DAV:   4    -0.101196847805E+03   -0.29000E-05   -0.94752E-05   112   0.365E-02    0.841E-03
DAV:   5    -0.101196848709E+03   -0.90380E-06   -0.79677E-06   112   0.117E-02
   8 F= -.10119685E+03 E0= -.10119685E+03  d E =-.537202E-02
       N       E                     dE             d eps       ncg     rms          rms(c)
DAV:   1    -0.101198049875E+03   -0.12021E-02   -0.11761E-01    88   0.159E+00    0.101E-01
DAV:   2    -0.101198140161E+03   -0.90286E-04   -0.22117E-03   120   0.192E-01    0.542E-02
DAV:   3    -0.101198100972E+03    0.39188E-04   -0.14182E-04   128   0.485E-02    0.253E-02
DAV:   4    -0.101198103933E+03   -0.29610E-05   -0.54612E-05   112   0.277E-02    0.642E-03
DAV:   5    -0.101198105885E+03   -0.19519E-05   -0.46898E-06   112   0.896E-03    0.365E-03
DAV:   6    -0.101198107534E+03   -0.16486E-05   -0.50325E-07    80   0.276E-03    0.156E-03
DAV:   7    -0.101198109644E+03   -0.21108E-05   -0.19109E-07    80   0.178E-03    0.414E-04
DAV:   8    -0.101198111812E+03   -0.21675E-05   -0.10965E-07    88   0.114E-03    0.366E-04
DAV:   9    -0.101198113851E+03   -0.20394E-05   -0.69279E-08    88   0.798E-04    0.133E-04
DAV:  10    -0.101198115902E+03   -0.20511E-05   -0.10706E-07    80   0.770E-04    0.132E-04
DAV:  11    -0.101198116343E+03   -0.44025E-06   -0.14088E-08    88   0.377E-04
   9 F= -.10119812E+03 E0= -.10119812E+03  d E =-.663965E-02
       N       E                     dE             d eps       ncg     rms          rms(c)
DAV:   1    -0.101200567140E+03   -0.24512E-02   -0.98684E-02    84   0.143E+00    0.917E-02
DAV:   2    -0.101200710225E+03   -0.14308E-03   -0.23049E-03   120   0.188E-01    0.496E-02
DAV:   3    -0.101200673940E+03    0.36285E-04   -0.99540E-05   128   0.412E-02    0.243E-02
DAV:   4    -0.101200670065E+03    0.38750E-05   -0.44710E-05   112   0.236E-02    0.621E-03
DAV:   5    -0.101200670066E+03   -0.11696E-08   -0.32641E-06   112   0.792E-03
  10 F= -.10120067E+03 E0= -.10120067E+03  d E =-.255372E-02
       N       E                     dE             d eps       ncg     rms          rms(c)
DAV:   1    -0.101201521181E+03   -0.85112E-03   -0.16995E-01    84   0.188E+00    0.120E-01
DAV:   2    -0.101201769706E+03   -0.24853E-03   -0.40086E-03   120   0.248E-01    0.651E-02
DAV:   3    -0.101201705921E+03    0.63785E-04   -0.16988E-04   128   0.539E-02    0.320E-02
DAV:   4    -0.101201700617E+03    0.53040E-05   -0.77015E-05   112   0.310E-02    0.819E-03
DAV:   5    -0.101201703013E+03   -0.23962E-05   -0.57465E-06   104   0.105E-02    0.456E-03
DAV:   6    -0.101201707168E+03   -0.41550E-05   -0.15904E-06    88   0.521E-03    0.173E-03
DAV:   7    -0.101201712662E+03   -0.54935E-05   -0.70853E-07    80   0.339E-03    0.743E-04
DAV:   8    -0.101201718504E+03   -0.58427E-05   -0.29630E-07    88   0.186E-03    0.572E-04
DAV:   9    -0.101201724183E+03   -0.56788E-05   -0.27872E-07    80   0.139E-03    0.232E-04
DAV:  10    -0.101201729268E+03   -0.50853E-05   -0.34675E-07    88   0.130E-03    0.244E-04
DAV:  11    -0.101201731276E+03   -0.20074E-05   -0.91810E-08    88   0.842E-04    0.129E-04
DAV:  12    -0.101201732032E+03   -0.75593E-06   -0.27971E-08    88   0.486E-04
  11 F= -.10120173E+03 E0= -.10120173E+03  d E =-.361569E-02
       N       E                     dE             d eps       ncg     rms          rms(c)
DAV:   1    -0.101203635783E+03   -0.19045E-02   -0.13028E-01    84   0.161E+00    0.101E-01
DAV:   2    -0.101203865497E+03   -0.22971E-03   -0.34259E-03   112   0.235E-01    0.616E-02
DAV:   3    -0.101203817097E+03    0.48400E-04   -0.13541E-04   120   0.503E-02    0.282E-02
DAV:   4    -0.101203817858E+03   -0.76056E-06   -0.58244E-05   120   0.275E-02    0.760E-03
DAV:   5    -0.101203818233E+03   -0.37545E-06   -0.56052E-06   112   0.978E-03
  12 F= -.10120382E+03 E0= -.10120382E+03  d E =-.208620E-02
       N       E                     dE             d eps       ncg     rms          rms(c)
DAV:   1    -0.101204297457E+03   -0.47960E-03   -0.18091E-01    84   0.190E+00    0.119E-01
DAV:   2    -0.101204619484E+03   -0.32203E-03   -0.47785E-03   112   0.277E-01    0.725E-02
DAV:   3    -0.101204551492E+03    0.67992E-04   -0.18692E-04   120   0.591E-02    0.333E-02
DAV:   4    -0.101204552264E+03   -0.77185E-06   -0.80792E-05   120   0.324E-02    0.897E-03
DAV:   5    -0.101204553950E+03   -0.16859E-05   -0.78592E-06   112   0.116E-02    0.341E-03
DAV:   6    -0.101204555607E+03   -0.16576E-05   -0.15869E-06    88   0.470E-03    0.137E-03
DAV:   7    -0.101204557986E+03   -0.23785E-05   -0.30779E-07    88   0.245E-03    0.496E-04
DAV:   8    -0.101204560807E+03   -0.28212E-05   -0.23356E-07    80   0.185E-03    0.403E-04
DAV:   9    -0.101204563711E+03   -0.29043E-05   -0.14743E-07    80   0.127E-03    0.167E-04
DAV:  10    -0.101204565921E+03   -0.22095E-05   -0.12406E-07    88   0.936E-04    0.142E-04
DAV:  11    -0.101204566757E+03   -0.83645E-06   -0.35212E-08    88   0.570E-04
  13 F= -.10120457E+03 E0= -.10120457E+03  d E =-.283473E-02
       N       E                     dE             d eps       ncg     rms          rms(c)
DAV:   1    -0.101205491825E+03   -0.92590E-03   -0.17300E-01    84   0.185E+00    0.135E-01
DAV:   2    -0.101205787914E+03   -0.29609E-03   -0.49763E-03   120   0.269E-01    0.711E-02
DAV:   3    -0.101205715782E+03    0.72132E-04   -0.22347E-04   128   0.592E-02    0.360E-02
DAV:   4    -0.101205706813E+03    0.89696E-05   -0.80511E-05   112   0.322E-02    0.984E-03
DAV:   5    -0.101205708776E+03   -0.19635E-05   -0.77156E-06   112   0.114E-02    0.553E-03
DAV:   6    -0.101205710890E+03   -0.21138E-05   -0.13070E-06    88   0.438E-03    0.218E-03
DAV:   7    -0.101205713753E+03   -0.28631E-05   -0.48578E-07    88   0.274E-03    0.610E-04
DAV:   8    -0.101205716395E+03   -0.26418E-05   -0.17026E-07    88   0.144E-03    0.419E-04
DAV:   9    -0.101205719474E+03   -0.30792E-05   -0.13753E-07    88   0.108E-03    0.177E-04
DAV:  10    -0.101205722251E+03   -0.27767E-05   -0.16295E-07    88   0.890E-04    0.154E-04
DAV:  11    -0.101205723404E+03   -0.11527E-05   -0.40395E-08    88   0.563E-04    0.932E-05
DAV:  12    -0.101205724051E+03   -0.64784E-06   -0.20956E-08    88   0.372E-04
  14 F= -.10120572E+03 E0= -.10120572E+03  d E =-.115729E-02
       N       E                     dE             d eps       ncg     rms          rms(c)
DAV:   1    -0.101205767798E+03   -0.44394E-04   -0.51872E-03    84   0.321E-01    0.234E-02
DAV:   2    -0.101205778398E+03   -0.10600E-04   -0.14900E-04   120   0.465E-02    0.123E-02
DAV:   3    -0.101205777441E+03    0.95609E-06   -0.66979E-06   120   0.102E-02
  15 F= -.10120578E+03 E0= -.10120578E+03  d E =-.121068E-02
