       N       E                     dE             d eps       ncg     rms          rms(c)
DAV:   1     0.207022928975E+03    0.20702E+03   -0.10471E+04   116   0.546E+02
DAV:   2    -0.251469369695E+02   -0.23217E+03   -0.21715E+03   144   0.103E+02
DAV:   3    -0.100242469687E+03   -0.75096E+02   -0.74927E+02   112   0.551E+01
DAV:   4    -0.104551771740E+03   -0.43093E+01   -0.42934E+01   104   0.182E+01
DAV:   5    -0.104622693735E+03   -0.70922E-01   -0.70856E-01   136   0.254E+00    0.145E+01
DAV:   6    -0.101463699858E+03    0.31590E+01   -0.15710E+00    96   0.453E+00    0.838E+00
DAV:   7    -0.998116596363E+02    0.16520E+01   -0.39833E+00   112   0.666E+00    0.121E+00
DAV:   8    -0.997575026974E+02    0.54157E-01   -0.27312E-01   112   0.217E+00    0.603E-01
DAV:   9    -0.997223187650E+02    0.35184E-01   -0.69044E-02   120   0.744E-01    0.324E-01
DAV:  10    -0.997224011858E+02   -0.82421E-04   -0.26351E-03   112   0.201E-01    0.146E-01
DAV:  11    -0.997222392965E+02    0.16189E-03   -0.66735E-03   104   0.236E-01    0.810E-02
DAV:  12    -0.997266498751E+02   -0.44106E-02   -0.10687E-03   104   0.964E-02    0.574E-02
DAV:  13    -0.997314115460E+02   -0.47617E-02   -0.16894E-03   112   0.106E-01    0.337E-02
DAV:  14    -0.997352698673E+02   -0.38583E-02   -0.29614E-04   112   0.506E-02    0.157E-02
DAV:  15    -0.997395950451E+02   -0.43252E-02   -0.50251E-04   112   0.580E-02    0.137E-02
DAV:  16    -0.997408315347E+02   -0.12365E-02   -0.73446E-05   112   0.231E-02    0.594E-03
DAV:  17    -0.997418242451E+02   -0.99271E-03   -0.82959E-05   112   0.216E-02    0.334E-03
DAV:  18    -0.997421156214E+02   -0.29138E-03   -0.99328E-06   104   0.851E-03    0.180E-03
DAV:  19    -0.997422478067E+02   -0.13219E-03   -0.47222E-06   104   0.570E-03    0.176E-03
DAV:  20    -0.997422918623E+02   -0.44056E-04   -0.68152E-07    88   0.294E-03    0.537E-04
DAV:  21    -0.997423180524E+02   -0.26190E-04   -0.83669E-07    80   0.234E-03    0.470E-04
DAV:  22    -0.997423249360E+02   -0.68836E-05   -0.13297E-07    88   0.109E-03    0.177E-04
DAV:  23    -0.997423295901E+02   -0.46541E-05   -0.13851E-07    80   0.876E-04    0.118E-04
DAV:  24    -0.997423316011E+02   -0.20110E-05   -0.32734E-08    88   0.468E-04    0.399E-05
DAV:  25    -0.997423323526E+02   -0.75147E-06   -0.13161E-08    88   0.291E-04
   1 F= -.99742332E+02 E0= -.99742332E+02  d E =-.997423E+02
       N       E                     dE             d eps       ncg     rms          rms(c)
DAV:   1    -0.998671144537E+02   -0.12478E+00   -0.57447E+00    84   0.969E+00    0.111E+00
DAV:   2    -0.998966674011E+02   -0.29553E-01   -0.33973E-01   120   0.227E+00    0.557E-01
DAV:   3    -0.998929093186E+02    0.37581E-02   -0.11441E-02   120   0.442E-01    0.297E-01
DAV:   4    -0.998921564240E+02    0.75289E-03   -0.64523E-03   112   0.295E-01    0.649E-02
DAV:   5    -0.998920121076E+02    0.14432E-03   -0.76613E-04   112   0.116E-01    0.438E-02
DAV:   6    -0.998920206602E+02   -0.85527E-05   -0.11111E-04   112   0.382E-02    0.273E-02
DAV:   7    -0.998921508560E+02   -0.13020E-03   -0.42742E-05   104   0.315E-02    0.635E-03
DAV:   8    -0.998922344831E+02   -0.83627E-04   -0.33856E-05   112   0.230E-02    0.938E-03
DAV:   9    -0.998922769195E+02   -0.42436E-04   -0.39206E-06   112   0.752E-03    0.809E-03
DAV:  10    -0.998924271652E+02   -0.15025E-03   -0.89366E-06   112   0.783E-03    0.319E-03
DAV:  11    -0.998925023698E+02   -0.75205E-04   -0.49098E-06   104   0.604E-03    0.309E-03
DAV:  12    -0.998925635021E+02   -0.61132E-04   -0.30018E-06    96   0.511E-03    0.157E-03
DAV:  13    -0.998925923011E+02   -0.28799E-04   -0.11800E-06    88   0.303E-03    0.751E-04
DAV:  14    -0.998926161497E+02   -0.23849E-04   -0.53249E-07    88   0.197E-03    0.481E-04
DAV:  15    -0.998926284048E+02   -0.12255E-04   -0.35497E-07    88   0.131E-03    0.385E-04
DAV:  16    -0.998926349084E+02   -0.65036E-05   -0.83835E-08    88   0.773E-04    0.169E-04
DAV:  17    -0.998926372130E+02   -0.23046E-05   -0.44273E-08    88   0.547E-04    0.265E-04
DAV:  18    -0.998926389775E+02   -0.17645E-05   -0.23326E-08    88   0.407E-04    0.730E-05
DAV:  19    -0.998926394885E+02   -0.51103E-06   -0.65940E-09    88   0.222E-04
   2 F= -.99892639E+02 E0= -.99892639E+02  d E =-.150307E+00
       N       E                     dE             d eps       ncg     rms          rms(c)
DAV:   1    -0.998957184383E+02   -0.30795E-02   -0.94191E-02    84   0.125E+00    0.134E-01
DAV:   2    -0.998961992409E+02   -0.48080E-03   -0.56945E-03   120   0.294E-01    0.743E-02
DAV:   3    -0.998961283492E+02    0.70892E-04   -0.20160E-04   120   0.588E-02    0.387E-02
DAV:   4    -0.998961116038E+02    0.16745E-04   -0.11137E-04   112   0.387E-02    0.934E-03
DAV:   5    -0.998961077735E+02    0.38302E-05   -0.12758E-05   112   0.150E-02    0.586E-03
DAV:   6    -0.998961099360E+02   -0.21625E-05   -0.22024E-06   104   0.535E-03    0.336E-03
DAV:   7    -0.998961175849E+02   -0.76489E-05   -0.90252E-07    80   0.442E-03    0.781E-04
DAV:   8    -0.998961215624E+02   -0.39775E-05   -0.78838E-07    88   0.328E-03    0.125E-03
DAV:   9    -0.998961232623E+02   -0.16999E-05   -0.12711E-07    88   0.147E-03    0.989E-04
DAV:  10    -0.998961303837E+02   -0.71214E-05   -0.48380E-07    88   0.173E-03    0.421E-04
DAV:  11    -0.998961329566E+02   -0.25729E-05   -0.17491E-07    88   0.983E-04    0.453E-04
DAV:  12    -0.998961355437E+02   -0.25870E-05   -0.12852E-07    88   0.966E-04    0.124E-04
DAV:  13    -0.998961364009E+02   -0.85724E-06   -0.43586E-08    88   0.562E-04
   3 F= -.99896136E+02 E0= -.99896136E+02  d E =-.153804E+00
       N       E                     dE             d eps       ncg     rms          rms(c)
DAV:   1    -0.999160137740E+02   -0.19878E-01   -0.65715E-01    84   0.345E+00    0.322E-01
DAV:   2    -0.999190284331E+02   -0.30147E-02   -0.35996E-02   120   0.679E-01    0.145E-01
DAV:   3    -0.999187700453E+02    0.25839E-03   -0.13408E-03   120   0.145E-01    0.794E-02
DAV:   4    -0.999187249352E+02    0.45110E-04   -0.40486E-04   112   0.772E-02    0.247E-02
DAV:   5    -0.999187234730E+02    0.14622E-05   -0.48491E-05   112   0.293E-02    0.142E-02
DAV:   6    -0.999187300942E+02   -0.66212E-05   -0.62482E-06   120   0.111E-02    0.729E-03
DAV:   7    -0.999187466469E+02   -0.16553E-04   -0.45867E-06   112   0.879E-03    0.168E-03
DAV:   8    -0.999187548270E+02   -0.81802E-05   -0.99743E-07    88   0.446E-03    0.154E-03
DAV:   9    -0.999187627758E+02   -0.79488E-05   -0.33477E-07    88   0.204E-03    0.675E-04
DAV:  10    -0.999187762133E+02   -0.13438E-04   -0.92658E-07    88   0.266E-03    0.558E-04
DAV:  11    -0.999187796306E+02   -0.34173E-05   -0.19816E-07    88   0.132E-03    0.266E-04
DAV:  12    -0.999187844145E+02   -0.47839E-05   -0.23029E-07    88   0.119E-03    0.179E-04
DAV:  13    -0.999187862227E+02   -0.18082E-05   -0.78905E-08    88   0.708E-04    0.125E-04
DAV:  14    -0.999187879056E+02   -0.16829E-05   -0.53417E-08    88   0.599E-04    0.841E-05
DAV:  15    -0.999187884170E+02   -0.51146E-06   -0.17647E-08    88   0.354E-04
   4 F= -.99918788E+02 E0= -.99918788E+02  d E =-.226520E-01
       N       E                     dE             d eps       ncg     rms          rms(c)
DAV:   1    -0.999189996889E+02   -0.21178E-03   -0.89510E-03    88   0.403E-01    0.370E-02
DAV:   2    -0.999190400937E+02   -0.40405E-04   -0.49312E-04   120   0.794E-02    0.170E-02
DAV:   3    -0.999190364959E+02    0.35978E-05   -0.18563E-05   120   0.171E-02    0.918E-03
DAV:   4    -0.999190354735E+02    0.10224E-05   -0.55675E-06   112   0.905E-03    0.295E-03
DAV:   5    -0.999190350059E+02    0.46759E-06   -0.59219E-07    88   0.341E-03
   5 F= -.99919035E+02 E0= -.99919035E+02  d E =-.228986E-01
       N       E                     dE             d eps       ncg     rms          rms(c)
DAV:   1    -0.999275752181E+02   -0.85397E-02   -0.20866E-01    84   0.206E+00    0.143E-01
DAV:   2    -0.999279272266E+02   -0.35201E-03   -0.61277E-03   120   0.300E-01    0.749E-02
DAV:   3    -0.999278541647E+02    0.73062E-04   -0.30379E-04   120   0.673E-02    0.387E-02
DAV:   4    -0.999278439480E+02    0.10217E-04   -0.84027E-05   112   0.321E-02    0.110E-02
DAV:   5    -0.999278432579E+02    0.69013E-06   -0.62987E-06   112   0.105E-02
   6 F= -.99927843E+02 E0= -.99927843E+02  d E =-.880825E-02
       N       E                     dE             d eps       ncg     rms          rms(c)
DAV:   1    -0.999317109857E+02   -0.38670E-02   -0.47754E-01    84   0.312E+00    0.216E-01
DAV:   2    -0.999325299590E+02   -0.81897E-03   -0.14159E-02   120   0.456E-01    0.114E-01
DAV:   3    -0.999323588110E+02    0.17115E-03   -0.68828E-04   120   0.101E-01    0.589E-02
DAV:   4    -0.999323364021E+02    0.22409E-04   -0.19221E-04   112   0.486E-02    0.166E-02
DAV:   5    -0.999323422437E+02   -0.58416E-05   -0.14799E-05   112   0.161E-02    0.929E-03
DAV:   6    -0.999323568051E+02   -0.14561E-04   -0.52460E-06   104   0.978E-03    0.343E-03
DAV:   7    -0.999323779689E+02   -0.21164E-04   -0.30761E-06   112   0.626E-03    0.202E-03
DAV:   8    -0.999323910700E+02   -0.13101E-04   -0.41626E-07    88   0.240E-03    0.123E-03
DAV:   9    -0.999324108067E+02   -0.19737E-04   -0.98803E-07    88   0.233E-03    0.547E-04
DAV:  10    -0.999324236171E+02   -0.12810E-04   -0.63912E-07    88   0.182E-03    0.519E-04
DAV:  11    -0.999324350768E+02   -0.11460E-04   -0.58126E-07    88   0.183E-03    0.326E-04
DAV:  12    -0.999324380092E+02   -0.29324E-05   -0.10861E-07    88   0.911E-04    0.181E-04
DAV:  13    -0.999324390953E+02   -0.10861E-05   -0.17500E-08    88   0.424E-04    0.110E-04
DAV:  14    -0.999324420805E+02   -0.29852E-05   -0.90425E-08    88   0.666E-04    0.748E-05
DAV:  15    -0.999324425118E+02   -0.43128E-06   -0.99438E-09    88   0.266E-04
   7 F= -.99932443E+02 E0= -.99932443E+02  d E =-.134075E-01
       N       E                     dE             d eps       ncg     rms          rms(c)
DAV:   1    -0.999381603062E+02   -0.57182E-02   -0.17441E-01    84   0.191E+00    0.121E-01
DAV:   2    -0.999382790594E+02   -0.11875E-03   -0.30518E-03   120   0.226E-01    0.646E-02
DAV:   3    -0.999382075919E+02    0.71467E-04   -0.20747E-04   128   0.608E-02    0.293E-02
DAV:   4    -0.999382095254E+02   -0.19335E-05   -0.92348E-05   112   0.357E-02    0.860E-03
DAV:   5    -0.999382118489E+02   -0.23234E-05   -0.77984E-06   112   0.115E-02    0.533E-03
DAV:   6    -0.999382132082E+02   -0.13594E-05   -0.85005E-07    88   0.353E-03    0.187E-03
DAV:   7    -0.999382148804E+02   -0.16722E-05   -0.33021E-07    88   0.239E-03    0.479E-04
DAV:   8    -0.999382163219E+02   -0.14415E-05   -0.14178E-07    88   0.146E-03    0.441E-04
DAV:   9    -0.999382175764E+02   -0.12545E-05   -0.42007E-08    88   0.845E-04    0.122E-04
DAV:  10    -0.999382189259E+02   -0.13494E-05   -0.50308E-08    88   0.635E-04    0.139E-04
DAV:  11    -0.999382194244E+02   -0.49856E-06   -0.11497E-08    88   0.384E-04
   8 F= -.99938219E+02 E0= -.99938219E+02  d E =-.577691E-02
       N       E                     dE             d eps       ncg     rms          rms(c)
DAV:   1    -0.999417157763E+02   -0.34969E-02   -0.47462E-01    84   0.316E+00    0.200E-01
DAV:   2    -0.999420434198E+02   -0.32764E-03   -0.83255E-03   120   0.373E-01    0.107E-01
DAV:   3    -0.999418508465E+02    0.19257E-03   -0.56389E-04   128   0.100E-01    0.483E-02
DAV:   4    -0.999418573706E+02   -0.65242E-05   -0.25261E-04   120   0.590E-02    0.142E-02
DAV:   5    -0.999418629461E+02   -0.55755E-05   -0.21440E-05   112   0.191E-02    0.881E-03
DAV:   6    -0.999418662467E+02   -0.33006E-05   -0.24692E-06    96   0.585E-03    0.313E-03
DAV:   7    -0.999418700457E+02   -0.37989E-05   -0.76731E-07    88   0.361E-03    0.838E-04
DAV:   8    -0.999418733502E+02   -0.33045E-05   -0.35365E-07    88   0.227E-03    0.728E-04
DAV:   9    -0.999418760441E+02   -0.26939E-05   -0.95574E-08    88   0.126E-03    0.210E-04
DAV:  10    -0.999418796719E+02   -0.36278E-05   -0.16759E-07    88   0.111E-03    0.281E-04
DAV:  11    -0.999418806424E+02   -0.97041E-06   -0.30198E-08    88   0.621E-04
   9 F= -.99941881E+02 E0= -.99941881E+02  d E =-.943813E-02
       N       E                     dE             d eps       ncg     rms          rms(c)
DAV:   1    -0.999458088957E+02   -0.39292E-02   -0.11072E-01    84   0.150E+00    0.990E-02
DAV:   2    -0.999459719547E+02   -0.16306E-03   -0.27999E-03   120   0.206E-01    0.529E-02
DAV:   3    -0.999459264847E+02    0.45470E-04   -0.12764E-04   128   0.443E-02    0.257E-02
DAV:   4    -0.999459168821E+02    0.96026E-05   -0.46592E-05   120   0.248E-02    0.668E-03
DAV:   5    -0.999459157039E+02    0.11782E-05   -0.40484E-06   120   0.957E-03    0.355E-03
DAV:   6    -0.999459167442E+02   -0.10403E-05   -0.13976E-06    88   0.568E-03    0.173E-03
DAV:   7    -0.999459196791E+02   -0.29349E-05   -0.50314E-07    88   0.370E-03    0.670E-04
DAV:   8    -0.999459224935E+02   -0.28144E-05   -0.24959E-07    88   0.222E-03    0.581E-04
DAV:   9    -0.999459265674E+02   -0.40738E-05   -0.20619E-07    80   0.155E-03    0.200E-04
DAV:  10    -0.999459290638E+02   -0.24965E-05   -0.14244E-07    88   0.112E-03    0.193E-04
DAV:  11    -0.999459310774E+02   -0.20135E-05   -0.85110E-08    88   0.828E-04    0.949E-05
DAV:  12    -0.999459320106E+02   -0.93327E-06   -0.36907E-08    88   0.507E-04
  10 F= -.99945932E+02 E0= -.99945932E+02  d E =-.405137E-02
       N       E                     dE             d eps       ncg     rms          rms(c)
DAV:   1    -0.999479564502E+02   -0.20254E-02   -0.31220E-01    84   0.252E+00    0.166E-01
DAV:   2    -0.999484252878E+02   -0.46884E-03   -0.79009E-03   120   0.345E-01    0.887E-02
DAV:   3    -0.999483014090E+02    0.12388E-03   -0.35887E-04   128   0.743E-02    0.432E-02
DAV:   4    -0.999482775954E+02    0.23814E-04   -0.13097E-04   120   0.416E-02    0.113E-02
DAV:   5    -0.999482747342E+02    0.28612E-05   -0.11294E-05   120   0.161E-02    0.597E-03
DAV:   6    -0.999482773753E+02   -0.26412E-05   -0.45201E-06   120   0.957E-03    0.313E-03
DAV:   7    -0.999482843163E+02   -0.69410E-05   -0.98034E-07    88   0.523E-03    0.107E-03
DAV:   8    -0.999482899339E+02   -0.56176E-05   -0.44775E-07    88   0.317E-03    0.970E-04
DAV:   9    -0.999482990617E+02   -0.91278E-05   -0.44881E-07    80   0.244E-03    0.341E-04
DAV:  10    -0.999483051407E+02   -0.60790E-05   -0.41575E-07    88   0.198E-03    0.366E-04
DAV:  11    -0.999483093578E+02   -0.42171E-05   -0.21269E-07    88   0.136E-03    0.207E-04
DAV:  12    -0.999483111077E+02   -0.17499E-05   -0.58109E-08    88   0.710E-04    0.175E-04
DAV:  13    -0.999483128550E+02   -0.17473E-05   -0.58747E-08    80   0.597E-04    0.751E-05
DAV:  14    -0.999483137837E+02   -0.92874E-06   -0.32614E-08    88   0.430E-04
  11 F= -.99948314E+02 E0= -.99948314E+02  d E =-.643314E-02
       N       E                     dE             d eps       ncg     rms          rms(c)
DAV:   1    -0.999494846279E+02   -0.11718E-02   -0.64757E-02    84   0.112E+00    0.768E-02
DAV:   2    -0.999496933822E+02   -0.20875E-03   -0.26770E-03   120   0.201E-01    0.470E-02
DAV:   3    -0.999496701385E+02    0.23244E-04   -0.88264E-05   128   0.399E-02    0.250E-02
DAV:   4    -0.999496679505E+02    0.21880E-05   -0.36106E-05   112   0.234E-02    0.585E-03
DAV:   5    -0.999496675444E+02    0.40612E-06   -0.41998E-06   112   0.850E-03
  12 F= -.99949668E+02 E0= -.99949668E+02  d E =-.135376E-02
       N       E                     dE             d eps       ncg     rms          rms(c)
DAV:   1    -0.999497189047E+02   -0.50954E-04   -0.55705E-03    84   0.327E-01    0.229E-02
DAV:   2    -0.999497366415E+02   -0.17737E-04   -0.23763E-04   120   0.597E-02    0.138E-02
DAV:   3    -0.999497341265E+02    0.25149E-05   -0.74199E-06   128   0.116E-02    0.743E-03
DAV:   4    -0.999497339259E+02    0.20063E-06   -0.28967E-06   104   0.692E-03
  13 F= -.99949734E+02 E0= -.99949734E+02  d E =-.142014E-02
       N       E                     dE             d eps       ncg     rms          rms(c)
DAV:   1    -0.999506457484E+02   -0.91162E-03   -0.38708E-02    84   0.876E-01    0.633E-02
DAV:   2    -0.999506989126E+02   -0.53164E-04   -0.11605E-03   120   0.131E-01    0.349E-02
DAV:   3    -0.999506802785E+02    0.18634E-04   -0.57842E-05   120   0.301E-02    0.179E-02
DAV:   4    -0.999506757101E+02    0.45683E-05   -0.18597E-05   112   0.163E-02    0.504E-03
DAV:   5    -0.999506757788E+02   -0.68639E-07   -0.23215E-06    96   0.660E-03
  14 F= -.99950676E+02 E0= -.99950676E+02  d E =-.941853E-03
       N       E                     dE             d eps       ncg     rms          rms(c)
DAV:   1    -0.999507813206E+02   -0.10561E-03   -0.12314E-02    84   0.494E-01    0.358E-02
DAV:   2    -0.999507966593E+02   -0.15339E-04   -0.37497E-04   120   0.741E-02    0.196E-02
DAV:   3    -0.999507893344E+02    0.73249E-05   -0.18307E-05   120   0.170E-02    0.102E-02
DAV:   4    -0.999507879018E+02    0.14326E-05   -0.60101E-06   112   0.937E-03    0.285E-03
DAV:   5    -0.999507892560E+02   -0.13542E-05   -0.81497E-07    88   0.401E-03    0.161E-03
DAV:   6    -0.999507911625E+02   -0.19065E-05   -0.24231E-07    88   0.198E-03    0.747E-04
DAV:   7    -0.999507937476E+02   -0.25851E-05   -0.12989E-07    88   0.125E-03    0.307E-04
DAV:   8    -0.999507968175E+02   -0.30699E-05   -0.12946E-07    88   0.102E-03    0.234E-04
DAV:   9    -0.999507994249E+02   -0.26074E-05   -0.12571E-07    88   0.895E-04    0.105E-04
DAV:  10    -0.999508007115E+02   -0.12866E-05   -0.52322E-08    88   0.580E-04    0.716E-05
DAV:  11    -0.999508012325E+02   -0.52097E-06   -0.11704E-08    88   0.305E-04
  15 F= -.99950801E+02 E0= -.99950801E+02  d E =-.106731E-02
       N       E                     dE             d eps       ncg     rms          rms(c)
DAV:   1    -0.999510119539E+02   -0.21124E-03   -0.12406E-02    84   0.493E-01    0.402E-02
DAV:   2    -0.999510389820E+02   -0.27028E-04   -0.45510E-04   120   0.793E-02    0.205E-02
DAV:   3    -0.999510331647E+02    0.58173E-05   -0.22733E-05   120   0.194E-02    0.107E-02
DAV:   4    -0.999510319835E+02    0.11811E-05   -0.69297E-06   112   0.111E-02    0.295E-03
DAV:   5    -0.999510317739E+02    0.20960E-06   -0.10284E-06    88   0.484E-03
  16 F= -.99951032E+02 E0= -.99951032E+02  d E =-.230541E-03
