       N       E                     dE             d eps       ncg     rms          rms(c)
DAV:   1     0.207375214062E+03    0.20738E+03   -0.10469E+04   116   0.546E+02
DAV:   2    -0.258463313903E+02   -0.23322E+03   -0.21817E+03   144   0.103E+02
DAV:   3    -0.100483976882E+03   -0.74638E+02   -0.74468E+02   112   0.550E+01
DAV:   4    -0.104691425041E+03   -0.42074E+01   -0.41921E+01   104   0.181E+01
DAV:   5    -0.104760727419E+03   -0.69302E-01   -0.69234E-01   136   0.254E+00    0.146E+01
DAV:   6    -0.101583428806E+03    0.31773E+01   -0.15793E+00   112   0.455E+00    0.842E+00
DAV:   7    -0.999247065950E+02    0.16587E+01   -0.40152E+00   104   0.669E+00    0.121E+00
DAV:   8    -0.998706017909E+02    0.54105E-01   -0.27666E-01   112   0.221E+00    0.604E-01
DAV:   9    -0.998350884338E+02    0.35513E-01   -0.68973E-02   112   0.747E-01    0.327E-01
DAV:  10    -0.998350144202E+02    0.74014E-04   -0.26583E-03   112   0.204E-01    0.148E-01
DAV:  11    -0.998348963405E+02    0.11808E-03   -0.64884E-03   104   0.235E-01    0.830E-02
DAV:  12    -0.998393344135E+02   -0.44381E-02   -0.11378E-03   102   0.992E-02    0.580E-02
DAV:  13    -0.998439918081E+02   -0.46574E-02   -0.17457E-03   112   0.109E-01    0.355E-02
DAV:  14    -0.998481395446E+02   -0.41477E-02   -0.32631E-04   112   0.542E-02    0.153E-02
DAV:  15    -0.998521719949E+02   -0.40325E-02   -0.44851E-04   112   0.557E-02    0.142E-02
DAV:  16    -0.998535409536E+02   -0.13690E-02   -0.90494E-05   112   0.261E-02    0.630E-03
DAV:  17    -0.998545123526E+02   -0.97140E-03   -0.81018E-05   104   0.216E-02    0.384E-03
DAV:  18    -0.998548138429E+02   -0.30149E-03   -0.10346E-05   104   0.847E-03    0.189E-03
DAV:  19    -0.998549373641E+02   -0.12352E-03   -0.44568E-06   104   0.549E-03    0.176E-03
DAV:  20    -0.998549820318E+02   -0.44668E-04   -0.71686E-07    88   0.302E-03    0.512E-04
DAV:  21    -0.998550084608E+02   -0.26429E-04   -0.78116E-07    80   0.228E-03    0.437E-04
DAV:  22    -0.998550164787E+02   -0.80179E-05   -0.16031E-07    88   0.119E-03    0.167E-04
DAV:  23    -0.998550205234E+02   -0.40447E-05   -0.11727E-07    88   0.829E-04    0.115E-04
DAV:  24    -0.998550226925E+02   -0.21692E-05   -0.33581E-08    88   0.467E-04    0.395E-05
DAV:  25    -0.998550234446E+02   -0.75209E-06   -0.13293E-08    88   0.292E-04
   1 F= -.99855023E+02 E0= -.99855023E+02  d E =-.998550E+02
       N       E                     dE             d eps       ncg     rms          rms(c)
DAV:   1    -0.100007517307E+03   -0.15249E+00   -0.65634E+00    84   0.105E+01    0.117E+00
DAV:   2    -0.100037366624E+03   -0.29849E-01   -0.35537E-01   120   0.233E+00    0.580E-01
DAV:   3    -0.100033176756E+03    0.41899E-02   -0.12858E-02   120   0.460E-01    0.301E-01
DAV:   4    -0.100032315074E+03    0.86168E-03   -0.65615E-03   112   0.295E-01    0.689E-02
DAV:   5    -0.100032144061E+03    0.17101E-03   -0.73321E-04   112   0.115E-01    0.437E-02
DAV:   6    -0.100032162447E+03   -0.18385E-04   -0.13914E-04   120   0.422E-02    0.259E-02
DAV:   7    -0.100032319408E+03   -0.15696E-03   -0.51896E-05   120   0.325E-02    0.758E-03
DAV:   8    -0.100032406287E+03   -0.86879E-04   -0.30604E-05   112   0.220E-02    0.924E-03
DAV:   9    -0.100032472137E+03   -0.65851E-04   -0.45873E-06   112   0.795E-03    0.739E-03
DAV:  10    -0.100032664218E+03   -0.19208E-03   -0.15093E-05   104   0.957E-03    0.382E-03
DAV:  11    -0.100032715703E+03   -0.51485E-04   -0.23119E-06    96   0.470E-03    0.249E-03
DAV:  12    -0.100032801367E+03   -0.85664E-04   -0.51747E-06   104   0.646E-03    0.220E-03
DAV:  13    -0.100032817778E+03   -0.16411E-04   -0.68765E-07    88   0.327E-03    0.730E-04
DAV:  14    -0.100032843129E+03   -0.25352E-04   -0.53859E-07    88   0.214E-03    0.689E-04
DAV:  15    -0.100032858308E+03   -0.15179E-04   -0.42591E-07    88   0.155E-03    0.580E-04
DAV:  16    -0.100032865962E+03   -0.76545E-05   -0.10754E-07    88   0.833E-04    0.188E-04
DAV:  17    -0.100032868100E+03   -0.21373E-05   -0.34870E-08    88   0.475E-04    0.278E-04
DAV:  18    -0.100032869937E+03   -0.18368E-05   -0.27403E-08    80   0.440E-04    0.622E-05
DAV:  19    -0.100032870308E+03   -0.37110E-06   -0.62140E-09    88   0.217E-04
   2 F= -.10003287E+03 E0= -.10003287E+03  d E =-.177847E+00
       N       E                     dE             d eps       ncg     rms          rms(c)
DAV:   1    -0.100034845575E+03   -0.19756E-02   -0.62573E-02    84   0.103E+00    0.108E-01
DAV:   2    -0.100035118106E+03   -0.27253E-03   -0.34066E-03   120   0.229E-01    0.588E-02
DAV:   3    -0.100035070848E+03    0.47259E-04   -0.13177E-04   120   0.467E-02    0.297E-02
DAV:   4    -0.100035058465E+03    0.12383E-04   -0.63943E-05   112   0.292E-02    0.769E-03
DAV:   5    -0.100035056097E+03    0.23676E-05   -0.68586E-06   112   0.111E-02    0.435E-03
DAV:   6    -0.100035058116E+03   -0.20191E-05   -0.14676E-06    80   0.450E-03    0.231E-03
DAV:   7    -0.100035064050E+03   -0.59334E-05   -0.78772E-07    78   0.381E-03    0.695E-04
DAV:   8    -0.100035067014E+03   -0.29641E-05   -0.45870E-07    88   0.248E-03    0.970E-04
DAV:   9    -0.100035069143E+03   -0.21293E-05   -0.10672E-07    88   0.117E-03    0.568E-04
DAV:  10    -0.100035075133E+03   -0.59898E-05   -0.51650E-07    80   0.163E-03    0.415E-04
DAV:  11    -0.100035076447E+03   -0.13145E-05   -0.67883E-08    88   0.710E-04    0.237E-04
DAV:  12    -0.100035078035E+03   -0.15877E-05   -0.77614E-08    88   0.680E-04    0.801E-05
DAV:  13    -0.100035078827E+03   -0.79178E-06   -0.30440E-08    88   0.426E-04
   3 F= -.10003508E+03 E0= -.10003508E+03  d E =-.180055E+00
       N       E                     dE             d eps       ncg     rms          rms(c)
DAV:   1    -0.100061183018E+03   -0.26105E-01   -0.75989E-01    94   0.377E+00    0.338E-01
DAV:   2    -0.100064223622E+03   -0.30406E-02   -0.38474E-02   120   0.687E-01    0.149E-01
DAV:   3    -0.100063931758E+03    0.29186E-03   -0.15636E-03   120   0.151E-01    0.813E-02
DAV:   4    -0.100063869436E+03    0.62322E-04   -0.41786E-04   112   0.743E-02    0.260E-02
DAV:   5    -0.100063867760E+03    0.16757E-05   -0.42650E-05   120   0.274E-02    0.140E-02
DAV:   6    -0.100063879421E+03   -0.11661E-04   -0.84394E-06   112   0.123E-02    0.671E-03
DAV:   7    -0.100063903459E+03   -0.24038E-04   -0.51358E-06   104   0.861E-03    0.227E-03
DAV:   8    -0.100063913443E+03   -0.99834E-05   -0.78916E-07    88   0.392E-03    0.153E-03
DAV:   9    -0.100063929613E+03   -0.16171E-04   -0.93768E-07    80   0.278E-03    0.717E-04
DAV:  10    -0.100063941693E+03   -0.12080E-04   -0.77512E-07    88   0.241E-03    0.637E-04
DAV:  11    -0.100063950266E+03   -0.85723E-05   -0.50580E-07    88   0.193E-03    0.324E-04
DAV:  12    -0.100063953717E+03   -0.34517E-05   -0.17937E-07    88   0.115E-03    0.187E-04
DAV:  13    -0.100063955488E+03   -0.17703E-05   -0.42471E-08    88   0.663E-04    0.112E-04
DAV:  14    -0.100063957194E+03   -0.17063E-05   -0.68544E-08    88   0.617E-04    0.104E-04
DAV:  15    -0.100063957525E+03   -0.33148E-06   -0.72793E-09    88   0.250E-04
   4 F= -.10006396E+03 E0= -.10006396E+03  d E =-.288787E-01
       N       E                     dE             d eps       ncg     rms          rms(c)
DAV:   1    -0.100064779459E+03   -0.82227E-03   -0.36488E-02    94   0.825E-01    0.731E-02
DAV:   2    -0.100064925127E+03   -0.14567E-03   -0.18650E-03   120   0.151E-01    0.328E-02
DAV:   3    -0.100064910593E+03    0.14533E-04   -0.76291E-05   120   0.333E-02    0.178E-02
DAV:   4    -0.100064906291E+03    0.43024E-05   -0.20093E-05   112   0.163E-02    0.583E-03
DAV:   5    -0.100064904963E+03    0.13282E-05   -0.20484E-06   112   0.601E-03    0.304E-03
DAV:   6    -0.100064905265E+03   -0.30208E-06   -0.38196E-07    88   0.272E-03
   5 F= -.10006491E+03 E0= -.10006491E+03  d E =-.298264E-01
       N       E                     dE             d eps       ncg     rms          rms(c)
DAV:   1    -0.100075223671E+03   -0.10319E-01   -0.26521E-01    84   0.233E+00    0.156E-01
DAV:   2    -0.100075682667E+03   -0.45900E-03   -0.87162E-03   120   0.349E-01    0.862E-02
DAV:   3    -0.100075571321E+03    0.11135E-03   -0.44395E-04   120   0.804E-02    0.451E-02
DAV:   4    -0.100075548643E+03    0.22677E-04   -0.11260E-04   112   0.385E-02    0.128E-02
DAV:   5    -0.100075545707E+03    0.29362E-05   -0.90267E-06   112   0.126E-02    0.658E-03
DAV:   6    -0.100075551879E+03   -0.61722E-05   -0.29911E-06    96   0.739E-03    0.243E-03
DAV:   7    -0.100075562990E+03   -0.11110E-04   -0.16187E-06    96   0.454E-03    0.143E-03
DAV:   8    -0.100075571737E+03   -0.87470E-05   -0.31615E-07    88   0.206E-03    0.877E-04
DAV:   9    -0.100075585523E+03   -0.13786E-04   -0.77392E-07    80   0.209E-03    0.459E-04
DAV:  10    -0.100075592343E+03   -0.68198E-05   -0.29754E-07    88   0.134E-03    0.320E-04
DAV:  11    -0.100075599932E+03   -0.75896E-05   -0.35164E-07    80   0.139E-03    0.197E-04
DAV:  12    -0.100075601900E+03   -0.19673E-05   -0.63861E-08    88   0.691E-04    0.133E-04
DAV:  13    -0.100075603078E+03   -0.11787E-05   -0.19091E-08    88   0.437E-04    0.126E-04
DAV:  14    -0.100075604783E+03   -0.17044E-05   -0.56030E-08    80   0.512E-04    0.454E-05
DAV:  15    -0.100075605066E+03   -0.28364E-06   -0.46297E-09    88   0.196E-04
   6 F= -.10007561E+03 E0= -.10007561E+03  d E =-.106998E-01
       N       E                     dE             d eps       ncg     rms          rms(c)
DAV:   1    -0.100079006488E+03   -0.34017E-02   -0.30072E-01    84   0.249E+00    0.167E-01
DAV:   2    -0.100079538937E+03   -0.53245E-03   -0.99359E-03   120   0.373E-01    0.921E-02
DAV:   3    -0.100079413707E+03    0.12523E-03   -0.50116E-04   120   0.855E-02    0.483E-02
DAV:   4    -0.100079386905E+03    0.26802E-04   -0.12742E-04   112   0.410E-02    0.136E-02
DAV:   5    -0.100079381829E+03    0.50762E-05   -0.10238E-05   112   0.134E-02    0.696E-03
DAV:   6    -0.100079386959E+03   -0.51300E-05   -0.33452E-06    96   0.782E-03    0.259E-03
DAV:   7    -0.100079398169E+03   -0.11210E-04   -0.17904E-06    86   0.479E-03    0.151E-03
DAV:   8    -0.100079407154E+03   -0.89843E-05   -0.33672E-07    88   0.215E-03    0.928E-04
DAV:   9    -0.100079421509E+03   -0.14355E-04   -0.80400E-07    80   0.215E-03    0.477E-04
DAV:  10    -0.100079428792E+03   -0.72827E-05   -0.32303E-07    88   0.140E-03    0.339E-04
DAV:  11    -0.100079436944E+03   -0.81526E-05   -0.37902E-07    80   0.145E-03    0.219E-04
DAV:  12    -0.100079438985E+03   -0.20410E-05   -0.67304E-08    88   0.721E-04    0.141E-04
DAV:  13    -0.100079440156E+03   -0.11705E-05   -0.18766E-08    88   0.442E-04    0.125E-04
DAV:  14    -0.100079442091E+03   -0.19352E-05   -0.62938E-08    80   0.538E-04    0.477E-05
DAV:  15    -0.100079442420E+03   -0.32898E-06   -0.55283E-09    88   0.206E-04
   7 F= -.10007944E+03 E0= -.10007944E+03  d E =-.145372E-01
       N       E                     dE             d eps       ncg     rms          rms(c)
DAV:   1    -0.100086875041E+03   -0.74330E-02   -0.20841E-01    84   0.211E+00    0.132E-01
DAV:   2    -0.100086992186E+03   -0.11715E-03   -0.34742E-03   112   0.240E-01    0.701E-02
DAV:   3    -0.100086903537E+03    0.88650E-04   -0.25220E-04   120   0.652E-02    0.310E-02
DAV:   4    -0.100086905866E+03   -0.23297E-05   -0.10483E-04   112   0.369E-02    0.924E-03
DAV:   5    -0.100086907870E+03   -0.20039E-05   -0.75894E-06   112   0.114E-02    0.479E-03
DAV:   6    -0.100086909285E+03   -0.14151E-05   -0.10866E-06    88   0.388E-03    0.176E-03
DAV:   7    -0.100086911338E+03   -0.20523E-05   -0.30246E-07    88   0.224E-03    0.502E-04
DAV:   8    -0.100086913151E+03   -0.18137E-05   -0.14186E-07    88   0.141E-03    0.438E-04
DAV:   9    -0.100086914840E+03   -0.16891E-05   -0.57065E-08    80   0.914E-04    0.148E-04
DAV:  10    -0.100086916875E+03   -0.20350E-05   -0.10170E-07    80   0.827E-04    0.183E-04
DAV:  11    -0.100086917453E+03   -0.57801E-06   -0.17256E-08    88   0.450E-04
   8 F= -.10008692E+03 E0= -.10008692E+03  d E =-.747503E-02
       N       E                     dE             d eps       ncg     rms          rms(c)
DAV:   1    -0.100092806351E+03   -0.58895E-02   -0.84737E-01    84   0.426E+00    0.265E-01
DAV:   2    -0.100093298684E+03   -0.49233E-03   -0.14183E-02   112   0.484E-01    0.141E-01
DAV:   3    -0.100092943905E+03    0.35478E-03   -0.10225E-03   128   0.131E-01    0.623E-02
DAV:   4    -0.100092956191E+03   -0.12286E-04   -0.42552E-04   112   0.743E-02    0.187E-02
DAV:   5    -0.100092963320E+03   -0.71292E-05   -0.30831E-05   104   0.231E-02    0.965E-03
DAV:   6    -0.100092968578E+03   -0.52577E-05   -0.49939E-06   112   0.786E-03    0.358E-03
DAV:   7    -0.100092975134E+03   -0.65556E-05   -0.62362E-07    80   0.327E-03    0.115E-03
DAV:   8    -0.100092981178E+03   -0.60447E-05   -0.41648E-07    88   0.235E-03    0.845E-04
DAV:   9    -0.100092985845E+03   -0.46662E-05   -0.13434E-07    88   0.146E-03    0.339E-04
DAV:  10    -0.100092992953E+03   -0.71080E-05   -0.43672E-07    80   0.170E-03    0.356E-04
DAV:  11    -0.100092994369E+03   -0.14165E-05   -0.64787E-08    88   0.811E-04    0.181E-04
DAV:  12    -0.100092996450E+03   -0.20804E-05   -0.73287E-08    80   0.672E-04    0.132E-04
DAV:  13    -0.100092997439E+03   -0.98962E-06   -0.31016E-08    88   0.422E-04
   9 F= -.10009300E+03 E0= -.10009300E+03  d E =-.135550E-01
       N       E                     dE             d eps       ncg     rms          rms(c)
DAV:   1    -0.100096948814E+03   -0.39524E-02   -0.13281E-01    84   0.164E+00    0.108E-01
DAV:   2    -0.100097181744E+03   -0.23293E-03   -0.36374E-03   120   0.231E-01    0.585E-02
DAV:   3    -0.100097126092E+03    0.55653E-04   -0.15179E-04   120   0.501E-02    0.291E-02
DAV:   4    -0.100097117724E+03    0.83680E-05   -0.66506E-05   112   0.296E-02    0.780E-03
DAV:   5    -0.100097117336E+03    0.38783E-06   -0.61842E-06   112   0.111E-02
  10 F= -.10009712E+03 E0= -.10009712E+03  d E =-.411990E-02
       N       E                     dE             d eps       ncg     rms          rms(c)
DAV:   1    -0.100098523080E+03   -0.14054E-02   -0.28429E-01    84   0.240E+00    0.158E-01
DAV:   2    -0.100099028097E+03   -0.50502E-03   -0.78662E-03   120   0.340E-01    0.857E-02
DAV:   3    -0.100098907144E+03    0.12095E-03   -0.32303E-04   128   0.732E-02    0.428E-02
DAV:   4    -0.100098890456E+03    0.16688E-04   -0.14227E-04   112   0.435E-02    0.115E-02
DAV:   5    -0.100098893579E+03   -0.31235E-05   -0.14031E-05   112   0.168E-02    0.636E-03
DAV:   6    -0.100098899561E+03   -0.59820E-05   -0.39584E-06   112   0.798E-03    0.324E-03
DAV:   7    -0.100098909680E+03   -0.10119E-04   -0.70436E-07    80   0.407E-03    0.963E-04
DAV:   8    -0.100098917565E+03   -0.78850E-05   -0.47189E-07    88   0.293E-03    0.884E-04
DAV:   9    -0.100098930428E+03   -0.12863E-04   -0.72141E-07    80   0.288E-03    0.403E-04
DAV:  10    -0.100098936172E+03   -0.57445E-05   -0.42327E-07    88   0.195E-03    0.338E-04
DAV:  11    -0.100098938768E+03   -0.25955E-05   -0.87853E-08    88   0.104E-03    0.200E-04
DAV:  12    -0.100098941293E+03   -0.25248E-05   -0.75480E-08    88   0.692E-04    0.122E-04
DAV:  13    -0.100098943646E+03   -0.23530E-05   -0.79807E-08    88   0.643E-04    0.682E-05
DAV:  14    -0.100098944671E+03   -0.10258E-05   -0.27076E-08    88   0.375E-04    0.556E-05
DAV:  15    -0.100098945173E+03   -0.50116E-06   -0.88545E-09    88   0.232E-04
  11 F= -.10009895E+03 E0= -.10009895E+03  d E =-.594773E-02
       N       E                     dE             d eps       ncg     rms          rms(c)
DAV:   1    -0.100100772040E+03   -0.18274E-02   -0.13070E-01    84   0.160E+00    0.103E-01
DAV:   2    -0.100101066921E+03   -0.29488E-03   -0.41429E-03   120   0.256E-01    0.635E-02
DAV:   3    -0.100101020940E+03    0.45981E-04   -0.14797E-04   120   0.514E-02    0.319E-02
DAV:   4    -0.100101016277E+03    0.46634E-05   -0.63534E-05   112   0.298E-02    0.742E-03
DAV:   5    -0.100101015626E+03    0.65032E-06   -0.66439E-06   112   0.110E-02
  12 F= -.10010102E+03 E0= -.10010102E+03  d E =-.207045E-02
       N       E                     dE             d eps       ncg     rms          rms(c)
DAV:   1    -0.100101140956E+03   -0.12468E-03   -0.20556E-02    84   0.636E-01    0.412E-02
DAV:   2    -0.100101186888E+03   -0.45932E-04   -0.66889E-04   120   0.103E-01    0.252E-02
DAV:   3    -0.100101178109E+03    0.87797E-05   -0.23021E-05   120   0.203E-02    0.128E-02
DAV:   4    -0.100101177125E+03    0.98381E-06   -0.99142E-06   112   0.119E-02
  13 F= -.10010118E+03 E0= -.10010118E+03  d E =-.223195E-02
       N       E                     dE             d eps       ncg     rms          rms(c)
DAV:   1    -0.100102463779E+03   -0.12857E-02   -0.62813E-02    84   0.110E+00    0.857E-02
DAV:   2    -0.100102605793E+03   -0.14201E-03   -0.23545E-03   120   0.177E-01    0.436E-02
DAV:   3    -0.100102582299E+03    0.23494E-04   -0.10630E-04   128   0.402E-02    0.235E-02
DAV:   4    -0.100102578268E+03    0.40305E-05   -0.28757E-05   112   0.210E-02    0.667E-03
DAV:   5    -0.100102579167E+03   -0.89849E-06   -0.33796E-06   104   0.782E-03
  14 F= -.10010258E+03 E0= -.10010258E+03  d E =-.140204E-02
       N       E                     dE             d eps       ncg     rms          rms(c)
DAV:   1    -0.100102653135E+03   -0.74867E-04   -0.66473E-03    84   0.359E-01    0.281E-02
DAV:   2    -0.100102668465E+03   -0.15330E-04   -0.25661E-04   120   0.586E-02    0.140E-02
DAV:   3    -0.100102665997E+03    0.24687E-05   -0.10993E-05   128   0.129E-02    0.769E-03
DAV:   4    -0.100102666846E+03   -0.84919E-06   -0.31209E-06   112   0.694E-03
  15 F= -.10010267E+03 E0= -.10010267E+03  d E =-.148972E-02
       N       E                     dE             d eps       ncg     rms          rms(c)
DAV:   1    -0.100103025044E+03   -0.35905E-03   -0.16414E-02    84   0.572E-01    0.442E-02
DAV:   2    -0.100103062860E+03   -0.37816E-04   -0.59254E-04   120   0.901E-02    0.232E-02
DAV:   3    -0.100103058556E+03    0.43037E-05   -0.26027E-05   120   0.200E-02    0.123E-02
DAV:   4    -0.100103058877E+03   -0.32025E-06   -0.62023E-06   112   0.107E-02
  16 F= -.10010306E+03 E0= -.10010306E+03  d E =-.392031E-03
       N       E                     dE             d eps       ncg     rms          rms(c)
DAV:   1    -0.100103076780E+03   -0.18223E-04   -0.13446E-03    88   0.164E-01    0.134E-02
DAV:   2    -0.100103080473E+03   -0.36931E-05   -0.51433E-05   120   0.264E-02    0.672E-03
DAV:   3    -0.100103080596E+03   -0.12326E-06   -0.19073E-06    96   0.568E-03
  17 F= -.10010308E+03 E0= -.10010308E+03  d E =-.413750E-03
       N       E                     dE             d eps       ncg     rms          rms(c)
DAV:   1    -0.100103229733E+03   -0.14926E-03   -0.12271E-02    84   0.498E-01    0.401E-02
DAV:   2    -0.100103271829E+03   -0.42097E-04   -0.58994E-04   120   0.922E-02    0.215E-02
DAV:   3    -0.100103267909E+03    0.39207E-05   -0.19941E-05   120   0.175E-02    0.122E-02
DAV:   4    -0.100103267122E+03    0.78613E-06   -0.61164E-06   112   0.994E-03
  18 F= -.10010327E+03 E0= -.10010327E+03  d E =-.186526E-03
