 vasp.5.4.4.18Apr17-6-g9f103f2a35 (build Nov 06 2017 19:16:10) complex          
  
 executed on           IFC91_ompi date 2018.07.17  17:06:23
 running on   12 total cores
 distrk:  each k-point on   12 cores,    1 groups
 distr:  one band on NCORES_PER_BAND=   6 cores,    2 groups


--------------------------------------------------------------------------------------------------------


 INCAR:
 POTCAR:    PAW_PBE Si 05Jan2001                  
 POTCAR:    PAW_PBE Ge 05Jan2001                  
 POTCAR:    PAW_PBE H 15Jun2001                   
 POTCAR:    PAW_PBE Si 05Jan2001                  
   VRHFIN =Si: s2p2                                                             
   LEXCH  = PE                                                                  
   EATOM  =   103.0669 eV,    7.5752 Ry                                         
                                                                                
   TITEL  = PAW_PBE Si 05Jan2001                                                
   LULTRA =        F    use ultrasoft PP ?                                      
   IUNSCR =        1    unscreen: 0-lin 1-nonlin 2-no                           
   RPACOR =    1.500    partial core radius                                     
   POMASS =   28.085; ZVAL   =    4.000    mass and valenz                      
   RCORE  =    1.900    outmost cutoff radius                                   
   RWIGS  =    2.480; RWIGS  =    1.312    wigner-seitz radius (au A)           
   ENMAX  =  245.345; ENMIN  =  184.009 eV                                      
   ICORE  =        2    local potential                                         
   LCOR   =        T    correct aug charges                                     
   LPAW   =        T    paw PP                                                  
   EAUG   =  322.069                                                            
   DEXC   =    0.000                                                            
   RMAX   =    1.950    core radius for proj-oper                               
   RAUG   =    1.300    factor for augmentation sphere                          
   RDEP   =    1.993    radius for radial grids                                 
   RDEPT  =    1.837    core radius for aug-charge                              
                                                                                
   Atomic configuration                                                         
    6 entries                                                                   
     n  l   j            E        occ.                                          
     1  0  0.50     -1785.8828   2.0000                                         
     2  0  0.50      -139.4969   2.0000                                         
     2  1  1.50       -95.5546   6.0000                                         
     3  0  0.50       -10.8127   2.0000                                         
     3  1  0.50        -4.0811   2.0000                                         
     3  2  1.50        -4.0817   0.0000                                         
   Description                                                                  
     l       E           TYP  RCUT    TYP  RCUT                                 
     0    -10.8127223     23  1.900                                             
     0     -7.6451159     23  1.900                                             
     1     -4.0811372     23  1.900                                             
     1      2.4879257     23  1.900                                             
     2     -4.0817478      7  1.900                                             
  local pseudopotential read in
  partial core-charges read in
  partial kinetic energy density read in
  atomic valenz-charges read in
  non local Contribution for L=           0  read in
    real space projection operators read in
  non local Contribution for L=           0  read in
    real space projection operators read in
  non local Contribution for L=           1  read in
    real space projection operators read in
  non local Contribution for L=           1  read in
    real space projection operators read in
    PAW grid and wavefunctions read in
 
   number of l-projection  operators is LMAX  =           4
   number of lm-projection operators is LMMAX =           8
 
 POTCAR:    PAW_PBE Ge 05Jan2001                  
   VRHFIN =Ge: s2p2                                                             
   LEXCH  = PE                                                                  
   EATOM  =   104.9960 eV,    7.7170 Ry                                         
                                                                                
   TITEL  = PAW_PBE Ge 05Jan2001                                                
   LULTRA =        F    use ultrasoft PP ?                                      
   IUNSCR =        1    unscreen: 0-lin 1-nonlin 2-no                           
   RPACOR =    2.170    partial core radius                                     
   POMASS =   72.610; ZVAL   =    4.000    mass and valenz                      
   RCORE  =    2.300    outmost cutoff radius                                   
   RWIGS  =    2.300; RWIGS  =    1.217    wigner-seitz radius (au A)           
   ENMAX  =  173.807; ENMIN  =  130.355 eV                                      
   ICORE  =        3    local potential                                         
   LCOR   =        T    correct aug charges                                     
   LPAW   =        T    paw PP                                                  
   EAUG   =  385.843                                                            
   DEXC   =    0.000                                                            
   RMAX   =    2.342    core radius for proj-oper                               
   RAUG   =    1.300    factor for augmentation sphere                          
   RDEP   =    2.318    radius for radial grids                                 
   RDEPT  =    2.103    core radius for aug-charge                              
                                                                                
   Atomic configuration                                                         
   10 entries                                                                   
     n  l   j            E        occ.                                          
     1  0  0.50    -10959.8463   2.0000                                         
     2  0  0.50     -1371.6056   2.0000                                         
     2  1  1.50     -1198.4791   6.0000                                         
     3  0  0.50      -168.4733   2.0000                                         
     3  1  1.50      -115.6019   6.0000                                         
     3  2  2.50       -29.3106  10.0000                                         
     4  0  0.50       -11.7309   2.0000                                         
     4  1  0.50        -3.8952   2.0000                                         
     4  2  1.50        -4.0817   0.0000                                         
     4  3  2.50        -4.0817   0.0000                                         
   Description                                                                  
     l       E           TYP  RCUT    TYP  RCUT                                 
     0    -11.7309493     23  2.300                                             
     0     -7.4578696     23  2.300                                             
     1     -3.8952261     23  2.300                                             
     1      6.1178114     23  2.300                                             
     2     -4.0817478     23  2.300                                             
     3     -1.3605826      7  2.300                                             
  local pseudopotential read in
  partial core-charges read in
  partial kinetic energy density read in
  atomic valenz-charges read in
  non local Contribution for L=           0  read in
    real space projection operators read in
  non local Contribution for L=           0  read in
    real space projection operators read in
  non local Contribution for L=           1  read in
    real space projection operators read in
  non local Contribution for L=           1  read in
    real space projection operators read in
  non local Contribution for L=           2  read in
    real space projection operators read in
    PAW grid and wavefunctions read in
 
   number of l-projection  operators is LMAX  =           5
   number of lm-projection operators is LMMAX =          13
 
 POTCAR:    PAW_PBE H 15Jun2001                   
   VRHFIN =H: ultrasoft test                                                    
   LEXCH  = PE                                                                  
   EATOM  =    12.4884 eV,    0.9179 Ry                                         
                                                                                
   TITEL  = PAW_PBE H 15Jun2001                                                 
   LULTRA =        F    use ultrasoft PP ?                                      
   IUNSCR =        0    unscreen: 0-lin 1-nonlin 2-no                           
   RPACOR =    0.000    partial core radius                                     
   POMASS =    1.000; ZVAL   =    1.000    mass and valenz                      
   RCORE  =    1.100    outmost cutoff radius                                   
   RWIGS  =    0.700; RWIGS  =    0.370    wigner-seitz radius (au A)           
   ENMAX  =  250.000; ENMIN  =  200.000 eV                                      
   RCLOC  =    0.701    cutoff for local pot                                    
   LCOR   =        T    correct aug charges                                     
   LPAW   =        T    paw PP                                                  
   EAUG   =  400.000                                                            
   RMAX   =    1.123    core radius for proj-oper                               
   RAUG   =    1.200    factor for augmentation sphere                          
   RDEP   =    1.112    radius for radial grids                                 
   RDEPT  =    0.926    core radius for aug-charge                              
                                                                                
   Atomic configuration                                                         
    2 entries                                                                   
     n  l   j            E        occ.                                          
     1  0  0.50        -6.4927   1.0000                                         
     2  1  0.50        -3.4015   0.0000                                         
   Description                                                                  
     l       E           TYP  RCUT    TYP  RCUT                                 
     0     -6.4927494     23  1.100                                             
     0      6.8029130     23  1.100                                             
     1     -4.0817478     23  1.100                                             
  local pseudopotential read in
  atomic valenz-charges read in
  non local Contribution for L=           0  read in
    real space projection operators read in
  non local Contribution for L=           0  read in
    real space projection operators read in
  non local Contribution for L=           1  read in
    real space projection operators read in
    PAW grid and wavefunctions read in
 
   number of l-projection  operators is LMAX  =           3
   number of lm-projection operators is LMMAX =           5
 

 ----------------------------------------------------------------------------- 
|                                                                             |
|  ADVICE TO THIS USER RUNNING 'VASP/VAMP'   (HEAR YOUR MASTER'S VOICE ...):  |
|                                                                             |
|      You have a (more or less) 'large supercell' and for larger cells       |
|      it might be more efficient to use real space projection opertators     |
|      So try LREAL= Auto  in the INCAR   file.                               |
|      Mind:          For very  accurate calculation you might also keep the  |
|      reciprocal projection scheme          (i.e. LREAL=.FALSE.)             |
|                                                                             |
 ----------------------------------------------------------------------------- 

  PAW_PBE Si 05Jan2001                  :
 energy of atom  1       EATOM= -103.0669
 kinetic energy error for atom=    0.0012 (will be added to EATOM!!)
  PAW_PBE Ge 05Jan2001                  :
 energy of atom  2       EATOM= -104.9960
 kinetic energy error for atom=    0.0003 (will be added to EATOM!!)
  PAW_PBE H 15Jun2001                   :
 energy of atom  3       EATOM=  -12.4884
 kinetic energy error for atom=    0.0098 (will be added to EATOM!!)
 
 
 POSCAR: SiGeH16                                 
  positions in direct lattice
  No initial velocities read in
 exchange correlation table for  LEXCH =        8
   RHO(1)=    0.500       N(1)  =     2000
   RHO(2)=  100.500       N(2)  =     4000
 


--------------------------------------------------------------------------------------------------------


 ion  position               nearest neighbor table
   1  0.475  0.556  0.385-  18 1.55   6 2.39   2 2.39   3 2.39
   2  0.369  0.539  0.436-  23 1.55  24 1.55   7 2.39   1 2.39
   3  0.542  0.457  0.396-  17 1.55  16 1.55   8 2.39   1 2.39
   4  0.613  0.525  0.565-  15 1.55  14 1.55   9 2.39   8 2.39
   5  0.451  0.416  0.564-  12 1.55  11 1.55   7 2.39   8 2.39
   6  0.531  0.648  0.437-  25 1.55  26 1.55   9 2.39   1 2.39
   7  0.385  0.515  0.552-  22 1.55  10 2.39   5 2.39   2 2.39
   8  0.557  0.433  0.512-  13 1.55   3 2.39   4 2.39   5 2.39
   9  0.547  0.624  0.554-  19 1.55   6 2.39   4 2.39  10 2.39
  10  0.440  0.606  0.605-  20 1.55  21 1.55   7 2.39   9 2.39
  11  0.415  0.357  0.529-   5 1.55
  12  0.461  0.400  0.639-   5 1.55
  13  0.600  0.369  0.520-   8 1.55
  14  0.682  0.536  0.531-   4 1.55
  15  0.623  0.509  0.640-   4 1.55
  16  0.611  0.469  0.363-   3 1.55
  17  0.506  0.398  0.362-   3 1.55
  18  0.465  0.572  0.309-   1 1.55
  19  0.583  0.683  0.588-   9 1.55
  20  0.451  0.590  0.680-  10 1.55
  21  0.397  0.670  0.598-  10 1.55
  22  0.316  0.504  0.586-   7 1.55
  23  0.333  0.479  0.402-   2 1.55
  24  0.326  0.603  0.429-   2 1.55
  25  0.488  0.712  0.430-   6 1.55
  26  0.600  0.659  0.404-   6 1.55
 
  LATTYP: Found a simple cubic cell.
 ALAT       =    20.0000000000
  
  Lattice vectors:
  
 A1 = (  20.0000000000,   0.0000000000,   0.0000000000)
 A2 = (   0.0000000000,  20.0000000000,   0.0000000000)
 A3 = (   0.0000000000,   0.0000000000,  20.0000000000)


Analysis of symmetry for initial positions (statically):
=====================================================================
 Subroutine PRICEL returns:
 Original cell was already a primitive cell.
 

 Routine SETGRP: Setting up the symmetry group for a 
 simple cubic supercell.


 Subroutine GETGRP returns: Found  1 space group operations
 (whereof  1 operations were pure point group operations)
 out of a pool of 48 trial point group operations.


The static configuration has the point symmetry C_1 .


Analysis of symmetry for dynamics (positions and initial velocities):
=====================================================================
 Subroutine PRICEL returns:
 Original cell was already a primitive cell.
 

 Routine SETGRP: Setting up the symmetry group for a 
 simple cubic supercell.


 Subroutine GETGRP returns: Found  1 space group operations
 (whereof  1 operations were pure point group operations)
 out of a pool of 48 trial point group operations.


The dynamic configuration has the point symmetry C_1 .


 Subroutine INISYM returns: Found  1 space group operations
 (whereof  1 operations are pure point group operations),
 and found     1 'primitive' translations

 
 
 KPOINTS: Automatic mesh                          

Automatic generation of k-mesh.
Space group operators:
 irot       det(A)        alpha          n_x          n_y          n_z        tau_x        tau_y        tau_z
    1     1.000000     0.000000     1.000000     0.000000     0.000000     0.000000     0.000000     0.000000
 
 Subroutine IBZKPT returns following result:
 ===========================================
 
 Found      1 irreducible k-points:
 
 Following reciprocal coordinates:
            Coordinates               Weight
  0.000000  0.000000  0.000000      1.000000
 
 Following cartesian coordinates:
            Coordinates               Weight
  0.000000  0.000000  0.000000      1.000000
 


--------------------------------------------------------------------------------------------------------




 Dimension of arrays:
   k-points           NKPTS =      1   k-points in BZ     NKDIM =      1   number of bands    NBANDS=     42
   number of dos      NEDOS =    301   number of ions     NIONS =     26
   non local maximal  LDIM  =      5   non local SUM 2l+1 LMDIM =     13
   total plane-waves  NPLWV = 941192
   max r-space proj   IRMAX =      1   max aug-charges    IRDMAX=   6593
   dimension x,y,z NGX =    98 NGY =   98 NGZ =   98
   dimension x,y,z NGXF=   196 NGYF=  196 NGZF=  196
   support grid    NGXF=   196 NGYF=  196 NGZF=  196
   ions per type =               5   5  16
   NGX,Y,Z   is equivalent  to a cutoff of   8.15,  8.15,  8.15 a.u.
   NGXF,Y,Z  is equivalent  to a cutoff of  16.29, 16.29, 16.29 a.u.

 SYSTEM =  SiGe                                    
 POSCAR =  SiGeH16                                 

 Startparameter for this run:
   NWRITE =      2    write-flag & timer
   PREC   = normal    normal or accurate (medium, high low for compatibility)
   ISTART =      0    job   : 0-new  1-cont  2-samecut
   ICHARG =      2    charge: 1-file 2-atom 10-const
   ISPIN  =      1    spin polarized calculation?
   LNONCOLLINEAR =      F non collinear calculations
   LSORBIT =      F    spin-orbit coupling
   INIWAV =      1    electr: 0-lowe 1-rand  2-diag
   LASPH  =      F    aspherical Exc in radial PAW
   METAGGA=      F    non-selfconsistent MetaGGA calc.

 Electronic Relaxation 1
   ENCUT  =  400.0 eV  29.40 Ry    5.42 a.u.  32.61 32.61 32.61*2*pi/ulx,y,z
   ENINI  =  400.0     initial cutoff
   ENAUG  =  400.0 eV  augmentation charge cutoff
   NELM   =     60;   NELMIN=  2; NELMDL= -5     # of ELM steps 
   EDIFF  = 0.1E-05   stopping-criterion for ELM
   LREAL  =      F    real-space projection
   NLSPLINE    = F    spline interpolate recip. space projectors
   LCOMPAT=      F    compatible to vasp.4.4
   GGA_COMPAT  = T    GGA compatible to vasp.4.4-vasp.4.6
   LMAXPAW     = -100 max onsite density
   LMAXMIX     =    2 max onsite mixed and CHGCAR
   VOSKOWN=      0    Vosko Wilk Nusair interpolation
   ROPT   =    0.00000   0.00000   0.00000
 Ionic relaxation
   EDIFFG = -.2E-01   stopping-criterion for IOM
   NSW    =    200    number of steps for IOM
   NBLOCK =      1;   KBLOCK =    200    inner block; outer block 
   IBRION =      2    ionic relax: 0-MD 1-quasi-New 2-CG
   NFREE  =      1    steps in history (QN), initial steepest desc. (CG)
   ISIF   =      2    stress and relaxation
   IWAVPR =     11    prediction:  0-non 1-charg 2-wave 3-comb
   ISYM   =      2    0-nonsym 1-usesym 2-fastsym
   LCORR  =      T    Harris-Foulkes like correction to forces

   POTIM  = 0.5000    time-step for ionic-motion
   TEIN   =    0.0    initial temperature
   TEBEG  =    0.0;   TEEND  =   0.0 temperature during run
   SMASS  =  -3.00    Nose mass-parameter (am)
   estimated Nose-frequenzy (Omega)   =  0.10E-29 period in steps =****** mass=  -0.914E-26a.u.
   SCALEE = 1.0000    scale energy and forces
   NPACO  =    256;   APACO  = 16.0  distance and # of slots for P.C.
   PSTRESS=    0.0 pullay stress

  Mass of Ions in am
   POMASS =  28.09 72.61  1.00
  Ionic Valenz
   ZVAL   =   4.00  4.00  1.00
  Atomic Wigner-Seitz radii
   RWIGS  =  -1.00 -1.00 -1.00
  virtual crystal weights 
   VCA    =   1.00  1.00  1.00
   NELECT =      56.0000    total number of electrons
   NUPDOWN=      -1.0000    fix difference up-down

 DOS related values:
   EMIN   =  10.00;   EMAX   =-10.00  energy-range for DOS
   EFERMI =   0.00
   ISMEAR =     0;   SIGMA  =   0.20  broadening in eV -4-tet -1-fermi 0-gaus

 Electronic relaxation 2 (details)
   IALGO  =     38    algorithm
   LDIAG  =      T    sub-space diagonalisation (order eigenvalues)
   LSUBROT=      F    optimize rotation matrix (better conditioning)
   TURBO    =      0    0=normal 1=particle mesh
   IRESTART =      0    0=no restart 2=restart with 2 vectors
   NREBOOT  =      0    no. of reboots
   NMIN     =      0    reboot dimension
   EREF     =   0.00    reference energy to select bands
   IMIX   =      4    mixing-type and parameters
     AMIX     =   0.40;   BMIX     =  1.00
     AMIX_MAG =   1.60;   BMIX_MAG =  1.00
     AMIN     =   0.10
     WC   =   100.;   INIMIX=   1;  MIXPRE=   1;  MAXMIX= -45

 Intra band minimization:
   WEIMIN = 0.0010     energy-eigenvalue tresh-hold
   EBREAK =  0.60E-08  absolut break condition
   DEPER  =   0.30     relativ break condition  

   TIME   =   0.40     timestep for ELM

  volume/ion in A,a.u.               =     307.69      2076.41
  Fermi-wavevector in a.u.,A,eV,Ry     =   0.313166  0.591797  1.334361  0.098073
  Thomas-Fermi vector in A             =   1.193276
 
 Write flags
   LWAVE        =      T    write WAVECAR
   LDOWNSAMPLE  =      F    k-point downsampling of WAVECAR
   LCHARG       =      T    write CHGCAR
   LVTOT        =      F    write LOCPOT, total local potential
   LVHAR        =      F    write LOCPOT, Hartree potential only
   LELF         =      F    write electronic localiz. function (ELF)
   LORBIT       =      0    0 simple, 1 ext, 2 COOP (PROOUT), +10 PAW based schemes


 Dipole corrections
   LMONO  =      F    monopole corrections only (constant potential shift)
   LDIPOL =      F    correct potential (dipole corrections)
   IDIPOL =      0    1-x, 2-y, 3-z, 4-all directions 
   EPSILON=  1.0000000 bulk dielectric constant

 Exchange correlation treatment:
   GGA     =    --    GGA type
   LEXCH   =     8    internal setting for exchange type
   VOSKOWN=      0    Vosko Wilk Nusair interpolation
   LHFCALC =     F    Hartree Fock is set to
   LHFONE  =     F    Hartree Fock one center treatment
   AEXX    =    0.0000 exact exchange contribution

 Linear response parameters
   LEPSILON=     F    determine dielectric tensor
   LRPA    =     F    only Hartree local field effects (RPA)
   LNABLA  =     F    use nabla operator in PAW spheres
   LVEL    =     F    velocity operator in full k-point grid
   LINTERFAST=   F  fast interpolation
   KINTER  =     0    interpolate to denser k-point grid
   CSHIFT  =0.1000    complex shift for real part using Kramers Kronig
   OMEGAMAX=  -1.0    maximum frequency
   DEG_THRESHOLD= 0.2000000E-02 threshold for treating states as degnerate
   RTIME   =   -0.100 relaxation time in fs
  (WPLASMAI=    0.000 imaginary part of plasma frequency in eV, 0.658/RTIME)
   DFIELD  = 0.0000000 0.0000000 0.0000000 field for delta impulse in time
 
 Orbital magnetization related:
   ORBITALMAG=     F  switch on orbital magnetization
   LCHIMAG   =     F  perturbation theory with respect to B field
   DQ        =  0.001000  dq finite difference perturbation B field
   LLRAUG    =     F  two centre corrections for induced B field



--------------------------------------------------------------------------------------------------------


 conjugate gradient relaxation of ions
 charge density and potential will be updated during run
 non-spin polarized calculation
 Variant of blocked Davidson
 Davidson routine will perform the subspace rotation
 perform sub-space diagonalisation
    after iterative eigenvector-optimisation
 modified Broyden-mixing scheme, WC =      100.0
 initial mixing is a Kerker type mixing with AMIX =  0.4000 and BMIX =      1.0000
 Hartree-type preconditioning will be used
 using additional bands           14
 reciprocal scheme for non local part
 use partial core corrections
 calculate Harris-corrections to forces 
   (improved forces if not selfconsistent)
 use gradient corrections 
 use of overlap-Matrix (Vanderbilt PP)
 Gauss-broadening in eV      SIGMA  =   0.20


--------------------------------------------------------------------------------------------------------


  energy-cutoff  :      400.00
  volume of cell :     8000.00
      direct lattice vectors                 reciprocal lattice vectors
    20.000000000  0.000000000  0.000000000     0.050000000  0.000000000  0.000000000
     0.000000000 20.000000000  0.000000000     0.000000000  0.050000000  0.000000000
     0.000000000  0.000000000 20.000000000     0.000000000  0.000000000  0.050000000

  length of vectors
    20.000000000 20.000000000 20.000000000     0.050000000  0.050000000  0.050000000


 
 k-points in units of 2pi/SCALE and weight: Automatic mesh                          
   0.00000000  0.00000000  0.00000000       1.000
 
 k-points in reciprocal lattice and weights: Automatic mesh                          
   0.00000000  0.00000000  0.00000000       1.000
 
 position of ions in fractional coordinates (direct lattice) 
   0.47547100  0.55626000  0.38465300
   0.36907800  0.53906000  0.43641200
   0.54179100  0.45744600  0.39613600
   0.61299700  0.52481700  0.56496600
   0.45095700  0.41593600  0.56388300
   0.53111600  0.64794100  0.43749600
   0.38461900  0.51474100  0.55243500
   0.55736800  0.43311000  0.51215000
   0.54669200  0.62364400  0.55351800
   0.44028400  0.60643000  0.60524300
   0.41490100  0.35665000  0.52940300
   0.46117000  0.40042600  0.63910800
   0.60034800  0.36907000  0.51957800
   0.68182700  0.53600700  0.53118700
   0.62280400  0.50903400  0.64018900
   0.61080000  0.46880600  0.36278200
   0.50550800  0.39805500  0.36207700
   0.46538400  0.57201900  0.30946400
   0.58275500  0.68306700  0.58775000
   0.45052500  0.59044300  0.68036400
   0.39732000  0.67044900  0.59753500
   0.31566200  0.50359800  0.58596500
   0.33322800  0.47946500  0.40225200
   0.32629100  0.60324700  0.42912600
   0.48792300  0.71185500  0.43020800
   0.60015100  0.65882400  0.40403700
 
 position of ions in cartesian coordinates  (Angst):
   9.50942000 11.12520000  7.69306000
   7.38156000 10.78120000  8.72824000
  10.83582000  9.14892000  7.92272000
  12.25994000 10.49634000 11.29932000
   9.01914000  8.31872000 11.27766000
  10.62232000 12.95882000  8.74992000
   7.69238000 10.29482000 11.04870000
  11.14736000  8.66220000 10.24300000
  10.93384000 12.47288000 11.07036000
   8.80568000 12.12860000 12.10486000
   8.29802000  7.13300000 10.58806000
   9.22340000  8.00852000 12.78216000
  12.00696000  7.38140000 10.39156000
  13.63654000 10.72014000 10.62374000
  12.45608000 10.18068000 12.80378000
  12.21600000  9.37612000  7.25564000
  10.11016000  7.96110000  7.24154000
   9.30768000 11.44038000  6.18928000
  11.65510000 13.66134000 11.75500000
   9.01050000 11.80886000 13.60728000
   7.94640000 13.40898000 11.95070000
   6.31324000 10.07196000 11.71930000
   6.66456000  9.58930000  8.04504000
   6.52582000 12.06494000  8.58252000
   9.75846000 14.23710000  8.60416000
  12.00302000 13.17648000  8.08074000
 


--------------------------------------------------------------------------------------------------------


 k-point  1 :   0.0000 0.0000 0.0000  plane waves:  145165

 maximum and minimum number of plane-waves per node :     24209    24180

 maximum number of plane-waves:    145165
 maximum index in each direction: 
   IXMAX=   32   IYMAX=   32   IZMAX=   32
   IXMIN=  -32   IYMIN=  -32   IZMIN=  -32


 parallel 3D FFT for wavefunctions:
    minimum data exchange during FFTs selected (reduces bandwidth)
 parallel 3D FFT for charge:
    minimum data exchange during FFTs selected (reduces bandwidth)


 total amount of memory used by VASP MPI-rank0   131440. kBytes
=======================================================================

   base      :      30000. kBytes
   nonl-proj :      17624. kBytes
   fftplans  :      26957. kBytes
   grid      :      48673. kBytes
   one-center:         40. kBytes
   wavefun   :       8146. kBytes
 
     INWAV:  cpu time    0.0000: real time    0.0000
 Broyden mixing: mesh for mixing (old mesh)
   NGX = 65   NGY = 65   NGZ = 65
  (NGX  =196   NGY  =196   NGZ  =196)
  gives a total of 274625 points

 initial charge density was supplied:
 charge density of overlapping atoms calculated
 number of electron      56.0000000 magnetization 
 keeping initial charge density in first step


--------------------------------------------------------------------------------------------------------


 Maximum index for augmentation-charges          565 (set IRDMAX)


--------------------------------------------------------------------------------------------------------


 First call to EWALD:  gamma=   0.089
 Maximum number of real-space cells 3x 3x 3
 Maximum number of reciprocal cells 3x 3x 3

    FEWALD:  cpu time    0.0030: real time    0.0026


--------------------------------------- Iteration      1(   1)  ---------------------------------------


    POTLOK:  cpu time    1.7657: real time    1.7675
    SETDIJ:  cpu time    0.0080: real time    0.0079
     EDDAV:  cpu time   11.1573: real time   11.1542
       DOS:  cpu time    0.0010: real time    0.0004
    --------------------------------------------
      LOOP:  cpu time   12.9320: real time   12.9300

 eigenvalue-minimisations  :   116
 total energy-change (2. order) : 0.2045201E+03  (-0.1047732E+04)
 number of electron      56.0000000 magnetization 
 augmentation part       56.0000000 magnetization 

 Free energy of the ion-electron system (eV)
  ---------------------------------------------------
  alpha Z        PSCENC =         2.23981092
  Ewald energy   TEWEN  =      2629.98113996
  -Hartree energ DENC   =     -3441.32665752
  -exchange      EXHF   =         0.00000000
  -V(xc)+E(xc)   XCENC  =       -51.19389587
  PAW double counting   =       915.48941305     -755.22719771
  entropy T*S    EENTRO =        -0.44012201
  eigenvalues    EBANDS =      -334.96757943
  atomic energy  EATOM  =      1239.96520364
  Solvation  Ediel_sol  =         0.00000000
  ---------------------------------------------------
  free energy    TOTEN  =       204.52011503 eV

  energy without entropy =      204.96023704  energy(sigma->0) =      204.74017604


--------------------------------------------------------------------------------------------------------




--------------------------------------- Iteration      1(   2)  ---------------------------------------


     EDDAV:  cpu time   13.3220: real time   13.3268
       DOS:  cpu time    0.0010: real time    0.0003
    --------------------------------------------
      LOOP:  cpu time   13.3230: real time   13.3271

 eigenvalue-minimisations  :   144
 total energy-change (2. order) :-0.2318224E+03  (-0.2169575E+03)
 number of electron      56.0000000 magnetization 
 augmentation part       56.0000000 magnetization 

 Free energy of the ion-electron system (eV)
  ---------------------------------------------------
  alpha Z        PSCENC =         2.23981092
  Ewald energy   TEWEN  =      2629.98113996
  -Hartree energ DENC   =     -3441.32665752
  -exchange      EXHF   =         0.00000000
  -V(xc)+E(xc)   XCENC  =       -51.19389587
  PAW double counting   =       915.48941305     -755.22719771
  entropy T*S    EENTRO =        -0.00000000
  eigenvalues    EBANDS =      -567.23014329
  atomic energy  EATOM  =      1239.96520364
  Solvation  Ediel_sol  =         0.00000000
  ---------------------------------------------------
  free energy    TOTEN  =       -27.30232682 eV

  energy without entropy =      -27.30232682  energy(sigma->0) =      -27.30232682


--------------------------------------------------------------------------------------------------------




--------------------------------------- Iteration      1(   3)  ---------------------------------------


     EDDAV:  cpu time   11.0963: real time   11.0956
       DOS:  cpu time    0.0010: real time    0.0002
    --------------------------------------------
      LOOP:  cpu time   11.0973: real time   11.0958

 eigenvalue-minimisations  :   112
 total energy-change (2. order) :-0.7445159E+02  (-0.7428200E+02)
 number of electron      56.0000000 magnetization 
 augmentation part       56.0000000 magnetization 

 Free energy of the ion-electron system (eV)
  ---------------------------------------------------
  alpha Z        PSCENC =         2.23981092
  Ewald energy   TEWEN  =      2629.98113996
  -Hartree energ DENC   =     -3441.32665752
  -exchange      EXHF   =         0.00000000
  -V(xc)+E(xc)   XCENC  =       -51.19389587
  PAW double counting   =       915.48941305     -755.22719771
  entropy T*S    EENTRO =        -0.00000000
  eigenvalues    EBANDS =      -641.68173255
  atomic energy  EATOM  =      1239.96520364
  Solvation  Ediel_sol  =         0.00000000
  ---------------------------------------------------
  free energy    TOTEN  =      -101.75391608 eV

  energy without entropy =     -101.75391608  energy(sigma->0) =     -101.75391608


--------------------------------------------------------------------------------------------------------




--------------------------------------- Iteration      1(   4)  ---------------------------------------


     EDDAV:  cpu time   10.2424: real time   10.2397
       DOS:  cpu time    0.0000: real time    0.0003
    --------------------------------------------
      LOOP:  cpu time   10.2424: real time   10.2400

 eigenvalue-minimisations  :   104
 total energy-change (2. order) :-0.4217706E+01  (-0.4203144E+01)
 number of electron      56.0000000 magnetization 
 augmentation part       56.0000000 magnetization 

 Free energy of the ion-electron system (eV)
  ---------------------------------------------------
  alpha Z        PSCENC =         2.23981092
  Ewald energy   TEWEN  =      2629.98113996
  -Hartree energ DENC   =     -3441.32665752
  -exchange      EXHF   =         0.00000000
  -V(xc)+E(xc)   XCENC  =       -51.19389587
  PAW double counting   =       915.48941305     -755.22719771
  entropy T*S    EENTRO =        -0.00000000
  eigenvalues    EBANDS =      -645.89943894
  atomic energy  EATOM  =      1239.96520364
  Solvation  Ediel_sol  =         0.00000000
  ---------------------------------------------------
  free energy    TOTEN  =      -105.97162247 eV

  energy without entropy =     -105.97162247  energy(sigma->0) =     -105.97162247


--------------------------------------------------------------------------------------------------------




--------------------------------------- Iteration      1(   5)  ---------------------------------------


     EDDAV:  cpu time   12.6551: real time   12.6502
       DOS:  cpu time    0.0000: real time    0.0003
    CHARGE:  cpu time    0.4839: real time    0.4833
    MIXING:  cpu time    0.0460: real time    0.0454
    --------------------------------------------
      LOOP:  cpu time   13.1850: real time   13.1794

 eigenvalue-minimisations  :   136
 total energy-change (2. order) :-0.7591150E-01  (-0.7585712E-01)
 number of electron      56.0000016 magnetization 
 augmentation part       -3.9542155 magnetization 

 Broyden mixing:
  rms(total) = 0.14862E+01    rms(broyden)= 0.14861E+01
  rms(prec ) = 0.15826E+01
  weight for this iteration     100.00

 Free energy of the ion-electron system (eV)
  ---------------------------------------------------
  alpha Z        PSCENC =         2.23981092
  Ewald energy   TEWEN  =      2629.98113996
  -Hartree energ DENC   =     -3441.32665752
  -exchange      EXHF   =         0.00000000
  -V(xc)+E(xc)   XCENC  =       -51.19389587
  PAW double counting   =       915.48941305     -755.22719771
  entropy T*S    EENTRO =        -0.00000000
  eigenvalues    EBANDS =      -645.97535045
  atomic energy  EATOM  =      1239.96520364
  Solvation  Ediel_sol  =         0.00000000
  ---------------------------------------------------
  free energy    TOTEN  =      -106.04753398 eV

  energy without entropy =     -106.04753398  energy(sigma->0) =     -106.04753398


--------------------------------------------------------------------------------------------------------




--------------------------------------- Iteration      1(   6)  ---------------------------------------


    POTLOK:  cpu time    1.7007: real time    1.7024
    SETDIJ:  cpu time    0.0080: real time    0.0076
     EDDAV:  cpu time   10.2624: real time   10.2585
       DOS:  cpu time    0.0010: real time    0.0005
    CHARGE:  cpu time    0.4889: real time    0.4891
    MIXING:  cpu time    0.0470: real time    0.0474
    --------------------------------------------
      LOOP:  cpu time   12.5081: real time   12.5055

 eigenvalue-minimisations  :   104
 total energy-change (2. order) : 0.3217166E+01  (-0.1597454E+00)
 number of electron      56.0000015 magnetization 
 augmentation part       -3.9536943 magnetization 

 Broyden mixing:
  rms(total) = 0.85990E+00    rms(broyden)= 0.85990E+00
  rms(prec ) = 0.91876E+00
  weight for this iteration     100.00

 eigenvalues of (default mixing * dielectric matrix)
  average eigenvalue GAMMA=   2.3025
  2.3025

 Free energy of the ion-electron system (eV)
  ---------------------------------------------------
  alpha Z        PSCENC =         2.23981092
  Ewald energy   TEWEN  =      2629.98113996
  -Hartree energ DENC   =     -3472.50780577
  -exchange      EXHF   =         0.00000000
  -V(xc)+E(xc)   XCENC  =       -47.55907467
  PAW double counting   =      1801.78053997    -1642.32743019
  entropy T*S    EENTRO =        -0.00000000
  eigenvalues    EBANDS =      -614.40275226
  atomic energy  EATOM  =      1239.96520364
  Solvation  Ediel_sol  =         0.00000000
  ---------------------------------------------------
  free energy    TOTEN  =      -102.83036841 eV

  energy without entropy =     -102.83036841  energy(sigma->0) =     -102.83036841


--------------------------------------------------------------------------------------------------------




--------------------------------------- Iteration      1(   7)  ---------------------------------------


    POTLOK:  cpu time    1.7017: real time    1.7004
    SETDIJ:  cpu time    0.0080: real time    0.0081
     EDDAV:  cpu time   10.2404: real time   10.2500
       DOS:  cpu time    0.0000: real time    0.0004
    CHARGE:  cpu time    0.4869: real time    0.4861
    MIXING:  cpu time    0.0480: real time    0.0481
    --------------------------------------------
      LOOP:  cpu time   12.4861: real time   12.4932

 eigenvalue-minimisations  :   104
 total energy-change (2. order) : 0.1680206E+01  (-0.4081869E+00)
 number of electron      56.0000013 magnetization 
 augmentation part       -3.9499240 magnetization 

 Broyden mixing:
  rms(total) = 0.12183E+00    rms(broyden)= 0.12168E+00
  rms(prec ) = 0.15316E+00
  weight for this iteration     100.00

 eigenvalues of (default mixing * dielectric matrix)
  average eigenvalue GAMMA=   1.8373
  1.7187  1.9558

 Free energy of the ion-electron system (eV)
  ---------------------------------------------------
  alpha Z        PSCENC =         2.23981092
  Ewald energy   TEWEN  =      2629.98113996
  -Hartree energ DENC   =     -3528.00741046
  -exchange      EXHF   =         0.00000000
  -V(xc)+E(xc)   XCENC  =       -41.80035200
  PAW double counting   =      3731.67717358    -3573.30972934
  entropy T*S    EENTRO =        -0.00000000
  eigenvalues    EBANDS =      -561.89599824
  atomic energy  EATOM  =      1239.96520364
  Solvation  Ediel_sol  =         0.00000000
  ---------------------------------------------------
  free energy    TOTEN  =      -101.15016194 eV

  energy without entropy =     -101.15016194  energy(sigma->0) =     -101.15016194


--------------------------------------------------------------------------------------------------------




--------------------------------------- Iteration      1(   8)  ---------------------------------------


    POTLOK:  cpu time    1.7087: real time    1.7074
    SETDIJ:  cpu time    0.0080: real time    0.0080
     EDDAV:  cpu time   10.2584: real time   10.2627
       DOS:  cpu time    0.0000: real time    0.0004
    CHARGE:  cpu time    0.4839: real time    0.4838
    MIXING:  cpu time    0.0510: real time    0.0508
    --------------------------------------------
      LOOP:  cpu time   12.5091: real time   12.5132

 eigenvalue-minimisations  :   104
 total energy-change (2. order) : 0.5254715E-01  (-0.2742000E-01)
 number of electron      56.0000013 magnetization 
 augmentation part       -3.9464738 magnetization 

 Broyden mixing:
  rms(total) = 0.61472E-01    rms(broyden)= 0.61457E-01
  rms(prec ) = 0.80910E-01
  weight for this iteration     100.00

 eigenvalues of (default mixing * dielectric matrix)
  average eigenvalue GAMMA=   1.9653
  2.6327  1.6315  1.6315

 Free energy of the ion-electron system (eV)
  ---------------------------------------------------
  alpha Z        PSCENC =         2.23981092
  Ewald energy   TEWEN  =      2629.98113996
  -Hartree energ DENC   =     -3535.97016886
  -exchange      EXHF   =         0.00000000
  -V(xc)+E(xc)   XCENC  =       -41.82455539
  PAW double counting   =      3744.02478694    -3585.57910743
  entropy T*S    EENTRO =        -0.00000000
  eigenvalues    EBANDS =      -553.93472456
  atomic energy  EATOM  =      1239.96520364
  Solvation  Ediel_sol  =         0.00000000
  ---------------------------------------------------
  free energy    TOTEN  =      -101.09761479 eV

  energy without entropy =     -101.09761479  energy(sigma->0) =     -101.09761479


--------------------------------------------------------------------------------------------------------




--------------------------------------- Iteration      1(   9)  ---------------------------------------


    POTLOK:  cpu time    1.7267: real time    1.7397
    SETDIJ:  cpu time    0.0080: real time    0.0078
     EDDAV:  cpu time   11.4923: real time   11.4905
       DOS:  cpu time    0.0000: real time    0.0005
    CHARGE:  cpu time    0.4919: real time    0.4915
    MIXING:  cpu time    0.0520: real time    0.0523
    --------------------------------------------
      LOOP:  cpu time   13.7709: real time   13.7822

 eigenvalue-minimisations  :   120
 total energy-change (2. order) : 0.3593385E-01  (-0.7870831E-02)
 number of electron      56.0000013 magnetization 
 augmentation part       -3.9318853 magnetization 

 Broyden mixing:
  rms(total) = 0.32910E-01    rms(broyden)= 0.32909E-01
  rms(prec ) = 0.44519E-01
  weight for this iteration     100.00

 eigenvalues of (default mixing * dielectric matrix)
  average eigenvalue GAMMA=   1.7489
  2.5205  1.8279  1.8279  0.8191

 Free energy of the ion-electron system (eV)
  ---------------------------------------------------
  alpha Z        PSCENC =         2.23981092
  Ewald energy   TEWEN  =      2629.98113996
  -Hartree energ DENC   =     -3547.83081486
  -exchange      EXHF   =         0.00000000
  -V(xc)+E(xc)   XCENC  =       -41.13301524
  PAW double counting   =      3880.60086823    -3722.19571488
  entropy T*S    EENTRO =        -0.00000000
  eigenvalues    EBANDS =      -542.68915872
  atomic energy  EATOM  =      1239.96520364
  Solvation  Ediel_sol  =         0.00000000
  ---------------------------------------------------
  free energy    TOTEN  =      -101.06168095 eV

  energy without entropy =     -101.06168095  energy(sigma->0) =     -101.06168095


--------------------------------------------------------------------------------------------------------




--------------------------------------- Iteration      1(  10)  ---------------------------------------


    POTLOK:  cpu time    1.7207: real time    1.7197
    SETDIJ:  cpu time    0.0080: real time    0.0080
     EDDAV:  cpu time   10.8773: real time   10.8811
       DOS:  cpu time    0.0000: real time    0.0003
    CHARGE:  cpu time    0.4889: real time    0.4893
    MIXING:  cpu time    0.0570: real time    0.0569
    --------------------------------------------
      LOOP:  cpu time   13.1520: real time   13.1554

 eigenvalue-minimisations  :   112
 total energy-change (2. order) : 0.1032935E-04  (-0.2852475E-03)
 number of electron      56.0000013 magnetization 
 augmentation part       -3.9311785 magnetization 

 Broyden mixing:
  rms(total) = 0.15923E-01    rms(broyden)= 0.15923E-01
  rms(prec ) = 0.28982E-01
  weight for this iteration     100.00

 eigenvalues of (default mixing * dielectric matrix)
  average eigenvalue GAMMA=   1.8475
  2.7609  2.1941  1.0879  1.5974  1.5974

 Free energy of the ion-electron system (eV)
  ---------------------------------------------------
  alpha Z        PSCENC =         2.23981092
  Ewald energy   TEWEN  =      2629.98113996
  -Hartree energ DENC   =     -3549.95872906
  -exchange      EXHF   =         0.00000000
  -V(xc)+E(xc)   XCENC  =       -41.11792217
  PAW double counting   =      3814.21904366    -3655.76970311
  entropy T*S    EENTRO =        -0.00000000
  eigenvalues    EBANDS =      -540.62051446
  atomic energy  EATOM  =      1239.96520364
  Solvation  Ediel_sol  =         0.00000000
  ---------------------------------------------------
  free energy    TOTEN  =      -101.06167062 eV

  energy without entropy =     -101.06167062  energy(sigma->0) =     -101.06167062


--------------------------------------------------------------------------------------------------------




--------------------------------------- Iteration      1(  11)  ---------------------------------------


    POTLOK:  cpu time    1.7417: real time    1.7523
    SETDIJ:  cpu time    0.0130: real time    0.0125
     EDDAV:  cpu time   10.2404: real time   10.2490
       DOS:  cpu time    0.0000: real time    0.0003
    CHARGE:  cpu time    0.4869: real time    0.4859
    MIXING:  cpu time    0.0590: real time    0.0586
    --------------------------------------------
      LOOP:  cpu time   12.5411: real time   12.5585

 eigenvalue-minimisations  :   104
 total energy-change (2. order) : 0.8447585E-04  (-0.6209881E-03)
 number of electron      56.0000013 magnetization 
 augmentation part       -3.9302112 magnetization 

 Broyden mixing:
  rms(total) = 0.80777E-02    rms(broyden)= 0.80774E-02
  rms(prec ) = 0.14898E-01
  weight for this iteration     100.00

 eigenvalues of (default mixing * dielectric matrix)
  average eigenvalue GAMMA=   1.8659
  3.2036  2.5885  1.7298  1.7298  1.0477  0.8959

 Free energy of the ion-electron system (eV)
  ---------------------------------------------------
  alpha Z        PSCENC =         2.23981092
  Ewald energy   TEWEN  =      2629.98113996
  -Hartree energ DENC   =     -3556.49217894
  -exchange      EXHF   =         0.00000000
  -V(xc)+E(xc)   XCENC  =       -40.93622421
  PAW double counting   =      3774.11486668    -3615.62365909
  entropy T*S    EENTRO =        -0.00000000
  eigenvalues    EBANDS =      -534.31054510
  atomic energy  EATOM  =      1239.96520364
  Solvation  Ediel_sol  =         0.00000000
  ---------------------------------------------------
  free energy    TOTEN  =      -101.06158614 eV

  energy without entropy =     -101.06158614  energy(sigma->0) =     -101.06158614


--------------------------------------------------------------------------------------------------------




--------------------------------------- Iteration      1(  12)  ---------------------------------------


    POTLOK:  cpu time    1.7317: real time    1.7323
    SETDIJ:  cpu time    0.0090: real time    0.0086
     EDDAV:  cpu time   10.0515: real time   10.0602
       DOS:  cpu time    0.0000: real time    0.0003
    CHARGE:  cpu time    0.4849: real time    0.4839
    MIXING:  cpu time    0.0610: real time    0.0608
    --------------------------------------------
      LOOP:  cpu time   12.3381: real time   12.3460

 eigenvalue-minimisations  :   102
 total energy-change (2. order) :-0.4420278E-02  (-0.1236486E-03)
 number of electron      56.0000013 magnetization 
 augmentation part       -3.9297411 magnetization 

 Broyden mixing:
  rms(total) = 0.56201E-02    rms(broyden)= 0.56201E-02
  rms(prec ) = 0.98208E-02
  weight for this iteration     100.00

 eigenvalues of (default mixing * dielectric matrix)
  average eigenvalue GAMMA=   2.0995
  4.6775  2.6548  2.3031  1.5622  1.5622  0.9682  0.9682

 Free energy of the ion-electron system (eV)
  ---------------------------------------------------
  alpha Z        PSCENC =         2.23981092
  Ewald energy   TEWEN  =      2629.98113996
  -Hartree energ DENC   =     -3559.11315741
  -exchange      EXHF   =         0.00000000
  -V(xc)+E(xc)   XCENC  =       -40.88967014
  PAW double counting   =      3762.38150366    -3603.88449428
  entropy T*S    EENTRO =        -0.00000000
  eigenvalues    EBANDS =      -531.74634276
  atomic energy  EATOM  =      1239.96520364
  Solvation  Ediel_sol  =         0.00000000
  ---------------------------------------------------
  free energy    TOTEN  =      -101.06600642 eV

  energy without entropy =     -101.06600642  energy(sigma->0) =     -101.06600642


--------------------------------------------------------------------------------------------------------




--------------------------------------- Iteration      1(  13)  ---------------------------------------


    POTLOK:  cpu time    1.7387: real time    1.7392
    SETDIJ:  cpu time    0.0080: real time    0.0076
     EDDAV:  cpu time   10.8803: real time   10.8817
       DOS:  cpu time    0.0010: real time    0.0003
    CHARGE:  cpu time    0.4859: real time    0.4864
    MIXING:  cpu time    0.0660: real time    0.0663
    --------------------------------------------
      LOOP:  cpu time   13.1800: real time   13.1815

 eigenvalue-minimisations  :   112
 total energy-change (2. order) :-0.4458466E-02  (-0.1888371E-03)
 number of electron      56.0000013 magnetization 
 augmentation part       -3.9295004 magnetization 

 Broyden mixing:
  rms(total) = 0.35335E-02    rms(broyden)= 0.35333E-02
  rms(prec ) = 0.52285E-02
  weight for this iteration     100.00

 eigenvalues of (default mixing * dielectric matrix)
  average eigenvalue GAMMA=   2.2015
  5.6537  2.8744  2.3362  1.8218  1.8218  1.1689  0.9678  0.9678

 Free energy of the ion-electron system (eV)
  ---------------------------------------------------
  alpha Z        PSCENC =         2.23981092
  Ewald energy   TEWEN  =      2629.98113996
  -Hartree energ DENC   =     -3561.93194573
  -exchange      EXHF   =         0.00000000
  -V(xc)+E(xc)   XCENC  =       -40.83778944
  PAW double counting   =      3766.36346627    -3607.87437038
  entropy T*S    EENTRO =        -0.00000000
  eigenvalues    EBANDS =      -528.97598011
  atomic energy  EATOM  =      1239.96520364
  Solvation  Ediel_sol  =         0.00000000
  ---------------------------------------------------
  free energy    TOTEN  =      -101.07046489 eV

  energy without entropy =     -101.07046489  energy(sigma->0) =     -101.07046489


--------------------------------------------------------------------------------------------------------




--------------------------------------- Iteration      1(  14)  ---------------------------------------


    POTLOK:  cpu time    1.7397: real time    1.7409
    SETDIJ:  cpu time    0.0080: real time    0.0079
     EDDAV:  cpu time   10.8963: real time   10.8929
       DOS:  cpu time    0.0000: real time    0.0003
    CHARGE:  cpu time    0.4769: real time    0.4752
    MIXING:  cpu time    0.0840: real time    0.0849
    --------------------------------------------
      LOOP:  cpu time   13.2050: real time   13.2020

 eigenvalue-minimisations  :   112
 total energy-change (2. order) :-0.4642605E-02  (-0.4170023E-04)
 number of electron      56.0000013 magnetization 
 augmentation part       -3.9289031 magnetization 

 Broyden mixing:
  rms(total) = 0.14992E-02    rms(broyden)= 0.14992E-02
  rms(prec ) = 0.26425E-02
  weight for this iteration     100.00

 eigenvalues of (default mixing * dielectric matrix)
  average eigenvalue GAMMA=   2.2974
  6.5734  2.8399  2.8399  2.1507  1.6344  1.6344  1.0789  0.9624  0.9624

 Free energy of the ion-electron system (eV)
  ---------------------------------------------------
  alpha Z        PSCENC =         2.23981092
  Ewald energy   TEWEN  =      2629.98113996
  -Hartree energ DENC   =     -3562.64236423
  -exchange      EXHF   =         0.00000000
  -V(xc)+E(xc)   XCENC  =       -40.85174430
  PAW double counting   =      3766.62665551    -3608.13941716
  entropy T*S    EENTRO =        -0.00000000
  eigenvalues    EBANDS =      -528.25439183
  atomic energy  EATOM  =      1239.96520364
  Solvation  Ediel_sol  =         0.00000000
  ---------------------------------------------------
  free energy    TOTEN  =      -101.07510749 eV

  energy without entropy =     -101.07510749  energy(sigma->0) =     -101.07510749


--------------------------------------------------------------------------------------------------------




--------------------------------------- Iteration      1(  15)  ---------------------------------------


    POTLOK:  cpu time    1.7277: real time    1.7278
    SETDIJ:  cpu time    0.0080: real time    0.0082
     EDDAV:  cpu time   10.8763: real time   10.8726
       DOS:  cpu time    0.0000: real time    0.0003
    CHARGE:  cpu time    0.4819: real time    0.4807
    MIXING:  cpu time    0.0810: real time    0.0813
    --------------------------------------------
      LOOP:  cpu time   13.1750: real time   13.1708

 eigenvalue-minimisations  :   112
 total energy-change (2. order) :-0.3940374E-02  (-0.4415740E-04)
 number of electron      56.0000013 magnetization 
 augmentation part       -3.9286821 magnetization 

 Broyden mixing:
  rms(total) = 0.14221E-02    rms(broyden)= 0.14221E-02
  rms(prec ) = 0.18883E-02
  weight for this iteration     100.00

 eigenvalues of (default mixing * dielectric matrix)
  average eigenvalue GAMMA=   2.3122
  6.7359  3.8161  2.6312  1.9445  1.9445  1.9010  1.2570  0.9318  0.9801  0.9801

 Free energy of the ion-electron system (eV)
  ---------------------------------------------------
  alpha Z        PSCENC =         2.23981092
  Ewald energy   TEWEN  =      2629.98113996
  -Hartree energ DENC   =     -3562.83788130
  -exchange      EXHF   =         0.00000000
  -V(xc)+E(xc)   XCENC  =       -40.85966302
  PAW double counting   =      3770.32164499    -3611.83398027
  entropy T*S    EENTRO =        -0.00000000
  eigenvalues    EBANDS =      -528.05532277
  atomic energy  EATOM  =      1239.96520364
  Solvation  Ediel_sol  =         0.00000000
  ---------------------------------------------------
  free energy    TOTEN  =      -101.07904786 eV

  energy without entropy =     -101.07904786  energy(sigma->0) =     -101.07904786


--------------------------------------------------------------------------------------------------------




--------------------------------------- Iteration      1(  16)  ---------------------------------------


    POTLOK:  cpu time    1.7247: real time    1.7249
    SETDIJ:  cpu time    0.0080: real time    0.0077
     EDDAV:  cpu time   10.8963: real time   10.8924
       DOS:  cpu time    0.0010: real time    0.0006
    CHARGE:  cpu time    0.4909: real time    0.4915
    MIXING:  cpu time    0.0900: real time    0.0896
    --------------------------------------------
      LOOP:  cpu time   13.2110: real time   13.2068

 eigenvalue-minimisations  :   112
 total energy-change (2. order) :-0.1139461E-02  (-0.6873454E-05)
 number of electron      56.0000013 magnetization 
 augmentation part       -3.9289301 magnetization 

 Broyden mixing:
  rms(total) = 0.62355E-03    rms(broyden)= 0.62354E-03
  rms(prec ) = 0.93788E-03
  weight for this iteration     100.00

 eigenvalues of (default mixing * dielectric matrix)
  average eigenvalue GAMMA=   2.4099
  7.3187  4.6816  2.6317  2.6317  1.8009  1.8009  1.3703  1.3703  0.9706  0.9706
  0.9620

 Free energy of the ion-electron system (eV)
  ---------------------------------------------------
  alpha Z        PSCENC =         2.23981092
  Ewald energy   TEWEN  =      2629.98113996
  -Hartree energ DENC   =     -3562.94971567
  -exchange      EXHF   =         0.00000000
  -V(xc)+E(xc)   XCENC  =       -40.85685260
  PAW double counting   =      3770.48601125    -3611.99729486
  entropy T*S    EENTRO =        -0.00000000
  eigenvalues    EBANDS =      -527.94848996
  atomic energy  EATOM  =      1239.96520364
  Solvation  Ediel_sol  =         0.00000000
  ---------------------------------------------------
  free energy    TOTEN  =      -101.08018733 eV

  energy without entropy =     -101.08018733  energy(sigma->0) =     -101.08018733


--------------------------------------------------------------------------------------------------------




--------------------------------------- Iteration      1(  17)  ---------------------------------------


    POTLOK:  cpu time    1.7237: real time    1.7233
    SETDIJ:  cpu time    0.0080: real time    0.0077
     EDDAV:  cpu time   10.2154: real time   10.2117
       DOS:  cpu time    0.0010: real time    0.0009
    CHARGE:  cpu time    0.4849: real time    0.4852
    MIXING:  cpu time    0.0980: real time    0.0981
    --------------------------------------------
      LOOP:  cpu time   12.5311: real time   12.5268

 eigenvalue-minimisations  :   104
 total energy-change (2. order) :-0.9928168E-03  (-0.7869536E-05)
 number of electron      56.0000013 magnetization 
 augmentation part       -3.9291183 magnetization 

 Broyden mixing:
  rms(total) = 0.33561E-03    rms(broyden)= 0.33557E-03
  rms(prec ) = 0.47725E-03
  weight for this iteration     100.00

 eigenvalues of (default mixing * dielectric matrix)
  average eigenvalue GAMMA=   2.4056
  7.4935  4.9656  2.6758  2.6758  1.9620  1.9620  1.5321  1.5321  1.1466  0.9717
  0.9717  0.9784

 Free energy of the ion-electron system (eV)
  ---------------------------------------------------
  alpha Z        PSCENC =         2.23981092
  Ewald energy   TEWEN  =      2629.98113996
  -Hartree energ DENC   =     -3562.95590290
  -exchange      EXHF   =         0.00000000
  -V(xc)+E(xc)   XCENC  =       -40.86041898
  PAW double counting   =      3768.53420033    -3610.04432713
  entropy T*S    EENTRO =        -0.00000000
  eigenvalues    EBANDS =      -527.94088598
  atomic energy  EATOM  =      1239.96520364
  Solvation  Ediel_sol  =         0.00000000
  ---------------------------------------------------
  free energy    TOTEN  =      -101.08118014 eV

  energy without entropy =     -101.08118014  energy(sigma->0) =     -101.08118014


--------------------------------------------------------------------------------------------------------




--------------------------------------- Iteration      1(  18)  ---------------------------------------


    POTLOK:  cpu time    1.7247: real time    1.7238
    SETDIJ:  cpu time    0.0080: real time    0.0080
     EDDAV:  cpu time   10.2884: real time   10.2854
       DOS:  cpu time    0.0010: real time    0.0007
    CHARGE:  cpu time    0.4819: real time    0.4821
    MIXING:  cpu time    0.1080: real time    0.1079
    --------------------------------------------
      LOOP:  cpu time   12.6121: real time   12.6079

 eigenvalue-minimisations  :   104
 total energy-change (2. order) :-0.2993983E-03  (-0.1021085E-05)
 number of electron      56.0000013 magnetization 
 augmentation part       -3.9290881 magnetization 

 Broyden mixing:
  rms(total) = 0.15874E-03    rms(broyden)= 0.15871E-03
  rms(prec ) = 0.24149E-03
  weight for this iteration     100.00

 eigenvalues of (default mixing * dielectric matrix)
  average eigenvalue GAMMA=   2.4886
  8.1513  5.7986  3.1538  2.5881  2.3777  1.7887  1.7887  1.3741  1.3741  0.9717
  0.9717  1.0068  1.0068

 Free energy of the ion-electron system (eV)
  ---------------------------------------------------
  alpha Z        PSCENC =         2.23981092
  Ewald energy   TEWEN  =      2629.98113996
  -Hartree energ DENC   =     -3563.00235372
  -exchange      EXHF   =         0.00000000
  -V(xc)+E(xc)   XCENC  =       -40.85915430
  PAW double counting   =      3768.46041995    -3609.97118693
  entropy T*S    EENTRO =        -0.00000000
  eigenvalues    EBANDS =      -527.89535905
  atomic energy  EATOM  =      1239.96520364
  Solvation  Ediel_sol  =         0.00000000
  ---------------------------------------------------
  free energy    TOTEN  =      -101.08147954 eV

  energy without entropy =     -101.08147954  energy(sigma->0) =     -101.08147954


--------------------------------------------------------------------------------------------------------




--------------------------------------- Iteration      1(  19)  ---------------------------------------


    POTLOK:  cpu time    1.7507: real time    1.7520
    SETDIJ:  cpu time    0.0070: real time    0.0076
     EDDAV:  cpu time   10.2694: real time   10.2654
       DOS:  cpu time    0.0000: real time    0.0005
    CHARGE:  cpu time    0.4849: real time    0.4845
    MIXING:  cpu time    0.1200: real time    0.1205
    --------------------------------------------
      LOOP:  cpu time   12.6321: real time   12.6306

 eigenvalue-minimisations  :   104
 total energy-change (2. order) :-0.1406493E-03  (-0.5071200E-06)
 number of electron      56.0000013 magnetization 
 augmentation part       -3.9291110 magnetization 

 Broyden mixing:
  rms(total) = 0.14364E-03    rms(broyden)= 0.14363E-03
  rms(prec ) = 0.18560E-03
  weight for this iteration     100.00

 eigenvalues of (default mixing * dielectric matrix)
  average eigenvalue GAMMA=   2.4848
  8.3645  6.0623  3.3430  2.6920  2.1198  2.1198  1.7601  1.7601  1.3512  1.3512
  0.9943  0.9943  0.9372  0.9372

 Free energy of the ion-electron system (eV)
  ---------------------------------------------------
  alpha Z        PSCENC =         2.23981092
  Ewald energy   TEWEN  =      2629.98113996
  -Hartree energ DENC   =     -3563.00990140
  -exchange      EXHF   =         0.00000000
  -V(xc)+E(xc)   XCENC  =       -40.85846782
  PAW double counting   =      3768.49086972    -3610.00178263
  entropy T*S    EENTRO =        -0.00000000
  eigenvalues    EBANDS =      -527.88849258
  atomic energy  EATOM  =      1239.96520364
  Solvation  Ediel_sol  =         0.00000000
  ---------------------------------------------------
  free energy    TOTEN  =      -101.08162019 eV

  energy without entropy =     -101.08162019  energy(sigma->0) =     -101.08162019


--------------------------------------------------------------------------------------------------------




--------------------------------------- Iteration      1(  20)  ---------------------------------------


    POTLOK:  cpu time    1.7307: real time    1.8325
    SETDIJ:  cpu time    0.0080: real time    0.0083
     EDDAV:  cpu time    9.0556: real time    9.0605
       DOS:  cpu time    0.0000: real time    0.0005
    CHARGE:  cpu time    0.4859: real time    0.4849
    MIXING:  cpu time    0.1310: real time    0.1306
    --------------------------------------------
      LOOP:  cpu time   11.4113: real time   11.5172

 eigenvalue-minimisations  :    88
 total energy-change (2. order) :-0.5694731E-04  (-0.1107876E-06)
 number of electron      56.0000013 magnetization 
 augmentation part       -3.9290995 magnetization 

 Broyden mixing:
  rms(total) = 0.56235E-04    rms(broyden)= 0.56234E-04
  rms(prec ) = 0.80052E-04
  weight for this iteration     100.00

 eigenvalues of (default mixing * dielectric matrix)
  average eigenvalue GAMMA=   2.5153
  8.6124  6.3479  3.9749  2.7677  2.6114  1.9683  1.8155  1.8155  1.3977  1.3977
  1.1918  0.9817  0.9817  0.9773  0.8884

 Free energy of the ion-electron system (eV)
  ---------------------------------------------------
  alpha Z        PSCENC =         2.23981092
  Ewald energy   TEWEN  =      2629.98113996
  -Hartree energ DENC   =     -3563.01310985
  -exchange      EXHF   =         0.00000000
  -V(xc)+E(xc)   XCENC  =       -40.85935340
  PAW double counting   =      3768.33360657    -3609.84446939
  entropy T*S    EENTRO =        -0.00000000
  eigenvalues    EBANDS =      -527.88450559
  atomic energy  EATOM  =      1239.96520364
  Solvation  Ediel_sol  =         0.00000000
  ---------------------------------------------------
  free energy    TOTEN  =      -101.08167714 eV

  energy without entropy =     -101.08167714  energy(sigma->0) =     -101.08167714


--------------------------------------------------------------------------------------------------------




--------------------------------------- Iteration      1(  21)  ---------------------------------------


    POTLOK:  cpu time    1.7247: real time    1.7560
    SETDIJ:  cpu time    0.0080: real time    0.0081
     EDDAV:  cpu time    8.4447: real time    8.4428
       DOS:  cpu time    0.0010: real time    0.0004
    CHARGE:  cpu time    0.4839: real time    0.4846
    MIXING:  cpu time    0.1420: real time    0.1414
    --------------------------------------------
      LOOP:  cpu time   10.8044: real time   10.8333

 eigenvalue-minimisations  :    80
 total energy-change (2. order) :-0.2325528E-04  (-0.7083825E-07)
 number of electron      56.0000013 magnetization 
 augmentation part       -3.9290858 magnetization 

 Broyden mixing:
  rms(total) = 0.48198E-04    rms(broyden)= 0.48195E-04
  rms(prec ) = 0.62831E-04
  weight for this iteration     100.00

 eigenvalues of (default mixing * dielectric matrix)
  average eigenvalue GAMMA=   2.5063
  8.5526  6.6327  4.1145  2.8860  2.6255  2.0530  2.0530  1.7340  1.7340  1.5663
  0.9523  0.9523  1.1180  1.0640  1.0640  0.9991

 Free energy of the ion-electron system (eV)
  ---------------------------------------------------
  alpha Z        PSCENC =         2.23981092
  Ewald energy   TEWEN  =      2629.98113996
  -Hartree energ DENC   =     -3563.02078435
  -exchange      EXHF   =         0.00000000
  -V(xc)+E(xc)   XCENC  =       -40.85927124
  PAW double counting   =      3768.44475799    -3609.95571049
  entropy T*S    EENTRO =        -0.00000000
  eigenvalues    EBANDS =      -527.87684681
  atomic energy  EATOM  =      1239.96520364
  Solvation  Ediel_sol  =         0.00000000
  ---------------------------------------------------
  free energy    TOTEN  =      -101.08170039 eV

  energy without entropy =     -101.08170039  energy(sigma->0) =     -101.08170039


--------------------------------------------------------------------------------------------------------




--------------------------------------- Iteration      1(  22)  ---------------------------------------


    POTLOK:  cpu time    1.7187: real time    1.7180
    SETDIJ:  cpu time    0.0080: real time    0.0078
     EDDAV:  cpu time    9.0796: real time    9.0825
       DOS:  cpu time    0.0000: real time    0.0003
    CHARGE:  cpu time    0.4859: real time    0.4855
    MIXING:  cpu time    0.1540: real time    0.1539
    --------------------------------------------
      LOOP:  cpu time   11.4463: real time   11.4479

 eigenvalue-minimisations  :    88
 total energy-change (2. order) :-0.7911649E-05  (-0.1751639E-07)
 number of electron      56.0000013 magnetization 
 augmentation part       -3.9290956 magnetization 

 Broyden mixing:
  rms(total) = 0.18355E-04    rms(broyden)= 0.18355E-04
  rms(prec ) = 0.26218E-04
  weight for this iteration     100.00

 eigenvalues of (default mixing * dielectric matrix)
  average eigenvalue GAMMA=   2.5267
  8.8078  6.7516  4.6300  3.2008  2.5608  2.5608  1.8594  1.8594  1.6937  1.6937
  1.2243  1.2243  0.9582  0.9582  1.0025  0.9840  0.9840

 Free energy of the ion-electron system (eV)
  ---------------------------------------------------
  alpha Z        PSCENC =         2.23981092
  Ewald energy   TEWEN  =      2629.98113996
  -Hartree energ DENC   =     -3563.01912446
  -exchange      EXHF   =         0.00000000
  -V(xc)+E(xc)   XCENC  =       -40.85916776
  PAW double counting   =      3768.48633518    -3609.99722094
  entropy T*S    EENTRO =        -0.00000000
  eigenvalues    EBANDS =      -527.87868483
  atomic energy  EATOM  =      1239.96520364
  Solvation  Ediel_sol  =         0.00000000
  ---------------------------------------------------
  free energy    TOTEN  =      -101.08170830 eV

  energy without entropy =     -101.08170830  energy(sigma->0) =     -101.08170830


--------------------------------------------------------------------------------------------------------




--------------------------------------- Iteration      1(  23)  ---------------------------------------


    POTLOK:  cpu time    1.7207: real time    1.7202
    SETDIJ:  cpu time    0.0080: real time    0.0083
     EDDAV:  cpu time    8.4297: real time    8.4353
       DOS:  cpu time    0.0000: real time    0.0003
    CHARGE:  cpu time    0.4859: real time    0.4895
    MIXING:  cpu time    0.1670: real time    0.1656
    --------------------------------------------
      LOOP:  cpu time   10.8114: real time   10.8192

 eigenvalue-minimisations  :    80
 total energy-change (2. order) :-0.3618573E-05  (-0.8457107E-08)
 number of electron      56.0000013 magnetization 
 augmentation part       -3.9291034 magnetization 

 Broyden mixing:
  rms(total) = 0.15636E-04    rms(broyden)= 0.15635E-04
  rms(prec ) = 0.20019E-04
  weight for this iteration     100.00

 eigenvalues of (default mixing * dielectric matrix)
  average eigenvalue GAMMA=   2.4939
  8.8834  6.7926  4.7795  3.1657  2.6033  2.6033  1.9313  1.9313  1.7804  1.6034
  1.6034  1.1335  1.1335  1.0563  0.9088  0.9912  0.9948  0.9948

 Free energy of the ion-electron system (eV)
  ---------------------------------------------------
  alpha Z        PSCENC =         2.23981092
  Ewald energy   TEWEN  =      2629.98113996
  -Hartree energ DENC   =     -3563.01843375
  -exchange      EXHF   =         0.00000000
  -V(xc)+E(xc)   XCENC  =       -40.85927383
  PAW double counting   =      3768.46366977    -3609.97451939
  entropy T*S    EENTRO =        -0.00000000
  eigenvalues    EBANDS =      -527.87930924
  atomic energy  EATOM  =      1239.96520364
  Solvation  Ediel_sol  =         0.00000000
  ---------------------------------------------------
  free energy    TOTEN  =      -101.08171192 eV

  energy without entropy =     -101.08171192  energy(sigma->0) =     -101.08171192


--------------------------------------------------------------------------------------------------------




--------------------------------------- Iteration      1(  24)  ---------------------------------------


    POTLOK:  cpu time    1.7257: real time    1.7262
    SETDIJ:  cpu time    0.0080: real time    0.0080
     EDDAV:  cpu time    9.0416: real time    9.0460
       DOS:  cpu time    0.0010: real time    0.0004
    CHARGE:  cpu time    0.4869: real time    0.4869
    MIXING:  cpu time    0.1790: real time    0.1798
    --------------------------------------------
      LOOP:  cpu time   11.4423: real time   11.4473

 eigenvalue-minimisations  :    88
 total energy-change (2. order) :-0.2072947E-05  (-0.2593808E-08)
 number of electron      56.0000013 magnetization 
 augmentation part       -3.9291025 magnetization 

 Broyden mixing:
  rms(total) = 0.71865E-05    rms(broyden)= 0.71862E-05
  rms(prec ) = 0.98897E-05
  weight for this iteration     100.00

 eigenvalues of (default mixing * dielectric matrix)
  average eigenvalue GAMMA=   2.5499
  8.8581  7.0858  5.3974  3.8099  2.9224  2.4118  2.4118  1.8546  1.8546  1.7012
  1.7012  1.2196  1.2196  1.1214  0.9852  0.9852  0.9532  0.9532  1.0015

 Free energy of the ion-electron system (eV)
  ---------------------------------------------------
  alpha Z        PSCENC =         2.23981092
  Ewald energy   TEWEN  =      2629.98113996
  -Hartree energ DENC   =     -3563.01908425
  -exchange      EXHF   =         0.00000000
  -V(xc)+E(xc)   XCENC  =       -40.85928571
  PAW double counting   =      3768.41961176    -3609.93048812
  entropy T*S    EENTRO =        -0.00000000
  eigenvalues    EBANDS =      -527.87862219
  atomic energy  EATOM  =      1239.96520364
  Solvation  Ediel_sol  =         0.00000000
  ---------------------------------------------------
  free energy    TOTEN  =      -101.08171400 eV

  energy without entropy =     -101.08171400  energy(sigma->0) =     -101.08171400


--------------------------------------------------------------------------------------------------------




--------------------------------------- Iteration      1(  25)  ---------------------------------------


    POTLOK:  cpu time    1.7407: real time    1.7652
    SETDIJ:  cpu time    0.0140: real time    0.0140
     EDDAV:  cpu time    8.4237: real time    8.4207
       DOS:  cpu time    0.0010: real time    0.0003
    --------------------------------------------
      LOOP:  cpu time   10.1795: real time   10.2003

 eigenvalue-minimisations  :    80
 total energy-change (2. order) :-0.8851994E-06  (-0.1506180E-08)
 number of electron      56.0000013 magnetization 
 augmentation part       -3.9291025 magnetization 

 Free energy of the ion-electron system (eV)
  ---------------------------------------------------
  alpha Z        PSCENC =         2.23981092
  Ewald energy   TEWEN  =      2629.98113996
  -Hartree energ DENC   =     -3563.02006579
  -exchange      EXHF   =         0.00000000
  -V(xc)+E(xc)   XCENC  =       -40.85925938
  PAW double counting   =      3768.42574240    -3609.93662575
  entropy T*S    EENTRO =        -0.00000000
  eigenvalues    EBANDS =      -527.87766087
  atomic energy  EATOM  =      1239.96520364
  Solvation  Ediel_sol  =         0.00000000
  ---------------------------------------------------
  free energy    TOTEN  =      -101.08171488 eV

  energy without entropy =     -101.08171488  energy(sigma->0) =     -101.08171488


--------------------------------------------------------------------------------------------------------




 average (electrostatic) potential at core
  the test charge radii are     0.9892  1.1631  0.5201
  (the norm of the test charge is              1.0000)
       1 -93.3917       2 -93.4649       3 -93.4718       4 -93.5054       5 -93.5118
       6 -40.4434       7 -40.3814       8 -40.3416       9 -40.4223      10 -40.4852
      11 -40.6917      12 -40.6954      13 -41.0781      14 -40.6925      15 -40.6918
      16 -40.7038      17 -40.6995      18 -40.6950      19 -41.0532      20 -41.0545
      21 -41.0596      22 -41.0653      23 -40.6943      24 -40.7039      25 -41.0684
      26 -41.0641
 
 
 
 E-fermi :  -5.4066     XC(G=0):  -0.6088     alpha+bet : -0.3347


 k-point     1 :       0.0000    0.0000    0.0000
  band No.  band energies     occupation 
      1     -15.3427      2.00000
      2     -14.3668      2.00000
      3     -14.3168      2.00000
      4     -13.9315      2.00000
      5     -12.9398      2.00000
      6     -12.7074      2.00000
      7     -11.7587      2.00000
      8     -11.6417      2.00000
      9     -11.4109      2.00000
     10     -10.4945      2.00000
     11      -8.9839      2.00000
     12      -8.6347      2.00000
     13      -8.6249      2.00000
     14      -8.6184      2.00000
     15      -8.2065      2.00000
     16      -8.1970      2.00000
     17      -8.1864      2.00000
     18      -7.8656      2.00000
     19      -7.8611      2.00000
     20      -7.8529      2.00000
     21      -6.7740      2.00000
     22      -6.7608      2.00000
     23      -6.4736      2.00000
     24      -6.4639      2.00000
     25      -6.4527      2.00000
     26      -6.3654      2.00000
     27      -6.3589      2.00000
     28      -6.3471      2.00000
     29      -1.6575      0.00000
     30      -1.3910      0.00000
     31      -1.3158      0.00000
     32      -1.2364      0.00000
     33      -1.1630      0.00000
     34      -1.0986      0.00000
     35      -1.0033      0.00000
     36      -0.9173      0.00000
     37      -0.8771      0.00000
     38      -0.6162      0.00000
     39      -0.4025      0.00000
     40      -0.2757      0.00000
     41      -0.2267      0.00000
     42      -0.1939      0.00000


--------------------------------------------------------------------------------------------------------


 soft charge-density along one line, spin component           1
         0         1         2         3         4         5         6         7         8         9
 total charge-density along one line
 
 pseudopotential strength for first ion, spin component:           1
 19.613  27.370   0.001   0.003   0.001   0.003   0.005   0.003
 27.370  38.201   0.002   0.004   0.002   0.004   0.007   0.003
  0.001   0.002   4.359   0.000   0.000   8.131   0.000   0.000
  0.003   0.004   0.000   4.359   0.000   0.000   8.131   0.000
  0.001   0.002   0.000   0.000   4.358   0.000   0.000   8.130
  0.003   0.004   8.131   0.000   0.000  15.178   0.001   0.001
  0.005   0.007   0.000   8.131   0.000   0.001  15.177   0.001
  0.003   0.003   0.000   0.000   8.130   0.001   0.001  15.177
 total augmentation occupancy for first ion, spin component:           1
  5.563  -2.041   0.051  -0.337  -0.055  -0.014   0.101   0.017
 -2.041   0.812  -0.035   0.204   0.031   0.008  -0.045  -0.007
  0.051  -0.035   2.839  -0.111  -0.030  -0.616   0.038   0.009
 -0.337   0.204  -0.111   3.287   0.050   0.039  -0.776  -0.019
 -0.055   0.031  -0.030   0.050   2.846   0.009  -0.019  -0.616
 -0.014   0.008  -0.616   0.039   0.009   0.140  -0.011  -0.002
  0.101  -0.045   0.038  -0.776  -0.019  -0.011   0.186   0.006
  0.017  -0.007   0.009  -0.019  -0.616  -0.002   0.006   0.140


------------------------ aborting loop because EDIFF is reached ----------------------------------------


    CHARGE:  cpu time    0.4809: real time    0.4811
    FORLOC:  cpu time    0.1740: real time    0.1733
    FORNL :  cpu time    1.1268: real time    1.1264
    STRESS:  cpu time    8.6397: real time    8.6377
    FORCOR:  cpu time    1.7187: real time    1.7180
    FORHAR:  cpu time    0.5829: real time    0.5832
    MIXING:  cpu time    0.1910: real time    0.1901
    OFIELD:  cpu time    0.0000: real time    0.0000

  FORCE on cell =-STRESS in cart. coord.  units (eV):
  Direction    XX          YY          ZZ          XY          YZ          ZX
  --------------------------------------------------------------------------------------
  Alpha Z     2.23981     2.23981     2.23981
  Ewald     876.64706   876.62235   876.71007    -0.21850     0.02563    -0.50464
  Hartree  1187.85897  1187.13384  1188.02722    -0.31953    -0.13376    -0.11281
  E(xc)    -178.80337  -178.79789  -178.67522     0.08423     0.02371     0.02643
  Local   -2557.67953 -2556.92932 -2557.79391     0.56703     0.10210     0.64793
  n-local   255.64881   255.66991   254.92563    -0.42135    -0.09741    -0.18065
  augment   -20.60652   -20.61494   -20.60515     0.00310    -0.00034    -0.00297
  Kinetic   432.39851   432.32935   432.68839     0.22532     0.06262     0.09969
  Fock        0.00000     0.00000     0.00000     0.00000     0.00000     0.00000
  -------------------------------------------------------------------------------------
  Total      -2.29626    -2.34689    -2.48316    -0.07969    -0.01745    -0.02702
  in kB      -0.45988    -0.47002    -0.49731    -0.01596    -0.00349    -0.00541
  external pressure =       -0.48 kB  Pullay stress =        0.00 kB


 VOLUME and BASIS-vectors are now :
 -----------------------------------------------------------------------------
  energy-cutoff  :      400.00
[...]
 next E    =  -101.356456   (d E  =  -0.00013)


--------------------------------------------------------------------------------------------------------


    WAVPRE:  cpu time    0.5829: real time    0.5842
    FEWALD:  cpu time    0.0010: real time    0.0014
    ORTHCH:  cpu time    1.0048: real time    1.0050
     LOOP+:  cpu time   66.4059: real time   66.4553


--------------------------------------- Iteration     19(   1)  ---------------------------------------


    POTLOK:  cpu time    1.7307: real time    1.7329
    SETDIJ:  cpu time    0.0080: real time    0.0081
     EDDAV:  cpu time    9.2786: real time    9.2988
       DOS:  cpu time    0.0000: real time    0.0005
    CHARGE:  cpu time    0.4899: real time    0.4899
    MIXING:  cpu time    0.0430: real time    0.0433
    --------------------------------------------
      LOOP:  cpu time   11.5502: real time   11.5735

 eigenvalue-minimisations  :    92
 total energy-change (2. order) :-0.3858913E-05  (-0.2728573E-04)
 number of electron      55.9999991 magnetization 
 augmentation part       -3.9185460 magnetization 

 Broyden mixing:
  rms(total) = 0.53291E-03    rms(broyden)= 0.53276E-03
  rms(prec ) = 0.56182E-03
  weight for this iteration     100.00

 Free energy of the ion-electron system (eV)
  ---------------------------------------------------
  alpha Z        PSCENC =         2.23981092
  Ewald energy   TEWEN  =      2612.67577294
  -Hartree energ DENC   =     -3545.89354801
  -exchange      EXHF   =         0.00000000
  -V(xc)+E(xc)   XCENC  =       -40.43697674
  PAW double counting   =      3929.65314479    -3771.20350856
  entropy T*S    EENTRO =        -0.00000000
  eigenvalues    EBANDS =      -528.35635557
  atomic energy  EATOM  =      1239.96520364
  Solvation  Ediel_sol  =         0.00000000
  ---------------------------------------------------
  free energy    TOTEN  =      -101.35645659 eV

  energy without entropy =     -101.35645659  energy(sigma->0) =     -101.35645659


--------------------------------------------------------------------------------------------------------




--------------------------------------- Iteration     19(   2)  ---------------------------------------


    POTLOK:  cpu time    1.7327: real time    1.7320
    SETDIJ:  cpu time    0.0080: real time    0.0077
     EDDAV:  cpu time   10.8743: real time   10.8710
       DOS:  cpu time    0.0010: real time    0.0004
    CHARGE:  cpu time    0.4849: real time    0.4852
    MIXING:  cpu time    0.0460: real time    0.0465
    --------------------------------------------
      LOOP:  cpu time   13.1470: real time   13.1429

 eigenvalue-minimisations  :   112
 total energy-change (2. order) :-0.1064932E-05  (-0.1245153E-05)
 number of electron      55.9999991 magnetization 
 augmentation part       -3.9185482 magnetization 

 Broyden mixing:
  rms(total) = 0.34836E-03    rms(broyden)= 0.34825E-03
  rms(prec ) = 0.37294E-03
  weight for this iteration     100.00

 eigenvalues of (default mixing * dielectric matrix)
  average eigenvalue GAMMA=   0.9258
  0.9258

 Free energy of the ion-electron system (eV)
  ---------------------------------------------------
  alpha Z        PSCENC =         2.23981092
  Ewald energy   TEWEN  =      2612.67577294
  -Hartree energ DENC   =     -3545.89215241
  -exchange      EXHF   =         0.00000000
  -V(xc)+E(xc)   XCENC  =       -40.43698021
  PAW double counting   =      3929.51878435    -3771.06907690
  entropy T*S    EENTRO =        -0.00000000
  eigenvalues    EBANDS =      -528.35781998
  atomic energy  EATOM  =      1239.96520364
  Solvation  Ediel_sol  =         0.00000000
  ---------------------------------------------------
  free energy    TOTEN  =      -101.35645765 eV

  energy without entropy =     -101.35645765  energy(sigma->0) =     -101.35645765


--------------------------------------------------------------------------------------------------------




--------------------------------------- Iteration     19(   3)  ---------------------------------------


    POTLOK:  cpu time    1.7307: real time    1.7297
    SETDIJ:  cpu time    0.0080: real time    0.0082
     EDDAV:  cpu time    7.8558: real time    7.8747
       DOS:  cpu time    0.0000: real time    0.0003
    --------------------------------------------
      LOOP:  cpu time    9.5945: real time    9.6128

 eigenvalue-minimisations  :    72
 total energy-change (2. order) :-0.6802793E-07  (-0.3528400E-07)
 number of electron      55.9999991 magnetization 
 augmentation part       -3.9185482 magnetization 

 Free energy of the ion-electron system (eV)
  ---------------------------------------------------
  alpha Z        PSCENC =         2.23981092
  Ewald energy   TEWEN  =      2612.67577294
  -Hartree energ DENC   =     -3545.89149898
  -exchange      EXHF   =         0.00000000
  -V(xc)+E(xc)   XCENC  =       -40.43695845
  PAW double counting   =      3929.49407942    -3771.04432524
  entropy T*S    EENTRO =        -0.00000000
  eigenvalues    EBANDS =      -528.35854196
  atomic energy  EATOM  =      1239.96520364
  Solvation  Ediel_sol  =         0.00000000
  ---------------------------------------------------
  free energy    TOTEN  =      -101.35645772 eV

  energy without entropy =     -101.35645772  energy(sigma->0) =     -101.35645772


--------------------------------------------------------------------------------------------------------




 average (electrostatic) potential at core
  the test charge radii are     0.9892  1.1631  0.5201
  (the norm of the test charge is              1.0000)
       1 -93.3349       2 -93.3508       3 -93.3486       4 -93.4201       5 -93.4168
       6 -40.4350       7 -40.3961       8 -40.3428       9 -40.4516      10 -40.4796
      11 -40.8523      12 -40.8545      13 -41.0005      14 -40.8512      15 -40.8490
      16 -40.8493      17 -40.8464      18 -40.8894      19 -41.0137      20 -40.9747
      21 -40.9738      22 -41.0063      23 -40.8433      24 -40.8443      25 -40.9763
      26 -40.9765
 
 
 
 E-fermi :  -5.3045     XC(G=0):  -0.6069     alpha+bet : -0.3347


 k-point     1 :       0.0000    0.0000    0.0000
  band No.  band energies     occupation 
      1     -15.1884      2.00000
      2     -14.2576      2.00000
      3     -14.2135      2.00000
      4     -13.9928      2.00000
      5     -12.9907      2.00000
      6     -12.8161      2.00000
      7     -11.8155      2.00000
      8     -11.7182      2.00000
      9     -11.5132      2.00000
     10     -10.6347      2.00000
     11      -8.9649      2.00000
     12      -8.6985      2.00000
     13      -8.6505      2.00000
     14      -8.5762      2.00000
     15      -8.3044      2.00000
     16      -8.2016      2.00000
     17      -8.1018      2.00000
     18      -7.9289      2.00000
     19      -7.8508      2.00000
     20      -7.7966      2.00000
     21      -6.8379      2.00000
     22      -6.7824      2.00000
     23      -6.4980      2.00000
     24      -6.4532      2.00000
     25      -6.4233      2.00000
     26      -6.3698      2.00000
     27      -6.3257      2.00000
     28      -6.2738      2.00000
     29      -1.6139      0.00000
     30      -1.3927      0.00000
     31      -1.3670      0.00000
     32      -1.3076      0.00000
     33      -1.2796      0.00000
     34      -1.1462      0.00000
     35      -0.9805      0.00000
     36      -0.8992      0.00000
     37      -0.8514      0.00000
     38      -0.5392      0.00000
     39      -0.3531      0.00000
     40      -0.2348      0.00000
     41      -0.1739      0.00000
     42      -0.1234      0.00000


--------------------------------------------------------------------------------------------------------


 soft charge-density along one line, spin component           1
         0         1         2         3         4         5         6         7         8         9
 total charge-density along one line
 
 pseudopotential strength for first ion, spin component:           1
 19.614  27.372   0.001   0.003   0.001   0.003   0.006   0.002
 27.372  38.203   0.002   0.004   0.002   0.004   0.008   0.003
  0.001   0.002   4.361   0.000   0.000   8.136   0.000   0.000
  0.003   0.004   0.000   4.362   0.000   0.000   8.136   0.000
  0.001   0.002   0.000   0.000   4.361   0.000   0.000   8.135
  0.003   0.004   8.136   0.000   0.000  15.186   0.000   0.001
  0.006   0.008   0.000   8.136   0.000   0.000  15.187   0.001
  0.002   0.003   0.000   0.000   8.135   0.001   0.001  15.185
 total augmentation occupancy for first ion, spin component:           1
  5.916  -2.233  -0.010  -0.467  -0.107   0.006   0.146   0.034
 -2.233   0.903  -0.008   0.266   0.055  -0.000  -0.065  -0.014
 -0.010  -0.008   2.929  -0.181  -0.087  -0.644   0.058   0.024
 -0.467   0.266  -0.181   3.512   0.035   0.058  -0.844  -0.016
 -0.107   0.055  -0.087   0.035   2.993   0.024  -0.016  -0.660
  0.006  -0.000  -0.644   0.058   0.024   0.148  -0.016  -0.006
  0.146  -0.065   0.058  -0.844  -0.016  -0.016   0.206   0.005
  0.034  -0.014   0.024  -0.016  -0.660  -0.006   0.005   0.152


------------------------ aborting loop because EDIFF is reached ----------------------------------------


    CHARGE:  cpu time    0.4829: real time    0.4827
    FORLOC:  cpu time    0.1720: real time    0.1714
    FORNL :  cpu time    1.1278: real time    1.1277
    STRESS:  cpu time    8.0718: real time    8.0694
    FORCOR:  cpu time    1.7187: real time    1.7177
    FORHAR:  cpu time    0.5829: real time    0.5829
    MIXING:  cpu time    0.0460: real time    0.0460
    OFIELD:  cpu time    0.0000: real time    0.0000

  FORCE on cell =-STRESS in cart. coord.  units (eV):
  Direction    XX          YY          ZZ          XY          YZ          ZX
  --------------------------------------------------------------------------------------
  Alpha Z     2.23981     2.23981     2.23981
  Ewald     871.99198   867.09351   873.58861     0.11385    -0.75034     2.34133
  Hartree  1182.24769  1177.78278  1185.85929     1.15027    -0.36019     2.59708
  E(xc)    -179.17241  -179.19367  -179.06381     0.08804     0.02310     0.02970
  Local   -2547.73957 -2538.09516 -2552.76025    -1.21064     1.19239    -4.90557
  n-local   255.51477   255.49998   254.80404    -0.39513    -0.12467    -0.29036
  augment   -20.79820   -20.77091   -20.80466    -0.01420     0.00274     0.00477
  Kinetic   434.73120   434.38616   435.16110     0.17798    -0.04775     0.23085
  Fock        0.00000     0.00000     0.00000     0.00000     0.00000     0.00000
  -------------------------------------------------------------------------------------
  Total      -0.98472    -1.05750    -0.97589    -0.08984    -0.06472     0.00779
  in kB      -0.19721    -0.21179    -0.19544    -0.01799    -0.01296     0.00156
  external pressure =       -0.20 kB  Pullay stress =        0.00 kB


 VOLUME and BASIS-vectors are now :
 -----------------------------------------------------------------------------
  energy-cutoff  :      400.00
  volume of cell :     8000.00
      direct lattice vectors                 reciprocal lattice vectors
    20.000000000  0.000000000  0.000000000     0.050000000  0.000000000  0.000000000
     0.000000000 20.000000000  0.000000000     0.000000000  0.050000000  0.000000000
     0.000000000  0.000000000 20.000000000     0.000000000  0.000000000  0.050000000

  length of vectors
    20.000000000 20.000000000 20.000000000     0.050000000  0.050000000  0.050000000


 FORCES acting on ions
    electron-ion (+dipol)            ewald-force                    non-local-force                 convergence-correction
 -----------------------------------------------------------------------------------------------
   0.112E+02 -.208E+02 0.872E+02   -.117E+02 0.203E+02 -.887E+02   0.524E+00 0.508E+00 0.149E+01   0.357E-03 0.404E-04 0.218E-03
   0.870E+02 -.502E+01 0.435E+02   -.886E+02 0.533E+01 -.451E+02   0.163E+01 -.308E+00 0.159E+01   0.723E-03 0.648E-03 -.408E-04
   -.372E+02 0.542E+02 0.728E+02   0.377E+02 -.549E+02 -.749E+02   -.526E+00 0.705E+00 0.211E+01   0.326E-03 0.612E-03 0.305E-04
   -.846E+02 0.491E+01 -.452E+02   0.869E+02 -.499E+01 0.464E+02   -.226E+01 0.765E-01 -.117E+01   0.923E-04 -.513E-03 -.515E-03
   0.280E+02 0.809E+02 -.450E+02   -.288E+02 -.830E+02 0.461E+02   0.753E+00 0.210E+01 -.116E+01   0.329E-03 -.233E-03 0.456E-03
   -.293E+02 -.839E+02 0.440E+02   0.294E+02 0.846E+02 -.446E+02   -.156E+00 -.682E+00 0.653E+00   -.277E-03 -.602E-03 -.574E-03
   0.821E+02 0.117E+02 -.411E+02   -.826E+02 -.121E+02 0.411E+02   0.522E+00 0.398E+00 -.116E-01   0.158E-03 -.917E-04 0.143E-03
   -.516E+02 0.759E+02 -.937E+01   0.518E+02 -.763E+02 0.942E+01   -.236E+00 0.409E+00 -.404E-01   0.122E-03 -.114E-03 0.151E-04
   -.421E+02 -.720E+02 -.409E+02   0.426E+02 0.722E+02 0.412E+02   -.561E+00 -.216E+00 -.361E+00   -.685E-04 -.376E-03 -.274E-03
   0.361E+02 -.530E+02 -.744E+02   -.365E+02 0.536E+02 0.752E+02   0.386E+00 -.594E+00 -.792E+00   -.245E-03 -.266E-03 0.128E-03
   0.206E+02 0.413E+02 0.633E+01   -.220E+02 -.436E+02 -.761E+01   0.135E+01 0.232E+01 0.127E+01   0.206E-03 0.395E-04 0.127E-03
   0.988E+00 0.221E+02 -.411E+02   -.620E+00 -.227E+02 0.440E+02   -.367E+00 0.629E+00 -.288E+01   -.196E-04 -.635E-04 -.816E-04
   -.261E+02 0.386E+02 -.401E+01   0.274E+02 -.407E+02 0.421E+01   -.137E+01 0.203E+01 -.197E+00   -.760E-04 0.175E-03 -.481E-04
   -.459E+02 -.353E+01 0.608E+01   0.485E+02 0.392E+01 -.734E+01   -.266E+01 -.388E+00 0.126E+01   0.376E-04 -.159E-03 -.529E-04
   -.205E+02 0.814E+01 -.410E+02   0.210E+02 -.877E+01 0.439E+02   -.434E+00 0.631E+00 -.287E+01   0.933E-04 -.228E-03 0.228E-03
   -.369E+02 0.505E+01 0.286E+02   0.396E+02 -.464E+01 -.299E+02   -.263E+01 -.404E+00 0.131E+01   -.176E-03 0.155E-03 0.678E-04
   0.849E+01 0.362E+02 0.288E+02   -.980E+01 -.385E+02 -.301E+02   0.131E+01 0.230E+01 0.132E+01   -.222E-04 0.108E-03 0.108E-03
   0.644E+01 -.995E+01 0.472E+02   -.683E+01 0.105E+02 -.500E+02   0.379E+00 -.590E+00 0.282E+01   -.109E-06 -.732E-04 0.150E-03
   -.216E+02 -.357E+02 -.201E+02   0.227E+02 0.376E+02 0.211E+02   -.114E+01 -.191E+01 -.105E+01   0.590E-04 -.114E-03 -.737E-04
   0.294E+01 -.322E+01 -.441E+02   -.268E+01 0.275E+01 0.466E+02   -.268E+00 0.479E+00 -.245E+01   -.171E-03 -.121E-04 0.773E-05
   0.242E+02 -.359E+02 -.104E+02   -.256E+02 0.380E+02 0.102E+02   0.139E+01 -.208E+01 0.216E+00   -.519E-04 -.871E-05 0.133E-03
   0.415E+02 0.661E+01 -.197E+02   -.437E+02 -.695E+01 0.208E+02   0.221E+01 0.341E+00 -.104E+01   0.867E-04 -.418E-04 -.144E-03
   0.322E+02 0.247E+02 0.236E+02   -.337E+02 -.269E+02 -.249E+02   0.144E+01 0.221E+01 0.132E+01   0.117E-03 -.133E-03 -.152E-03
   0.348E+02 -.291E+02 0.117E+02   -.364E+02 0.316E+02 -.120E+02   0.166E+01 -.244E+01 0.291E+00   0.763E-04 0.238E-03 -.879E-04
   0.125E+02 -.414E+02 0.113E+02   -.138E+02 0.435E+02 -.115E+02   0.136E+01 -.210E+01 0.251E+00   -.568E-04 -.922E-04 -.149E-03
   -.334E+02 -.199E+02 0.225E+02   0.356E+02 0.203E+02 -.236E+02   -.221E+01 -.414E+00 0.112E+01   -.203E-03 -.168E-03 -.164E-03
 -----------------------------------------------------------------------------------------------
   -.863E-01 -.301E+01 -.299E+01   0.924E-13 -.213E-13 0.355E-14   0.864E-01 0.301E+01 0.299E+01   0.142E-02 -.127E-02 -.545E-03
 
 
 POSITION                                       TOTAL-FORCE (eV/Angst)
 -----------------------------------------------------------------------------------
      9.49262     11.09745      7.68026        -0.010987      0.003587     -0.003549
      7.39602     10.77308      8.69916         0.003656     -0.005040      0.004940
     10.81394      9.16687      7.91206        -0.007711      0.000055      0.006728
     12.29175     10.48941     11.31824        -0.007697     -0.001706      0.004525
      9.01192      8.29308     11.28685         0.000721      0.006156     -0.004827
     10.62057     12.95313      8.71717        -0.000794      0.000030      0.006281
      7.66745     10.26632     11.03574         0.004653      0.005596     -0.011196
     11.14329      8.66947     10.24270         0.004262      0.012681      0.007363
     10.98334     12.49140     11.10090        -0.002877     -0.011035      0.000545
      8.79106     12.14577     12.14752         0.004849      0.000265     -0.001521
      8.33206      7.12392     10.64202         0.005101      0.003295      0.001202
      9.19750      7.97750     12.73870         0.001080     -0.002696      0.007476
     12.01219      7.37700     10.36779         0.002944     -0.001243     -0.002315
     13.63358     10.68502     10.68128        -0.001578     -0.003553      0.000925
     12.50920     10.17019     12.76601         0.000354     -0.001522     -0.007015
     12.14324      9.37386      7.25306         0.005585      0.004341     -0.001758
     10.14938      8.00057      7.24470        -0.000337      0.006686      0.006911
      9.29567     11.40267      6.22194        -0.001677     -0.001848      0.001762
     11.70892     13.70354     11.76945        -0.002359     -0.012206     -0.007574
      8.95716     11.84796     13.66804        -0.004576      0.000114     -0.004436
      7.92815     13.43605     12.01415         0.001468     -0.003179      0.003720
      6.26605     10.04890     11.69138        -0.000334     -0.001491     -0.007569
      6.66847      9.64655      8.02735         0.013693      0.010823      0.006191
      6.56012     12.00794      8.55260         0.001218      0.002997     -0.001194
      9.77587     14.25275      8.56114        -0.002291     -0.004217     -0.002036
     11.98985     13.20761      8.01815        -0.006363     -0.006891     -0.003580
 -----------------------------------------------------------------------------------
    total drift:                                0.001516      0.001258      0.000025


--------------------------------------------------------------------------------------------------------



  FREE ENERGIE OF THE ION-ELECTRON SYSTEM (eV)
  ---------------------------------------------------
  free  energy   TOTEN  =      -101.35645772 eV

  energy  without entropy=     -101.35645772  energy(sigma->0) =     -101.35645772
 
 d Force = 0.5575497E-05[-0.279E-07, 0.112E-04]  d Energy = 0.5457137E-05 0.118E-06
 d Force = 0.5917679E-01[ 0.592E-01, 0.592E-01]  d Ewald  = 0.5917679E-01 0.646E-09


--------------------------------------------------------------------------------------------------------


    POTLOK:  cpu time    1.7437: real time    1.7430


--------------------------------------------------------------------------------------------------------




--------------------------------------------------------------------------------------------------------


  
 reached required accuracy - stopping structural energy minimisation
 writing wavefunctions
     LOOP+:  cpu time   48.9606: real time   49.4531
    4ORBIT:  cpu time    0.0000: real time    0.0000

 total amount of memory used by VASP MPI-rank0   131440. kBytes
=======================================================================

   base      :      30000. kBytes
   nonl-proj :      17624. kBytes
   fftplans  :      26957. kBytes
   grid      :      48673. kBytes
   one-center:         40. kBytes
   wavefun   :       8146. kBytes
 
  
  
 General timing and accounting informations for this job:
 ========================================================
  
                  Total CPU time used (sec):     2556.137
                            User time (sec):     2525.415
                          System time (sec):       30.722
                         Elapsed time (sec):     2559.915
  
                   Maximum memory used (kb):      185344.
                   Average memory used (kb):           0.
  
                          Minor page faults:      6064304
                          Major page faults:            9
                 Voluntary context switches:         3330
