 vasp.5.4.4.18Apr17-6-g9f103f2a35 (build Nov 06 2017 19:16:10) complex          
  
 executed on           IFC91_ompi date 2018.07.12  11:47:00
 running on   12 total cores
 distrk:  each k-point on   12 cores,    1 groups
 distr:  one band on NCORES_PER_BAND=   6 cores,    2 groups


--------------------------------------------------------------------------------------------------------


 INCAR:
 POTCAR:    PAW_PBE Si 05Jan2001                  
 POTCAR:    PAW_PBE Ge 05Jan2001                  
 POTCAR:    PAW_PBE H 15Jun2001                   
 POTCAR:    PAW_PBE Si 05Jan2001                  
   VRHFIN =Si: s2p2                                                             
   LEXCH  = PE                                                                  
   EATOM  =   103.0669 eV,    7.5752 Ry                                         
                                                                                
   TITEL  = PAW_PBE Si 05Jan2001                                                
   LULTRA =        F    use ultrasoft PP ?                                      
   IUNSCR =        1    unscreen: 0-lin 1-nonlin 2-no                           
   RPACOR =    1.500    partial core radius                                     
   POMASS =   28.085; ZVAL   =    4.000    mass and valenz                      
   RCORE  =    1.900    outmost cutoff radius                                   
   RWIGS  =    2.480; RWIGS  =    1.312    wigner-seitz radius (au A)           
   ENMAX  =  245.345; ENMIN  =  184.009 eV                                      
   ICORE  =        2    local potential                                         
   LCOR   =        T    correct aug charges                                     
   LPAW   =        T    paw PP                                                  
   EAUG   =  322.069                                                            
   DEXC   =    0.000                                                            
   RMAX   =    1.950    core radius for proj-oper                               
   RAUG   =    1.300    factor for augmentation sphere                          
   RDEP   =    1.993    radius for radial grids                                 
   RDEPT  =    1.837    core radius for aug-charge                              
                                                                                
   Atomic configuration                                                         
    6 entries                                                                   
     n  l   j            E        occ.                                          
     1  0  0.50     -1785.8828   2.0000                                         
     2  0  0.50      -139.4969   2.0000                                         
     2  1  1.50       -95.5546   6.0000                                         
     3  0  0.50       -10.8127   2.0000                                         
     3  1  0.50        -4.0811   2.0000                                         
     3  2  1.50        -4.0817   0.0000                                         
   Description                                                                  
     l       E           TYP  RCUT    TYP  RCUT                                 
     0    -10.8127223     23  1.900                                             
     0     -7.6451159     23  1.900                                             
     1     -4.0811372     23  1.900                                             
     1      2.4879257     23  1.900                                             
     2     -4.0817478      7  1.900                                             
  local pseudopotential read in
  partial core-charges read in
  partial kinetic energy density read in
  atomic valenz-charges read in
  non local Contribution for L=           0  read in
    real space projection operators read in
  non local Contribution for L=           0  read in
    real space projection operators read in
  non local Contribution for L=           1  read in
    real space projection operators read in
  non local Contribution for L=           1  read in
    real space projection operators read in
    PAW grid and wavefunctions read in
 
   number of l-projection  operators is LMAX  =           4
   number of lm-projection operators is LMMAX =           8
 
 POTCAR:    PAW_PBE Ge 05Jan2001                  
   VRHFIN =Ge: s2p2                                                             
   LEXCH  = PE                                                                  
   EATOM  =   104.9960 eV,    7.7170 Ry                                         
                                                                                
   TITEL  = PAW_PBE Ge 05Jan2001                                                
   LULTRA =        F    use ultrasoft PP ?                                      
   IUNSCR =        1    unscreen: 0-lin 1-nonlin 2-no                           
   RPACOR =    2.170    partial core radius                                     
   POMASS =   72.610; ZVAL   =    4.000    mass and valenz                      
   RCORE  =    2.300    outmost cutoff radius                                   
   RWIGS  =    2.300; RWIGS  =    1.217    wigner-seitz radius (au A)           
   ENMAX  =  173.807; ENMIN  =  130.355 eV                                      
   ICORE  =        3    local potential                                         
   LCOR   =        T    correct aug charges                                     
   LPAW   =        T    paw PP                                                  
   EAUG   =  385.843                                                            
   DEXC   =    0.000                                                            
   RMAX   =    2.342    core radius for proj-oper                               
   RAUG   =    1.300    factor for augmentation sphere                          
   RDEP   =    2.318    radius for radial grids                                 
   RDEPT  =    2.103    core radius for aug-charge                              
                                                                                
   Atomic configuration                                                         
   10 entries                                                                   
     n  l   j            E        occ.                                          
     1  0  0.50    -10959.8463   2.0000                                         
     2  0  0.50     -1371.6056   2.0000                                         
     2  1  1.50     -1198.4791   6.0000                                         
     3  0  0.50      -168.4733   2.0000                                         
     3  1  1.50      -115.6019   6.0000                                         
     3  2  2.50       -29.3106  10.0000                                         
     4  0  0.50       -11.7309   2.0000                                         
     4  1  0.50        -3.8952   2.0000                                         
     4  2  1.50        -4.0817   0.0000                                         
     4  3  2.50        -4.0817   0.0000                                         
   Description                                                                  
     l       E           TYP  RCUT    TYP  RCUT                                 
     0    -11.7309493     23  2.300                                             
     0     -7.4578696     23  2.300                                             
     1     -3.8952261     23  2.300                                             
     1      6.1178114     23  2.300                                             
     2     -4.0817478     23  2.300                                             
     3     -1.3605826      7  2.300                                             
  local pseudopotential read in
  partial core-charges read in
  partial kinetic energy density read in
  atomic valenz-charges read in
  non local Contribution for L=           0  read in
    real space projection operators read in
  non local Contribution for L=           0  read in
    real space projection operators read in
  non local Contribution for L=           1  read in
    real space projection operators read in
  non local Contribution for L=           1  read in
    real space projection operators read in
  non local Contribution for L=           2  read in
    real space projection operators read in
    PAW grid and wavefunctions read in
 
   number of l-projection  operators is LMAX  =           5
   number of lm-projection operators is LMMAX =          13
 
 POTCAR:    PAW_PBE H 15Jun2001                   
   VRHFIN =H: ultrasoft test                                                    
   LEXCH  = PE                                                                  
   EATOM  =    12.4884 eV,    0.9179 Ry                                         
                                                                                
   TITEL  = PAW_PBE H 15Jun2001                                                 
   LULTRA =        F    use ultrasoft PP ?                                      
   IUNSCR =        0    unscreen: 0-lin 1-nonlin 2-no                           
   RPACOR =    0.000    partial core radius                                     
   POMASS =    1.000; ZVAL   =    1.000    mass and valenz                      
   RCORE  =    1.100    outmost cutoff radius                                   
   RWIGS  =    0.700; RWIGS  =    0.370    wigner-seitz radius (au A)           
   ENMAX  =  250.000; ENMIN  =  200.000 eV                                      
   RCLOC  =    0.701    cutoff for local pot                                    
   LCOR   =        T    correct aug charges                                     
   LPAW   =        T    paw PP                                                  
   EAUG   =  400.000                                                            
   RMAX   =    1.123    core radius for proj-oper                               
   RAUG   =    1.200    factor for augmentation sphere                          
   RDEP   =    1.112    radius for radial grids                                 
   RDEPT  =    0.926    core radius for aug-charge                              
                                                                                
   Atomic configuration                                                         
    2 entries                                                                   
     n  l   j            E        occ.                                          
     1  0  0.50        -6.4927   1.0000                                         
     2  1  0.50        -3.4015   0.0000                                         
   Description                                                                  
     l       E           TYP  RCUT    TYP  RCUT                                 
     0     -6.4927494     23  1.100                                             
     0      6.8029130     23  1.100                                             
     1     -4.0817478     23  1.100                                             
  local pseudopotential read in
  atomic valenz-charges read in
  non local Contribution for L=           0  read in
    real space projection operators read in
  non local Contribution for L=           0  read in
    real space projection operators read in
  non local Contribution for L=           1  read in
    real space projection operators read in
    PAW grid and wavefunctions read in
 
   number of l-projection  operators is LMAX  =           3
   number of lm-projection operators is LMMAX =           5
 

 ----------------------------------------------------------------------------- 
|                                                                             |
|  ADVICE TO THIS USER RUNNING 'VASP/VAMP'   (HEAR YOUR MASTER'S VOICE ...):  |
|                                                                             |
|      You have a (more or less) 'large supercell' and for larger cells       |
|      it might be more efficient to use real space projection opertators     |
|      So try LREAL= Auto  in the INCAR   file.                               |
|      Mind:          For very  accurate calculation you might also keep the  |
|      reciprocal projection scheme          (i.e. LREAL=.FALSE.)             |
|                                                                             |
 ----------------------------------------------------------------------------- 

  PAW_PBE Si 05Jan2001                  :
 energy of atom  1       EATOM= -103.0669
 kinetic energy error for atom=    0.0012 (will be added to EATOM!!)
  PAW_PBE Ge 05Jan2001                  :
 energy of atom  2       EATOM= -104.9960
 kinetic energy error for atom=    0.0003 (will be added to EATOM!!)
  PAW_PBE H 15Jun2001                   :
 energy of atom  3       EATOM=  -12.4884
 kinetic energy error for atom=    0.0098 (will be added to EATOM!!)
 
 
 POSCAR: SiGeH16                                 
  positions in direct lattice
  No initial velocities read in
 exchange correlation table for  LEXCH =        8
   RHO(1)=    0.500       N(1)  =     2000
   RHO(2)=  100.500       N(2)  =     4000
 


--------------------------------------------------------------------------------------------------------


 ion  position               nearest neighbor table
   1  0.475  0.556  0.385-  18 1.55   7 2.39   5 2.39   6 2.39
   2  0.613  0.525  0.565-  15 1.55  14 1.55  10 2.39   9 2.39
   3  0.451  0.416  0.564-  12 1.55  11 1.55   8 2.39   9 2.39
   4  0.440  0.606  0.605-  20 1.55  21 1.55   8 2.39  10 2.39
   5  0.369  0.539  0.436-  23 1.55  24 1.55   8 2.39   1 2.39
   6  0.542  0.457  0.396-  17 1.55  16 1.55   9 2.39   1 2.39
   7  0.531  0.648  0.437-  25 1.55  26 1.55  10 2.39   1 2.39
   8  0.385  0.515  0.552-  22 1.55   4 2.39   3 2.39   5 2.39
   9  0.557  0.433  0.512-  13 1.55   6 2.39   2 2.39   3 2.39
  10  0.547  0.624  0.554-  19 1.55   7 2.39   2 2.39   4 2.39
  11  0.415  0.357  0.529-   3 1.55
  12  0.461  0.400  0.639-   3 1.55
  13  0.600  0.369  0.520-   9 1.55
  14  0.682  0.536  0.531-   2 1.55
  15  0.623  0.509  0.640-   2 1.55
  16  0.611  0.469  0.363-   6 1.55
  17  0.506  0.398  0.362-   6 1.55
  18  0.465  0.572  0.309-   1 1.55
  19  0.583  0.683  0.588-  10 1.55
  20  0.451  0.590  0.680-   4 1.55
  21  0.397  0.670  0.598-   4 1.55
  22  0.316  0.504  0.586-   8 1.55
  23  0.333  0.479  0.402-   5 1.55
  24  0.326  0.603  0.429-   5 1.55
  25  0.488  0.712  0.430-   7 1.55
  26  0.600  0.659  0.404-   7 1.55
 
  LATTYP: Found a simple cubic cell.
 ALAT       =    20.0000000000
  
  Lattice vectors:
  
 A1 = (  20.0000000000,   0.0000000000,   0.0000000000)
 A2 = (   0.0000000000,  20.0000000000,   0.0000000000)
 A3 = (   0.0000000000,   0.0000000000,  20.0000000000)


Analysis of symmetry for initial positions (statically):
=====================================================================
 Subroutine PRICEL returns:
 Original cell was already a primitive cell.
 

 Routine SETGRP: Setting up the symmetry group for a 
 simple cubic supercell.


 Subroutine GETGRP returns: Found  1 space group operations
 (whereof  1 operations were pure point group operations)
 out of a pool of 48 trial point group operations.


The static configuration has the point symmetry C_1 .


Analysis of symmetry for dynamics (positions and initial velocities):
=====================================================================
 Subroutine PRICEL returns:
 Original cell was already a primitive cell.
 

 Routine SETGRP: Setting up the symmetry group for a 
 simple cubic supercell.


 Subroutine GETGRP returns: Found  1 space group operations
 (whereof  1 operations were pure point group operations)
 out of a pool of 48 trial point group operations.


The dynamic configuration has the point symmetry C_1 .


 Subroutine INISYM returns: Found  1 space group operations
 (whereof  1 operations are pure point group operations),
 and found     1 'primitive' translations

 
 
 KPOINTS: Automatic mesh                          

Automatic generation of k-mesh.
Space group operators:
 irot       det(A)        alpha          n_x          n_y          n_z        tau_x        tau_y        tau_z
    1     1.000000     0.000000     1.000000     0.000000     0.000000     0.000000     0.000000     0.000000
 
 Subroutine IBZKPT returns following result:
 ===========================================
 
 Found      1 irreducible k-points:
 
 Following reciprocal coordinates:
            Coordinates               Weight
  0.000000  0.000000  0.000000      1.000000
 
 Following cartesian coordinates:
            Coordinates               Weight
  0.000000  0.000000  0.000000      1.000000
 


--------------------------------------------------------------------------------------------------------




 Dimension of arrays:
   k-points           NKPTS =      1   k-points in BZ     NKDIM =      1   number of bands    NBANDS=     42
   number of dos      NEDOS =    301   number of ions     NIONS =     26
   non local maximal  LDIM  =      5   non local SUM 2l+1 LMDIM =     13
   total plane-waves  NPLWV = 941192
   max r-space proj   IRMAX =      1   max aug-charges    IRDMAX=   6593
   dimension x,y,z NGX =    98 NGY =   98 NGZ =   98
   dimension x,y,z NGXF=   196 NGYF=  196 NGZF=  196
   support grid    NGXF=   196 NGYF=  196 NGZF=  196
   ions per type =               4   6  16
   NGX,Y,Z   is equivalent  to a cutoff of   8.15,  8.15,  8.15 a.u.
   NGXF,Y,Z  is equivalent  to a cutoff of  16.29, 16.29, 16.29 a.u.

 SYSTEM =  SiGe                                    
 POSCAR =  SiGeH16                                 

 Startparameter for this run:
   NWRITE =      2    write-flag & timer
   PREC   = normal    normal or accurate (medium, high low for compatibility)
   ISTART =      0    job   : 0-new  1-cont  2-samecut
   ICHARG =      2    charge: 1-file 2-atom 10-const
   ISPIN  =      1    spin polarized calculation?
   LNONCOLLINEAR =      F non collinear calculations
   LSORBIT =      F    spin-orbit coupling
   INIWAV =      1    electr: 0-lowe 1-rand  2-diag
   LASPH  =      F    aspherical Exc in radial PAW
   METAGGA=      F    non-selfconsistent MetaGGA calc.

 Electronic Relaxation 1
   ENCUT  =  400.0 eV  29.40 Ry    5.42 a.u.  32.61 32.61 32.61*2*pi/ulx,y,z
   ENINI  =  400.0     initial cutoff
   ENAUG  =  400.0 eV  augmentation charge cutoff
   NELM   =     60;   NELMIN=  2; NELMDL= -5     # of ELM steps 
   EDIFF  = 0.1E-05   stopping-criterion for ELM
   LREAL  =      F    real-space projection
   NLSPLINE    = F    spline interpolate recip. space projectors
   LCOMPAT=      F    compatible to vasp.4.4
   GGA_COMPAT  = T    GGA compatible to vasp.4.4-vasp.4.6
   LMAXPAW     = -100 max onsite density
   LMAXMIX     =    2 max onsite mixed and CHGCAR
   VOSKOWN=      0    Vosko Wilk Nusair interpolation
   ROPT   =    0.00000   0.00000   0.00000
 Ionic relaxation
   EDIFFG = -.2E-01   stopping-criterion for IOM
   NSW    =    200    number of steps for IOM
   NBLOCK =      1;   KBLOCK =    200    inner block; outer block 
   IBRION =      2    ionic relax: 0-MD 1-quasi-New 2-CG
   NFREE  =      1    steps in history (QN), initial steepest desc. (CG)
   ISIF   =      2    stress and relaxation
   IWAVPR =     11    prediction:  0-non 1-charg 2-wave 3-comb
   ISYM   =      2    0-nonsym 1-usesym 2-fastsym
   LCORR  =      T    Harris-Foulkes like correction to forces

   POTIM  = 0.5000    time-step for ionic-motion
   TEIN   =    0.0    initial temperature
   TEBEG  =    0.0;   TEEND  =   0.0 temperature during run
   SMASS  =  -3.00    Nose mass-parameter (am)
   estimated Nose-frequenzy (Omega)   =  0.10E-29 period in steps =****** mass=  -0.914E-26a.u.
   SCALEE = 1.0000    scale energy and forces
   NPACO  =    256;   APACO  = 16.0  distance and # of slots for P.C.
   PSTRESS=    0.0 pullay stress

  Mass of Ions in am
   POMASS =  28.09 72.61  1.00
  Ionic Valenz
   ZVAL   =   4.00  4.00  1.00
  Atomic Wigner-Seitz radii
   RWIGS  =  -1.00 -1.00 -1.00
  virtual crystal weights 
   VCA    =   1.00  1.00  1.00
   NELECT =      56.0000    total number of electrons
   NUPDOWN=      -1.0000    fix difference up-down

 DOS related values:
   EMIN   =  10.00;   EMAX   =-10.00  energy-range for DOS
   EFERMI =   0.00
   ISMEAR =     0;   SIGMA  =   0.20  broadening in eV -4-tet -1-fermi 0-gaus

 Electronic relaxation 2 (details)
   IALGO  =     38    algorithm
   LDIAG  =      T    sub-space diagonalisation (order eigenvalues)
   LSUBROT=      F    optimize rotation matrix (better conditioning)
   TURBO    =      0    0=normal 1=particle mesh
   IRESTART =      0    0=no restart 2=restart with 2 vectors
   NREBOOT  =      0    no. of reboots
   NMIN     =      0    reboot dimension
   EREF     =   0.00    reference energy to select bands
   IMIX   =      4    mixing-type and parameters
     AMIX     =   0.40;   BMIX     =  1.00
     AMIX_MAG =   1.60;   BMIX_MAG =  1.00
     AMIN     =   0.10
     WC   =   100.;   INIMIX=   1;  MIXPRE=   1;  MAXMIX= -45

 Intra band minimization:
   WEIMIN = 0.0010     energy-eigenvalue tresh-hold
   EBREAK =  0.60E-08  absolut break condition
   DEPER  =   0.30     relativ break condition  

   TIME   =   0.40     timestep for ELM

  volume/ion in A,a.u.               =     307.69      2076.41
  Fermi-wavevector in a.u.,A,eV,Ry     =   0.313166  0.591797  1.334361  0.098073
  Thomas-Fermi vector in A             =   1.193276
 
 Write flags
   LWAVE        =      T    write WAVECAR
   LDOWNSAMPLE  =      F    k-point downsampling of WAVECAR
   LCHARG       =      T    write CHGCAR
   LVTOT        =      F    write LOCPOT, total local potential
   LVHAR        =      F    write LOCPOT, Hartree potential only
   LELF         =      F    write electronic localiz. function (ELF)
   LORBIT       =      0    0 simple, 1 ext, 2 COOP (PROOUT), +10 PAW based schemes


 Dipole corrections
   LMONO  =      F    monopole corrections only (constant potential shift)
   LDIPOL =      F    correct potential (dipole corrections)
   IDIPOL =      0    1-x, 2-y, 3-z, 4-all directions 
   EPSILON=  1.0000000 bulk dielectric constant

 Exchange correlation treatment:
   GGA     =    --    GGA type
   LEXCH   =     8    internal setting for exchange type
   VOSKOWN=      0    Vosko Wilk Nusair interpolation
   LHFCALC =     F    Hartree Fock is set to
   LHFONE  =     F    Hartree Fock one center treatment
   AEXX    =    0.0000 exact exchange contribution

 Linear response parameters
   LEPSILON=     F    determine dielectric tensor
   LRPA    =     F    only Hartree local field effects (RPA)
   LNABLA  =     F    use nabla operator in PAW spheres
   LVEL    =     F    velocity operator in full k-point grid
   LINTERFAST=   F  fast interpolation
   KINTER  =     0    interpolate to denser k-point grid
   CSHIFT  =0.1000    complex shift for real part using Kramers Kronig
   OMEGAMAX=  -1.0    maximum frequency
   DEG_THRESHOLD= 0.2000000E-02 threshold for treating states as degnerate
   RTIME   =   -0.100 relaxation time in fs
  (WPLASMAI=    0.000 imaginary part of plasma frequency in eV, 0.658/RTIME)
   DFIELD  = 0.0000000 0.0000000 0.0000000 field for delta impulse in time
 
 Orbital magnetization related:
   ORBITALMAG=     F  switch on orbital magnetization
   LCHIMAG   =     F  perturbation theory with respect to B field
   DQ        =  0.001000  dq finite difference perturbation B field
   LLRAUG    =     F  two centre corrections for induced B field



--------------------------------------------------------------------------------------------------------


 conjugate gradient relaxation of ions
 charge density and potential will be updated during run
 non-spin polarized calculation
 Variant of blocked Davidson
 Davidson routine will perform the subspace rotation
 perform sub-space diagonalisation
    after iterative eigenvector-optimisation
 modified Broyden-mixing scheme, WC =      100.0
 initial mixing is a Kerker type mixing with AMIX =  0.4000 and BMIX =      1.0000
 Hartree-type preconditioning will be used
 using additional bands           14
 reciprocal scheme for non local part
 use partial core corrections
 calculate Harris-corrections to forces 
   (improved forces if not selfconsistent)
 use gradient corrections 
 use of overlap-Matrix (Vanderbilt PP)
 Gauss-broadening in eV      SIGMA  =   0.20


--------------------------------------------------------------------------------------------------------


  energy-cutoff  :      400.00
  volume of cell :     8000.00
      direct lattice vectors                 reciprocal lattice vectors
    20.000000000  0.000000000  0.000000000     0.050000000  0.000000000  0.000000000
     0.000000000 20.000000000  0.000000000     0.000000000  0.050000000  0.000000000
     0.000000000  0.000000000 20.000000000     0.000000000  0.000000000  0.050000000

  length of vectors
    20.000000000 20.000000000 20.000000000     0.050000000  0.050000000  0.050000000


 
 k-points in units of 2pi/SCALE and weight: Automatic mesh                          
   0.00000000  0.00000000  0.00000000       1.000
 
 k-points in reciprocal lattice and weights: Automatic mesh                          
   0.00000000  0.00000000  0.00000000       1.000
 
 position of ions in fractional coordinates (direct lattice) 
   0.47547100  0.55626000  0.38465300
   0.61299700  0.52481700  0.56496600
   0.45095700  0.41593600  0.56388300
   0.44028400  0.60643000  0.60524300
   0.36907800  0.53906000  0.43641200
   0.54179100  0.45744600  0.39613600
   0.53111600  0.64794100  0.43749600
   0.38461900  0.51474100  0.55243500
   0.55736800  0.43311000  0.51215000
   0.54669200  0.62364400  0.55351800
   0.41490100  0.35665000  0.52940300
   0.46117000  0.40042600  0.63910800
   0.60034800  0.36907000  0.51957800
   0.68182700  0.53600700  0.53118700
   0.62280400  0.50903400  0.64018900
   0.61080000  0.46880600  0.36278200
   0.50550800  0.39805500  0.36207700
   0.46538400  0.57201900  0.30946400
   0.58275500  0.68306700  0.58775000
   0.45052500  0.59044300  0.68036400
   0.39732000  0.67044900  0.59753500
   0.31566200  0.50359800  0.58596500
   0.33322800  0.47946500  0.40225200
   0.32629100  0.60324700  0.42912600
   0.48792300  0.71185500  0.43020800
   0.60015100  0.65882400  0.40403700
 
 position of ions in cartesian coordinates  (Angst):
   9.50942000 11.12520000  7.69306000
  12.25994000 10.49634000 11.29932000
   9.01914000  8.31872000 11.27766000
   8.80568000 12.12860000 12.10486000
   7.38156000 10.78120000  8.72824000
  10.83582000  9.14892000  7.92272000
  10.62232000 12.95882000  8.74992000
   7.69238000 10.29482000 11.04870000
  11.14736000  8.66220000 10.24300000
  10.93384000 12.47288000 11.07036000
   8.29802000  7.13300000 10.58806000
   9.22340000  8.00852000 12.78216000
  12.00696000  7.38140000 10.39156000
  13.63654000 10.72014000 10.62374000
  12.45608000 10.18068000 12.80378000
  12.21600000  9.37612000  7.25564000
  10.11016000  7.96110000  7.24154000
   9.30768000 11.44038000  6.18928000
  11.65510000 13.66134000 11.75500000
   9.01050000 11.80886000 13.60728000
   7.94640000 13.40898000 11.95070000
   6.31324000 10.07196000 11.71930000
   6.66456000  9.58930000  8.04504000
   6.52582000 12.06494000  8.58252000
   9.75846000 14.23710000  8.60416000
  12.00302000 13.17648000  8.08074000
 


--------------------------------------------------------------------------------------------------------


 k-point  1 :   0.0000 0.0000 0.0000  plane waves:  145165

 maximum and minimum number of plane-waves per node :     24209    24180

 maximum number of plane-waves:    145165
 maximum index in each direction: 
   IXMAX=   32   IYMAX=   32   IZMAX=   32
   IXMIN=  -32   IYMIN=  -32   IZMIN=  -32


 parallel 3D FFT for wavefunctions:
    minimum data exchange during FFTs selected (reduces bandwidth)
 parallel 3D FFT for charge:
    minimum data exchange during FFTs selected (reduces bandwidth)


 total amount of memory used by VASP MPI-rank0   131440. kBytes
=======================================================================

   base      :      30000. kBytes
   nonl-proj :      17624. kBytes
   fftplans  :      26957. kBytes
   grid      :      48673. kBytes
   one-center:         40. kBytes
   wavefun   :       8146. kBytes
 
     INWAV:  cpu time    0.0000: real time    0.0000
 Broyden mixing: mesh for mixing (old mesh)
   NGX = 65   NGY = 65   NGZ = 65
  (NGX  =196   NGY  =196   NGZ  =196)
  gives a total of 274625 points

 initial charge density was supplied:
 charge density of overlapping atoms calculated
 number of electron      56.0000000 magnetization 
 keeping initial charge density in first step


--------------------------------------------------------------------------------------------------------


 Maximum index for augmentation-charges          565 (set IRDMAX)


--------------------------------------------------------------------------------------------------------


 First call to EWALD:  gamma=   0.089
 Maximum number of real-space cells 3x 3x 3
 Maximum number of reciprocal cells 3x 3x 3

    FEWALD:  cpu time    0.0030: real time    0.0028


--------------------------------------- Iteration      1(   1)  ---------------------------------------


    POTLOK:  cpu time    1.7587: real time    1.7608
    SETDIJ:  cpu time    0.0090: real time    0.0113
     EDDAV:  cpu time   11.5062: real time   11.5037
       DOS:  cpu time    0.0000: real time    0.0003
    --------------------------------------------
      LOOP:  cpu time   13.2740: real time   13.2760

 eigenvalue-minimisations  :   116
 total energy-change (2. order) : 0.2074485E+03  (-0.1046730E+04)
 number of electron      56.0000000 magnetization 
 augmentation part       56.0000000 magnetization 

 Free energy of the ion-electron system (eV)
  ---------------------------------------------------
  alpha Z        PSCENC =         2.51538199
  Ewald energy   TEWEN  =      2629.98113996
  -Hartree energ DENC   =     -3440.31185598
  -exchange      EXHF   =         0.00000000
  -V(xc)+E(xc)   XCENC  =       -49.23837414
  PAW double counting   =       915.51080863     -758.35430496
  entropy T*S    EENTRO =        -0.43619800
  eigenvalues    EBANDS =      -334.11323034
  atomic energy  EATOM  =      1241.89512738
  Solvation  Ediel_sol  =         0.00000000
  ---------------------------------------------------
  free energy    TOTEN  =       207.44849454 eV

  energy without entropy =      207.88469254  energy(sigma->0) =      207.66659354


--------------------------------------------------------------------------------------------------------




--------------------------------------- Iteration      1(   2)  ---------------------------------------


     EDDAV:  cpu time   13.1070: real time   13.1021
       DOS:  cpu time    0.0000: real time    0.0002
    --------------------------------------------
      LOOP:  cpu time   13.1070: real time   13.1024

 eigenvalue-minimisations  :   136
 total energy-change (2. order) :-0.2315685E+03  (-0.2161578E+03)
 number of electron      56.0000000 magnetization 
 augmentation part       56.0000000 magnetization 

 Free energy of the ion-electron system (eV)
  ---------------------------------------------------
  alpha Z        PSCENC =         2.51538199
  Ewald energy   TEWEN  =      2629.98113996
  -Hartree energ DENC   =     -3440.31185598
  -exchange      EXHF   =         0.00000000
  -V(xc)+E(xc)   XCENC  =       -49.23837414
  PAW double counting   =       915.51080863     -758.35430496
  entropy T*S    EENTRO =        -0.00000000
  eigenvalues    EBANDS =      -566.11791087
  atomic energy  EATOM  =      1241.89512738
  Solvation  Ediel_sol  =         0.00000000
  ---------------------------------------------------
  free energy    TOTEN  =       -24.11998799 eV

  energy without entropy =      -24.11998799  energy(sigma->0) =      -24.11998799


--------------------------------------------------------------------------------------------------------




--------------------------------------- Iteration      1(   3)  ---------------------------------------


     EDDAV:  cpu time   11.4683: real time   11.4681
       DOS:  cpu time    0.0000: real time    0.0002
    --------------------------------------------
      LOOP:  cpu time   11.4683: real time   11.4684

 eigenvalue-minimisations  :   112
 total energy-change (2. order) :-0.7623411E+02  (-0.7605652E+02)
 number of electron      56.0000000 magnetization 
 augmentation part       56.0000000 magnetization 

 Free energy of the ion-electron system (eV)
  ---------------------------------------------------
  alpha Z        PSCENC =         2.51538199
  Ewald energy   TEWEN  =      2629.98113996
  -Hartree energ DENC   =     -3440.31185598
  -exchange      EXHF   =         0.00000000
  -V(xc)+E(xc)   XCENC  =       -49.23837414
  PAW double counting   =       915.51080863     -758.35430496
  entropy T*S    EENTRO =        -0.00000000
  eigenvalues    EBANDS =      -642.35202094
  atomic energy  EATOM  =      1241.89512738
  Solvation  Ediel_sol  =         0.00000000
  ---------------------------------------------------
  free energy    TOTEN  =      -100.35409806 eV

  energy without entropy =     -100.35409806  energy(sigma->0) =     -100.35409806


--------------------------------------------------------------------------------------------------------




--------------------------------------- Iteration      1(   4)  ---------------------------------------


     EDDAV:  cpu time   10.5744: real time   10.5742
       DOS:  cpu time    0.0010: real time    0.0002
    --------------------------------------------
      LOOP:  cpu time   10.5754: real time   10.5745

 eigenvalue-minimisations  :   104
 total energy-change (2. order) :-0.4335866E+01  (-0.4319782E+01)
 number of electron      56.0000000 magnetization 
 augmentation part       56.0000000 magnetization 

 Free energy of the ion-electron system (eV)
  ---------------------------------------------------
  alpha Z        PSCENC =         2.51538199
  Ewald energy   TEWEN  =      2629.98113996
  -Hartree energ DENC   =     -3440.31185598
  -exchange      EXHF   =         0.00000000
  -V(xc)+E(xc)   XCENC  =       -49.23837414
  PAW double counting   =       915.51080863     -758.35430496
  entropy T*S    EENTRO =        -0.00000000
  eigenvalues    EBANDS =      -646.68788727
  atomic energy  EATOM  =      1241.89512738
  Solvation  Ediel_sol  =         0.00000000
  ---------------------------------------------------
  free energy    TOTEN  =      -104.68996439 eV

  energy without entropy =     -104.68996439  energy(sigma->0) =     -104.68996439


--------------------------------------------------------------------------------------------------------




--------------------------------------- Iteration      1(   5)  ---------------------------------------


     EDDAV:  cpu time   12.4781: real time   12.4745
       DOS:  cpu time    0.0000: real time    0.0003
    CHARGE:  cpu time    0.4879: real time    0.4875
    MIXING:  cpu time    0.0420: real time    0.0423
    --------------------------------------------
      LOOP:  cpu time   13.0080: real time   13.0046

 eigenvalue-minimisations  :   128
 total energy-change (2. order) :-0.7290050E-01  (-0.7284593E-01)
 number of electron      56.0000023 magnetization 
 augmentation part       -4.3528650 magnetization 

 Broyden mixing:
  rms(total) = 0.14570E+01    rms(broyden)= 0.14569E+01
  rms(prec ) = 0.15533E+01
  weight for this iteration     100.00

 Free energy of the ion-electron system (eV)
  ---------------------------------------------------
  alpha Z        PSCENC =         2.51538199
  Ewald energy   TEWEN  =      2629.98113996
  -Hartree energ DENC   =     -3440.31185598
  -exchange      EXHF   =         0.00000000
  -V(xc)+E(xc)   XCENC  =       -49.23837414
  PAW double counting   =       915.51080863     -758.35430496
  entropy T*S    EENTRO =        -0.00000000
  eigenvalues    EBANDS =      -646.76078778
  atomic energy  EATOM  =      1241.89512738
  Solvation  Ediel_sol  =         0.00000000
  ---------------------------------------------------
  free energy    TOTEN  =      -104.76286490 eV

  energy without entropy =     -104.76286490  energy(sigma->0) =     -104.76286490


--------------------------------------------------------------------------------------------------------




--------------------------------------- Iteration      1(   6)  ---------------------------------------


    POTLOK:  cpu time    1.7057: real time    1.7055
    SETDIJ:  cpu time    0.0080: real time    0.0080
     EDDAV:  cpu time   10.6184: real time   10.6149
       DOS:  cpu time    0.0000: real time    0.0003
    CHARGE:  cpu time    0.4889: real time    0.4891
    MIXING:  cpu time    0.0460: real time    0.0448
    --------------------------------------------
      LOOP:  cpu time   12.8670: real time   12.8626

 eigenvalue-minimisations  :   104
 total energy-change (2. order) : 0.3177534E+01  (-0.1594153E+00)
 number of electron      56.0000022 magnetization 
 augmentation part       -4.3528544 magnetization 

 Broyden mixing:
  rms(total) = 0.84066E+00    rms(broyden)= 0.84066E+00
  rms(prec ) = 0.89962E+00
  weight for this iteration     100.00

 eigenvalues of (default mixing * dielectric matrix)
  average eigenvalue GAMMA=   2.2936
  2.2936

 Free energy of the ion-electron system (eV)
  ---------------------------------------------------
  alpha Z        PSCENC =         2.51538199
  Ewald energy   TEWEN  =      2629.98113996
  -Hartree energ DENC   =     -3471.24113954
  -exchange      EXHF   =         0.00000000
  -V(xc)+E(xc)   XCENC  =       -45.60801250
  PAW double counting   =      1755.12528704    -1598.83639330
  entropy T*S    EENTRO =        -0.00000000
  eigenvalues    EBANDS =      -615.41672211
  atomic energy  EATOM  =      1241.89512738
  Solvation  Ediel_sol  =         0.00000000
  ---------------------------------------------------
  free energy    TOTEN  =      -101.58533109 eV

  energy without entropy =     -101.58533109  energy(sigma->0) =     -101.58533109


--------------------------------------------------------------------------------------------------------




--------------------------------------- Iteration      1(   7)  ---------------------------------------


    POTLOK:  cpu time    1.6957: real time    1.6964
    SETDIJ:  cpu time    0.0080: real time    0.0077
     EDDAV:  cpu time   11.2343: real time   11.2299
       DOS:  cpu time    0.0000: real time    0.0003
    CHARGE:  cpu time    0.4849: real time    0.4852
    MIXING:  cpu time    0.0470: real time    0.0468
    --------------------------------------------
      LOOP:  cpu time   13.4700: real time   13.4662

 eigenvalue-minimisations  :   112
 total energy-change (2. order) : 0.1656524E+01  (-0.3990608E+00)
 number of electron      56.0000020 magnetization 
 augmentation part       -4.3504332 magnetization 

 Broyden mixing:
  rms(total) = 0.12137E+00    rms(broyden)= 0.12122E+00
  rms(prec ) = 0.15277E+00
  weight for this iteration     100.00

 eigenvalues of (default mixing * dielectric matrix)
  average eigenvalue GAMMA=   1.8506
  1.7878  1.9133

 Free energy of the ion-electron system (eV)
  ---------------------------------------------------
  alpha Z        PSCENC =         2.51538199
  Ewald energy   TEWEN  =      2629.98113996
  -Hartree energ DENC   =     -3526.05065656
  -exchange      EXHF   =         0.00000000
  -V(xc)+E(xc)   XCENC  =       -39.88847068
  PAW double counting   =      3547.48400462    -3392.34937495
  entropy T*S    EENTRO =        -0.00000000
  eigenvalues    EBANDS =      -563.51595910
  atomic energy  EATOM  =      1241.89512738
  Solvation  Ediel_sol  =         0.00000000
  ---------------------------------------------------
  free energy    TOTEN  =       -99.92880733 eV

  energy without entropy =      -99.92880733  energy(sigma->0) =      -99.92880733


--------------------------------------------------------------------------------------------------------




--------------------------------------- Iteration      1(   8)  ---------------------------------------


    POTLOK:  cpu time    1.7177: real time    1.7189
    SETDIJ:  cpu time    0.0070: real time    0.0085
     EDDAV:  cpu time   11.2713: real time   11.2671
       DOS:  cpu time    0.0010: real time    0.0003
    CHARGE:  cpu time    0.4799: real time    0.4794
    MIXING:  cpu time    0.0550: real time    0.0553
    --------------------------------------------
      LOOP:  cpu time   13.5319: real time   13.5293

 eigenvalue-minimisations  :   112
 total energy-change (2. order) : 0.5539240E-01  (-0.2717454E-01)
 number of electron      56.0000020 magnetization 
 augmentation part       -4.3434567 magnetization 

 Broyden mixing:
  rms(total) = 0.60189E-01    rms(broyden)= 0.60175E-01
  rms(prec ) = 0.79318E-01
  weight for this iteration     100.00

 eigenvalues of (default mixing * dielectric matrix)
  average eigenvalue GAMMA=   1.9664
  2.6430  1.6281  1.6281

 Free energy of the ion-electron system (eV)
  ---------------------------------------------------
  alpha Z        PSCENC =         2.51538199
  Ewald energy   TEWEN  =      2629.98113996
  -Hartree energ DENC   =     -3534.49817838
  -exchange      EXHF   =         0.00000000
  -V(xc)+E(xc)   XCENC  =       -39.87484123
  PAW double counting   =      3576.99597777    -3421.78721252
  entropy T*S    EENTRO =        -0.00000000
  eigenvalues    EBANDS =      -555.10080990
  atomic energy  EATOM  =      1241.89512738
  Solvation  Ediel_sol  =         0.00000000
  ---------------------------------------------------
  free energy    TOTEN  =       -99.87341493 eV

  energy without entropy =      -99.87341493  energy(sigma->0) =      -99.87341493


--------------------------------------------------------------------------------------------------------




--------------------------------------- Iteration      1(   9)  ---------------------------------------


    POTLOK:  cpu time    1.7117: real time    1.7112
    SETDIJ:  cpu time    0.0080: real time    0.0085
     EDDAV:  cpu time   11.2723: real time   11.2680
       DOS:  cpu time    0.0000: real time    0.0003
    CHARGE:  cpu time    0.4869: real time    0.4853
    MIXING:  cpu time    0.0530: real time    0.0538
    --------------------------------------------
      LOOP:  cpu time   13.5319: real time   13.5269

 eigenvalue-minimisations  :   112
 total energy-change (2. order) : 0.3531407E-01  (-0.6773664E-02)
 number of electron      56.0000020 magnetization 
 augmentation part       -4.3289853 magnetization 

 Broyden mixing:
  rms(total) = 0.32505E-01    rms(broyden)= 0.32504E-01
  rms(prec ) = 0.44335E-01
  weight for this iteration     100.00

 eigenvalues of (default mixing * dielectric matrix)
  average eigenvalue GAMMA=   1.7592
  2.4975  1.8438  1.8438  0.8517

 Free energy of the ion-electron system (eV)
  ---------------------------------------------------
  alpha Z        PSCENC =         2.51538199
  Ewald energy   TEWEN  =      2629.98113996
  -Hartree energ DENC   =     -3546.04869058
  -exchange      EXHF   =         0.00000000
  -V(xc)+E(xc)   XCENC  =       -39.17905866
  PAW double counting   =      3713.18617477    -3558.02245251
  entropy T*S    EENTRO =        -0.00000000
  eigenvalues    EBANDS =      -544.16572321
  atomic energy  EATOM  =      1241.89512738
  Solvation  Ediel_sol  =         0.00000000
  ---------------------------------------------------
  free energy    TOTEN  =       -99.83810086 eV

  energy without entropy =      -99.83810086  energy(sigma->0) =      -99.83810086


--------------------------------------------------------------------------------------------------------




--------------------------------------- Iteration      1(  10)  ---------------------------------------


    POTLOK:  cpu time    1.7167: real time    1.7169
    SETDIJ:  cpu time    0.0090: real time    0.0083
     EDDAV:  cpu time   11.2383: real time   11.2340
       DOS:  cpu time    0.0000: real time    0.0003
    CHARGE:  cpu time    0.4859: real time    0.4850
    MIXING:  cpu time    0.0550: real time    0.0547
    --------------------------------------------
      LOOP:  cpu time   13.5049: real time   13.4992

 eigenvalue-minimisations  :   112
 total energy-change (2. order) : 0.5558594E-04  (-0.2613336E-03)
 number of electron      56.0000020 magnetization 
 augmentation part       -4.3282594 magnetization 

 Broyden mixing:
  rms(total) = 0.14488E-01    rms(broyden)= 0.14488E-01
  rms(prec ) = 0.27855E-01
  weight for this iteration     100.00

 eigenvalues of (default mixing * dielectric matrix)
  average eigenvalue GAMMA=   1.8740
  2.8454  2.2315  1.0934  1.5999  1.5999

 Free energy of the ion-electron system (eV)
  ---------------------------------------------------
  alpha Z        PSCENC =         2.51538199
  Ewald energy   TEWEN  =      2629.98113996
  -Hartree energ DENC   =     -3548.37247198
  -exchange      EXHF   =         0.00000000
  -V(xc)+E(xc)   XCENC  =       -39.17062564
  PAW double counting   =      3644.23667610    -3489.02373652
  entropy T*S    EENTRO =        -0.00000000
  eigenvalues    EBANDS =      -541.89953657
  atomic energy  EATOM  =      1241.89512738
  Solvation  Ediel_sol  =         0.00000000
  ---------------------------------------------------
  free energy    TOTEN  =       -99.83804527 eV

  energy without entropy =      -99.83804527  energy(sigma->0) =      -99.83804527


--------------------------------------------------------------------------------------------------------




--------------------------------------- Iteration      1(  11)  ---------------------------------------


    POTLOK:  cpu time    1.7377: real time    1.7397
    SETDIJ:  cpu time    0.0080: real time    0.0078
     EDDAV:  cpu time   10.6064: real time   10.6017
       DOS:  cpu time    0.0000: real time    0.0004
    CHARGE:  cpu time    0.4859: real time    0.4858
    MIXING:  cpu time    0.0570: real time    0.0575
    --------------------------------------------
      LOOP:  cpu time   12.8960: real time   12.8929

 eigenvalue-minimisations  :   104
 total energy-change (2. order) : 0.1685083E-03  (-0.6515752E-03)
 number of electron      56.0000020 magnetization 
 augmentation part       -4.3267839 magnetization 

 Broyden mixing:
  rms(total) = 0.81586E-02    rms(broyden)= 0.81583E-02
  rms(prec ) = 0.14548E-01
  weight for this iteration     100.00

 eigenvalues of (default mixing * dielectric matrix)
  average eigenvalue GAMMA=   1.8743
  3.2537  2.5710  1.7363  1.7363  1.0507  0.8981

 Free energy of the ion-electron system (eV)
  ---------------------------------------------------
  alpha Z        PSCENC =         2.51538199
  Ewald energy   TEWEN  =      2629.98113996
  -Hartree energ DENC   =     -3555.08784554
  -exchange      EXHF   =         0.00000000
  -V(xc)+E(xc)   XCENC  =       -38.97445615
  PAW double counting   =      3610.56689714    -3455.31744720
  entropy T*S    EENTRO =        -0.00000000
  eigenvalues    EBANDS =      -535.41667435
  atomic energy  EATOM  =      1241.89512738
  Solvation  Ediel_sol  =         0.00000000
  ---------------------------------------------------
  free energy    TOTEN  =       -99.83787677 eV

  energy without entropy =      -99.83787677  energy(sigma->0) =      -99.83787677


--------------------------------------------------------------------------------------------------------




--------------------------------------- Iteration      1(  12)  ---------------------------------------


    POTLOK:  cpu time    1.7317: real time    1.7306
    SETDIJ:  cpu time    0.0080: real time    0.0083
     EDDAV:  cpu time   10.4814: real time   10.4781
       DOS:  cpu time    0.0010: real time    0.0003
    CHARGE:  cpu time    0.4829: real time    0.4824
    MIXING:  cpu time    0.0620: real time    0.0623
    --------------------------------------------
      LOOP:  cpu time   12.7661: real time   12.7619

 eigenvalue-minimisations  :   102
 total energy-change (2. order) :-0.4647522E-02  (-0.1178986E-03)
 number of electron      56.0000020 magnetization 
 augmentation part       -4.3260310 magnetization 

 Broyden mixing:
  rms(total) = 0.56643E-02    rms(broyden)= 0.56642E-02
  rms(prec ) = 0.96657E-02
  weight for this iteration     100.00

 eigenvalues of (default mixing * dielectric matrix)
  average eigenvalue GAMMA=   2.0848
  4.5869  2.4770  2.4770  1.5439  1.5439  0.9824  0.9824

 Free energy of the ion-electron system (eV)
  ---------------------------------------------------
  alpha Z        PSCENC =         2.51538199
  Ewald energy   TEWEN  =      2629.98113996
  -Hartree energ DENC   =     -3557.52336468
  -exchange      EXHF   =         0.00000000
  -V(xc)+E(xc)   XCENC  =       -38.93688662
  PAW double counting   =      3601.09087032    -3445.83766409
  entropy T*S    EENTRO =        -0.00000000
  eigenvalues    EBANDS =      -533.02712856
  atomic energy  EATOM  =      1241.89512738
  Solvation  Ediel_sol  =         0.00000000
  ---------------------------------------------------
  free energy    TOTEN  =       -99.84252429 eV

  energy without entropy =      -99.84252429  energy(sigma->0) =      -99.84252429


--------------------------------------------------------------------------------------------------------




--------------------------------------- Iteration      1(  13)  ---------------------------------------


    POTLOK:  cpu time    1.7847: real time    1.7865
    SETDIJ:  cpu time    0.0080: real time    0.0149
     EDDAV:  cpu time   11.2333: real time   11.2290
       DOS:  cpu time    0.0000: real time    0.0003
    CHARGE:  cpu time    0.4879: real time    0.4876
    MIXING:  cpu time    0.0660: real time    0.0659
    --------------------------------------------
      LOOP:  cpu time   13.5799: real time   13.5842

 eigenvalue-minimisations  :   112
 total energy-change (2. order) :-0.4524448E-02  (-0.1672589E-03)
 number of electron      56.0000020 magnetization 
 augmentation part       -4.3258461 magnetization 

 Broyden mixing:
  rms(total) = 0.34020E-02    rms(broyden)= 0.34019E-02
  rms(prec ) = 0.51266E-02
  weight for this iteration     100.00

 eigenvalues of (default mixing * dielectric matrix)
  average eigenvalue GAMMA=   2.1868
  5.5836  2.9403  2.2501  1.8165  1.8165  0.9756  0.9756  1.1361

 Free energy of the ion-electron system (eV)
  ---------------------------------------------------
  alpha Z        PSCENC =         2.51538199
  Ewald energy   TEWEN  =      2629.98113996
  -Hartree energ DENC   =     -3560.19039287
  -exchange      EXHF   =         0.00000000
  -V(xc)+E(xc)   XCENC  =       -38.88586014
  PAW double counting   =      3606.99931408    -3451.75366371
  entropy T*S    EENTRO =        -0.00000000
  eigenvalues    EBANDS =      -530.40809542
  atomic energy  EATOM  =      1241.89512738
  Solvation  Ediel_sol  =         0.00000000
  ---------------------------------------------------
  free energy    TOTEN  =       -99.84704874 eV

  energy without entropy =      -99.84704874  energy(sigma->0) =      -99.84704874


--------------------------------------------------------------------------------------------------------




--------------------------------------- Iteration      1(  14)  ---------------------------------------


    POTLOK:  cpu time    1.7277: real time    1.7276
    SETDIJ:  cpu time    0.0080: real time    0.0080
     EDDAV:  cpu time   11.2623: real time   11.2592
       DOS:  cpu time    0.0010: real time    0.0004
    CHARGE:  cpu time    0.4809: real time    0.4803
    MIXING:  cpu time    0.0700: real time    0.0699
    --------------------------------------------
      LOOP:  cpu time   13.5499: real time   13.5454

 eigenvalue-minimisations  :   112
 total energy-change (2. order) :-0.4048211E-02  (-0.3070284E-04)
 number of electron      56.0000020 magnetization 
 augmentation part       -4.3254302 magnetization 

 Broyden mixing:
  rms(total) = 0.15355E-02    rms(broyden)= 0.15355E-02
  rms(prec ) = 0.27081E-02
  weight for this iteration     100.00

 eigenvalues of (default mixing * dielectric matrix)
  average eigenvalue GAMMA=   2.2780
  6.5579  2.9326  2.6183  2.1567  1.5966  1.5966  1.1009  0.9712  0.9712

 Free energy of the ion-electron system (eV)
  ---------------------------------------------------
  alpha Z        PSCENC =         2.51538199
  Ewald energy   TEWEN  =      2629.98113996
  -Hartree energ DENC   =     -3560.85838447
  -exchange      EXHF   =         0.00000000
  -V(xc)+E(xc)   XCENC  =       -38.90056278
  PAW double counting   =      3606.08952625    -3450.84372344
  entropy T*S    EENTRO =        -0.00000000
  eigenvalues    EBANDS =      -529.72960184
  atomic energy  EATOM  =      1241.89512738
  Solvation  Ediel_sol  =         0.00000000
  ---------------------------------------------------
  free energy    TOTEN  =       -99.85109695 eV

  energy without entropy =      -99.85109695  energy(sigma->0) =      -99.85109695


--------------------------------------------------------------------------------------------------------




--------------------------------------- Iteration      1(  15)  ---------------------------------------


    POTLOK:  cpu time    1.7207: real time    1.7199
    SETDIJ:  cpu time    0.0120: real time    0.0123
     EDDAV:  cpu time   11.2303: real time   11.2266
       DOS:  cpu time    0.0000: real time    0.0004
    CHARGE:  cpu time    0.4899: real time    0.4898
    MIXING:  cpu time    0.0790: real time    0.0789
    --------------------------------------------
      LOOP:  cpu time   13.5319: real time   13.5279

 eigenvalue-minimisations  :   112
 total energy-change (2. order) :-0.4110565E-02  (-0.4539559E-04)
 number of electron      56.0000020 magnetization 
 augmentation part       -4.3251460 magnetization 

 Broyden mixing:
  rms(total) = 0.13094E-02    rms(broyden)= 0.13094E-02
  rms(prec ) = 0.18125E-02
  weight for this iteration     100.00

 eigenvalues of (default mixing * dielectric matrix)
  average eigenvalue GAMMA=   2.3330
  6.7467  3.8874  2.6018  2.0675  2.0675  1.7252  1.2687  0.9563  1.0045  1.0045

 Free energy of the ion-electron system (eV)
  ---------------------------------------------------
  alpha Z        PSCENC =         2.51538199
  Ewald energy   TEWEN  =      2629.98113996
  -Hartree energ DENC   =     -3561.10670806
  -exchange      EXHF   =         0.00000000
  -V(xc)+E(xc)   XCENC  =       -38.90754869
  PAW double counting   =      3609.29512288    -3454.04997300
  entropy T*S    EENTRO =        -0.00000000
  eigenvalues    EBANDS =      -529.47774999
  atomic energy  EATOM  =      1241.89512738
  Solvation  Ediel_sol  =         0.00000000
  ---------------------------------------------------
  free energy    TOTEN  =       -99.85520751 eV

  energy without entropy =      -99.85520751  energy(sigma->0) =      -99.85520751


--------------------------------------------------------------------------------------------------------




--------------------------------------- Iteration      1(  16)  ---------------------------------------


    POTLOK:  cpu time    1.7147: real time    1.7147
    SETDIJ:  cpu time    0.0080: real time    0.0079
     EDDAV:  cpu time   11.2143: real time   11.2118
       DOS:  cpu time    0.0010: real time    0.0003
    CHARGE:  cpu time    0.4859: real time    0.4859
    MIXING:  cpu time    0.0850: real time    0.0858
    --------------------------------------------
      LOOP:  cpu time   13.5089: real time   13.5064

 eigenvalue-minimisations  :   112
 total energy-change (2. order) :-0.1419692E-02  (-0.9693898E-05)
 number of electron      56.0000020 magnetization 
 augmentation part       -4.3253517 magnetization 

 Broyden mixing:
  rms(total) = 0.58086E-03    rms(broyden)= 0.58086E-03
  rms(prec ) = 0.89282E-03
  weight for this iteration     100.00

 eigenvalues of (default mixing * dielectric matrix)
  average eigenvalue GAMMA=   2.4302
  7.3912  4.7641  2.6318  2.6318  1.8239  1.8239  1.3615  1.3615  0.9754  0.9754
  0.9919

 Free energy of the ion-electron system (eV)
  ---------------------------------------------------
  alpha Z        PSCENC =         2.51538199
  Ewald energy   TEWEN  =      2629.98113996
  -Hartree energ DENC   =     -3561.22199001
  -exchange      EXHF   =         0.00000000
  -V(xc)+E(xc)   XCENC  =       -38.90579360
  PAW double counting   =      3609.23223194    -3453.98641077
  entropy T*S    EENTRO =        -0.00000000
  eigenvalues    EBANDS =      -529.36631409
  atomic energy  EATOM  =      1241.89512738
  Solvation  Ediel_sol  =         0.00000000
  ---------------------------------------------------
  free energy    TOTEN  =       -99.85662720 eV

  energy without entropy =      -99.85662720  energy(sigma->0) =      -99.85662720


--------------------------------------------------------------------------------------------------------




--------------------------------------- Iteration      1(  17)  ---------------------------------------


    POTLOK:  cpu time    1.7187: real time    1.7179
    SETDIJ:  cpu time    0.0110: real time    0.0109
     EDDAV:  cpu time   11.2283: real time   11.2259
       DOS:  cpu time    0.0000: real time    0.0003
    CHARGE:  cpu time    0.4849: real time    0.4847
    MIXING:  cpu time    0.0950: real time    0.0949
    --------------------------------------------
      LOOP:  cpu time   13.5379: real time   13.5346

 eigenvalue-minimisations  :   112
 total energy-change (2. order) :-0.9186359E-03  (-0.7308361E-05)
 number of electron      56.0000020 magnetization 
 augmentation part       -4.3255093 magnetization 

 Broyden mixing:
  rms(total) = 0.34145E-03    rms(broyden)= 0.34142E-03
  rms(prec ) = 0.46731E-03
  weight for this iteration     100.00

 eigenvalues of (default mixing * dielectric matrix)
  average eigenvalue GAMMA=   2.4490
  7.6099  5.1453  2.6455  2.6455  2.0540  2.0540  1.5542  1.5542  1.1770  0.9863
  0.9863  0.9763

 Free energy of the ion-electron system (eV)
  ---------------------------------------------------
  alpha Z        PSCENC =         2.51538199
  Ewald energy   TEWEN  =      2629.98113996
  -Hartree energ DENC   =     -3561.22909223
  -exchange      EXHF   =         0.00000000
  -V(xc)+E(xc)   XCENC  =       -38.90878607
  PAW double counting   =      3607.85622898    -3452.60914301
  entropy T*S    EENTRO =        -0.00000000
  eigenvalues    EBANDS =      -529.35840285
  atomic energy  EATOM  =      1241.89512738
  Solvation  Ediel_sol  =         0.00000000
  ---------------------------------------------------
  free energy    TOTEN  =       -99.85754584 eV

  energy without entropy =      -99.85754584  energy(sigma->0) =      -99.85754584


--------------------------------------------------------------------------------------------------------




--------------------------------------- Iteration      1(  18)  ---------------------------------------


    POTLOK:  cpu time    1.7327: real time    1.7341
    SETDIJ:  cpu time    0.0080: real time    0.0081
     EDDAV:  cpu time   10.5684: real time   10.5651
       DOS:  cpu time    0.0010: real time    0.0004
    CHARGE:  cpu time    0.4819: real time    0.4814
    MIXING:  cpu time    0.1060: real time    0.1056
    --------------------------------------------
      LOOP:  cpu time   12.8980: real time   12.8948

 eigenvalue-minimisations  :   104
 total energy-change (2. order) :-0.3131103E-03  (-0.1103326E-05)
 number of electron      56.0000020 magnetization 
 augmentation part       -4.3254937 magnetization 

 Broyden mixing:
  rms(total) = 0.17596E-03    rms(broyden)= 0.17594E-03
  rms(prec ) = 0.24170E-03
  weight for this iteration     100.00

 eigenvalues of (default mixing * dielectric matrix)
  average eigenvalue GAMMA=   2.4915
  8.1384  5.8273  3.1902  2.6605  2.3082  1.7939  1.7939  1.3625  1.3625  0.9945
  0.9945  0.9814  0.9814

 Free energy of the ion-electron system (eV)
  ---------------------------------------------------
  alpha Z        PSCENC =         2.51538199
  Ewald energy   TEWEN  =      2629.98113996
  -Hartree energ DENC   =     -3561.26553594
  -exchange      EXHF   =         0.00000000
  -V(xc)+E(xc)   XCENC  =       -38.90814355
  PAW double counting   =      3607.90021762    -3452.65368561
  entropy T*S    EENTRO =        -0.00000000
  eigenvalues    EBANDS =      -529.32236081
  atomic energy  EATOM  =      1241.89512738
  Solvation  Ediel_sol  =         0.00000000
  ---------------------------------------------------
  free energy    TOTEN  =       -99.85785895 eV

  energy without entropy =      -99.85785895  energy(sigma->0) =      -99.85785895


--------------------------------------------------------------------------------------------------------




--------------------------------------- Iteration      1(  19)  ---------------------------------------


    POTLOK:  cpu time    1.7227: real time    1.7234
    SETDIJ:  cpu time    0.0080: real time    0.0082
     EDDAV:  cpu time   10.7334: real time   10.7289
       DOS:  cpu time    0.0010: real time    0.0004
    CHARGE:  cpu time    0.4919: real time    0.4919
    MIXING:  cpu time    0.1190: real time    0.1194
    --------------------------------------------
      LOOP:  cpu time   13.0760: real time   13.0722

 eigenvalue-minimisations  :   104
 total energy-change (2. order) :-0.1117320E-03  (-0.3738979E-06)
 number of electron      56.0000020 magnetization 
 augmentation part       -4.3255290 magnetization 

 Broyden mixing:
  rms(total) = 0.15549E-03    rms(broyden)= 0.15548E-03
  rms(prec ) = 0.19124E-03
  weight for this iteration     100.00

 eigenvalues of (default mixing * dielectric matrix)
  average eigenvalue GAMMA=   2.4929
  8.3855  6.0184  3.3305  2.7008  2.1935  2.1935  1.7445  1.7445  1.3565  1.3565
  1.0058  1.0058  0.9325  0.9325

 Free energy of the ion-electron system (eV)
  ---------------------------------------------------
  alpha Z        PSCENC =         2.51538199
  Ewald energy   TEWEN  =      2629.98113996
  -Hartree energ DENC   =     -3561.27261163
  -exchange      EXHF   =         0.00000000
  -V(xc)+E(xc)   XCENC  =       -38.90740726
  PAW double counting   =      3607.76614977    -3452.51966265
  entropy T*S    EENTRO =        -0.00000000
  eigenvalues    EBANDS =      -529.31608824
  atomic energy  EATOM  =      1241.89512738
  Solvation  Ediel_sol  =         0.00000000
  ---------------------------------------------------
  free energy    TOTEN  =       -99.85797068 eV

  energy without entropy =      -99.85797068  energy(sigma->0) =      -99.85797068


--------------------------------------------------------------------------------------------------------




--------------------------------------- Iteration      1(  20)  ---------------------------------------


    POTLOK:  cpu time    1.7257: real time    1.7249
    SETDIJ:  cpu time    0.0080: real time    0.0079
     EDDAV:  cpu time    9.3416: real time    9.3390
       DOS:  cpu time    0.0000: real time    0.0003
    CHARGE:  cpu time    0.4829: real time    0.4830
    MIXING:  cpu time    0.1310: real time    0.1307
    --------------------------------------------
      LOOP:  cpu time   11.6892: real time   11.6859

 eigenvalue-minimisations  :    88
 total energy-change (2. order) :-0.4801021E-04  (-0.7840645E-07)
 number of electron      56.0000020 magnetization 
 augmentation part       -4.3255221 magnetization 

 Broyden mixing:
  rms(total) = 0.62344E-04    rms(broyden)= 0.62343E-04
  rms(prec ) = 0.84843E-04
  weight for this iteration     100.00

 eigenvalues of (default mixing * dielectric matrix)
  average eigenvalue GAMMA=   2.5271
  8.6329  6.4048  4.0354  2.8585  2.5722  1.8878  1.8878  1.6455  1.6455  1.2253
  1.2253  0.9982  0.9982  0.9641  0.9244

 Free energy of the ion-electron system (eV)
  ---------------------------------------------------
  alpha Z        PSCENC =         2.51538199
  Ewald energy   TEWEN  =      2629.98113996
  -Hartree energ DENC   =     -3561.27335421
  -exchange      EXHF   =         0.00000000
  -V(xc)+E(xc)   XCENC  =       -38.90834643
  PAW double counting   =      3607.60281429    -3452.35624825
  entropy T*S    EENTRO =        -0.00000000
  eigenvalues    EBANDS =      -529.31453343
  atomic energy  EATOM  =      1241.89512738
  Solvation  Ediel_sol  =         0.00000000
  ---------------------------------------------------
  free energy    TOTEN  =       -99.85801869 eV

  energy without entropy =      -99.85801869  energy(sigma->0) =      -99.85801869


--------------------------------------------------------------------------------------------------------




--------------------------------------- Iteration      1(  21)  ---------------------------------------


    POTLOK:  cpu time    1.7107: real time    1.7107
    SETDIJ:  cpu time    0.0070: real time    0.0079
     EDDAV:  cpu time    9.3576: real time    9.3535
       DOS:  cpu time    0.0000: real time    0.0004
    CHARGE:  cpu time    0.4829: real time    0.4827
    MIXING:  cpu time    0.1410: real time    0.1411
    --------------------------------------------
      LOOP:  cpu time   11.6992: real time   11.6965

 eigenvalue-minimisations  :    88
 total energy-change (2. order) :-0.2352923E-04  (-0.6986854E-07)
 number of electron      56.0000020 magnetization 
 augmentation part       -4.3255078 magnetization 

 Broyden mixing:
  rms(total) = 0.38405E-04    rms(broyden)= 0.38403E-04
  rms(prec ) = 0.51577E-04
  weight for this iteration     100.00

 eigenvalues of (default mixing * dielectric matrix)
  average eigenvalue GAMMA=   2.5119
  8.5463  6.6412  4.0498  2.8425  2.6235  2.1030  2.1030  1.7581  1.7581  1.5270
  1.1544  1.1544  1.0076  1.0076  0.9569  0.9569

 Free energy of the ion-electron system (eV)
  ---------------------------------------------------
  alpha Z        PSCENC =         2.51538199
  Ewald energy   TEWEN  =      2629.98113996
  -Hartree energ DENC   =     -3561.28243469
  -exchange      EXHF   =         0.00000000
  -V(xc)+E(xc)   XCENC  =       -38.90816307
  PAW double counting   =      3607.73813763    -3452.49172493
  entropy T*S    EENTRO =        -0.00000000
  eigenvalues    EBANDS =      -529.30550648
  atomic energy  EATOM  =      1241.89512738
  Solvation  Ediel_sol  =         0.00000000
  ---------------------------------------------------
  free energy    TOTEN  =       -99.85804222 eV

  energy without entropy =      -99.85804222  energy(sigma->0) =      -99.85804222


--------------------------------------------------------------------------------------------------------




--------------------------------------- Iteration      1(  22)  ---------------------------------------


    POTLOK:  cpu time    1.7117: real time    1.7107
    SETDIJ:  cpu time    0.0080: real time    0.0080
     EDDAV:  cpu time    9.3306: real time    9.3267
       DOS:  cpu time    0.0000: real time    0.0003
    CHARGE:  cpu time    0.4869: real time    0.4871
    MIXING:  cpu time    0.1520: real time    0.1523
    --------------------------------------------
      LOOP:  cpu time   11.6892: real time   11.6851

 eigenvalue-minimisations  :    88
 total energy-change (2. order) :-0.8126121E-05  (-0.1638462E-07)
 number of electron      56.0000020 magnetization 
 augmentation part       -4.3255156 magnetization 

 Broyden mixing:
  rms(total) = 0.16578E-04    rms(broyden)= 0.16577E-04
  rms(prec ) = 0.24499E-04
  weight for this iteration     100.00

 eigenvalues of (default mixing * dielectric matrix)
  average eigenvalue GAMMA=   2.5428
  8.7917  6.8098  4.7574  3.2855  2.5890  2.5890  1.8976  1.8976  1.6461  1.6461
  1.2167  1.2167  0.9907  0.9907  1.0100  0.9461  0.9461

 Free energy of the ion-electron system (eV)
  ---------------------------------------------------
  alpha Z        PSCENC =         2.51538199
  Ewald energy   TEWEN  =      2629.98113996
  -Hartree energ DENC   =     -3561.28139803
  -exchange      EXHF   =         0.00000000
  -V(xc)+E(xc)   XCENC  =       -38.90808783
  PAW double counting   =      3607.75378703    -3452.50730565
  entropy T*S    EENTRO =        -0.00000000
  eigenvalues    EBANDS =      -529.30669520
  atomic energy  EATOM  =      1241.89512738
  Solvation  Ediel_sol  =         0.00000000
  ---------------------------------------------------
  free energy    TOTEN  =       -99.85805035 eV

  energy without entropy =      -99.85805035  energy(sigma->0) =      -99.85805035


--------------------------------------------------------------------------------------------------------




--------------------------------------- Iteration      1(  23)  ---------------------------------------


    POTLOK:  cpu time    1.7267: real time    1.7271
    SETDIJ:  cpu time    0.0080: real time    0.0082
     EDDAV:  cpu time    9.3616: real time    9.3582
       DOS:  cpu time    0.0000: real time    0.0003
    CHARGE:  cpu time    0.4879: real time    0.4882
    MIXING:  cpu time    0.1660: real time    0.1659
    --------------------------------------------
      LOOP:  cpu time   11.7502: real time   11.7479

 eigenvalue-minimisations  :    88
 total energy-change (2. order) :-0.3516545E-05  (-0.9984838E-08)
 number of electron      56.0000020 magnetization 
 augmentation part       -4.3255188 magnetization 

 Broyden mixing:
  rms(total) = 0.11195E-04    rms(broyden)= 0.11194E-04
  rms(prec ) = 0.15434E-04
  weight for this iteration     100.00

 eigenvalues of (default mixing * dielectric matrix)
  average eigenvalue GAMMA=   2.5248
  8.8504  6.8793  4.9132  3.3090  2.6491  2.6491  1.9161  1.9161  1.6991  1.6991
  1.5734  1.2040  1.2040  0.9360  1.0280  1.0280  0.9965  0.9965

 Free energy of the ion-electron system (eV)
  ---------------------------------------------------
  alpha Z        PSCENC =         2.51538199
  Ewald energy   TEWEN  =      2629.98113996
  -Hartree energ DENC   =     -3561.28142092
  -exchange      EXHF   =         0.00000000
  -V(xc)+E(xc)   XCENC  =       -38.90821458
  PAW double counting   =      3607.72938229    -3452.48286972
  entropy T*S    EENTRO =        -0.00000000
  eigenvalues    EBANDS =      -529.30658026
  atomic energy  EATOM  =      1241.89512738
  Solvation  Ediel_sol  =         0.00000000
  ---------------------------------------------------
  free energy    TOTEN  =       -99.85805386 eV

  energy without entropy =      -99.85805386  energy(sigma->0) =      -99.85805386


--------------------------------------------------------------------------------------------------------




--------------------------------------- Iteration      1(  24)  ---------------------------------------


    POTLOK:  cpu time    1.7257: real time    1.7250
    SETDIJ:  cpu time    0.0080: real time    0.0081
     EDDAV:  cpu time    9.3336: real time    9.3295
       DOS:  cpu time    0.0000: real time    0.0003
    CHARGE:  cpu time    0.4859: real time    0.4863
    MIXING:  cpu time    0.1790: real time    0.1789
    --------------------------------------------
      LOOP:  cpu time   11.7322: real time   11.7280

 eigenvalue-minimisations  :    88
 total energy-change (2. order) :-0.2149733E-05  (-0.3244457E-08)
 number of electron      56.0000020 magnetization 
 augmentation part       -4.3255195 magnetization 

 Broyden mixing:
  rms(total) = 0.38550E-05    rms(broyden)= 0.38548E-05
  rms(prec ) = 0.64419E-05
  weight for this iteration     100.00

 eigenvalues of (default mixing * dielectric matrix)
  average eigenvalue GAMMA=   2.5855
  8.8685  7.1989  5.5917  3.9888  3.0107  2.5591  2.3983  1.8736  1.8736  1.6722
  1.6722  1.2259  1.2259  1.0835  1.0008  1.0008  0.9480  0.9480  0.9834

 Free energy of the ion-electron system (eV)
  ---------------------------------------------------
  alpha Z        PSCENC =         2.51538199
  Ewald energy   TEWEN  =      2629.98113996
  -Hartree energ DENC   =     -3561.28193053
  -exchange      EXHF   =         0.00000000
  -V(xc)+E(xc)   XCENC  =       -38.90818518
  PAW double counting   =      3607.70875149    -3452.46225820
  entropy T*S    EENTRO =        -0.00000000
  eigenvalues    EBANDS =      -529.30608293
  atomic energy  EATOM  =      1241.89512738
  Solvation  Ediel_sol  =         0.00000000
  ---------------------------------------------------
  free energy    TOTEN  =       -99.85805601 eV

  energy without entropy =      -99.85805601  energy(sigma->0) =      -99.85805601


--------------------------------------------------------------------------------------------------------




--------------------------------------- Iteration      1(  25)  ---------------------------------------


    POTLOK:  cpu time    1.7367: real time    1.7357
    SETDIJ:  cpu time    0.0090: real time    0.0087
     EDDAV:  cpu time    9.3676: real time    9.3642
       DOS:  cpu time    0.0000: real time    0.0002
    --------------------------------------------
      LOOP:  cpu time   11.1133: real time   11.1087

 eigenvalue-minimisations  :    88
 total energy-change (2. order) :-0.6530749E-06  (-0.1137913E-08)
 number of electron      56.0000020 magnetization 
 augmentation part       -4.3255195 magnetization 

 Free energy of the ion-electron system (eV)
  ---------------------------------------------------
  alpha Z        PSCENC =         2.51538199
  Ewald energy   TEWEN  =      2629.98113996
  -Hartree energ DENC   =     -3561.28256881
  -exchange      EXHF   =         0.00000000
  -V(xc)+E(xc)   XCENC  =       -38.90815137
  PAW double counting   =      3607.70846182    -3452.46197502
  entropy T*S    EENTRO =        -0.00000000
  eigenvalues    EBANDS =      -529.30547262
  atomic energy  EATOM  =      1241.89512738
  Solvation  Ediel_sol  =         0.00000000
  ---------------------------------------------------
  free energy    TOTEN  =       -99.85805667 eV

  energy without entropy =      -99.85805667  energy(sigma->0) =      -99.85805667


--------------------------------------------------------------------------------------------------------




 average (electrostatic) potential at core
  the test charge radii are     0.9892  1.1631  0.5201
  (the norm of the test charge is              1.0000)
       1 -93.4688       2 -93.5040       3 -93.5040       4 -93.5039       5 -40.4368
       6 -40.4369       7 -40.4369       8 -40.3800       9 -40.3800      10 -40.3800
      11 -40.6951      12 -40.6859      13 -41.0632      14 -40.6956      15 -40.6861
      16 -41.0631      17 -41.0638      18 -40.6736      19 -41.0636      20 -40.6859
      21 -40.6951      22 -41.0634      23 -41.0630      24 -41.0631      25 -41.0626
      26 -41.0627
 
 
 
 E-fermi :  -5.3996     XC(G=0):  -0.6098     alpha+bet : -0.3306


 k-point     1 :       0.0000    0.0000    0.0000
  band No.  band energies     occupation 
      1     -15.3648      2.00000
      2     -14.4452      2.00000
      3     -14.4451      2.00000
      4     -14.0777      2.00000
      5     -12.9830      2.00000
      6     -12.9830      2.00000
      7     -11.7170      2.00000
      8     -11.7169      2.00000
      9     -11.4564      2.00000
     10     -10.5564      2.00000
     11      -8.9861      2.00000
     12      -8.6355      2.00000
     13      -8.6354      2.00000
     14      -8.6187      2.00000
     15      -8.1992      2.00000
     16      -8.1992      2.00000
     17      -8.1724      2.00000
     18      -7.8575      2.00000
     19      -7.8574      2.00000
     20      -7.8538      2.00000
     21      -6.7573      2.00000
     22      -6.7572      2.00000
     23      -6.4473      2.00000
     24      -6.4470      2.00000
     25      -6.4470      2.00000
     26      -6.3522      2.00000
     27      -6.3420      2.00000
     28      -6.3419      2.00000
     29      -1.6242      0.00000
     30      -1.2986      0.00000
     31      -1.2489      0.00000
     32      -1.2487      0.00000
     33      -1.1638      0.00000
     34      -1.1638      0.00000
     35      -0.8726      0.00000
     36      -0.8628      0.00000
     37      -0.8623      0.00000
     38      -0.7036      0.00000
     39      -0.3359      0.00000
     40      -0.2196      0.00000
     41      -0.2195      0.00000
     42      -0.1694      0.00000


--------------------------------------------------------------------------------------------------------


 soft charge-density along one line, spin component           1
         0         1         2         3         4         5         6         7         8         9
 total charge-density along one line
 
 pseudopotential strength for first ion, spin component:           1
 19.623  27.384  -0.001   0.004   0.001  -0.002   0.008   0.001
 27.384  38.220  -0.001   0.006   0.001  -0.002   0.010   0.001
 -0.001  -0.001   4.360   0.000   0.000   8.134   0.000   0.000
  0.004   0.006   0.000   4.360  -0.000   0.000   8.133  -0.000
  0.001   0.001   0.000  -0.000   4.361   0.000  -0.000   8.134
 -0.002  -0.002   8.134   0.000   0.000  15.184   0.000   0.000
  0.008   0.010   0.000   8.133  -0.000   0.000  15.182  -0.000
  0.001   0.001   0.000  -0.000   8.134   0.000  -0.000  15.184
 total augmentation occupancy for first ion, spin component:           1
  5.511  -2.016   0.074  -0.351  -0.047  -0.022   0.105   0.014
 -2.016   0.808  -0.044   0.212   0.028   0.010  -0.045  -0.006
  0.074  -0.044   2.794  -0.104  -0.014  -0.601   0.036   0.005
 -0.351   0.212  -0.104   3.269   0.066   0.036  -0.767  -0.023
 -0.047   0.028  -0.014   0.066   2.782   0.005  -0.023  -0.597
 -0.022   0.010  -0.601   0.036   0.005   0.137  -0.010  -0.001
  0.105  -0.045   0.036  -0.767  -0.023  -0.010   0.183   0.007
  0.014  -0.006   0.005  -0.023  -0.597  -0.001   0.007   0.135


------------------------ aborting loop because EDIFF is reached ----------------------------------------


    CHARGE:  cpu time    0.4849: real time    0.4843
    FORLOC:  cpu time    0.1730: real time    0.1731
    FORNL :  cpu time    1.1578: real time    1.1573
    STRESS:  cpu time    8.4197: real time    8.4157
    FORCOR:  cpu time    1.7137: real time    1.7135
    FORHAR:  cpu time    0.5809: real time    0.5816
    MIXING:  cpu time    0.1910: real time    0.1908
    OFIELD:  cpu time    0.0000: real time    0.0001

  FORCE on cell =-STRESS in cart. coord.  units (eV):
  Direction    XX          YY          ZZ          XY          YZ          ZX
  --------------------------------------------------------------------------------------
  Alpha Z     2.51538     2.51538     2.51538
  Ewald     876.64706   876.62235   876.71007    -0.21850     0.02563    -0.50464
  Hartree  1186.89135  1186.87972  1187.51184    -0.22696    -0.05922    -0.44255
  E(xc)    -180.38720  -180.37929  -180.08422    -0.00869    -0.06469     0.04135
  Local   -2546.65690 -2546.61701 -2547.21987     0.44214     0.00800     0.96405
  n-local   239.23389   239.19322   237.66483     0.04513     0.33497    -0.21382
  augment   -13.83356   -13.83420   -13.80910    -0.00065    -0.00517     0.00316
  Kinetic   434.96397   434.98606   435.82526    -0.02487    -0.18370     0.11731
  Fock        0.00000     0.00000     0.00000     0.00000     0.00000     0.00000
  -------------------------------------------------------------------------------------
  Total      -0.62601    -0.63376    -0.88580     0.00760     0.05582    -0.03513
  in kB      -0.12537    -0.12692    -0.17740     0.00152     0.01118    -0.00704
  external pressure =       -0.14 kB  Pullay stress =        0.00 kB


 VOLUME and BASIS-vectors are now :
 -----------------------------------------------------------------------------
  energy-cutoff  :      400.00
[...]
 next E    =  -100.084499   (d E  =  -0.00011)


--------------------------------------------------------------------------------------------------------


    WAVPRE:  cpu time    0.5799: real time    0.5841
    FEWALD:  cpu time    0.0010: real time    0.0014
    ORTHCH:  cpu time    1.0108: real time    1.0091
     LOOP+:  cpu time   82.3565: real time   82.4883


--------------------------------------- Iteration     19(   1)  ---------------------------------------


    POTLOK:  cpu time    1.7347: real time    1.7355
    SETDIJ:  cpu time    0.0080: real time    0.0081
     EDDAV:  cpu time    9.1466: real time    9.1433
       DOS:  cpu time    0.0000: real time    0.0003
    CHARGE:  cpu time    0.4829: real time    0.4832
    MIXING:  cpu time    0.0430: real time    0.0433
    --------------------------------------------
      LOOP:  cpu time   11.4153: real time   11.4137

 eigenvalue-minimisations  :    84
 total energy-change (2. order) :-0.6992336E-04  (-0.3063366E-03)
 number of electron      56.0000022 magnetization 
 augmentation part       -4.3134805 magnetization 

 Broyden mixing:
  rms(total) = 0.19454E-02    rms(broyden)= 0.19449E-02
  rms(prec ) = 0.20132E-02
  weight for this iteration     100.00

 Free energy of the ion-electron system (eV)
  ---------------------------------------------------
  alpha Z        PSCENC =         2.51538199
  Ewald energy   TEWEN  =      2594.07812418
  -Hartree energ DENC   =     -3526.14082907
  -exchange      EXHF   =         0.00000000
  -V(xc)+E(xc)   XCENC  =       -38.77744277
  PAW double counting   =      3662.86464255    -3507.60331622
  entropy T*S    EENTRO =        -0.00000000
  eigenvalues    EBANDS =      -528.91617153
  atomic energy  EATOM  =      1241.89512738
  Solvation  Ediel_sol  =         0.00000000
  ---------------------------------------------------
  free energy    TOTEN  =      -100.08448349 eV

  energy without entropy =     -100.08448349  energy(sigma->0) =     -100.08448349


--------------------------------------------------------------------------------------------------------




--------------------------------------- Iteration     19(   2)  ---------------------------------------


    POTLOK:  cpu time    1.7317: real time    1.7305
    SETDIJ:  cpu time    0.0080: real time    0.0083
     EDDAV:  cpu time   11.9842: real time   12.0210
       DOS:  cpu time    0.0000: real time    0.0003
    CHARGE:  cpu time    0.4919: real time    0.4913
    MIXING:  cpu time    0.0460: real time    0.0459
    --------------------------------------------
      LOOP:  cpu time   14.2618: real time   14.2972

 eigenvalue-minimisations  :   120
 total energy-change (2. order) :-0.1588310E-04  (-0.1769063E-04)
 number of electron      56.0000022 magnetization 
 augmentation part       -4.3135725 magnetization 

 Broyden mixing:
  rms(total) = 0.12217E-02    rms(broyden)= 0.12213E-02
  rms(prec ) = 0.12990E-02
  weight for this iteration     100.00

 eigenvalues of (default mixing * dielectric matrix)
  average eigenvalue GAMMA=   0.9603
  0.9603

 Free energy of the ion-electron system (eV)
  ---------------------------------------------------
  alpha Z        PSCENC =         2.51538199
  Ewald energy   TEWEN  =      2594.07812418
  -Hartree energ DENC   =     -3526.14215545
  -exchange      EXHF   =         0.00000000
  -V(xc)+E(xc)   XCENC  =       -38.77768944
  PAW double counting   =      3662.96880352    -3507.70745477
  entropy T*S    EENTRO =        -0.00000000
  eigenvalues    EBANDS =      -528.91463679
  atomic energy  EATOM  =      1241.89512738
  Solvation  Ediel_sol  =         0.00000000
  ---------------------------------------------------
  free energy    TOTEN  =      -100.08449938 eV

  energy without entropy =     -100.08449938  energy(sigma->0) =     -100.08449938


--------------------------------------------------------------------------------------------------------




--------------------------------------- Iteration     19(   3)  ---------------------------------------


    POTLOK:  cpu time    1.7307: real time    1.7304
    SETDIJ:  cpu time    0.0080: real time    0.0079
     EDDAV:  cpu time   12.0402: real time   12.0367
       DOS:  cpu time    0.0000: real time    0.0003
    --------------------------------------------
      LOOP:  cpu time   13.7789: real time   13.7752

 eigenvalue-minimisations  :   120
 total energy-change (2. order) : 0.6224427E-06  (-0.4995229E-06)
 number of electron      56.0000022 magnetization 
 augmentation part       -4.3135725 magnetization 

 Free energy of the ion-electron system (eV)
  ---------------------------------------------------
  alpha Z        PSCENC =         2.51538199
  Ewald energy   TEWEN  =      2594.07812418
  -Hartree energ DENC   =     -3526.14175396
  -exchange      EXHF   =         0.00000000
  -V(xc)+E(xc)   XCENC  =       -38.77812178
  PAW double counting   =      3662.91072237    -3507.64939360
  entropy T*S    EENTRO =        -0.00000000
  eigenvalues    EBANDS =      -528.91458533
  atomic energy  EATOM  =      1241.89512738
  Solvation  Ediel_sol  =         0.00000000
  ---------------------------------------------------
  free energy    TOTEN  =      -100.08449875 eV

  energy without entropy =     -100.08449875  energy(sigma->0) =     -100.08449875


--------------------------------------------------------------------------------------------------------




 average (electrostatic) potential at core
  the test charge radii are     0.9892  1.1631  0.5201
  (the norm of the test charge is              1.0000)
       1 -93.4924       2 -93.4224       3 -93.4226       4 -93.4225       5 -40.4365
       6 -40.4367       7 -40.4366       8 -40.4001       9 -40.4003      10 -40.4002
      11 -40.8594      12 -40.8602      13 -41.0075      14 -40.8591      15 -40.8586
      16 -40.9807      17 -40.9805      18 -40.9142      19 -41.0064      20 -40.8591
      21 -40.8600      22 -41.0063      23 -40.9809      24 -40.9806      25 -40.9815
      26 -40.9804
 
 
 
 E-fermi :  -5.4017     XC(G=0):  -0.6105     alpha+bet : -0.3306


 k-point     1 :       0.0000    0.0000    0.0000
  band No.  band energies     occupation 
      1     -15.2261      2.00000
      2     -14.2922      2.00000
      3     -14.2921      2.00000
      4     -14.1026      2.00000
      5     -13.0235      2.00000
      6     -13.0235      2.00000
      7     -11.7903      2.00000
      8     -11.7902      2.00000
      9     -11.5308      2.00000
     10     -10.6874      2.00000
     11      -8.9477      2.00000
     12      -8.6927      2.00000
     13      -8.5816      2.00000
     14      -8.5814      2.00000
     15      -8.2380      2.00000
     16      -8.2378      2.00000
     17      -8.0392      2.00000
     18      -7.9571      2.00000
     19      -7.7971      2.00000
     20      -7.7969      2.00000
     21      -6.7864      2.00000
     22      -6.7862      2.00000
     23      -6.4322      2.00000
     24      -6.3910      2.00000
     25      -6.3909      2.00000
     26      -6.3584      2.00000
     27      -6.3583      2.00000
     28      -6.3258      2.00000
     29      -1.5821      0.00000
     30      -1.3715      0.00000
     31      -1.3714      0.00000
     32      -1.3182      0.00000
     33      -1.2141      0.00000
     34      -1.2139      0.00000
     35      -0.8782      0.00000
     36      -0.8563      0.00000
     37      -0.8557      0.00000
     38      -0.7481      0.00000
     39      -0.2745      0.00000
     40      -0.2075      0.00000
     41      -0.1548      0.00000
     42      -0.1546      0.00000


--------------------------------------------------------------------------------------------------------


 soft charge-density along one line, spin component           1
         0         1         2         3         4         5         6         7         8         9
 total charge-density along one line
 
 pseudopotential strength for first ion, spin component:           1
 19.627  27.390  -0.001   0.004   0.000  -0.001   0.007   0.001
 27.390  38.229  -0.001   0.005   0.001  -0.002   0.009   0.001
 -0.001  -0.001   4.362   0.000   0.000   8.136   0.000   0.000
  0.004   0.005   0.000   4.362  -0.000   0.000   8.136  -0.000
  0.000   0.001   0.000  -0.000   4.362   0.000  -0.000   8.136
 -0.001  -0.002   8.136   0.000   0.000  15.188   0.000   0.000
  0.007   0.009   0.000   8.136  -0.000   0.000  15.187  -0.000
  0.001   0.001   0.000  -0.000   8.136   0.000  -0.000  15.188
 total augmentation occupancy for first ion, spin component:           1
  5.605  -2.065   0.108  -0.515  -0.069  -0.033   0.158   0.021
 -2.065   0.830  -0.060   0.289   0.039   0.014  -0.069  -0.009
  0.108  -0.060   2.759  -0.152  -0.020  -0.592   0.050   0.007
 -0.515   0.289  -0.152   3.451   0.097   0.050  -0.820  -0.032
 -0.069   0.039  -0.020   0.097   2.741   0.007  -0.032  -0.586
 -0.033   0.014  -0.592   0.050   0.007   0.134  -0.014  -0.002
  0.158  -0.069   0.050  -0.820  -0.032  -0.014   0.198   0.009
  0.021  -0.009   0.007  -0.032  -0.586  -0.002   0.009   0.133


------------------------ aborting loop because EDIFF is reached ----------------------------------------


    CHARGE:  cpu time    0.4879: real time    0.4874
    FORLOC:  cpu time    0.1710: real time    0.1718
    FORNL :  cpu time    1.1488: real time    1.1480
    STRESS:  cpu time    9.0196: real time    9.0462
    FORCOR:  cpu time    1.7087: real time    1.7147
    FORHAR:  cpu time    0.5809: real time    0.5811
    MIXING:  cpu time    0.0460: real time    0.0461
    OFIELD:  cpu time    0.0000: real time    0.0000

  FORCE on cell =-STRESS in cart. coord.  units (eV):
  Direction    XX          YY          ZZ          XY          YZ          ZX
  --------------------------------------------------------------------------------------
  Alpha Z     2.51538     2.51538     2.51538
  Ewald     862.37062   862.59092   869.11489    -0.30554    -0.64156    -0.14508
  Hartree  1171.79521  1172.09660  1182.25221    -0.41239    -1.47389     0.40861
  E(xc)    -180.39812  -180.38848  -180.03133    -0.01052    -0.07827     0.05008
  Local   -2516.70202 -2517.23887 -2534.47559     0.73428     2.23778    -0.34130
  n-local   238.01327   237.98448   236.89723     0.03178     0.23819    -0.15302
  augment   -13.92895   -13.93577   -14.08986     0.00481     0.03427    -0.02196
  Kinetic   435.41218   435.44885   436.92612    -0.04276    -0.32324     0.20842
  Fock        0.00000     0.00000     0.00000     0.00000     0.00000     0.00000
  -------------------------------------------------------------------------------------
  Total      -0.92243    -0.92689    -0.89096    -0.00034    -0.00672     0.00574
  in kB      -0.18474    -0.18563    -0.17843    -0.00007    -0.00135     0.00115
  external pressure =       -0.18 kB  Pullay stress =        0.00 kB


 VOLUME and BASIS-vectors are now :
 -----------------------------------------------------------------------------
  energy-cutoff  :      400.00
  volume of cell :     8000.00
      direct lattice vectors                 reciprocal lattice vectors
    20.000000000  0.000000000  0.000000000     0.050000000  0.000000000  0.000000000
     0.000000000 20.000000000  0.000000000     0.000000000  0.050000000  0.000000000
     0.000000000  0.000000000 20.000000000     0.000000000  0.000000000  0.050000000

  length of vectors
    20.000000000 20.000000000 20.000000000     0.050000000  0.050000000  0.050000000


 FORCES acting on ions
    electron-ion (+dipol)            ewald-force                    non-local-force                 convergence-correction
 -----------------------------------------------------------------------------------------------
   0.117E+02 -.183E+02 0.868E+02   -.119E+02 0.186E+02 -.885E+02   0.231E+00 -.359E+00 0.172E+01   -.277E-03 0.410E-03 -.199E-02
   -.848E+02 0.494E+01 -.447E+02   0.870E+02 -.506E+01 0.458E+02   -.221E+01 0.122E+00 -.113E+01   0.678E-05 -.328E-03 0.152E-02
   0.281E+02 0.807E+02 -.439E+02   -.288E+02 -.828E+02 0.450E+02   0.734E+00 0.210E+01 -.111E+01   0.320E-03 -.998E-04 0.159E-02
   0.355E+02 -.521E+02 -.726E+02   -.364E+02 0.534E+02 0.745E+02   0.927E+00 -.136E+01 -.186E+01   0.334E-03 -.549E-03 0.151E-02
   0.876E+02 -.478E+01 0.447E+02   -.882E+02 0.490E+01 -.454E+02   0.641E+00 -.117E+00 0.700E+00   -.648E-03 0.264E-03 -.142E-02
   -.369E+02 0.542E+02 0.737E+02   0.371E+02 -.545E+02 -.746E+02   -.192E+00 0.278E+00 0.895E+00   0.486E-04 -.641E-04 -.159E-02
   -.292E+02 -.832E+02 0.440E+02   0.293E+02 0.838E+02 -.447E+02   -.142E+00 -.642E+00 0.695E+00   0.237E-04 0.756E-03 -.143E-02
   0.823E+02 0.129E+02 -.382E+02   -.826E+02 -.131E+02 0.388E+02   0.298E+00 0.145E+00 -.594E+00   -.526E-03 -.380E-05 -.127E-03
   -.510E+02 0.759E+02 -.708E+01   0.513E+02 -.763E+02 0.754E+01   -.277E+00 0.416E+00 -.460E+00   0.261E-03 -.372E-03 -.290E-03
   -.428E+02 -.711E+02 -.390E+02   0.430E+02 0.714E+02 0.396E+02   -.242E+00 -.217E+00 -.597E+00   0.205E-03 0.504E-03 -.133E-03
   0.210E+02 0.409E+02 0.681E+01   -.224E+02 -.431E+02 -.811E+01   0.138E+01 0.228E+01 0.131E+01   -.463E-03 -.999E-03 0.276E-04
   0.112E+01 0.224E+02 -.408E+02   -.770E+00 -.231E+02 0.437E+02   -.354E+00 0.665E+00 -.287E+01   -.317E-03 -.407E-03 -.504E-03
   -.259E+02 0.384E+02 -.395E+01   0.272E+02 -.404E+02 0.414E+01   -.137E+01 0.204E+01 -.189E+00   -.404E-04 0.763E-04 0.108E-04
   -.457E+02 -.396E+01 0.635E+01   0.484E+02 0.439E+01 -.762E+01   -.264E+01 -.427E+00 0.128E+01   0.107E-02 0.497E-04 0.770E-04
   -.208E+02 0.775E+01 -.410E+02   0.213E+02 -.835E+01 0.438E+02   -.455E+00 0.597E+00 -.287E+01   0.503E-03 0.135E-03 -.454E-03
   -.352E+02 0.545E+01 0.272E+02   0.374E+02 -.515E+01 -.283E+02   -.224E+01 -.304E+00 0.109E+01   -.276E-03 -.302E-03 -.338E-03
   0.801E+01 0.344E+02 0.275E+02   -.913E+01 -.363E+02 -.286E+02   0.112E+01 0.195E+01 0.112E+01   0.385E-03 0.132E-03 -.341E-03
   0.632E+01 -.986E+01 0.466E+02   -.670E+01 0.105E+02 -.495E+02   0.380E+00 -.594E+00 0.283E+01   0.803E-04 -.133E-03 0.603E-03
   -.217E+02 -.359E+02 -.201E+02   0.229E+02 0.378E+02 0.212E+02   -.115E+01 -.191E+01 -.105E+01   -.461E-04 -.618E-04 -.360E-04
   0.257E+01 -.334E+01 -.463E+02   -.222E+01 0.280E+01 0.492E+02   -.348E+00 0.547E+00 -.289E+01   -.355E-03 0.526E-03 -.292E-03
   0.254E+02 -.376E+02 -.103E+02   -.271E+02 0.401E+02 0.100E+02   0.165E+01 -.245E+01 0.283E+00   -.580E-03 0.829E-03 0.460E-03
   0.415E+02 0.663E+01 -.197E+02   -.437E+02 -.698E+01 0.207E+02   0.221E+01 0.346E+00 -.102E+01   0.823E-04 0.855E-05 -.339E-04
   0.309E+02 0.236E+02 0.222E+02   -.321E+02 -.255E+02 -.233E+02   0.122E+01 0.190E+01 0.109E+01   -.232E-03 0.423E-03 -.193E-03
   0.337E+02 -.272E+02 0.112E+02   -.351E+02 0.293E+02 -.114E+02   0.144E+01 -.204E+01 0.235E+00   -.198E-03 -.340E-03 -.350E-03
   0.123E+02 -.414E+02 0.110E+02   -.136E+02 0.435E+02 -.113E+02   0.135E+01 -.211E+01 0.234E+00   0.403E-03 0.714E-04 -.368E-03
   -.338E+02 -.199E+02 0.218E+02   0.360E+02 0.203E+02 -.228E+02   -.223E+01 -.416E+00 0.107E+01   -.310E-03 0.395E-03 -.192E-03
 -----------------------------------------------------------------------------------------------
   0.279E+00 -.440E+00 0.210E+01   0.711E-14 0.782E-13 0.711E-14   -.278E+00 0.438E+00 -.209E+01   -.544E-03 0.920E-03 -.428E-02
 
 
 POSITION                                       TOTAL-FORCE (eV/Angst)
 -----------------------------------------------------------------------------------
      9.50180     11.13699      7.63645         0.001064     -0.001522      0.007694
     12.28318     10.49129     11.32910         0.001430      0.001451     -0.005689
      9.01483      8.29482     11.30731        -0.001864     -0.000963     -0.006234
      8.79940     12.13748     12.14151        -0.002164      0.003030     -0.005180
      7.37672     10.78722      8.69875         0.004180      0.000702     -0.002295
     10.83244      9.15442      7.89293        -0.002750      0.003880     -0.000605
     10.61881     12.96589      8.72023        -0.002143     -0.003352     -0.002320
      7.69265     10.28713     11.08395        -0.002163      0.000616     -0.003822
     11.15456      8.65115     10.27673         0.000414     -0.000450     -0.004234
     10.94039     12.46975     11.10556         0.000097      0.002432     -0.003959
      8.31763      7.14599     10.64512         0.003141      0.002171      0.009072
      9.19427      7.95996     12.75650        -0.003879     -0.007595     -0.000435
     12.02307      7.35777     10.39858        -0.002763      0.004449      0.001802
     13.61644     10.70665     10.68071        -0.003020     -0.002080      0.009414
     12.51192     10.18954     12.77863         0.008243      0.000666     -0.000287
     12.22224      9.34459      7.21451        -0.005552     -0.004576     -0.001182
     10.13763      7.94374      7.20053         0.006500      0.003312     -0.001277
      9.30623     11.44233      6.17913         0.000406     -0.000792      0.002692
     11.66830     13.68170     11.77129        -0.002575     -0.004827     -0.000385
      8.97594     11.86006     13.60315        -0.004275      0.006300      0.002692
      7.96819     13.37557     11.99791         0.003376     -0.005633      0.008168
      6.28940     10.06715     11.73538         0.005433      0.000292     -0.000334
      6.62116      9.60517      8.02065        -0.001344      0.006961      0.000647
      6.48396     12.05588      8.55266        -0.000881     -0.006965     -0.002086
      9.78322     14.27298      8.57448         0.006935     -0.001651     -0.002492
     12.00501     13.22279      8.05659        -0.005847      0.004144      0.000635
 -----------------------------------------------------------------------------------
    total drift:                                0.000662     -0.001285      0.000285


--------------------------------------------------------------------------------------------------------



  FREE ENERGIE OF THE ION-ELECTRON SYSTEM (eV)
  ---------------------------------------------------
  free  energy   TOTEN  =      -100.08449875 eV

  energy  without entropy=     -100.08449875  energy(sigma->0) =     -100.08449875
 
 d Force = 0.8578313E-04[ 0.298E-05, 0.169E-03]  d Energy = 0.8540616E-04 0.377E-06
 d Force =-0.2162874E+00[-0.216E+00,-0.216E+00]  d Ewald  =-0.2162874E+00-0.182E-07


--------------------------------------------------------------------------------------------------------


    POTLOK:  cpu time    1.7457: real time    1.7442


--------------------------------------------------------------------------------------------------------




--------------------------------------------------------------------------------------------------------


  
 reached required accuracy - stopping structural energy minimisation
 writing wavefunctions
     LOOP+:  cpu time   55.0686: real time   55.6031
    4ORBIT:  cpu time    0.0000: real time    0.0000

 total amount of memory used by VASP MPI-rank0   131440. kBytes
=======================================================================

   base      :      30000. kBytes
   nonl-proj :      17624. kBytes
   fftplans  :      26957. kBytes
   grid      :      48673. kBytes
   one-center:         40. kBytes
   wavefun   :       8146. kBytes
 
  
  
 General timing and accounting informations for this job:
 ========================================================
  
                  Total CPU time used (sec):     2621.866
                            User time (sec):     2590.889
                          System time (sec):       30.977
                         Elapsed time (sec):     2627.006
  
                   Maximum memory used (kb):      185228.
                   Average memory used (kb):           0.
  
                          Minor page faults:      5700445
                          Major page faults:            5
                 Voluntary context switches:         3311
