 vasp.5.4.4.18Apr17-6-g9f103f2a35 (build Nov 06 2017 19:16:10) complex          
  
 executed on           IFC91_ompi date 2018.07.14  05:47:36
 running on   12 total cores
 distrk:  each k-point on   12 cores,    1 groups
 distr:  one band on NCORES_PER_BAND=   6 cores,    2 groups


--------------------------------------------------------------------------------------------------------


 INCAR:
 POTCAR:    PAW_PBE Si 05Jan2001                  
 POTCAR:    PAW_PBE Ge 05Jan2001                  
 POTCAR:    PAW_PBE H 15Jun2001                   
 POTCAR:    PAW_PBE Si 05Jan2001                  
   VRHFIN =Si: s2p2                                                             
   LEXCH  = PE                                                                  
   EATOM  =   103.0669 eV,    7.5752 Ry                                         
                                                                                
   TITEL  = PAW_PBE Si 05Jan2001                                                
   LULTRA =        F    use ultrasoft PP ?                                      
   IUNSCR =        1    unscreen: 0-lin 1-nonlin 2-no                           
   RPACOR =    1.500    partial core radius                                     
   POMASS =   28.085; ZVAL   =    4.000    mass and valenz                      
   RCORE  =    1.900    outmost cutoff radius                                   
   RWIGS  =    2.480; RWIGS  =    1.312    wigner-seitz radius (au A)           
   ENMAX  =  245.345; ENMIN  =  184.009 eV                                      
   ICORE  =        2    local potential                                         
   LCOR   =        T    correct aug charges                                     
   LPAW   =        T    paw PP                                                  
   EAUG   =  322.069                                                            
   DEXC   =    0.000                                                            
   RMAX   =    1.950    core radius for proj-oper                               
   RAUG   =    1.300    factor for augmentation sphere                          
   RDEP   =    1.993    radius for radial grids                                 
   RDEPT  =    1.837    core radius for aug-charge                              
                                                                                
   Atomic configuration                                                         
    6 entries                                                                   
     n  l   j            E        occ.                                          
     1  0  0.50     -1785.8828   2.0000                                         
     2  0  0.50      -139.4969   2.0000                                         
     2  1  1.50       -95.5546   6.0000                                         
     3  0  0.50       -10.8127   2.0000                                         
     3  1  0.50        -4.0811   2.0000                                         
     3  2  1.50        -4.0817   0.0000                                         
   Description                                                                  
     l       E           TYP  RCUT    TYP  RCUT                                 
     0    -10.8127223     23  1.900                                             
     0     -7.6451159     23  1.900                                             
     1     -4.0811372     23  1.900                                             
     1      2.4879257     23  1.900                                             
     2     -4.0817478      7  1.900                                             
  local pseudopotential read in
  partial core-charges read in
  partial kinetic energy density read in
  atomic valenz-charges read in
  non local Contribution for L=           0  read in
    real space projection operators read in
  non local Contribution for L=           0  read in
    real space projection operators read in
  non local Contribution for L=           1  read in
    real space projection operators read in
  non local Contribution for L=           1  read in
    real space projection operators read in
    PAW grid and wavefunctions read in
 
   number of l-projection  operators is LMAX  =           4
   number of lm-projection operators is LMMAX =           8
 
 POTCAR:    PAW_PBE Ge 05Jan2001                  
   VRHFIN =Ge: s2p2                                                             
   LEXCH  = PE                                                                  
   EATOM  =   104.9960 eV,    7.7170 Ry                                         
                                                                                
   TITEL  = PAW_PBE Ge 05Jan2001                                                
   LULTRA =        F    use ultrasoft PP ?                                      
   IUNSCR =        1    unscreen: 0-lin 1-nonlin 2-no                           
   RPACOR =    2.170    partial core radius                                     
   POMASS =   72.610; ZVAL   =    4.000    mass and valenz                      
   RCORE  =    2.300    outmost cutoff radius                                   
   RWIGS  =    2.300; RWIGS  =    1.217    wigner-seitz radius (au A)           
   ENMAX  =  173.807; ENMIN  =  130.355 eV                                      
   ICORE  =        3    local potential                                         
   LCOR   =        T    correct aug charges                                     
   LPAW   =        T    paw PP                                                  
   EAUG   =  385.843                                                            
   DEXC   =    0.000                                                            
   RMAX   =    2.342    core radius for proj-oper                               
   RAUG   =    1.300    factor for augmentation sphere                          
   RDEP   =    2.318    radius for radial grids                                 
   RDEPT  =    2.103    core radius for aug-charge                              
                                                                                
   Atomic configuration                                                         
   10 entries                                                                   
     n  l   j            E        occ.                                          
     1  0  0.50    -10959.8463   2.0000                                         
     2  0  0.50     -1371.6056   2.0000                                         
     2  1  1.50     -1198.4791   6.0000                                         
     3  0  0.50      -168.4733   2.0000                                         
     3  1  1.50      -115.6019   6.0000                                         
     3  2  2.50       -29.3106  10.0000                                         
     4  0  0.50       -11.7309   2.0000                                         
     4  1  0.50        -3.8952   2.0000                                         
     4  2  1.50        -4.0817   0.0000                                         
     4  3  2.50        -4.0817   0.0000                                         
   Description                                                                  
     l       E           TYP  RCUT    TYP  RCUT                                 
     0    -11.7309493     23  2.300                                             
     0     -7.4578696     23  2.300                                             
     1     -3.8952261     23  2.300                                             
     1      6.1178114     23  2.300                                             
     2     -4.0817478     23  2.300                                             
     3     -1.3605826      7  2.300                                             
  local pseudopotential read in
  partial core-charges read in
  partial kinetic energy density read in
  atomic valenz-charges read in
  non local Contribution for L=           0  read in
    real space projection operators read in
  non local Contribution for L=           0  read in
    real space projection operators read in
  non local Contribution for L=           1  read in
    real space projection operators read in
  non local Contribution for L=           1  read in
    real space projection operators read in
  non local Contribution for L=           2  read in
    real space projection operators read in
    PAW grid and wavefunctions read in
 
   number of l-projection  operators is LMAX  =           5
   number of lm-projection operators is LMMAX =          13
 
 POTCAR:    PAW_PBE H 15Jun2001                   
   VRHFIN =H: ultrasoft test                                                    
   LEXCH  = PE                                                                  
   EATOM  =    12.4884 eV,    0.9179 Ry                                         
                                                                                
   TITEL  = PAW_PBE H 15Jun2001                                                 
   LULTRA =        F    use ultrasoft PP ?                                      
   IUNSCR =        0    unscreen: 0-lin 1-nonlin 2-no                           
   RPACOR =    0.000    partial core radius                                     
   POMASS =    1.000; ZVAL   =    1.000    mass and valenz                      
   RCORE  =    1.100    outmost cutoff radius                                   
   RWIGS  =    0.700; RWIGS  =    0.370    wigner-seitz radius (au A)           
   ENMAX  =  250.000; ENMIN  =  200.000 eV                                      
   RCLOC  =    0.701    cutoff for local pot                                    
   LCOR   =        T    correct aug charges                                     
   LPAW   =        T    paw PP                                                  
   EAUG   =  400.000                                                            
   RMAX   =    1.123    core radius for proj-oper                               
   RAUG   =    1.200    factor for augmentation sphere                          
   RDEP   =    1.112    radius for radial grids                                 
   RDEPT  =    0.926    core radius for aug-charge                              
                                                                                
   Atomic configuration                                                         
    2 entries                                                                   
     n  l   j            E        occ.                                          
     1  0  0.50        -6.4927   1.0000                                         
     2  1  0.50        -3.4015   0.0000                                         
   Description                                                                  
     l       E           TYP  RCUT    TYP  RCUT                                 
     0     -6.4927494     23  1.100                                             
     0      6.8029130     23  1.100                                             
     1     -4.0817478     23  1.100                                             
  local pseudopotential read in
  atomic valenz-charges read in
  non local Contribution for L=           0  read in
    real space projection operators read in
  non local Contribution for L=           0  read in
    real space projection operators read in
  non local Contribution for L=           1  read in
    real space projection operators read in
    PAW grid and wavefunctions read in
 
   number of l-projection  operators is LMAX  =           3
   number of lm-projection operators is LMMAX =           5
 

 ----------------------------------------------------------------------------- 
|                                                                             |
|  ADVICE TO THIS USER RUNNING 'VASP/VAMP'   (HEAR YOUR MASTER'S VOICE ...):  |
|                                                                             |
|      You have a (more or less) 'large supercell' and for larger cells       |
|      it might be more efficient to use real space projection opertators     |
|      So try LREAL= Auto  in the INCAR   file.                               |
|      Mind:          For very  accurate calculation you might also keep the  |
|      reciprocal projection scheme          (i.e. LREAL=.FALSE.)             |
|                                                                             |
 ----------------------------------------------------------------------------- 

  PAW_PBE Si 05Jan2001                  :
 energy of atom  1       EATOM= -103.0669
 kinetic energy error for atom=    0.0012 (will be added to EATOM!!)
  PAW_PBE Ge 05Jan2001                  :
 energy of atom  2       EATOM= -104.9960
 kinetic energy error for atom=    0.0003 (will be added to EATOM!!)
  PAW_PBE H 15Jun2001                   :
 energy of atom  3       EATOM=  -12.4884
 kinetic energy error for atom=    0.0098 (will be added to EATOM!!)
 
 
 POSCAR: SiGeH16                                 
  positions in direct lattice
  No initial velocities read in
 exchange correlation table for  LEXCH =        8
   RHO(1)=    0.500       N(1)  =     2000
   RHO(2)=  100.500       N(2)  =     4000
 


--------------------------------------------------------------------------------------------------------


 ion  position               nearest neighbor table
   1  0.475  0.556  0.385-  18 1.55   4 2.39   2 2.39   3 2.39
   2  0.369  0.539  0.436-  23 1.55  24 1.55   6 2.39   1 2.39
   3  0.542  0.457  0.396-  17 1.55  16 1.55   7 2.39   1 2.39
   4  0.531  0.648  0.437-  25 1.55  26 1.55   8 2.39   1 2.39
   5  0.613  0.525  0.565-  15 1.55  14 1.55   8 2.39   7 2.39
   6  0.385  0.515  0.552-  22 1.55  10 2.39   9 2.39   2 2.39
   7  0.557  0.433  0.512-  13 1.55   3 2.39   5 2.39   9 2.39
   8  0.547  0.624  0.554-  19 1.55   4 2.39   5 2.39  10 2.39
   9  0.451  0.416  0.564-  12 1.55  11 1.55   6 2.39   7 2.39
  10  0.440  0.606  0.605-  20 1.55  21 1.55   6 2.39   8 2.39
  11  0.415  0.357  0.529-   9 1.55
  12  0.461  0.400  0.639-   9 1.55
  13  0.600  0.369  0.520-   7 1.55
  14  0.682  0.536  0.531-   5 1.55
  15  0.623  0.509  0.640-   5 1.55
  16  0.611  0.469  0.363-   3 1.55
  17  0.506  0.398  0.362-   3 1.55
  18  0.465  0.572  0.309-   1 1.55
  19  0.583  0.683  0.588-   8 1.55
  20  0.451  0.590  0.680-  10 1.55
  21  0.397  0.670  0.598-  10 1.55
  22  0.316  0.504  0.586-   6 1.55
  23  0.333  0.479  0.402-   2 1.55
  24  0.326  0.603  0.429-   2 1.55
  25  0.488  0.712  0.430-   4 1.55
  26  0.600  0.659  0.404-   4 1.55
 
  LATTYP: Found a simple cubic cell.
 ALAT       =    20.0000000000
  
  Lattice vectors:
  
 A1 = (  20.0000000000,   0.0000000000,   0.0000000000)
 A2 = (   0.0000000000,  20.0000000000,   0.0000000000)
 A3 = (   0.0000000000,   0.0000000000,  20.0000000000)


Analysis of symmetry for initial positions (statically):
=====================================================================
 Subroutine PRICEL returns:
 Original cell was already a primitive cell.
 

 Routine SETGRP: Setting up the symmetry group for a 
 simple cubic supercell.


 Subroutine GETGRP returns: Found  1 space group operations
 (whereof  1 operations were pure point group operations)
 out of a pool of 48 trial point group operations.


The static configuration has the point symmetry C_1 .


Analysis of symmetry for dynamics (positions and initial velocities):
=====================================================================
 Subroutine PRICEL returns:
 Original cell was already a primitive cell.
 

 Routine SETGRP: Setting up the symmetry group for a 
 simple cubic supercell.


 Subroutine GETGRP returns: Found  1 space group operations
 (whereof  1 operations were pure point group operations)
 out of a pool of 48 trial point group operations.


The dynamic configuration has the point symmetry C_1 .


 Subroutine INISYM returns: Found  1 space group operations
 (whereof  1 operations are pure point group operations),
 and found     1 'primitive' translations

 
 
 KPOINTS: Automatic mesh                          

Automatic generation of k-mesh.
Space group operators:
 irot       det(A)        alpha          n_x          n_y          n_z        tau_x        tau_y        tau_z
    1     1.000000     0.000000     1.000000     0.000000     0.000000     0.000000     0.000000     0.000000
 
 Subroutine IBZKPT returns following result:
 ===========================================
 
 Found      1 irreducible k-points:
 
 Following reciprocal coordinates:
            Coordinates               Weight
  0.000000  0.000000  0.000000      1.000000
 
 Following cartesian coordinates:
            Coordinates               Weight
  0.000000  0.000000  0.000000      1.000000
 


--------------------------------------------------------------------------------------------------------




 Dimension of arrays:
   k-points           NKPTS =      1   k-points in BZ     NKDIM =      1   number of bands    NBANDS=     42
   number of dos      NEDOS =    301   number of ions     NIONS =     26
   non local maximal  LDIM  =      5   non local SUM 2l+1 LMDIM =     13
   total plane-waves  NPLWV = 941192
   max r-space proj   IRMAX =      1   max aug-charges    IRDMAX=   6593
   dimension x,y,z NGX =    98 NGY =   98 NGZ =   98
   dimension x,y,z NGXF=   196 NGYF=  196 NGZF=  196
   support grid    NGXF=   196 NGYF=  196 NGZF=  196
   ions per type =               5   5  16
   NGX,Y,Z   is equivalent  to a cutoff of   8.15,  8.15,  8.15 a.u.
   NGXF,Y,Z  is equivalent  to a cutoff of  16.29, 16.29, 16.29 a.u.

 SYSTEM =  SiGe                                    
 POSCAR =  SiGeH16                                 

 Startparameter for this run:
   NWRITE =      2    write-flag & timer
   PREC   = normal    normal or accurate (medium, high low for compatibility)
   ISTART =      0    job   : 0-new  1-cont  2-samecut
   ICHARG =      2    charge: 1-file 2-atom 10-const
   ISPIN  =      1    spin polarized calculation?
   LNONCOLLINEAR =      F non collinear calculations
   LSORBIT =      F    spin-orbit coupling
   INIWAV =      1    electr: 0-lowe 1-rand  2-diag
   LASPH  =      F    aspherical Exc in radial PAW
   METAGGA=      F    non-selfconsistent MetaGGA calc.

 Electronic Relaxation 1
   ENCUT  =  400.0 eV  29.40 Ry    5.42 a.u.  32.61 32.61 32.61*2*pi/ulx,y,z
   ENINI  =  400.0     initial cutoff
   ENAUG  =  400.0 eV  augmentation charge cutoff
   NELM   =     60;   NELMIN=  2; NELMDL= -5     # of ELM steps 
   EDIFF  = 0.1E-05   stopping-criterion for ELM
   LREAL  =      F    real-space projection
   NLSPLINE    = F    spline interpolate recip. space projectors
   LCOMPAT=      F    compatible to vasp.4.4
   GGA_COMPAT  = T    GGA compatible to vasp.4.4-vasp.4.6
   LMAXPAW     = -100 max onsite density
   LMAXMIX     =    2 max onsite mixed and CHGCAR
   VOSKOWN=      0    Vosko Wilk Nusair interpolation
   ROPT   =    0.00000   0.00000   0.00000
 Ionic relaxation
   EDIFFG = -.2E-01   stopping-criterion for IOM
   NSW    =    200    number of steps for IOM
   NBLOCK =      1;   KBLOCK =    200    inner block; outer block 
   IBRION =      2    ionic relax: 0-MD 1-quasi-New 2-CG
   NFREE  =      1    steps in history (QN), initial steepest desc. (CG)
   ISIF   =      2    stress and relaxation
   IWAVPR =     11    prediction:  0-non 1-charg 2-wave 3-comb
   ISYM   =      2    0-nonsym 1-usesym 2-fastsym
   LCORR  =      T    Harris-Foulkes like correction to forces

   POTIM  = 0.5000    time-step for ionic-motion
   TEIN   =    0.0    initial temperature
   TEBEG  =    0.0;   TEEND  =   0.0 temperature during run
   SMASS  =  -3.00    Nose mass-parameter (am)
   estimated Nose-frequenzy (Omega)   =  0.10E-29 period in steps =****** mass=  -0.914E-26a.u.
   SCALEE = 1.0000    scale energy and forces
   NPACO  =    256;   APACO  = 16.0  distance and # of slots for P.C.
   PSTRESS=    0.0 pullay stress

  Mass of Ions in am
   POMASS =  28.09 72.61  1.00
  Ionic Valenz
   ZVAL   =   4.00  4.00  1.00
  Atomic Wigner-Seitz radii
   RWIGS  =  -1.00 -1.00 -1.00
  virtual crystal weights 
   VCA    =   1.00  1.00  1.00
   NELECT =      56.0000    total number of electrons
   NUPDOWN=      -1.0000    fix difference up-down

 DOS related values:
   EMIN   =  10.00;   EMAX   =-10.00  energy-range for DOS
   EFERMI =   0.00
   ISMEAR =     0;   SIGMA  =   0.20  broadening in eV -4-tet -1-fermi 0-gaus

 Electronic relaxation 2 (details)
   IALGO  =     38    algorithm
   LDIAG  =      T    sub-space diagonalisation (order eigenvalues)
   LSUBROT=      F    optimize rotation matrix (better conditioning)
   TURBO    =      0    0=normal 1=particle mesh
   IRESTART =      0    0=no restart 2=restart with 2 vectors
   NREBOOT  =      0    no. of reboots
   NMIN     =      0    reboot dimension
   EREF     =   0.00    reference energy to select bands
   IMIX   =      4    mixing-type and parameters
     AMIX     =   0.40;   BMIX     =  1.00
     AMIX_MAG =   1.60;   BMIX_MAG =  1.00
     AMIN     =   0.10
     WC   =   100.;   INIMIX=   1;  MIXPRE=   1;  MAXMIX= -45

 Intra band minimization:
   WEIMIN = 0.0010     energy-eigenvalue tresh-hold
   EBREAK =  0.60E-08  absolut break condition
   DEPER  =   0.30     relativ break condition  

   TIME   =   0.40     timestep for ELM

  volume/ion in A,a.u.               =     307.69      2076.41
  Fermi-wavevector in a.u.,A,eV,Ry     =   0.313166  0.591797  1.334361  0.098073
  Thomas-Fermi vector in A             =   1.193276
 
 Write flags
   LWAVE        =      T    write WAVECAR
   LDOWNSAMPLE  =      F    k-point downsampling of WAVECAR
   LCHARG       =      T    write CHGCAR
   LVTOT        =      F    write LOCPOT, total local potential
   LVHAR        =      F    write LOCPOT, Hartree potential only
   LELF         =      F    write electronic localiz. function (ELF)
   LORBIT       =      0    0 simple, 1 ext, 2 COOP (PROOUT), +10 PAW based schemes


 Dipole corrections
   LMONO  =      F    monopole corrections only (constant potential shift)
   LDIPOL =      F    correct potential (dipole corrections)
   IDIPOL =      0    1-x, 2-y, 3-z, 4-all directions 
   EPSILON=  1.0000000 bulk dielectric constant

 Exchange correlation treatment:
   GGA     =    --    GGA type
   LEXCH   =     8    internal setting for exchange type
   VOSKOWN=      0    Vosko Wilk Nusair interpolation
   LHFCALC =     F    Hartree Fock is set to
   LHFONE  =     F    Hartree Fock one center treatment
   AEXX    =    0.0000 exact exchange contribution

 Linear response parameters
   LEPSILON=     F    determine dielectric tensor
   LRPA    =     F    only Hartree local field effects (RPA)
   LNABLA  =     F    use nabla operator in PAW spheres
   LVEL    =     F    velocity operator in full k-point grid
   LINTERFAST=   F  fast interpolation
   KINTER  =     0    interpolate to denser k-point grid
   CSHIFT  =0.1000    complex shift for real part using Kramers Kronig
   OMEGAMAX=  -1.0    maximum frequency
   DEG_THRESHOLD= 0.2000000E-02 threshold for treating states as degnerate
   RTIME   =   -0.100 relaxation time in fs
  (WPLASMAI=    0.000 imaginary part of plasma frequency in eV, 0.658/RTIME)
   DFIELD  = 0.0000000 0.0000000 0.0000000 field for delta impulse in time
 
 Orbital magnetization related:
   ORBITALMAG=     F  switch on orbital magnetization
   LCHIMAG   =     F  perturbation theory with respect to B field
   DQ        =  0.001000  dq finite difference perturbation B field
   LLRAUG    =     F  two centre corrections for induced B field



--------------------------------------------------------------------------------------------------------


 conjugate gradient relaxation of ions
 charge density and potential will be updated during run
 non-spin polarized calculation
 Variant of blocked Davidson
 Davidson routine will perform the subspace rotation
 perform sub-space diagonalisation
    after iterative eigenvector-optimisation
 modified Broyden-mixing scheme, WC =      100.0
 initial mixing is a Kerker type mixing with AMIX =  0.4000 and BMIX =      1.0000
 Hartree-type preconditioning will be used
 using additional bands           14
 reciprocal scheme for non local part
 use partial core corrections
 calculate Harris-corrections to forces 
   (improved forces if not selfconsistent)
 use gradient corrections 
 use of overlap-Matrix (Vanderbilt PP)
 Gauss-broadening in eV      SIGMA  =   0.20


--------------------------------------------------------------------------------------------------------


  energy-cutoff  :      400.00
  volume of cell :     8000.00
      direct lattice vectors                 reciprocal lattice vectors
    20.000000000  0.000000000  0.000000000     0.050000000  0.000000000  0.000000000
     0.000000000 20.000000000  0.000000000     0.000000000  0.050000000  0.000000000
     0.000000000  0.000000000 20.000000000     0.000000000  0.000000000  0.050000000

  length of vectors
    20.000000000 20.000000000 20.000000000     0.050000000  0.050000000  0.050000000


 
 k-points in units of 2pi/SCALE and weight: Automatic mesh                          
   0.00000000  0.00000000  0.00000000       1.000
 
 k-points in reciprocal lattice and weights: Automatic mesh                          
   0.00000000  0.00000000  0.00000000       1.000
 
 position of ions in fractional coordinates (direct lattice) 
   0.47547100  0.55626000  0.38465300
   0.36907800  0.53906000  0.43641200
   0.54179100  0.45744600  0.39613600
   0.53111600  0.64794100  0.43749600
   0.61299700  0.52481700  0.56496600
   0.38461900  0.51474100  0.55243500
   0.55736800  0.43311000  0.51215000
   0.54669200  0.62364400  0.55351800
   0.45095700  0.41593600  0.56388300
   0.44028400  0.60643000  0.60524300
   0.41490100  0.35665000  0.52940300
   0.46117000  0.40042600  0.63910800
   0.60034800  0.36907000  0.51957800
   0.68182700  0.53600700  0.53118700
   0.62280400  0.50903400  0.64018900
   0.61080000  0.46880600  0.36278200
   0.50550800  0.39805500  0.36207700
   0.46538400  0.57201900  0.30946400
   0.58275500  0.68306700  0.58775000
   0.45052500  0.59044300  0.68036400
   0.39732000  0.67044900  0.59753500
   0.31566200  0.50359800  0.58596500
   0.33322800  0.47946500  0.40225200
   0.32629100  0.60324700  0.42912600
   0.48792300  0.71185500  0.43020800
   0.60015100  0.65882400  0.40403700
 
 position of ions in cartesian coordinates  (Angst):
   9.50942000 11.12520000  7.69306000
   7.38156000 10.78120000  8.72824000
  10.83582000  9.14892000  7.92272000
  10.62232000 12.95882000  8.74992000
  12.25994000 10.49634000 11.29932000
   7.69238000 10.29482000 11.04870000
  11.14736000  8.66220000 10.24300000
  10.93384000 12.47288000 11.07036000
   9.01914000  8.31872000 11.27766000
   8.80568000 12.12860000 12.10486000
   8.29802000  7.13300000 10.58806000
   9.22340000  8.00852000 12.78216000
  12.00696000  7.38140000 10.39156000
  13.63654000 10.72014000 10.62374000
  12.45608000 10.18068000 12.80378000
  12.21600000  9.37612000  7.25564000
  10.11016000  7.96110000  7.24154000
   9.30768000 11.44038000  6.18928000
  11.65510000 13.66134000 11.75500000
   9.01050000 11.80886000 13.60728000
   7.94640000 13.40898000 11.95070000
   6.31324000 10.07196000 11.71930000
   6.66456000  9.58930000  8.04504000
   6.52582000 12.06494000  8.58252000
   9.75846000 14.23710000  8.60416000
  12.00302000 13.17648000  8.08074000
 


--------------------------------------------------------------------------------------------------------


 k-point  1 :   0.0000 0.0000 0.0000  plane waves:  145165

 maximum and minimum number of plane-waves per node :     24209    24180

 maximum number of plane-waves:    145165
 maximum index in each direction: 
   IXMAX=   32   IYMAX=   32   IZMAX=   32
   IXMIN=  -32   IYMIN=  -32   IZMIN=  -32


 parallel 3D FFT for wavefunctions:
    minimum data exchange during FFTs selected (reduces bandwidth)
 parallel 3D FFT for charge:
    minimum data exchange during FFTs selected (reduces bandwidth)


 total amount of memory used by VASP MPI-rank0   131440. kBytes
=======================================================================

   base      :      30000. kBytes
   nonl-proj :      17624. kBytes
   fftplans  :      26957. kBytes
   grid      :      48673. kBytes
   one-center:         40. kBytes
   wavefun   :       8146. kBytes
 
     INWAV:  cpu time    0.0000: real time    0.0000
 Broyden mixing: mesh for mixing (old mesh)
   NGX = 65   NGY = 65   NGZ = 65
  (NGX  =196   NGY  =196   NGZ  =196)
  gives a total of 274625 points

 initial charge density was supplied:
 charge density of overlapping atoms calculated
 number of electron      56.0000000 magnetization 
 keeping initial charge density in first step


--------------------------------------------------------------------------------------------------------


 Maximum index for augmentation-charges          558 (set IRDMAX)


--------------------------------------------------------------------------------------------------------


 First call to EWALD:  gamma=   0.089
 Maximum number of real-space cells 3x 3x 3
 Maximum number of reciprocal cells 3x 3x 3

    FEWALD:  cpu time    0.0030: real time    0.0029


--------------------------------------- Iteration      1(   1)  ---------------------------------------


    POTLOK:  cpu time    1.7597: real time    1.7613
    SETDIJ:  cpu time    0.0070: real time    0.0075
     EDDAV:  cpu time   11.0663: real time   11.0633
       DOS:  cpu time    0.0000: real time    0.0003
    --------------------------------------------
      LOOP:  cpu time   12.8330: real time   12.8324

 eigenvalue-minimisations  :   116
 total energy-change (2. order) : 0.2041808E+03  (-0.1048128E+04)
 number of electron      56.0000000 magnetization 
 augmentation part       56.0000000 magnetization 

 Free energy of the ion-electron system (eV)
  ---------------------------------------------------
  alpha Z        PSCENC =         2.23981092
  Ewald energy   TEWEN  =      2629.98113996
  -Hartree energ DENC   =     -3441.32703659
  -exchange      EXHF   =         0.00000000
  -V(xc)+E(xc)   XCENC  =       -51.19580203
  PAW double counting   =       915.48941305     -755.22719771
  entropy T*S    EENTRO =        -0.43283577
  eigenvalues    EBANDS =      -335.31185559
  atomic energy  EATOM  =      1239.96520364
  Solvation  Ediel_sol  =         0.00000000
  ---------------------------------------------------
  free energy    TOTEN  =       204.18083988 eV

  energy without entropy =      204.61367565  energy(sigma->0) =      204.39725776


--------------------------------------------------------------------------------------------------------




--------------------------------------- Iteration      1(   2)  ---------------------------------------


     EDDAV:  cpu time   13.2480: real time   13.2472
       DOS:  cpu time    0.0010: real time    0.0002
    --------------------------------------------
      LOOP:  cpu time   13.2490: real time   13.2474

 eigenvalue-minimisations  :   144
 total energy-change (2. order) :-0.2317093E+03  (-0.2163875E+03)
 number of electron      56.0000000 magnetization 
 augmentation part       56.0000000 magnetization 

 Free energy of the ion-electron system (eV)
  ---------------------------------------------------
  alpha Z        PSCENC =         2.23981092
  Ewald energy   TEWEN  =      2629.98113996
  -Hartree energ DENC   =     -3441.32703659
  -exchange      EXHF   =         0.00000000
  -V(xc)+E(xc)   XCENC  =       -51.19580203
  PAW double counting   =       915.48941305     -755.22719771
  entropy T*S    EENTRO =        -0.00000000
  eigenvalues    EBANDS =      -567.45401413
  atomic energy  EATOM  =      1239.96520364
  Solvation  Ediel_sol  =         0.00000000
  ---------------------------------------------------
  free energy    TOTEN  =       -27.52848290 eV

  energy without entropy =      -27.52848290  energy(sigma->0) =      -27.52848290


--------------------------------------------------------------------------------------------------------




--------------------------------------- Iteration      1(   3)  ---------------------------------------


     EDDAV:  cpu time   11.0193: real time   11.0320
       DOS:  cpu time    0.0000: real time    0.0002
    --------------------------------------------
      LOOP:  cpu time   11.0193: real time   11.0322

 eigenvalue-minimisations  :   112
 total energy-change (2. order) :-0.7424147E+02  (-0.7407683E+02)
 number of electron      56.0000000 magnetization 
 augmentation part       56.0000000 magnetization 

 Free energy of the ion-electron system (eV)
  ---------------------------------------------------
  alpha Z        PSCENC =         2.23981092
  Ewald energy   TEWEN  =      2629.98113996
  -Hartree energ DENC   =     -3441.32703659
  -exchange      EXHF   =         0.00000000
  -V(xc)+E(xc)   XCENC  =       -51.19580203
  PAW double counting   =       915.48941305     -755.22719771
  entropy T*S    EENTRO =        -0.00000000
  eigenvalues    EBANDS =      -641.69548302
  atomic energy  EATOM  =      1239.96520364
  Solvation  Ediel_sol  =         0.00000000
  ---------------------------------------------------
  free energy    TOTEN  =      -101.76995179 eV

  energy without entropy =     -101.76995179  energy(sigma->0) =     -101.76995179


--------------------------------------------------------------------------------------------------------




--------------------------------------- Iteration      1(   4)  ---------------------------------------


     EDDAV:  cpu time   10.2094: real time   10.2079
       DOS:  cpu time    0.0000: real time    0.0002
    --------------------------------------------
      LOOP:  cpu time   10.2094: real time   10.2082

 eigenvalue-minimisations  :   104
 total energy-change (2. order) :-0.4199274E+01  (-0.4182196E+01)
 number of electron      56.0000000 magnetization 
 augmentation part       56.0000000 magnetization 

 Free energy of the ion-electron system (eV)
  ---------------------------------------------------
  alpha Z        PSCENC =         2.23981092
  Ewald energy   TEWEN  =      2629.98113996
  -Hartree energ DENC   =     -3441.32703659
  -exchange      EXHF   =         0.00000000
  -V(xc)+E(xc)   XCENC  =       -51.19580203
  PAW double counting   =       915.48941305     -755.22719771
  entropy T*S    EENTRO =        -0.00000000
  eigenvalues    EBANDS =      -645.89475693
  atomic energy  EATOM  =      1239.96520364
  Solvation  Ediel_sol  =         0.00000000
  ---------------------------------------------------
  free energy    TOTEN  =      -105.96922570 eV

  energy without entropy =     -105.96922570  energy(sigma->0) =     -105.96922570


--------------------------------------------------------------------------------------------------------




--------------------------------------- Iteration      1(   5)  ---------------------------------------


     EDDAV:  cpu time   12.6711: real time   12.6691
       DOS:  cpu time    0.0000: real time    0.0003
    CHARGE:  cpu time    0.4819: real time    0.4821
    MIXING:  cpu time    0.0440: real time    0.0438
    --------------------------------------------
      LOOP:  cpu time   13.1970: real time   13.1953

 eigenvalue-minimisations  :   136
 total energy-change (2. order) :-0.7482415E-01  (-0.7476470E-01)
 number of electron      56.0000031 magnetization 
 augmentation part       -3.9565337 magnetization 

 Broyden mixing:
  rms(total) = 0.14867E+01    rms(broyden)= 0.14866E+01
  rms(prec ) = 0.15830E+01
  weight for this iteration     100.00

 Free energy of the ion-electron system (eV)
  ---------------------------------------------------
  alpha Z        PSCENC =         2.23981092
  Ewald energy   TEWEN  =      2629.98113996
  -Hartree energ DENC   =     -3441.32703659
  -exchange      EXHF   =         0.00000000
  -V(xc)+E(xc)   XCENC  =       -51.19580203
  PAW double counting   =       915.48941305     -755.22719771
  entropy T*S    EENTRO =        -0.00000000
  eigenvalues    EBANDS =      -645.96958108
  atomic energy  EATOM  =      1239.96520364
  Solvation  Ediel_sol  =         0.00000000
  ---------------------------------------------------
  free energy    TOTEN  =      -106.04404985 eV

  energy without entropy =     -106.04404985  energy(sigma->0) =     -106.04404985


--------------------------------------------------------------------------------------------------------




--------------------------------------- Iteration      1(   6)  ---------------------------------------


    POTLOK:  cpu time    1.6947: real time    1.6958
    SETDIJ:  cpu time    0.0080: real time    0.0077
     EDDAV:  cpu time   10.8064: real time   10.8048
       DOS:  cpu time    0.0010: real time    0.0006
    CHARGE:  cpu time    0.4869: real time    0.4906
    MIXING:  cpu time    0.0450: real time    0.0455
    --------------------------------------------
      LOOP:  cpu time   13.0420: real time   13.0450

 eigenvalue-minimisations  :   112
 total energy-change (2. order) : 0.3216796E+01  (-0.1607700E+00)
 number of electron      56.0000030 magnetization 
 augmentation part       -3.9556130 magnetization 

 Broyden mixing:
  rms(total) = 0.86051E+00    rms(broyden)= 0.86051E+00
  rms(prec ) = 0.91944E+00
  weight for this iteration     100.00

 eigenvalues of (default mixing * dielectric matrix)
  average eigenvalue GAMMA=   2.3044
  2.3044

 Free energy of the ion-electron system (eV)
  ---------------------------------------------------
  alpha Z        PSCENC =         2.23981092
  Ewald energy   TEWEN  =      2629.98113996
  -Hartree energ DENC   =     -3472.51499088
  -exchange      EXHF   =         0.00000000
  -V(xc)+E(xc)   XCENC  =       -47.56317055
  PAW double counting   =      1803.70190395    -1644.24831048
  entropy T*S    EENTRO =        -0.00000000
  eigenvalues    EBANDS =      -614.38884046
  atomic energy  EATOM  =      1239.96520364
  Solvation  Ediel_sol  =         0.00000000
  ---------------------------------------------------
  free energy    TOTEN  =      -102.82725391 eV

  energy without entropy =     -102.82725391  energy(sigma->0) =     -102.82725391


--------------------------------------------------------------------------------------------------------




--------------------------------------- Iteration      1(   7)  ---------------------------------------


    POTLOK:  cpu time    1.7057: real time    1.7046
    SETDIJ:  cpu time    0.0070: real time    0.0076
     EDDAV:  cpu time   10.8374: real time   10.8387
       DOS:  cpu time    0.0010: real time    0.0006
    CHARGE:  cpu time    0.4879: real time    0.4882
    MIXING:  cpu time    0.0480: real time    0.0484
    --------------------------------------------
      LOOP:  cpu time   13.0870: real time   13.0882

 eigenvalue-minimisations  :   112
 total energy-change (2. order) : 0.1681738E+01  (-0.4129277E+00)
 number of electron      56.0000028 magnetization 
 augmentation part       -3.9509781 magnetization 

 Broyden mixing:
  rms(total) = 0.12189E+00    rms(broyden)= 0.12174E+00
  rms(prec ) = 0.15316E+00
  weight for this iteration     100.00

 eigenvalues of (default mixing * dielectric matrix)
  average eigenvalue GAMMA=   1.8299
  1.6863  1.9735

 Free energy of the ion-electron system (eV)
  ---------------------------------------------------
  alpha Z        PSCENC =         2.23981092
  Ewald energy   TEWEN  =      2629.98113996
  -Hartree energ DENC   =     -3528.14259136
  -exchange      EXHF   =         0.00000000
  -V(xc)+E(xc)   XCENC  =       -41.79474485
  PAW double counting   =      3738.95253007    -3580.58749981
  entropy T*S    EENTRO =        -0.00000000
  eigenvalues    EBANDS =      -561.75936494
  atomic energy  EATOM  =      1239.96520364
  Solvation  Ediel_sol  =         0.00000000
  ---------------------------------------------------
  free energy    TOTEN  =      -101.14551638 eV

  energy without entropy =     -101.14551638  energy(sigma->0) =     -101.14551638


--------------------------------------------------------------------------------------------------------




--------------------------------------- Iteration      1(   8)  ---------------------------------------


    POTLOK:  cpu time    1.7257: real time    1.7268
    SETDIJ:  cpu time    0.0080: real time    0.0077
     EDDAV:  cpu time   10.8384: real time   10.8494
       DOS:  cpu time    0.0010: real time    0.0006
    CHARGE:  cpu time    0.4869: real time    0.4870
    MIXING:  cpu time    0.0520: real time    0.0522
    --------------------------------------------
      LOOP:  cpu time   13.1120: real time   13.1238

 eigenvalue-minimisations  :   112
 total energy-change (2. order) : 0.5102231E-01  (-0.2789703E-01)
 number of electron      56.0000028 magnetization 
 augmentation part       -3.9473486 magnetization 

 Broyden mixing:
  rms(total) = 0.61885E-01    rms(broyden)= 0.61871E-01
  rms(prec ) = 0.81198E-01
  weight for this iteration     100.00

 eigenvalues of (default mixing * dielectric matrix)
  average eigenvalue GAMMA=   1.9571
  2.6303  1.6205  1.6205

 Free energy of the ion-electron system (eV)
  ---------------------------------------------------
  alpha Z        PSCENC =         2.23981092
  Ewald energy   TEWEN  =      2629.98113996
  -Hartree energ DENC   =     -3535.91997176
  -exchange      EXHF   =         0.00000000
  -V(xc)+E(xc)   XCENC  =       -41.83086099
  PAW double counting   =      3746.02327006    -3587.57809346
  entropy T*S    EENTRO =        -0.00000000
  eigenvalues    EBANDS =      -553.97499243
  atomic energy  EATOM  =      1239.96520364
  Solvation  Ediel_sol  =         0.00000000
  ---------------------------------------------------
  free energy    TOTEN  =      -101.09449407 eV

  energy without entropy =     -101.09449407  energy(sigma->0) =     -101.09449407


--------------------------------------------------------------------------------------------------------




--------------------------------------- Iteration      1(   9)  ---------------------------------------


    POTLOK:  cpu time    1.7057: real time    1.7063
    SETDIJ:  cpu time    0.0080: real time    0.0078
     EDDAV:  cpu time   10.8164: real time   10.8137
       DOS:  cpu time    0.0000: real time    0.0005
    CHARGE:  cpu time    0.4889: real time    0.4930
    MIXING:  cpu time    0.0530: real time    0.0524
    --------------------------------------------
      LOOP:  cpu time   13.0720: real time   13.0737

 eigenvalue-minimisations  :   112
 total energy-change (2. order) : 0.3599018E-01  (-0.7283257E-02)
 number of electron      56.0000028 magnetization 
 augmentation part       -3.9340935 magnetization 

 Broyden mixing:
  rms(total) = 0.33303E-01    rms(broyden)= 0.33302E-01
  rms(prec ) = 0.45023E-01
  weight for this iteration     100.00

 eigenvalues of (default mixing * dielectric matrix)
  average eigenvalue GAMMA=   1.7495
  2.4971  1.8300  1.8300  0.8408

 Free energy of the ion-electron system (eV)
  ---------------------------------------------------
  alpha Z        PSCENC =         2.23981092
  Ewald energy   TEWEN  =      2629.98113996
  -Hartree energ DENC   =     -3547.67526007
  -exchange      EXHF   =         0.00000000
  -V(xc)+E(xc)   XCENC  =       -41.13667493
  PAW double counting   =      3887.32638011    -3728.92139661
  entropy T*S    EENTRO =        -0.00000000
  eigenvalues    EBANDS =      -542.83770690
  atomic energy  EATOM  =      1239.96520364
  Solvation  Ediel_sol  =         0.00000000
  ---------------------------------------------------
  free energy    TOTEN  =      -101.05850389 eV

  energy without entropy =     -101.05850389  energy(sigma->0) =     -101.05850389


--------------------------------------------------------------------------------------------------------




--------------------------------------- Iteration      1(  10)  ---------------------------------------


    POTLOK:  cpu time    1.7117: real time    1.7124
    SETDIJ:  cpu time    0.0080: real time    0.0077
     EDDAV:  cpu time   10.8204: real time   10.8222
       DOS:  cpu time    0.0010: real time    0.0006
    CHARGE:  cpu time    0.4819: real time    0.4826
    MIXING:  cpu time    0.0560: real time    0.0553
    --------------------------------------------
      LOOP:  cpu time   13.0790: real time   13.0808

 eigenvalue-minimisations  :   112
 total energy-change (2. order) : 0.1247145E-03  (-0.2967432E-03)
 number of electron      56.0000028 magnetization 
 augmentation part       -3.9331077 magnetization 

 Broyden mixing:
  rms(total) = 0.15340E-01    rms(broyden)= 0.15340E-01
  rms(prec ) = 0.28587E-01
  weight for this iteration     100.00

 eigenvalues of (default mixing * dielectric matrix)
  average eigenvalue GAMMA=   1.8519
  2.7559  2.2164  1.0803  1.6035  1.6035

 Free energy of the ion-electron system (eV)
  ---------------------------------------------------
  alpha Z        PSCENC =         2.23981092
  Ewald energy   TEWEN  =      2629.98113996
  -Hartree energ DENC   =     -3549.93626978
  -exchange      EXHF   =         0.00000000
  -V(xc)+E(xc)   XCENC  =       -41.12743723
  PAW double counting   =      3815.69990813    -3657.24779875
  entropy T*S    EENTRO =        -0.00000000
  eigenvalues    EBANDS =      -540.63293605
  atomic energy  EATOM  =      1239.96520364
  Solvation  Ediel_sol  =         0.00000000
  ---------------------------------------------------
  free energy    TOTEN  =      -101.05837917 eV

  energy without entropy =     -101.05837917  energy(sigma->0) =     -101.05837917


--------------------------------------------------------------------------------------------------------




--------------------------------------- Iteration      1(  11)  ---------------------------------------


    POTLOK:  cpu time    1.7527: real time    1.7538
    SETDIJ:  cpu time    0.0090: real time    0.0084
     EDDAV:  cpu time   10.2344: real time   10.2476
       DOS:  cpu time    0.0010: real time    0.0003
    CHARGE:  cpu time    0.4909: real time    0.4913
    MIXING:  cpu time    0.0570: real time    0.0571
    --------------------------------------------
      LOOP:  cpu time   12.5451: real time   12.5585

 eigenvalue-minimisations  :   104
 total energy-change (2. order) : 0.2151718E-03  (-0.6409447E-03)
 number of electron      56.0000028 magnetization 
 augmentation part       -3.9318487 magnetization 

 Broyden mixing:
  rms(total) = 0.80581E-02    rms(broyden)= 0.80578E-02
  rms(prec ) = 0.14753E-01
  weight for this iteration     100.00

 eigenvalues of (default mixing * dielectric matrix)
  average eigenvalue GAMMA=   1.8642
  3.2290  2.5522  1.7300  1.7300  1.0617  0.8821

 Free energy of the ion-electron system (eV)
  ---------------------------------------------------
  alpha Z        PSCENC =         2.23981092
  Ewald energy   TEWEN  =      2629.98113996
  -Hartree energ DENC   =     -3556.58823285
  -exchange      EXHF   =         0.00000000
  -V(xc)+E(xc)   XCENC  =       -40.93729960
  PAW double counting   =      3777.32688357    -3618.83519737
  entropy T*S    EENTRO =        -0.00000000
  eigenvalues    EBANDS =      -534.21047227
  atomic energy  EATOM  =      1239.96520364
  Solvation  Ediel_sol  =         0.00000000
  ---------------------------------------------------
  free energy    TOTEN  =      -101.05816400 eV

  energy without entropy =     -101.05816400  energy(sigma->0) =     -101.05816400


--------------------------------------------------------------------------------------------------------




--------------------------------------- Iteration      1(  12)  ---------------------------------------


    POTLOK:  cpu time    1.7287: real time    1.7286
    SETDIJ:  cpu time    0.0070: real time    0.0076
     EDDAV:  cpu time   10.2174: real time   10.2251
       DOS:  cpu time    0.0010: real time    0.0003
    CHARGE:  cpu time    0.4849: real time    0.4852
    MIXING:  cpu time    0.0600: real time    0.0604
    --------------------------------------------
      LOOP:  cpu time   12.4991: real time   12.5071

 eigenvalue-minimisations  :   104
 total energy-change (2. order) :-0.4246910E-02  (-0.1168935E-03)
 number of electron      56.0000028 magnetization 
 augmentation part       -3.9312103 magnetization 

 Broyden mixing:
  rms(total) = 0.56273E-02    rms(broyden)= 0.56272E-02
  rms(prec ) = 0.98698E-02
  weight for this iteration     100.00

 eigenvalues of (default mixing * dielectric matrix)
  average eigenvalue GAMMA=   2.1127
  4.7694  2.6354  2.3314  1.5589  1.5589  0.9675  0.9675

 Free energy of the ion-electron system (eV)
  ---------------------------------------------------
  alpha Z        PSCENC =         2.23981092
  Ewald energy   TEWEN  =      2629.98113996
  -Hartree energ DENC   =     -3559.09172562
  -exchange      EXHF   =         0.00000000
  -V(xc)+E(xc)   XCENC  =       -40.89276523
  PAW double counting   =      3767.02206650    -3608.52567853
  entropy T*S    EENTRO =        -0.00000000
  eigenvalues    EBANDS =      -531.76046254
  atomic energy  EATOM  =      1239.96520364
  Solvation  Ediel_sol  =         0.00000000
  ---------------------------------------------------
  free energy    TOTEN  =      -101.06241091 eV

  energy without entropy =     -101.06241091  energy(sigma->0) =     -101.06241091


--------------------------------------------------------------------------------------------------------




--------------------------------------- Iteration      1(  13)  ---------------------------------------


    POTLOK:  cpu time    1.7277: real time    1.7295
    SETDIJ:  cpu time    0.0150: real time    0.0148
     EDDAV:  cpu time   10.2124: real time   10.2126
       DOS:  cpu time    0.0010: real time    0.0004
    CHARGE:  cpu time    0.4849: real time    0.4858
    MIXING:  cpu time    0.0660: real time    0.0657
    --------------------------------------------
      LOOP:  cpu time   12.5071: real time   12.5088

 eigenvalue-minimisations  :   104
 total energy-change (2. order) :-0.4645792E-02  (-0.1908613E-03)
 number of electron      56.0000028 magnetization 
 augmentation part       -3.9310370 magnetization 

 Broyden mixing:
  rms(total) = 0.34942E-02    rms(broyden)= 0.34940E-02
  rms(prec ) = 0.51789E-02
  weight for this iteration     100.00

 eigenvalues of (default mixing * dielectric matrix)
  average eigenvalue GAMMA=   2.1994
  5.6498  2.9166  2.2998  1.8186  1.8186  0.9650  0.9650  1.1621

 Free energy of the ion-electron system (eV)
  ---------------------------------------------------
  alpha Z        PSCENC =         2.23981092
  Ewald energy   TEWEN  =      2629.98113996
  -Hartree energ DENC   =     -3561.93529112
  -exchange      EXHF   =         0.00000000
  -V(xc)+E(xc)   XCENC  =       -40.84228305
  PAW double counting   =      3770.60463249    -3612.11553656
  entropy T*S    EENTRO =        -0.00000000
  eigenvalues    EBANDS =      -528.96473298
  atomic energy  EATOM  =      1239.96520364
  Solvation  Ediel_sol  =         0.00000000
  ---------------------------------------------------
  free energy    TOTEN  =      -101.06705670 eV

  energy without entropy =     -101.06705670  energy(sigma->0) =     -101.06705670


--------------------------------------------------------------------------------------------------------




--------------------------------------- Iteration      1(  14)  ---------------------------------------


    POTLOK:  cpu time    1.7087: real time    1.7083
    SETDIJ:  cpu time    0.0080: real time    0.0077
     EDDAV:  cpu time   10.8294: real time   10.8250
       DOS:  cpu time    0.0000: real time    0.0003
    CHARGE:  cpu time    0.4839: real time    0.4840
    MIXING:  cpu time    0.0710: real time    0.0704
    --------------------------------------------
      LOOP:  cpu time   13.1010: real time   13.0957

 eigenvalue-minimisations  :   112
 total energy-change (2. order) :-0.4571171E-02  (-0.3906634E-04)
 number of electron      56.0000028 magnetization 
 augmentation part       -3.9305482 magnetization 

 Broyden mixing:
  rms(total) = 0.15023E-02    rms(broyden)= 0.15023E-02
  rms(prec ) = 0.26311E-02
  weight for this iteration     100.00

 eigenvalues of (default mixing * dielectric matrix)
  average eigenvalue GAMMA=   2.2902
  6.5540  2.9569  2.7223  2.2012  1.6030  1.6030  1.0471  0.9620  0.9620

 Free energy of the ion-electron system (eV)
  ---------------------------------------------------
  alpha Z        PSCENC =         2.23981092
  Ewald energy   TEWEN  =      2629.98113996
  -Hartree energ DENC   =     -3562.62727635
  -exchange      EXHF   =         0.00000000
  -V(xc)+E(xc)   XCENC  =       -40.85635237
  PAW double counting   =      3770.84895931    -3612.36123584
  entropy T*S    EENTRO =        -0.00000000
  eigenvalues    EBANDS =      -528.26187714
  atomic energy  EATOM  =      1239.96520364
  Solvation  Ediel_sol  =         0.00000000
  ---------------------------------------------------
  free energy    TOTEN  =      -101.07162787 eV

  energy without entropy =     -101.07162787  energy(sigma->0) =     -101.07162787


--------------------------------------------------------------------------------------------------------




--------------------------------------- Iteration      1(  15)  ---------------------------------------


    POTLOK:  cpu time    1.7197: real time    1.7192
    SETDIJ:  cpu time    0.0070: real time    0.0080
     EDDAV:  cpu time   10.8304: real time   10.8278
       DOS:  cpu time    0.0000: real time    0.0003
    CHARGE:  cpu time    0.4979: real time    0.4983
    MIXING:  cpu time    0.0790: real time    0.0784
    --------------------------------------------
      LOOP:  cpu time   13.1340: real time   13.1320

 eigenvalue-minimisations  :   112
 total energy-change (2. order) :-0.4009244E-02  (-0.4645897E-04)
 number of electron      56.0000028 magnetization 
 augmentation part       -3.9302759 magnetization 

 Broyden mixing:
  rms(total) = 0.15146E-02    rms(broyden)= 0.15145E-02
  rms(prec ) = 0.19666E-02
  weight for this iteration     100.00

 eigenvalues of (default mixing * dielectric matrix)
  average eigenvalue GAMMA=   2.3083
  6.7575  3.8320  2.6311  1.9104  1.9104  1.9095  1.2296  0.9331  0.9847  0.9847

 Free energy of the ion-electron system (eV)
  ---------------------------------------------------
  alpha Z        PSCENC =         2.23981092
  Ewald energy   TEWEN  =      2629.98113996
  -Hartree energ DENC   =     -3562.82894413
  -exchange      EXHF   =         0.00000000
  -V(xc)+E(xc)   XCENC  =       -40.86458237
  PAW double counting   =      3774.65267774    -3616.16480603
  entropy T*S    EENTRO =        -0.00000000
  eigenvalues    EBANDS =      -528.05613684
  atomic energy  EATOM  =      1239.96520364
  Solvation  Ediel_sol  =         0.00000000
  ---------------------------------------------------
  free energy    TOTEN  =      -101.07563712 eV

  energy without entropy =     -101.07563712  energy(sigma->0) =     -101.07563712


--------------------------------------------------------------------------------------------------------




--------------------------------------- Iteration      1(  16)  ---------------------------------------


    POTLOK:  cpu time    1.7197: real time    1.7205
    SETDIJ:  cpu time    0.0080: real time    0.0076
     EDDAV:  cpu time   10.7864: real time   10.7853
       DOS:  cpu time    0.0010: real time    0.0004
    CHARGE:  cpu time    0.4849: real time    0.4891
    MIXING:  cpu time    0.0860: real time    0.0868
    --------------------------------------------
      LOOP:  cpu time   13.0870: real time   13.0898

 eigenvalue-minimisations  :   112
 total energy-change (2. order) :-0.1116076E-02  (-0.6499495E-05)
 number of electron      56.0000028 magnetization 
 augmentation part       -3.9304845 magnetization 

 Broyden mixing:
  rms(total) = 0.64984E-03    rms(broyden)= 0.64983E-03
  rms(prec ) = 0.95985E-03
  weight for this iteration     100.00

 eigenvalues of (default mixing * dielectric matrix)
  average eigenvalue GAMMA=   2.4362
  7.4158  4.7648  2.6658  2.6658  1.8167  1.8167  1.3703  1.3703  0.9722  0.9722
  0.9677

 Free energy of the ion-electron system (eV)
  ---------------------------------------------------
  alpha Z        PSCENC =         2.23981092
  Ewald energy   TEWEN  =      2629.98113996
  -Hartree energ DENC   =     -3562.94132898
  -exchange      EXHF   =         0.00000000
  -V(xc)+E(xc)   XCENC  =       -40.86138190
  PAW double counting   =      3774.81295297    -3616.32419226
  entropy T*S    EENTRO =        -0.00000000
  eigenvalues    EBANDS =      -527.94895754
  atomic energy  EATOM  =      1239.96520364
  Solvation  Ediel_sol  =         0.00000000
  ---------------------------------------------------
  free energy    TOTEN  =      -101.07675319 eV

  energy without entropy =     -101.07675319  energy(sigma->0) =     -101.07675319


--------------------------------------------------------------------------------------------------------




--------------------------------------- Iteration      1(  17)  ---------------------------------------


    POTLOK:  cpu time    1.7147: real time    1.7135
    SETDIJ:  cpu time    0.0080: real time    0.0076
     EDDAV:  cpu time   10.2174: real time   10.2169
       DOS:  cpu time    0.0010: real time    0.0004
    CHARGE:  cpu time    0.4879: real time    0.4878
    MIXING:  cpu time    0.0990: real time    0.0991
    --------------------------------------------
      LOOP:  cpu time   12.5271: real time   12.5252

 eigenvalue-minimisations  :   104
 total energy-change (2. order) :-0.1049645E-02  (-0.9323797E-05)
 number of electron      56.0000028 magnetization 
 augmentation part       -3.9307251 magnetization 

 Broyden mixing:
  rms(total) = 0.32847E-03    rms(broyden)= 0.32843E-03
  rms(prec ) = 0.45956E-03
  weight for this iteration     100.00

 eigenvalues of (default mixing * dielectric matrix)
  average eigenvalue GAMMA=   2.4202
  7.5787  5.0896  2.7011  2.7011  1.9633  1.9633  1.5006  1.5006  1.1352  0.9695
  0.9695  0.9702

 Free energy of the ion-electron system (eV)
  ---------------------------------------------------
  alpha Z        PSCENC =         2.23981092
  Ewald energy   TEWEN  =      2629.98113996
  -Hartree energ DENC   =     -3562.94613704
  -exchange      EXHF   =         0.00000000
  -V(xc)+E(xc)   XCENC  =       -40.86448449
  PAW double counting   =      3772.77202567    -3614.28191362
  entropy T*S    EENTRO =        -0.00000000
  eigenvalues    EBANDS =      -527.94344787
  atomic energy  EATOM  =      1239.96520364
  Solvation  Ediel_sol  =         0.00000000
  ---------------------------------------------------
  free energy    TOTEN  =      -101.07780284 eV

  energy without entropy =     -101.07780284  energy(sigma->0) =     -101.07780284


--------------------------------------------------------------------------------------------------------




--------------------------------------- Iteration      1(  18)  ---------------------------------------


    POTLOK:  cpu time    1.7237: real time    1.7263
    SETDIJ:  cpu time    0.0080: real time    0.0077
     EDDAV:  cpu time   10.2274: real time   10.2249
       DOS:  cpu time    0.0000: real time    0.0003
    CHARGE:  cpu time    0.4829: real time    0.4827
    MIXING:  cpu time    0.1090: real time    0.1098
    --------------------------------------------
      LOOP:  cpu time   12.5521: real time   12.5518

 eigenvalue-minimisations  :   104
 total energy-change (2. order) :-0.2576068E-03  (-0.8499769E-06)
 number of electron      56.0000028 magnetization 
 augmentation part       -3.9306981 magnetization 

 Broyden mixing:
  rms(total) = 0.17541E-03    rms(broyden)= 0.17538E-03
  rms(prec ) = 0.24853E-03
  weight for this iteration     100.00

 eigenvalues of (default mixing * dielectric matrix)
  average eigenvalue GAMMA=   2.5090
  8.2079  5.8412  3.2434  2.6231  2.4195  1.8027  1.8027  1.3750  1.3750  0.9974
  0.9974  0.9656  0.9656

 Free energy of the ion-electron system (eV)
  ---------------------------------------------------
  alpha Z        PSCENC =         2.23981092
  Ewald energy   TEWEN  =      2629.98113996
  -Hartree energ DENC   =     -3562.98763224
  -exchange      EXHF   =         0.00000000
  -V(xc)+E(xc)   XCENC  =       -40.86359293
  PAW double counting   =      3772.78475620    -3614.29532983
  entropy T*S    EENTRO =        -0.00000000
  eigenvalues    EBANDS =      -527.90241616
  atomic energy  EATOM  =      1239.96520364
  Solvation  Ediel_sol  =         0.00000000
  ---------------------------------------------------
  free energy    TOTEN  =      -101.07806045 eV

  energy without entropy =     -101.07806045  energy(sigma->0) =     -101.07806045


--------------------------------------------------------------------------------------------------------




--------------------------------------- Iteration      1(  19)  ---------------------------------------


    POTLOK:  cpu time    1.7327: real time    1.7329
    SETDIJ:  cpu time    0.0110: real time    0.0103
     EDDAV:  cpu time    9.6105: real time    9.6129
       DOS:  cpu time    0.0000: real time    0.0003
    CHARGE:  cpu time    0.4849: real time    0.4854
    MIXING:  cpu time    0.1200: real time    0.1198
    --------------------------------------------
      LOOP:  cpu time   11.9582: real time   11.9616

 eigenvalue-minimisations  :    96
 total energy-change (2. order) :-0.1400387E-03  (-0.4748007E-06)
 number of electron      56.0000028 magnetization 
 augmentation part       -3.9307107 magnetization 

 Broyden mixing:
  rms(total) = 0.15636E-03    rms(broyden)= 0.15635E-03
  rms(prec ) = 0.19269E-03
  weight for this iteration     100.00

 eigenvalues of (default mixing * dielectric matrix)
  average eigenvalue GAMMA=   2.4998
  8.3450  6.1489  3.3809  2.6522  2.2145  2.2145  1.7780  1.7780  1.3044  1.3044
  0.9954  0.9954  0.9425  0.9425

 Free energy of the ion-electron system (eV)
  ---------------------------------------------------
  alpha Z        PSCENC =         2.23981092
  Ewald energy   TEWEN  =      2629.98113996
  -Hartree energ DENC   =     -3563.00177541
  -exchange      EXHF   =         0.00000000
  -V(xc)+E(xc)   XCENC  =       -40.86270137
  PAW double counting   =      3772.74174697    -3614.25254962
  entropy T*S    EENTRO =        -0.00000000
  eigenvalues    EBANDS =      -527.88907556
  atomic energy  EATOM  =      1239.96520364
  Solvation  Ediel_sol  =         0.00000000
  ---------------------------------------------------
  free energy    TOTEN  =      -101.07820049 eV

  energy without entropy =     -101.07820049  energy(sigma->0) =     -101.07820049


--------------------------------------------------------------------------------------------------------




--------------------------------------- Iteration      1(  20)  ---------------------------------------


    POTLOK:  cpu time    1.7247: real time    1.7238
    SETDIJ:  cpu time    0.0070: real time    0.0079
     EDDAV:  cpu time    9.0266: real time    9.0336
       DOS:  cpu time    0.0010: real time    0.0003
    CHARGE:  cpu time    0.4829: real time    0.4828
    MIXING:  cpu time    0.1310: real time    0.1313
    --------------------------------------------
      LOOP:  cpu time   11.3733: real time   11.3797

 eigenvalue-minimisations  :    88
 total energy-change (2. order) :-0.4687445E-04  (-0.8896172E-07)
 number of electron      56.0000028 magnetization 
 augmentation part       -3.9306935 magnetization 

 Broyden mixing:
  rms(total) = 0.57275E-04    rms(broyden)= 0.57275E-04
  rms(prec ) = 0.79831E-04
  weight for this iteration     100.00

 eigenvalues of (default mixing * dielectric matrix)
  average eigenvalue GAMMA=   2.5245
  8.6266  6.3754  4.0393  2.8369  2.5799  2.0187  1.8246  1.8246  1.3736  1.3736
  1.1652  0.9833  0.9833  0.9715  0.8906

 Free energy of the ion-electron system (eV)
  ---------------------------------------------------
  alpha Z        PSCENC =         2.23981092
  Ewald energy   TEWEN  =      2629.98113996
  -Hartree energ DENC   =     -3563.00341351
  -exchange      EXHF   =         0.00000000
  -V(xc)+E(xc)   XCENC  =       -40.86370187
  PAW double counting   =      3772.66185348    -3614.17259179
  entropy T*S    EENTRO =        -0.00000000
  eigenvalues    EBANDS =      -527.88654818
  atomic energy  EATOM  =      1239.96520364
  Solvation  Ediel_sol  =         0.00000000
  ---------------------------------------------------
  free energy    TOTEN  =      -101.07824736 eV

  energy without entropy =     -101.07824736  energy(sigma->0) =     -101.07824736


--------------------------------------------------------------------------------------------------------




--------------------------------------- Iteration      1(  21)  ---------------------------------------


    POTLOK:  cpu time    1.7137: real time    1.7143
    SETDIJ:  cpu time    0.0080: real time    0.0078
     EDDAV:  cpu time    8.3627: real time    8.3614
       DOS:  cpu time    0.0010: real time    0.0007
    CHARGE:  cpu time    0.4879: real time    0.4881
    MIXING:  cpu time    0.1420: real time    0.1414
    --------------------------------------------
      LOOP:  cpu time   10.7154: real time   10.7138

 eigenvalue-minimisations  :    80
 total energy-change (2. order) :-0.2145292E-04  (-0.6745086E-07)
 number of electron      56.0000028 magnetization 
 augmentation part       -3.9306805 magnetization 

 Broyden mixing:
  rms(total) = 0.53961E-04    rms(broyden)= 0.53958E-04
  rms(prec ) = 0.67831E-04
  weight for this iteration     100.00

 eigenvalues of (default mixing * dielectric matrix)
  average eigenvalue GAMMA=   2.5120
  8.5690  6.6538  4.1655  2.9183  2.6016  2.0660  2.0660  1.7966  1.7966  1.4298
  0.9510  0.9510  1.0737  1.0737  1.0088  1.0709

 Free energy of the ion-electron system (eV)
  ---------------------------------------------------
  alpha Z        PSCENC =         2.23981092
  Ewald energy   TEWEN  =      2629.98113996
  -Hartree energ DENC   =     -3563.00897007
  -exchange      EXHF   =         0.00000000
  -V(xc)+E(xc)   XCENC  =       -40.86369083
  PAW double counting   =      3772.74494913    -3614.25573682
  entropy T*S    EENTRO =        -0.00000000
  eigenvalues    EBANDS =      -527.88097474
  atomic energy  EATOM  =      1239.96520364
  Solvation  Ediel_sol  =         0.00000000
  ---------------------------------------------------
  free energy    TOTEN  =      -101.07826881 eV

  energy without entropy =     -101.07826881  energy(sigma->0) =     -101.07826881


--------------------------------------------------------------------------------------------------------




--------------------------------------- Iteration      1(  22)  ---------------------------------------


    POTLOK:  cpu time    1.7087: real time    1.7080
    SETDIJ:  cpu time    0.0070: real time    0.0076
     EDDAV:  cpu time    9.0266: real time    9.0242
       DOS:  cpu time    0.0000: real time    0.0005
    CHARGE:  cpu time    0.4849: real time    0.4851
    MIXING:  cpu time    0.1560: real time    0.1562
    --------------------------------------------
      LOOP:  cpu time   11.3833: real time   11.3817

 eigenvalue-minimisations  :    88
 total energy-change (2. order) :-0.7349611E-05  (-0.1675226E-07)
 number of electron      56.0000028 magnetization 
 augmentation part       -3.9306929 magnetization 

 Broyden mixing:
  rms(total) = 0.19407E-04    rms(broyden)= 0.19407E-04
  rms(prec ) = 0.26440E-04
  weight for this iteration     100.00

 eigenvalues of (default mixing * dielectric matrix)
  average eigenvalue GAMMA=   2.5194
  8.8039  6.7545  4.6403  3.1931  2.5387  2.5387  1.8762  1.8762  1.6580  1.6580
  1.2009  1.2009  0.9577  0.9577  0.9980  0.9882  0.9882

 Free energy of the ion-electron system (eV)
  ---------------------------------------------------
  alpha Z        PSCENC =         2.23981092
  Ewald energy   TEWEN  =      2629.98113996
  -Hartree energ DENC   =     -3563.00775112
  -exchange      EXHF   =         0.00000000
  -V(xc)+E(xc)   XCENC  =       -40.86351570
  PAW double counting   =      3772.78342359    -3614.29413734
  entropy T*S    EENTRO =        -0.00000000
  eigenvalues    EBANDS =      -527.88245010
  atomic energy  EATOM  =      1239.96520364
  Solvation  Ediel_sol  =         0.00000000
  ---------------------------------------------------
  free energy    TOTEN  =      -101.07827616 eV

  energy without entropy =     -101.07827616  energy(sigma->0) =     -101.07827616


--------------------------------------------------------------------------------------------------------




--------------------------------------- Iteration      1(  23)  ---------------------------------------


    POTLOK:  cpu time    1.7087: real time    1.7095
    SETDIJ:  cpu time    0.0090: real time    0.0092
     EDDAV:  cpu time    8.3987: real time    8.3958
       DOS:  cpu time    0.0000: real time    0.0008
    CHARGE:  cpu time    0.4829: real time    0.4814
    MIXING:  cpu time    0.1670: real time    0.1671
    --------------------------------------------
      LOOP:  cpu time   10.7664: real time   10.7637

 eigenvalue-minimisations  :    80
 total energy-change (2. order) :-0.3144933E-05  (-0.7485326E-08)
 number of electron      56.0000028 magnetization 
 augmentation part       -3.9307011 magnetization 

 Broyden mixing:
  rms(total) = 0.16552E-04    rms(broyden)= 0.16551E-04
  rms(prec ) = 0.20894E-04
  weight for this iteration     100.00

 eigenvalues of (default mixing * dielectric matrix)
  average eigenvalue GAMMA=   2.4551
  8.8652  6.7707  4.7258  3.1279  2.5658  2.5658  1.9459  1.9459  1.6732  1.6732
  1.2337  1.2337  1.0064  1.0064  1.0055  1.0055  0.9644  0.8764

 Free energy of the ion-electron system (eV)
  ---------------------------------------------------
  alpha Z        PSCENC =         2.23981092
  Ewald energy   TEWEN  =      2629.98113996
  -Hartree energ DENC   =     -3563.00725682
  -exchange      EXHF   =         0.00000000
  -V(xc)+E(xc)   XCENC  =       -40.86360513
  PAW double counting   =      3772.75546038    -3614.26615206
  entropy T*S    EENTRO =        -0.00000000
  eigenvalues    EBANDS =      -527.88288020
  atomic energy  EATOM  =      1239.96520364
  Solvation  Ediel_sol  =         0.00000000
  ---------------------------------------------------
  free energy    TOTEN  =      -101.07827931 eV

  energy without entropy =     -101.07827931  energy(sigma->0) =     -101.07827931


--------------------------------------------------------------------------------------------------------




--------------------------------------- Iteration      1(  24)  ---------------------------------------


    POTLOK:  cpu time    1.7707: real time    1.7722
    SETDIJ:  cpu time    0.0110: real time    0.0113
     EDDAV:  cpu time    9.0136: real time    9.0102
       DOS:  cpu time    0.0000: real time    0.0006
    CHARGE:  cpu time    0.4839: real time    0.4834
    MIXING:  cpu time    0.1780: real time    0.1774
    --------------------------------------------
      LOOP:  cpu time   11.4573: real time   11.4551

 eigenvalue-minimisations  :    88
 total energy-change (2. order) :-0.1783660E-05  (-0.1978968E-08)
 number of electron      56.0000028 magnetization 
 augmentation part       -3.9307000 magnetization 

 Broyden mixing:
  rms(total) = 0.85592E-05    rms(broyden)= 0.85589E-05
  rms(prec ) = 0.11476E-04
  weight for this iteration     100.00

 eigenvalues of (default mixing * dielectric matrix)
  average eigenvalue GAMMA=   2.5445
  8.8826  7.0672  5.4351  3.7849  2.9325  2.5110  2.2305  1.8745  1.8745  1.6337
  1.6337  1.2184  1.2184  1.1708  0.9944  0.9944  0.9472  0.9472  0.9938

 Free energy of the ion-electron system (eV)
  ---------------------------------------------------
  alpha Z        PSCENC =         2.23981092
  Ewald energy   TEWEN  =      2629.98113996
  -Hartree energ DENC   =     -3563.00772512
  -exchange      EXHF   =         0.00000000
  -V(xc)+E(xc)   XCENC  =       -40.86363562
  PAW double counting   =      3772.70983617    -3614.22054819
  entropy T*S    EENTRO =        -0.00000000
  eigenvalues    EBANDS =      -527.88236284
  atomic energy  EATOM  =      1239.96520364
  Solvation  Ediel_sol  =         0.00000000
  ---------------------------------------------------
  free energy    TOTEN  =      -101.07828109 eV

  energy without entropy =     -101.07828109  energy(sigma->0) =     -101.07828109


--------------------------------------------------------------------------------------------------------




--------------------------------------- Iteration      1(  25)  ---------------------------------------


    POTLOK:  cpu time    1.7327: real time    1.7325
    SETDIJ:  cpu time    0.0070: real time    0.0077
     EDDAV:  cpu time    8.4057: real time    8.4013
       DOS:  cpu time    0.0000: real time    0.0007
    CHARGE:  cpu time    0.4829: real time    0.4830
    MIXING:  cpu time    0.1910: real time    0.1910
    --------------------------------------------
      LOOP:  cpu time   10.8194: real time   10.8163

 eigenvalue-minimisations  :    80
 total energy-change (2. order) :-0.1159509E-05  (-0.1947585E-08)
 number of electron      56.0000028 magnetization 
 augmentation part       -3.9306989 magnetization 

 Broyden mixing:
  rms(total) = 0.34270E-05    rms(broyden)= 0.34269E-05
  rms(prec ) = 0.48902E-05
  weight for this iteration     100.00

 eigenvalues of (default mixing * dielectric matrix)
  average eigenvalue GAMMA=   2.5480
  8.9146  7.2340  5.6937  4.0789  2.8752  2.5386  2.1979  2.1979  1.9135  1.9135
  1.4918  1.4918  1.2321  1.2321  1.0369  1.0369  0.9388  0.9624  0.9624  1.0175

 Free energy of the ion-electron system (eV)
  ---------------------------------------------------
  alpha Z        PSCENC =         2.23981092
  Ewald energy   TEWEN  =      2629.98113996
  -Hartree energ DENC   =     -3563.00879861
  -exchange      EXHF   =         0.00000000
  -V(xc)+E(xc)   XCENC  =       -40.86360261
  PAW double counting   =      3772.71259282    -3614.22331586
  entropy T*S    EENTRO =        -0.00000000
  eigenvalues    EBANDS =      -527.88131250
  atomic energy  EATOM  =      1239.96520364
  Solvation  Ediel_sol  =         0.00000000
  ---------------------------------------------------
  free energy    TOTEN  =      -101.07828225 eV

  energy without entropy =     -101.07828225  energy(sigma->0) =     -101.07828225


--------------------------------------------------------------------------------------------------------




--------------------------------------- Iteration      1(  26)  ---------------------------------------


    POTLOK:  cpu time    1.7407: real time    1.7391
    SETDIJ:  cpu time    0.0150: real time    0.0158
     EDDAV:  cpu time    7.7968: real time    7.7940
       DOS:  cpu time    0.0010: real time    0.0003
    --------------------------------------------
      LOOP:  cpu time    9.5535: real time    9.5492

 eigenvalue-minimisations  :    72
 total energy-change (2. order) :-0.4612348E-06  (-0.3201084E-09)
 number of electron      56.0000028 magnetization 
 augmentation part       -3.9306989 magnetization 

 Free energy of the ion-electron system (eV)
  ---------------------------------------------------
  alpha Z        PSCENC =         2.23981092
  Ewald energy   TEWEN  =      2629.98113996
  -Hartree energ DENC   =     -3563.00869418
  -exchange      EXHF   =         0.00000000
  -V(xc)+E(xc)   XCENC  =       -40.86362023
  PAW double counting   =      3772.71220619    -3614.22293093
  entropy T*S    EENTRO =        -0.00000000
  eigenvalues    EBANDS =      -527.88139808
  atomic energy  EATOM  =      1239.96520364
  Solvation  Ediel_sol  =         0.00000000
  ---------------------------------------------------
  free energy    TOTEN  =      -101.07828271 eV

  energy without entropy =     -101.07828271  energy(sigma->0) =     -101.07828271


--------------------------------------------------------------------------------------------------------




 average (electrostatic) potential at core
  the test charge radii are     0.9892  1.1631  0.5201
  (the norm of the test charge is              1.0000)
       1 -93.3534       2 -93.4651       3 -93.4715       4 -93.4714       5 -93.5049
       6 -40.4222       7 -40.3815       8 -40.3815       9 -40.4852      10 -40.4852
      11 -41.0552      12 -41.0590      13 -41.0652      14 -40.6876      15 -40.6956
      16 -40.6996      17 -40.7046      18 -40.7064      19 -41.0657      20 -41.0590
      21 -41.0552      22 -41.0536      23 -40.7000      24 -40.7001      25 -40.7034
      26 -40.6993
 
 
 
 E-fermi :  -5.3670     XC(G=0):  -0.6074     alpha+bet : -0.3347


 k-point     1 :       0.0000    0.0000    0.0000
  band No.  band energies     occupation 
      1     -15.3783      2.00000
      2     -14.4515      2.00000
      3     -14.2441      2.00000
      4     -13.8352      2.00000
      5     -12.9872      2.00000
      6     -12.7015      2.00000
      7     -11.7147      2.00000
      8     -11.6797      2.00000
      9     -11.4426      2.00000
     10     -10.4795      2.00000
     11      -8.9841      2.00000
     12      -8.6346      2.00000
     13      -8.6248      2.00000
     14      -8.6186      2.00000
     15      -8.2012      2.00000
     16      -8.2008      2.00000
     17      -8.1882      2.00000
     18      -7.8646      2.00000
     19      -7.8637      2.00000
     20      -7.8520      2.00000
     21      -6.7745      2.00000
     22      -6.7622      2.00000
     23      -6.4780      2.00000
     24      -6.4742      2.00000
     25      -6.4439      2.00000
     26      -6.3726      2.00000
     27      -6.3462      2.00000
     28      -6.3420      2.00000
     29      -1.6585      0.00000
     30      -1.3817      0.00000
     31      -1.3603      0.00000
     32      -1.1817      0.00000
     33      -1.1440      0.00000
     34      -1.1160      0.00000
     35      -1.0325      0.00000
     36      -1.0207      0.00000
     37      -0.8663      0.00000
     38      -0.5800      0.00000
     39      -0.3972      0.00000
     40      -0.2637      0.00000
     41      -0.2119      0.00000
     42      -0.2113      0.00000


--------------------------------------------------------------------------------------------------------


 soft charge-density along one line, spin component           1
         0         1         2         3         4         5         6         7         8         9
 total charge-density along one line
 
 pseudopotential strength for first ion, spin component:           1
 19.608  27.364  -0.000   0.002   0.000  -0.001   0.004   0.000
 27.364  38.192  -0.001   0.003   0.000  -0.001   0.005   0.001
 -0.000  -0.001   4.358  -0.000  -0.000   8.129  -0.000  -0.000
  0.002   0.003  -0.000   4.358   0.000  -0.000   8.129   0.000
  0.000   0.000  -0.000   0.000   4.358  -0.000   0.000   8.129
 -0.001  -0.001   8.129  -0.000  -0.000  15.174  -0.000  -0.000
  0.004   0.005  -0.000   8.129   0.000  -0.000  15.174   0.000
  0.000   0.001  -0.000   0.000   8.129  -0.000   0.000  15.174
 total augmentation occupancy for first ion, spin component:           1
  5.590  -2.054   0.068  -0.325  -0.044  -0.020   0.097   0.013
 -2.054   0.815  -0.042   0.199   0.027   0.009  -0.044  -0.006
  0.068  -0.042   2.873  -0.094  -0.013  -0.626   0.034   0.005
 -0.325   0.199  -0.094   3.302   0.060   0.034  -0.782  -0.022
 -0.044   0.027  -0.013   0.060   2.862   0.005  -0.022  -0.622
 -0.020   0.009  -0.626   0.034   0.005   0.142  -0.010  -0.001
  0.097  -0.044   0.034  -0.782  -0.022  -0.010   0.188   0.006
[...]
    SETDIJ:  cpu time    0.0070: real time    0.0077
     EDDAV:  cpu time   11.5292: real time   11.5255
       DOS:  cpu time    0.0010: real time    0.0008
    CHARGE:  cpu time    0.4889: real time    0.4885
    MIXING:  cpu time    0.0460: real time    0.0462
    --------------------------------------------
      LOOP:  cpu time   13.8089: real time   13.8172

 eigenvalue-minimisations  :   120
 total energy-change (2. order) :-0.1712553E-04  (-0.2293401E-04)
 number of electron      56.0000030 magnetization 
 augmentation part       -3.9192035 magnetization 

 Broyden mixing:
  rms(total) = 0.14902E-02    rms(broyden)= 0.14898E-02
  rms(prec ) = 0.15962E-02
  weight for this iteration     100.00

 eigenvalues of (default mixing * dielectric matrix)
  average eigenvalue GAMMA=   1.1169
  1.1169

 Free energy of the ion-electron system (eV)
  ---------------------------------------------------
  alpha Z        PSCENC =         2.23981092
  Ewald energy   TEWEN  =      2612.50398012
  -Hartree energ DENC   =     -3545.74878151
  -exchange      EXHF   =         0.00000000
  -V(xc)+E(xc)   XCENC  =       -40.43258420
  PAW double counting   =      3948.87129686    -3790.42073524
  entropy T*S    EENTRO =        -0.00000000
  eigenvalues    EBANDS =      -528.35195223
  atomic energy  EATOM  =      1239.96520364
  Solvation  Ediel_sol  =         0.00000000
  ---------------------------------------------------
  free energy    TOTEN  =      -101.37376164 eV

  energy without entropy =     -101.37376164  energy(sigma->0) =     -101.37376164


--------------------------------------------------------------------------------------------------------




--------------------------------------- Iteration     18(   3)  ---------------------------------------


    POTLOK:  cpu time    1.7207: real time    1.7206
    SETDIJ:  cpu time    0.0080: real time    0.0077
     EDDAV:  cpu time   11.5143: real time   11.5107
       DOS:  cpu time    0.0010: real time    0.0006
    CHARGE:  cpu time    0.4829: real time    0.4822
    MIXING:  cpu time    0.0480: real time    0.0477
    --------------------------------------------
      LOOP:  cpu time   13.7749: real time   13.7696

 eigenvalue-minimisations  :   120
 total energy-change (2. order) : 0.1285270E-05  (-0.8438673E-06)
 number of electron      56.0000030 magnetization 
 augmentation part       -3.9191296 magnetization 

 Broyden mixing:
  rms(total) = 0.80087E-03    rms(broyden)= 0.80084E-03
  rms(prec ) = 0.84945E-03
  weight for this iteration     100.00

 eigenvalues of (default mixing * dielectric matrix)
  average eigenvalue GAMMA=   1.6028
  1.0544  2.1512

 Free energy of the ion-electron system (eV)
  ---------------------------------------------------
  alpha Z        PSCENC =         2.23981092
  Ewald energy   TEWEN  =      2612.50398012
  -Hartree energ DENC   =     -3545.76281238
  -exchange      EXHF   =         0.00000000
  -V(xc)+E(xc)   XCENC  =       -40.43210271
  PAW double counting   =      3949.45043785    -3791.00044204
  entropy T*S    EENTRO =        -0.00000000
  eigenvalues    EBANDS =      -528.33783574
  atomic energy  EATOM  =      1239.96520364
  Solvation  Ediel_sol  =         0.00000000
  ---------------------------------------------------
  free energy    TOTEN  =      -101.37376035 eV

  energy without entropy =     -101.37376035  energy(sigma->0) =     -101.37376035


--------------------------------------------------------------------------------------------------------




--------------------------------------- Iteration     18(   4)  ---------------------------------------


    POTLOK:  cpu time    1.7237: real time    1.7240
    SETDIJ:  cpu time    0.0080: real time    0.0077
     EDDAV:  cpu time   10.9163: real time   10.9123
       DOS:  cpu time    0.0010: real time    0.0007
    --------------------------------------------
      LOOP:  cpu time   12.6491: real time   12.6447

 eigenvalue-minimisations  :   112
 total energy-change (2. order) :-0.5813699E-06  (-0.3371650E-06)
 number of electron      56.0000030 magnetization 
 augmentation part       -3.9191296 magnetization 

 Free energy of the ion-electron system (eV)
  ---------------------------------------------------
  alpha Z        PSCENC =         2.23981092
  Ewald energy   TEWEN  =      2612.50398012
  -Hartree energ DENC   =     -3545.77535668
  -exchange      EXHF   =         0.00000000
  -V(xc)+E(xc)   XCENC  =       -40.43148449
  PAW double counting   =      3950.10648028    -3791.65689233
  entropy T*S    EENTRO =        -0.00000000
  eigenvalues    EBANDS =      -528.32550239
  atomic energy  EATOM  =      1239.96520364
  Solvation  Ediel_sol  =         0.00000000
  ---------------------------------------------------
  free energy    TOTEN  =      -101.37376094 eV

  energy without entropy =     -101.37376094  energy(sigma->0) =     -101.37376094


--------------------------------------------------------------------------------------------------------




 average (electrostatic) potential at core
  the test charge radii are     0.9892  1.1631  0.5201
  (the norm of the test charge is              1.0000)
       1 -93.2598       2 -93.3543       3 -93.3500       4 -93.3501       5 -93.4200
       6 -40.4535       7 -40.3976       8 -40.3976       9 -40.4808      10 -40.4808
      11 -40.9761      12 -40.9759      13 -41.0075      14 -40.8528      15 -40.8507
      16 -40.8496      17 -40.8483      18 -40.8803      19 -41.0073      20 -40.9767
      21 -40.9766      22 -41.0161      23 -40.8456      24 -40.8458      25 -40.8498
      26 -40.8497
 
 
 
 E-fermi :  -5.3191     XC(G=0):  -0.6038     alpha+bet : -0.3347


 k-point     1 :       0.0000    0.0000    0.0000
  band No.  band energies     occupation 
      1     -15.1954      2.00000
      2     -14.2820      2.00000
      3     -14.1828      2.00000
      4     -13.9558      2.00000
      5     -13.0052      2.00000
      6     -12.8135      2.00000
      7     -11.7893      2.00000
      8     -11.7371      2.00000
      9     -11.5483      2.00000
     10     -10.6215      2.00000
     11      -8.9670      2.00000
     12      -8.7001      2.00000
     13      -8.6633      2.00000
     14      -8.5669      2.00000
     15      -8.2729      2.00000
     16      -8.2226      2.00000
     17      -8.1025      2.00000
     18      -7.8915      2.00000
     19      -7.8686      2.00000
     20      -7.8189      2.00000
     21      -6.8404      2.00000
     22      -6.7893      2.00000
     23      -6.5095      2.00000
     24      -6.4959      2.00000
     25      -6.3980      2.00000
     26      -6.3686      2.00000
     27      -6.2877      2.00000
     28      -6.2682      2.00000
     29      -1.6126      0.00000
     30      -1.3949      0.00000
     31      -1.3713      0.00000
     32      -1.3121      0.00000
     33      -1.2869      0.00000
     34      -1.1216      0.00000
     35      -1.0346      0.00000
     36      -1.0161      0.00000
     37      -0.8585      0.00000
     38      -0.4670      0.00000
     39      -0.3509      0.00000
     40      -0.2420      0.00000
     41      -0.1436      0.00000
     42      -0.1426      0.00000


--------------------------------------------------------------------------------------------------------


 soft charge-density along one line, spin component           1
         0         1         2         3         4         5         6         7         8         9
 total charge-density along one line
 
 pseudopotential strength for first ion, spin component:           1
 19.608  27.363  -0.001   0.002   0.000  -0.001   0.005   0.000
 27.363  38.191  -0.001   0.003   0.000  -0.001   0.006   0.001
 -0.001  -0.001   4.361  -0.000  -0.000   8.135  -0.000  -0.000
  0.002   0.003  -0.000   4.362   0.000  -0.000   8.136   0.000
  0.000   0.000  -0.000   0.000   4.361  -0.000   0.000   8.135
 -0.001  -0.001   8.135  -0.000  -0.000  15.185  -0.000  -0.000
  0.005   0.006  -0.000   8.136   0.000  -0.000  15.186   0.000
  0.000   0.001  -0.000   0.000   8.135  -0.000   0.000  15.185
 total augmentation occupancy for first ion, spin component:           1
  6.070  -2.317   0.091  -0.432  -0.049  -0.029   0.135   0.015
 -2.317   0.941  -0.053   0.251   0.030   0.013  -0.063  -0.007
  0.091  -0.053   3.063  -0.108  -0.016  -0.683   0.039   0.006
 -0.432   0.251  -0.108   3.558   0.076   0.039  -0.860  -0.027
 -0.049   0.030  -0.016   0.076   3.052   0.006  -0.027  -0.680
 -0.029   0.013  -0.683   0.039   0.006   0.158  -0.011  -0.002
  0.135  -0.063   0.039  -0.860  -0.027  -0.011   0.211   0.008
  0.015  -0.007   0.006  -0.027  -0.680  -0.002   0.008   0.158


------------------------ aborting loop because EDIFF is reached ----------------------------------------


    CHARGE:  cpu time    0.4869: real time    0.4874
    FORLOC:  cpu time    0.1710: real time    0.1716
    FORNL :  cpu time    1.1228: real time    1.1218
    STRESS:  cpu time    8.3167: real time    8.3131
    FORCOR:  cpu time    1.7167: real time    1.7165
    FORHAR:  cpu time    0.5799: real time    0.5797
    MIXING:  cpu time    0.0490: real time    0.0491
    OFIELD:  cpu time    0.0000: real time    0.0000

  FORCE on cell =-STRESS in cart. coord.  units (eV):
  Direction    XX          YY          ZZ          XY          YZ          ZX
  --------------------------------------------------------------------------------------
  Alpha Z     2.23981     2.23981     2.23981
  Ewald     873.73579   867.39890   871.36761    -0.54878    -0.58081     2.13307
  Hartree  1185.06027  1178.09546  1182.62169    -0.33760    -0.75657     1.41021
  E(xc)    -179.03877  -179.15593  -179.16604     0.01764    -0.00090    -0.05066
  Local   -2552.32363 -2538.77591 -2547.03798     0.86623     1.28659    -3.51097
  n-local   255.03028   255.46191   254.98755    -0.03588     0.11120     0.04521
  augment   -20.82137   -20.77921   -20.73665    -0.00770    -0.00762     0.02373
  Kinetic   435.02967   434.46654   434.82521     0.02574    -0.08003     0.03367
  Fock        0.00000     0.00000     0.00000     0.00000     0.00000     0.00000
  -------------------------------------------------------------------------------------
  Total      -1.08794    -1.04845    -0.89880    -0.02035    -0.02814     0.08427
  in kB      -0.21788    -0.20998    -0.18001    -0.00408    -0.00563     0.01688
  external pressure =       -0.20 kB  Pullay stress =        0.00 kB


 VOLUME and BASIS-vectors are now :
 -----------------------------------------------------------------------------
  energy-cutoff  :      400.00
  volume of cell :     8000.00
      direct lattice vectors                 reciprocal lattice vectors
    20.000000000  0.000000000  0.000000000     0.050000000  0.000000000  0.000000000
     0.000000000 20.000000000  0.000000000     0.000000000  0.050000000  0.000000000
     0.000000000  0.000000000 20.000000000     0.000000000  0.000000000  0.050000000

  length of vectors
    20.000000000 20.000000000 20.000000000     0.050000000  0.050000000  0.050000000


 FORCES acting on ions
    electron-ion (+dipol)            ewald-force                    non-local-force                 convergence-correction
 -----------------------------------------------------------------------------------------------
   0.124E+02 -.183E+02 0.872E+02   -.125E+02 0.186E+02 -.885E+02   0.888E-01 -.270E+00 0.126E+01   0.115E-02 0.129E-03 -.343E-03
   0.870E+02 -.453E+01 0.434E+02   -.887E+02 0.478E+01 -.450E+02   0.165E+01 -.241E+00 0.154E+01   0.147E-02 0.226E-03 -.660E-03
   -.368E+02 0.546E+02 0.727E+02   0.373E+02 -.553E+02 -.747E+02   -.507E+00 0.768E+00 0.206E+01   -.405E-03 0.569E-03 -.105E-02
   -.291E+02 -.831E+02 0.429E+02   0.295E+02 0.847E+02 -.444E+02   -.373E+00 -.160E+01 0.155E+01   -.362E-03 -.126E-03 -.120E-02
   -.844E+02 0.517E+01 -.456E+02   0.866E+02 -.531E+01 0.468E+02   -.224E+01 0.136E+00 -.120E+01   -.276E-03 -.172E-03 0.750E-03
   0.817E+02 0.137E+02 -.417E+02   -.824E+02 -.137E+02 0.416E+02   0.688E+00 0.230E-01 0.724E-01   0.111E-02 -.306E-04 0.387E-03
   -.502E+02 0.771E+02 -.104E+02   0.508E+02 -.774E+02 0.102E+02   -.576E+00 0.265E+00 0.154E+00   -.278E-03 0.313E-03 -.102E-03
   -.420E+02 -.708E+02 -.425E+02   0.425E+02 0.712E+02 0.425E+02   -.541E+00 -.365E+00 0.166E-01   -.233E-03 -.279E-03 -.219E-03
   0.285E+02 0.822E+02 -.455E+02   -.288E+02 -.830E+02 0.460E+02   0.323E+00 0.886E+00 -.496E+00   0.545E-03 0.369E-03 0.186E-03
   0.360E+02 -.526E+02 -.747E+02   -.364E+02 0.532E+02 0.755E+02   0.405E+00 -.562E+00 -.809E+00   0.591E-03 -.361E-03 0.429E-04
   0.197E+02 0.395E+02 0.568E+01   -.208E+02 -.414E+02 -.675E+01   0.114E+01 0.197E+01 0.107E+01   0.113E-03 0.637E-04 -.219E-04
   0.111E+01 0.214E+02 -.390E+02   -.798E+00 -.219E+02 0.414E+02   -.309E+00 0.541E+00 -.244E+01   0.112E-03 0.106E-03 -.222E-04
   -.259E+02 0.384E+02 -.399E+01   0.272E+02 -.404E+02 0.419E+01   -.136E+01 0.204E+01 -.201E+00   0.156E-04 -.760E-04 0.490E-04
   -.459E+02 -.382E+01 0.566E+01   0.486E+02 0.424E+01 -.688E+01   -.267E+01 -.414E+00 0.122E+01   -.185E-04 -.174E-04 0.802E-04
   -.202E+02 0.784E+01 -.412E+02   0.206E+02 -.844E+01 0.441E+02   -.401E+00 0.603E+00 -.288E+01   -.243E-04 -.209E-04 0.977E-04
   -.367E+02 0.512E+01 0.290E+02   0.393E+02 -.471E+01 -.304E+02   -.260E+01 -.400E+00 0.135E+01   -.260E-03 0.420E-04 -.166E-03
   0.897E+01 0.360E+02 0.288E+02   -.103E+02 -.383E+02 -.301E+02   0.135E+01 0.228E+01 0.132E+01   0.785E-04 0.156E-03 -.197E-03
   0.647E+01 -.100E+02 0.474E+02   -.685E+01 0.106E+02 -.503E+02   0.378E+00 -.588E+00 0.281E+01   0.276E-03 -.366E-04 0.233E-03
   -.217E+02 -.359E+02 -.202E+02   0.229E+02 0.378E+02 0.212E+02   -.114E+01 -.191E+01 -.106E+01   0.782E-05 0.483E-04 0.793E-04
   0.248E+01 -.313E+01 -.441E+02   -.218E+01 0.265E+01 0.466E+02   -.306E+00 0.487E+00 -.245E+01   0.121E-03 -.718E-04 -.581E-04
   0.239E+02 -.361E+02 -.108E+02   -.253E+02 0.382E+02 0.106E+02   0.137E+01 -.210E+01 0.188E+00   0.118E-03 -.375E-04 -.453E-04
   0.412E+02 0.660E+01 -.196E+02   -.435E+02 -.695E+01 0.206E+02   0.221E+01 0.350E+00 -.104E+01   0.764E-04 -.407E-04 0.198E-03
   0.318E+02 0.249E+02 0.239E+02   -.332E+02 -.271E+02 -.252E+02   0.140E+01 0.223E+01 0.135E+01   0.921E-04 -.227E-03 -.289E-03
   0.348E+02 -.290E+02 0.122E+02   -.365E+02 0.314E+02 -.125E+02   0.166E+01 -.242E+01 0.336E+00   0.612E-04 0.333E-03 -.168E-03
   0.134E+02 -.433E+02 0.116E+02   -.151E+02 0.458E+02 -.119E+02   0.162E+01 -.247E+01 0.294E+00   0.900E-04 -.542E-04 -.242E-03
   -.352E+02 -.205E+02 0.235E+02   0.378E+02 0.210E+02 -.249E+02   -.260E+01 -.473E+00 0.133E+01   -.259E-03 0.239E-05 -.173E-03
 -----------------------------------------------------------------------------------------------
   0.134E+01 0.123E+01 -.534E+01   -.711E-14 0.178E-13 0.213E-13   -.135E+01 -.124E+01 0.534E+01   0.391E-02 0.807E-03 -.285E-02
 
 
 POSITION                                       TOTAL-FORCE (eV/Angst)
 -----------------------------------------------------------------------------------
      9.51146     11.12121      7.71174        -0.019642     -0.000945     -0.000639
      7.39731     10.78839      8.69938         0.006316      0.000742     -0.001684
     10.82465      9.17797      7.90960        -0.001860      0.000071      0.010964
     10.61401     12.93683      8.72548        -0.001541     -0.004894      0.009845
     12.29854     10.49666     11.30793        -0.008322     -0.000930      0.002243
      7.63266     10.29341     11.03994         0.008281      0.002385     -0.008511
     11.18486      8.66017     10.22929        -0.002074      0.009806      0.004111
     10.97050     12.48437     11.05936        -0.000781     -0.010776     -0.000328
      9.00586      8.27646     11.29538         0.003549      0.003939      0.000355
      8.78844     12.15808     12.13827         0.004052     -0.003373     -0.001069
      8.29780      7.05740     10.63118         0.006265      0.003246      0.003467
      9.19677      7.94216     12.80466        -0.001219     -0.002674      0.000991
     12.05087      7.36567     10.35567         0.000204      0.006454     -0.004566
     13.64712     10.70660     10.68840        -0.008648     -0.001337      0.004372
     12.49917     10.19276     12.76060         0.002741     -0.000174      0.002037
     12.14433      9.38344      7.22934        -0.004310      0.005266      0.001271
     10.13990      8.02499      7.24104        -0.003653      0.002229      0.000304
      9.31453     11.42675      6.25321        -0.002773      0.001539     -0.008218
     11.69621     13.69505     11.72957         0.001304     -0.004135     -0.006830
      8.97756     11.85669     13.65471        -0.001062      0.001613      0.002067
      7.93935     13.45960     12.02140         0.006886     -0.003654      0.002714
      6.23188     10.07240     11.69640         0.004372      0.002706     -0.010790
      6.69076      9.65599      8.01653         0.009016      0.006411      0.001150
      6.55818     12.01918      8.52969         0.009654     -0.005477     -0.001298
      9.79465     14.18260      8.57749        -0.003049     -0.002259     -0.000731
     11.93205     13.17320      8.05209        -0.003707     -0.005778     -0.001228
 -----------------------------------------------------------------------------------
    total drift:                               -0.000383      0.000208      0.001398


--------------------------------------------------------------------------------------------------------



  FREE ENERGIE OF THE ION-ELECTRON SYSTEM (eV)
  ---------------------------------------------------
  free  energy   TOTEN  =      -101.37376094 eV

  energy  without entropy=     -101.37376094  energy(sigma->0) =     -101.37376094
 
 d Force = 0.1764980E-03[ 0.780E-04, 0.275E-03]  d Energy = 0.1807334E-03-0.424E-05
 d Force =-0.4939318E+00[-0.494E+00,-0.494E+00]  d Ewald  =-0.4939318E+00 0.900E-08


--------------------------------------------------------------------------------------------------------


    POTLOK:  cpu time    1.7367: real time    1.7364


--------------------------------------------------------------------------------------------------------


 Conjugate gradient step on ions:
 trial-energy change:   -0.000181  1 .order   -0.000176   -0.000275   -0.000078
  (g-gl).g = 0.234E-03      g.g   = 0.237E-03  gl.gl    = 0.642E-03
 g(Force)  = 0.237E-03   g(Stress)= 0.000E+00 ortho     = 0.231E-05
 gamma     =   0.36457
 trial     =   1.15801
 opt step  =   1.54876  (harmonic =   1.61615) maximal distance =0.00177276
 next E    =  -101.373774   (d E  =  -0.00019)


--------------------------------------------------------------------------------------------------------


  
 reached required accuracy - stopping structural energy minimisation
 writing wavefunctions
     LOOP+:  cpu time   66.0630: real time   66.5172
    4ORBIT:  cpu time    0.0000: real time    0.0000

 total amount of memory used by VASP MPI-rank0   131440. kBytes
=======================================================================

   base      :      30000. kBytes
   nonl-proj :      17624. kBytes
   fftplans  :      26957. kBytes
   grid      :      48673. kBytes
   one-center:         40. kBytes
   wavefun   :       8146. kBytes
 
  
  
 General timing and accounting informations for this job:
 ========================================================
  
                  Total CPU time used (sec):     2529.165
                            User time (sec):     2497.989
                          System time (sec):       31.175
                         Elapsed time (sec):     2533.306
  
                   Maximum memory used (kb):      187012.
                   Average memory used (kb):           0.
  
                          Minor page faults:      6110227
                          Major page faults:            7
                 Voluntary context switches:         3756
