 vasp.5.4.4.18Apr17-6-g9f103f2a35 (build Nov 06 2017 19:16:10) complex          
  
 executed on           IFC91_ompi date 2018.07.10  05:43:50
 running on   12 total cores
 distrk:  each k-point on   12 cores,    1 groups
 distr:  one band on NCORES_PER_BAND=   6 cores,    2 groups


--------------------------------------------------------------------------------------------------------


 INCAR:
 POTCAR:    PAW_PBE Si 05Jan2001                  
 POTCAR:    PAW_PBE Ge 05Jan2001                  
 POTCAR:    PAW_PBE H 15Jun2001                   
 POTCAR:    PAW_PBE Si 05Jan2001                  
   VRHFIN =Si: s2p2                                                             
   LEXCH  = PE                                                                  
   EATOM  =   103.0669 eV,    7.5752 Ry                                         
                                                                                
   TITEL  = PAW_PBE Si 05Jan2001                                                
   LULTRA =        F    use ultrasoft PP ?                                      
   IUNSCR =        1    unscreen: 0-lin 1-nonlin 2-no                           
   RPACOR =    1.500    partial core radius                                     
   POMASS =   28.085; ZVAL   =    4.000    mass and valenz                      
   RCORE  =    1.900    outmost cutoff radius                                   
   RWIGS  =    2.480; RWIGS  =    1.312    wigner-seitz radius (au A)           
   ENMAX  =  245.345; ENMIN  =  184.009 eV                                      
   ICORE  =        2    local potential                                         
   LCOR   =        T    correct aug charges                                     
   LPAW   =        T    paw PP                                                  
   EAUG   =  322.069                                                            
   DEXC   =    0.000                                                            
   RMAX   =    1.950    core radius for proj-oper                               
   RAUG   =    1.300    factor for augmentation sphere                          
   RDEP   =    1.993    radius for radial grids                                 
   RDEPT  =    1.837    core radius for aug-charge                              
                                                                                
   Atomic configuration                                                         
    6 entries                                                                   
     n  l   j            E        occ.                                          
     1  0  0.50     -1785.8828   2.0000                                         
     2  0  0.50      -139.4969   2.0000                                         
     2  1  1.50       -95.5546   6.0000                                         
     3  0  0.50       -10.8127   2.0000                                         
     3  1  0.50        -4.0811   2.0000                                         
     3  2  1.50        -4.0817   0.0000                                         
   Description                                                                  
     l       E           TYP  RCUT    TYP  RCUT                                 
     0    -10.8127223     23  1.900                                             
     0     -7.6451159     23  1.900                                             
     1     -4.0811372     23  1.900                                             
     1      2.4879257     23  1.900                                             
     2     -4.0817478      7  1.900                                             
  local pseudopotential read in
  partial core-charges read in
  partial kinetic energy density read in
  atomic valenz-charges read in
  non local Contribution for L=           0  read in
    real space projection operators read in
  non local Contribution for L=           0  read in
    real space projection operators read in
  non local Contribution for L=           1  read in
    real space projection operators read in
  non local Contribution for L=           1  read in
    real space projection operators read in
    PAW grid and wavefunctions read in
 
   number of l-projection  operators is LMAX  =           4
   number of lm-projection operators is LMMAX =           8
 
 POTCAR:    PAW_PBE Ge 05Jan2001                  
   VRHFIN =Ge: s2p2                                                             
   LEXCH  = PE                                                                  
   EATOM  =   104.9960 eV,    7.7170 Ry                                         
                                                                                
   TITEL  = PAW_PBE Ge 05Jan2001                                                
   LULTRA =        F    use ultrasoft PP ?                                      
   IUNSCR =        1    unscreen: 0-lin 1-nonlin 2-no                           
   RPACOR =    2.170    partial core radius                                     
   POMASS =   72.610; ZVAL   =    4.000    mass and valenz                      
   RCORE  =    2.300    outmost cutoff radius                                   
   RWIGS  =    2.300; RWIGS  =    1.217    wigner-seitz radius (au A)           
   ENMAX  =  173.807; ENMIN  =  130.355 eV                                      
   ICORE  =        3    local potential                                         
   LCOR   =        T    correct aug charges                                     
   LPAW   =        T    paw PP                                                  
   EAUG   =  385.843                                                            
   DEXC   =    0.000                                                            
   RMAX   =    2.342    core radius for proj-oper                               
   RAUG   =    1.300    factor for augmentation sphere                          
   RDEP   =    2.318    radius for radial grids                                 
   RDEPT  =    2.103    core radius for aug-charge                              
                                                                                
   Atomic configuration                                                         
   10 entries                                                                   
     n  l   j            E        occ.                                          
     1  0  0.50    -10959.8463   2.0000                                         
     2  0  0.50     -1371.6056   2.0000                                         
     2  1  1.50     -1198.4791   6.0000                                         
     3  0  0.50      -168.4733   2.0000                                         
     3  1  1.50      -115.6019   6.0000                                         
     3  2  2.50       -29.3106  10.0000                                         
     4  0  0.50       -11.7309   2.0000                                         
     4  1  0.50        -3.8952   2.0000                                         
     4  2  1.50        -4.0817   0.0000                                         
     4  3  2.50        -4.0817   0.0000                                         
   Description                                                                  
     l       E           TYP  RCUT    TYP  RCUT                                 
     0    -11.7309493     23  2.300                                             
     0     -7.4578696     23  2.300                                             
     1     -3.8952261     23  2.300                                             
     1      6.1178114     23  2.300                                             
     2     -4.0817478     23  2.300                                             
     3     -1.3605826      7  2.300                                             
  local pseudopotential read in
  partial core-charges read in
  partial kinetic energy density read in
  atomic valenz-charges read in
  non local Contribution for L=           0  read in
    real space projection operators read in
  non local Contribution for L=           0  read in
    real space projection operators read in
  non local Contribution for L=           1  read in
    real space projection operators read in
  non local Contribution for L=           1  read in
    real space projection operators read in
  non local Contribution for L=           2  read in
    real space projection operators read in
    PAW grid and wavefunctions read in
 
   number of l-projection  operators is LMAX  =           5
   number of lm-projection operators is LMMAX =          13
 
 POTCAR:    PAW_PBE H 15Jun2001                   
   VRHFIN =H: ultrasoft test                                                    
   LEXCH  = PE                                                                  
   EATOM  =    12.4884 eV,    0.9179 Ry                                         
                                                                                
   TITEL  = PAW_PBE H 15Jun2001                                                 
   LULTRA =        F    use ultrasoft PP ?                                      
   IUNSCR =        0    unscreen: 0-lin 1-nonlin 2-no                           
   RPACOR =    0.000    partial core radius                                     
   POMASS =    1.000; ZVAL   =    1.000    mass and valenz                      
   RCORE  =    1.100    outmost cutoff radius                                   
   RWIGS  =    0.700; RWIGS  =    0.370    wigner-seitz radius (au A)           
   ENMAX  =  250.000; ENMIN  =  200.000 eV                                      
   RCLOC  =    0.701    cutoff for local pot                                    
   LCOR   =        T    correct aug charges                                     
   LPAW   =        T    paw PP                                                  
   EAUG   =  400.000                                                            
   RMAX   =    1.123    core radius for proj-oper                               
   RAUG   =    1.200    factor for augmentation sphere                          
   RDEP   =    1.112    radius for radial grids                                 
   RDEPT  =    0.926    core radius for aug-charge                              
                                                                                
   Atomic configuration                                                         
    2 entries                                                                   
     n  l   j            E        occ.                                          
     1  0  0.50        -6.4927   1.0000                                         
     2  1  0.50        -3.4015   0.0000                                         
   Description                                                                  
     l       E           TYP  RCUT    TYP  RCUT                                 
     0     -6.4927494     23  1.100                                             
     0      6.8029130     23  1.100                                             
     1     -4.0817478     23  1.100                                             
  local pseudopotential read in
  atomic valenz-charges read in
  non local Contribution for L=           0  read in
    real space projection operators read in
  non local Contribution for L=           0  read in
    real space projection operators read in
  non local Contribution for L=           1  read in
    real space projection operators read in
    PAW grid and wavefunctions read in
 
   number of l-projection  operators is LMAX  =           3
   number of lm-projection operators is LMMAX =           5
 

 ----------------------------------------------------------------------------- 
|                                                                             |
|  ADVICE TO THIS USER RUNNING 'VASP/VAMP'   (HEAR YOUR MASTER'S VOICE ...):  |
|                                                                             |
|      You have a (more or less) 'large supercell' and for larger cells       |
|      it might be more efficient to use real space projection opertators     |
|      So try LREAL= Auto  in the INCAR   file.                               |
|      Mind:          For very  accurate calculation you might also keep the  |
|      reciprocal projection scheme          (i.e. LREAL=.FALSE.)             |
|                                                                             |
 ----------------------------------------------------------------------------- 

  PAW_PBE Si 05Jan2001                  :
 energy of atom  1       EATOM= -103.0669
 kinetic energy error for atom=    0.0012 (will be added to EATOM!!)
  PAW_PBE Ge 05Jan2001                  :
 energy of atom  2       EATOM= -104.9960
 kinetic energy error for atom=    0.0003 (will be added to EATOM!!)
  PAW_PBE H 15Jun2001                   :
 energy of atom  3       EATOM=  -12.4884
 kinetic energy error for atom=    0.0098 (will be added to EATOM!!)
 
 
 POSCAR: SiGeH16                                 
  positions in direct lattice
  No initial velocities read in
 exchange correlation table for  LEXCH =        8
   RHO(1)=    0.500       N(1)  =     2000
   RHO(2)=  100.500       N(2)  =     4000
 


--------------------------------------------------------------------------------------------------------


 ion  position               nearest neighbor table
   1  0.475  0.556  0.385-  18 1.55   6 2.39   2 2.39   5 2.39
   2  0.369  0.539  0.436-  23 1.55  24 1.55   7 2.39   1 2.39
   3  0.557  0.433  0.512-  13 1.55   5 2.39   9 2.39   4 2.39
   4  0.451  0.416  0.564-  12 1.55  11 1.55   7 2.39   3 2.39
   5  0.542  0.457  0.396-  17 1.55  16 1.55   3 2.39   1 2.39
   6  0.531  0.648  0.437-  25 1.55  26 1.55   8 2.39   1 2.39
   7  0.385  0.515  0.552-  22 1.55  10 2.39   4 2.39   2 2.39
   8  0.547  0.624  0.554-  19 1.55   6 2.39   9 2.39  10 2.39
   9  0.613  0.525  0.565-  15 1.55  14 1.55   8 2.39   3 2.39
  10  0.440  0.606  0.605-  20 1.55  21 1.55   7 2.39   8 2.39
  11  0.415  0.357  0.529-   4 1.55
  12  0.461  0.400  0.639-   4 1.55
  13  0.600  0.369  0.520-   3 1.55
  14  0.682  0.536  0.531-   9 1.55
  15  0.623  0.509  0.640-   9 1.55
  16  0.611  0.469  0.363-   5 1.55
  17  0.506  0.398  0.362-   5 1.55
  18  0.465  0.572  0.309-   1 1.55
  19  0.583  0.683  0.588-   8 1.55
  20  0.451  0.590  0.680-  10 1.55
  21  0.397  0.670  0.598-  10 1.55
  22  0.316  0.504  0.586-   7 1.55
  23  0.333  0.479  0.402-   2 1.55
  24  0.326  0.603  0.429-   2 1.55
  25  0.488  0.712  0.430-   6 1.55
  26  0.600  0.659  0.404-   6 1.55
 
  LATTYP: Found a simple cubic cell.
 ALAT       =    20.0000000000
  
  Lattice vectors:
  
 A1 = (  20.0000000000,   0.0000000000,   0.0000000000)
 A2 = (   0.0000000000,  20.0000000000,   0.0000000000)
 A3 = (   0.0000000000,   0.0000000000,  20.0000000000)


Analysis of symmetry for initial positions (statically):
=====================================================================
 Subroutine PRICEL returns:
 Original cell was already a primitive cell.
 

 Routine SETGRP: Setting up the symmetry group for a 
 simple cubic supercell.


 Subroutine GETGRP returns: Found  1 space group operations
 (whereof  1 operations were pure point group operations)
 out of a pool of 48 trial point group operations.


The static configuration has the point symmetry C_1 .


Analysis of symmetry for dynamics (positions and initial velocities):
=====================================================================
 Subroutine PRICEL returns:
 Original cell was already a primitive cell.
 

 Routine SETGRP: Setting up the symmetry group for a 
 simple cubic supercell.


 Subroutine GETGRP returns: Found  1 space group operations
 (whereof  1 operations were pure point group operations)
 out of a pool of 48 trial point group operations.


The dynamic configuration has the point symmetry C_1 .


 Subroutine INISYM returns: Found  1 space group operations
 (whereof  1 operations are pure point group operations),
 and found     1 'primitive' translations

 
 
 KPOINTS: Automatic mesh                          

Automatic generation of k-mesh.
Space group operators:
 irot       det(A)        alpha          n_x          n_y          n_z        tau_x        tau_y        tau_z
    1     1.000000     0.000000     1.000000     0.000000     0.000000     0.000000     0.000000     0.000000
 
 Subroutine IBZKPT returns following result:
 ===========================================
 
 Found      1 irreducible k-points:
 
 Following reciprocal coordinates:
            Coordinates               Weight
  0.000000  0.000000  0.000000      1.000000
 
 Following cartesian coordinates:
            Coordinates               Weight
  0.000000  0.000000  0.000000      1.000000
 


--------------------------------------------------------------------------------------------------------




 Dimension of arrays:
   k-points           NKPTS =      1   k-points in BZ     NKDIM =      1   number of bands    NBANDS=     42
   number of dos      NEDOS =    301   number of ions     NIONS =     26
   non local maximal  LDIM  =      5   non local SUM 2l+1 LMDIM =     13
   total plane-waves  NPLWV = 941192
   max r-space proj   IRMAX =      1   max aug-charges    IRDMAX=   6593
   dimension x,y,z NGX =    98 NGY =   98 NGZ =   98
   dimension x,y,z NGXF=   196 NGYF=  196 NGZF=  196
   support grid    NGXF=   196 NGYF=  196 NGZF=  196
   ions per type =               4   6  16
   NGX,Y,Z   is equivalent  to a cutoff of   8.15,  8.15,  8.15 a.u.
   NGXF,Y,Z  is equivalent  to a cutoff of  16.29, 16.29, 16.29 a.u.

 SYSTEM =  SiGe                                    
 POSCAR =  SiGeH16                                 

 Startparameter for this run:
   NWRITE =      2    write-flag & timer
   PREC   = normal    normal or accurate (medium, high low for compatibility)
   ISTART =      0    job   : 0-new  1-cont  2-samecut
   ICHARG =      2    charge: 1-file 2-atom 10-const
   ISPIN  =      1    spin polarized calculation?
   LNONCOLLINEAR =      F non collinear calculations
   LSORBIT =      F    spin-orbit coupling
   INIWAV =      1    electr: 0-lowe 1-rand  2-diag
   LASPH  =      F    aspherical Exc in radial PAW
   METAGGA=      F    non-selfconsistent MetaGGA calc.

 Electronic Relaxation 1
   ENCUT  =  400.0 eV  29.40 Ry    5.42 a.u.  32.61 32.61 32.61*2*pi/ulx,y,z
   ENINI  =  400.0     initial cutoff
   ENAUG  =  400.0 eV  augmentation charge cutoff
   NELM   =     60;   NELMIN=  2; NELMDL= -5     # of ELM steps 
   EDIFF  = 0.1E-05   stopping-criterion for ELM
   LREAL  =      F    real-space projection
   NLSPLINE    = F    spline interpolate recip. space projectors
   LCOMPAT=      F    compatible to vasp.4.4
   GGA_COMPAT  = T    GGA compatible to vasp.4.4-vasp.4.6
   LMAXPAW     = -100 max onsite density
   LMAXMIX     =    2 max onsite mixed and CHGCAR
   VOSKOWN=      0    Vosko Wilk Nusair interpolation
   ROPT   =    0.00000   0.00000   0.00000
 Ionic relaxation
   EDIFFG = -.2E-01   stopping-criterion for IOM
   NSW    =    200    number of steps for IOM
   NBLOCK =      1;   KBLOCK =    200    inner block; outer block 
   IBRION =      2    ionic relax: 0-MD 1-quasi-New 2-CG
   NFREE  =      1    steps in history (QN), initial steepest desc. (CG)
   ISIF   =      2    stress and relaxation
   IWAVPR =     11    prediction:  0-non 1-charg 2-wave 3-comb
   ISYM   =      2    0-nonsym 1-usesym 2-fastsym
   LCORR  =      T    Harris-Foulkes like correction to forces

   POTIM  = 0.5000    time-step for ionic-motion
   TEIN   =    0.0    initial temperature
   TEBEG  =    0.0;   TEEND  =   0.0 temperature during run
   SMASS  =  -3.00    Nose mass-parameter (am)
   estimated Nose-frequenzy (Omega)   =  0.10E-29 period in steps =****** mass=  -0.914E-26a.u.
   SCALEE = 1.0000    scale energy and forces
   NPACO  =    256;   APACO  = 16.0  distance and # of slots for P.C.
   PSTRESS=    0.0 pullay stress

  Mass of Ions in am
   POMASS =  28.09 72.61  1.00
  Ionic Valenz
   ZVAL   =   4.00  4.00  1.00
  Atomic Wigner-Seitz radii
   RWIGS  =  -1.00 -1.00 -1.00
  virtual crystal weights 
   VCA    =   1.00  1.00  1.00
   NELECT =      56.0000    total number of electrons
   NUPDOWN=      -1.0000    fix difference up-down

 DOS related values:
   EMIN   =  10.00;   EMAX   =-10.00  energy-range for DOS
   EFERMI =   0.00
   ISMEAR =     0;   SIGMA  =   0.20  broadening in eV -4-tet -1-fermi 0-gaus

 Electronic relaxation 2 (details)
   IALGO  =     38    algorithm
   LDIAG  =      T    sub-space diagonalisation (order eigenvalues)
   LSUBROT=      F    optimize rotation matrix (better conditioning)
   TURBO    =      0    0=normal 1=particle mesh
   IRESTART =      0    0=no restart 2=restart with 2 vectors
   NREBOOT  =      0    no. of reboots
   NMIN     =      0    reboot dimension
   EREF     =   0.00    reference energy to select bands
   IMIX   =      4    mixing-type and parameters
     AMIX     =   0.40;   BMIX     =  1.00
     AMIX_MAG =   1.60;   BMIX_MAG =  1.00
     AMIN     =   0.10
     WC   =   100.;   INIMIX=   1;  MIXPRE=   1;  MAXMIX= -45

 Intra band minimization:
   WEIMIN = 0.0010     energy-eigenvalue tresh-hold
   EBREAK =  0.60E-08  absolut break condition
   DEPER  =   0.30     relativ break condition  

   TIME   =   0.40     timestep for ELM

  volume/ion in A,a.u.               =     307.69      2076.41
  Fermi-wavevector in a.u.,A,eV,Ry     =   0.313166  0.591797  1.334361  0.098073
  Thomas-Fermi vector in A             =   1.193276
 
 Write flags
   LWAVE        =      T    write WAVECAR
   LDOWNSAMPLE  =      F    k-point downsampling of WAVECAR
   LCHARG       =      T    write CHGCAR
   LVTOT        =      F    write LOCPOT, total local potential
   LVHAR        =      F    write LOCPOT, Hartree potential only
   LELF         =      F    write electronic localiz. function (ELF)
   LORBIT       =      0    0 simple, 1 ext, 2 COOP (PROOUT), +10 PAW based schemes


 Dipole corrections
   LMONO  =      F    monopole corrections only (constant potential shift)
   LDIPOL =      F    correct potential (dipole corrections)
   IDIPOL =      0    1-x, 2-y, 3-z, 4-all directions 
   EPSILON=  1.0000000 bulk dielectric constant

 Exchange correlation treatment:
   GGA     =    --    GGA type
   LEXCH   =     8    internal setting for exchange type
   VOSKOWN=      0    Vosko Wilk Nusair interpolation
   LHFCALC =     F    Hartree Fock is set to
   LHFONE  =     F    Hartree Fock one center treatment
   AEXX    =    0.0000 exact exchange contribution

 Linear response parameters
   LEPSILON=     F    determine dielectric tensor
   LRPA    =     F    only Hartree local field effects (RPA)
   LNABLA  =     F    use nabla operator in PAW spheres
   LVEL    =     F    velocity operator in full k-point grid
   LINTERFAST=   F  fast interpolation
   KINTER  =     0    interpolate to denser k-point grid
   CSHIFT  =0.1000    complex shift for real part using Kramers Kronig
   OMEGAMAX=  -1.0    maximum frequency
   DEG_THRESHOLD= 0.2000000E-02 threshold for treating states as degnerate
   RTIME   =   -0.100 relaxation time in fs
  (WPLASMAI=    0.000 imaginary part of plasma frequency in eV, 0.658/RTIME)
   DFIELD  = 0.0000000 0.0000000 0.0000000 field for delta impulse in time
 
 Orbital magnetization related:
   ORBITALMAG=     F  switch on orbital magnetization
   LCHIMAG   =     F  perturbation theory with respect to B field
   DQ        =  0.001000  dq finite difference perturbation B field
   LLRAUG    =     F  two centre corrections for induced B field



--------------------------------------------------------------------------------------------------------


 conjugate gradient relaxation of ions
 charge density and potential will be updated during run
 non-spin polarized calculation
 Variant of blocked Davidson
 Davidson routine will perform the subspace rotation
 perform sub-space diagonalisation
    after iterative eigenvector-optimisation
 modified Broyden-mixing scheme, WC =      100.0
 initial mixing is a Kerker type mixing with AMIX =  0.4000 and BMIX =      1.0000
 Hartree-type preconditioning will be used
 using additional bands           14
 reciprocal scheme for non local part
 use partial core corrections
 calculate Harris-corrections to forces 
   (improved forces if not selfconsistent)
 use gradient corrections 
 use of overlap-Matrix (Vanderbilt PP)
 Gauss-broadening in eV      SIGMA  =   0.20


--------------------------------------------------------------------------------------------------------


  energy-cutoff  :      400.00
  volume of cell :     8000.00
      direct lattice vectors                 reciprocal lattice vectors
    20.000000000  0.000000000  0.000000000     0.050000000  0.000000000  0.000000000
     0.000000000 20.000000000  0.000000000     0.000000000  0.050000000  0.000000000
     0.000000000  0.000000000 20.000000000     0.000000000  0.000000000  0.050000000

  length of vectors
    20.000000000 20.000000000 20.000000000     0.050000000  0.050000000  0.050000000


 
 k-points in units of 2pi/SCALE and weight: Automatic mesh                          
   0.00000000  0.00000000  0.00000000       1.000
 
 k-points in reciprocal lattice and weights: Automatic mesh                          
   0.00000000  0.00000000  0.00000000       1.000
 
 position of ions in fractional coordinates (direct lattice) 
   0.47547100  0.55626000  0.38465300
   0.36907800  0.53906000  0.43641200
   0.55736800  0.43311000  0.51215000
   0.45095700  0.41593600  0.56388300
   0.54179100  0.45744600  0.39613600
   0.53111600  0.64794100  0.43749600
   0.38461900  0.51474100  0.55243500
   0.54669200  0.62364400  0.55351800
   0.61299700  0.52481700  0.56496600
   0.44028400  0.60643000  0.60524300
   0.41490100  0.35665000  0.52940300
   0.46117000  0.40042600  0.63910800
   0.60034800  0.36907000  0.51957800
   0.68182700  0.53600700  0.53118700
   0.62280400  0.50903400  0.64018900
   0.61080000  0.46880600  0.36278200
   0.50550800  0.39805500  0.36207700
   0.46538400  0.57201900  0.30946400
   0.58275500  0.68306700  0.58775000
   0.45052500  0.59044300  0.68036400
   0.39732000  0.67044900  0.59753500
   0.31566200  0.50359800  0.58596500
   0.33322800  0.47946500  0.40225200
   0.32629100  0.60324700  0.42912600
   0.48792300  0.71185500  0.43020800
   0.60015100  0.65882400  0.40403700
 
 position of ions in cartesian coordinates  (Angst):
   9.50942000 11.12520000  7.69306000
   7.38156000 10.78120000  8.72824000
  11.14736000  8.66220000 10.24300000
   9.01914000  8.31872000 11.27766000
  10.83582000  9.14892000  7.92272000
  10.62232000 12.95882000  8.74992000
   7.69238000 10.29482000 11.04870000
  10.93384000 12.47288000 11.07036000
  12.25994000 10.49634000 11.29932000
   8.80568000 12.12860000 12.10486000
   8.29802000  7.13300000 10.58806000
   9.22340000  8.00852000 12.78216000
  12.00696000  7.38140000 10.39156000
  13.63654000 10.72014000 10.62374000
  12.45608000 10.18068000 12.80378000
  12.21600000  9.37612000  7.25564000
  10.11016000  7.96110000  7.24154000
   9.30768000 11.44038000  6.18928000
  11.65510000 13.66134000 11.75500000
   9.01050000 11.80886000 13.60728000
   7.94640000 13.40898000 11.95070000
   6.31324000 10.07196000 11.71930000
   6.66456000  9.58930000  8.04504000
   6.52582000 12.06494000  8.58252000
   9.75846000 14.23710000  8.60416000
  12.00302000 13.17648000  8.08074000
 


--------------------------------------------------------------------------------------------------------


 k-point  1 :   0.0000 0.0000 0.0000  plane waves:  145165

 maximum and minimum number of plane-waves per node :     24209    24180

 maximum number of plane-waves:    145165
 maximum index in each direction: 
   IXMAX=   32   IYMAX=   32   IZMAX=   32
   IXMIN=  -32   IYMIN=  -32   IZMIN=  -32


 parallel 3D FFT for wavefunctions:
    minimum data exchange during FFTs selected (reduces bandwidth)
 parallel 3D FFT for charge:
    minimum data exchange during FFTs selected (reduces bandwidth)


 total amount of memory used by VASP MPI-rank0   131440. kBytes
=======================================================================

   base      :      30000. kBytes
   nonl-proj :      17624. kBytes
   fftplans  :      26957. kBytes
   grid      :      48673. kBytes
   one-center:         40. kBytes
   wavefun   :       8146. kBytes
 
     INWAV:  cpu time    0.0000: real time    0.0000
 Broyden mixing: mesh for mixing (old mesh)
   NGX = 65   NGY = 65   NGZ = 65
  (NGX  =196   NGY  =196   NGZ  =196)
  gives a total of 274625 points

 initial charge density was supplied:
 charge density of overlapping atoms calculated
 number of electron      56.0000000 magnetization 
 keeping initial charge density in first step


--------------------------------------------------------------------------------------------------------


 Maximum index for augmentation-charges          565 (set IRDMAX)


--------------------------------------------------------------------------------------------------------


 First call to EWALD:  gamma=   0.089
 Maximum number of real-space cells 3x 3x 3
 Maximum number of reciprocal cells 3x 3x 3

    FEWALD:  cpu time    0.0030: real time    0.0027


--------------------------------------- Iteration      1(   1)  ---------------------------------------


    POTLOK:  cpu time    1.7607: real time    1.7615
    SETDIJ:  cpu time    0.0090: real time    0.0124
     EDDAV:  cpu time   11.3883: real time   11.3839
       DOS:  cpu time    0.0010: real time    0.0005
    --------------------------------------------
      LOOP:  cpu time   13.1590: real time   13.1583

 eigenvalue-minimisations  :   116
 total energy-change (2. order) : 0.2072137E+03  (-0.1046855E+04)
 number of electron      56.0000000 magnetization 
 augmentation part       56.0000000 magnetization 

 Free energy of the ion-electron system (eV)
  ---------------------------------------------------
  alpha Z        PSCENC =         2.51538199
  Ewald energy   TEWEN  =      2629.98113996
  -Hartree energ DENC   =     -3440.36206512
  -exchange      EXHF   =         0.00000000
  -V(xc)+E(xc)   XCENC  =       -49.26095869
  PAW double counting   =       915.51080863     -758.35430496
  entropy T*S    EENTRO =        -0.43692554
  eigenvalues    EBANDS =      -334.27449692
  atomic energy  EATOM  =      1241.89512738
  Solvation  Ediel_sol  =         0.00000000
  ---------------------------------------------------
  free energy    TOTEN  =       207.21370672 eV

  energy without entropy =      207.65063227  energy(sigma->0) =      207.43216950


--------------------------------------------------------------------------------------------------------




--------------------------------------- Iteration      1(   2)  ---------------------------------------


     EDDAV:  cpu time   13.5729: real time   13.5698
       DOS:  cpu time    0.0010: real time    0.0004
    --------------------------------------------
      LOOP:  cpu time   13.5739: real time   13.5701

 eigenvalue-minimisations  :   144
 total energy-change (2. order) :-0.2329585E+03  (-0.2177467E+03)
 number of electron      56.0000000 magnetization 
 augmentation part       56.0000000 magnetization 

 Free energy of the ion-electron system (eV)
  ---------------------------------------------------
  alpha Z        PSCENC =         2.51538199
  Ewald energy   TEWEN  =      2629.98113996
  -Hartree energ DENC   =     -3440.36206512
  -exchange      EXHF   =         0.00000000
  -V(xc)+E(xc)   XCENC  =       -49.26095869
  PAW double counting   =       915.51080863     -758.35430496
  entropy T*S    EENTRO =        -0.00000000
  eigenvalues    EBANDS =      -567.66987802
  atomic energy  EATOM  =      1241.89512738
  Solvation  Ediel_sol  =         0.00000000
  ---------------------------------------------------
  free energy    TOTEN  =       -25.74474883 eV

  energy without entropy =      -25.74474883  energy(sigma->0) =      -25.74474883


--------------------------------------------------------------------------------------------------------




--------------------------------------- Iteration      1(   3)  ---------------------------------------


     EDDAV:  cpu time   10.3794: real time   10.3751
       DOS:  cpu time    0.0000: real time    0.0005
    --------------------------------------------
      LOOP:  cpu time   10.3794: real time   10.3756

 eigenvalue-minimisations  :   104
 total energy-change (2. order) :-0.7453040E+02  (-0.7435854E+02)
 number of electron      56.0000000 magnetization 
 augmentation part       56.0000000 magnetization 

 Free energy of the ion-electron system (eV)
  ---------------------------------------------------
  alpha Z        PSCENC =         2.51538199
  Ewald energy   TEWEN  =      2629.98113996
  -Hartree energ DENC   =     -3440.36206512
  -exchange      EXHF   =         0.00000000
  -V(xc)+E(xc)   XCENC  =       -49.26095869
  PAW double counting   =       915.51080863     -758.35430496
  entropy T*S    EENTRO =        -0.00000000
  eigenvalues    EBANDS =      -642.20028093
  atomic energy  EATOM  =      1241.89512738
  Solvation  Ediel_sol  =         0.00000000
  ---------------------------------------------------
  free energy    TOTEN  =      -100.27515174 eV

  energy without entropy =     -100.27515174  energy(sigma->0) =     -100.27515174


--------------------------------------------------------------------------------------------------------




--------------------------------------- Iteration      1(   4)  ---------------------------------------


     EDDAV:  cpu time   11.0713: real time   11.0678
       DOS:  cpu time    0.0000: real time    0.0002
    --------------------------------------------
      LOOP:  cpu time   11.0713: real time   11.0680

 eigenvalue-minimisations  :   112
 total energy-change (2. order) :-0.4278190E+01  (-0.4263394E+01)
 number of electron      56.0000000 magnetization 
 augmentation part       56.0000000 magnetization 

 Free energy of the ion-electron system (eV)
  ---------------------------------------------------
  alpha Z        PSCENC =         2.51538199
  Ewald energy   TEWEN  =      2629.98113996
  -Hartree energ DENC   =     -3440.36206512
  -exchange      EXHF   =         0.00000000
  -V(xc)+E(xc)   XCENC  =       -49.26095869
  PAW double counting   =       915.51080863     -758.35430496
  entropy T*S    EENTRO =        -0.00000000
  eigenvalues    EBANDS =      -646.47847125
  atomic energy  EATOM  =      1241.89512738
  Solvation  Ediel_sol  =         0.00000000
  ---------------------------------------------------
  free energy    TOTEN  =      -104.55334206 eV

  energy without entropy =     -104.55334206  energy(sigma->0) =     -104.55334206


--------------------------------------------------------------------------------------------------------




--------------------------------------- Iteration      1(   5)  ---------------------------------------


     EDDAV:  cpu time   12.3341: real time   12.3284
       DOS:  cpu time    0.0000: real time    0.0005
    CHARGE:  cpu time    0.4869: real time    0.4869
    MIXING:  cpu time    0.0440: real time    0.0443
    --------------------------------------------
      LOOP:  cpu time   12.8650: real time   12.8602

 eigenvalue-minimisations  :   128
 total energy-change (2. order) :-0.6647079E-01  (-0.6641955E-01)
 number of electron      56.0000014 magnetization 
 augmentation part       -4.3481724 magnetization 

 Broyden mixing:
  rms(total) = 0.14519E+01    rms(broyden)= 0.14518E+01
  rms(prec ) = 0.15480E+01
  weight for this iteration     100.00

 Free energy of the ion-electron system (eV)
  ---------------------------------------------------
  alpha Z        PSCENC =         2.51538199
  Ewald energy   TEWEN  =      2629.98113996
  -Hartree energ DENC   =     -3440.36206512
  -exchange      EXHF   =         0.00000000
  -V(xc)+E(xc)   XCENC  =       -49.26095869
  PAW double counting   =       915.51080863     -758.35430496
  entropy T*S    EENTRO =        -0.00000000
  eigenvalues    EBANDS =      -646.54494204
  atomic energy  EATOM  =      1241.89512738
  Solvation  Ediel_sol  =         0.00000000
  ---------------------------------------------------
  free energy    TOTEN  =      -104.61981285 eV

  energy without entropy =     -104.61981285  energy(sigma->0) =     -104.61981285


--------------------------------------------------------------------------------------------------------




--------------------------------------- Iteration      1(   6)  ---------------------------------------


    POTLOK:  cpu time    1.6977: real time    1.7059
    SETDIJ:  cpu time    0.0090: real time    0.0083
     EDDAV:  cpu time    9.8335: real time    9.8299
       DOS:  cpu time    0.0000: real time    0.0004
    CHARGE:  cpu time    0.4849: real time    0.4838
    MIXING:  cpu time    0.0460: real time    0.0459
    --------------------------------------------
      LOOP:  cpu time   12.0712: real time   12.0742

 eigenvalue-minimisations  :    96
 total energy-change (2. order) : 0.3159373E+01  (-0.1555314E+00)
 number of electron      56.0000013 magnetization 
 augmentation part       -4.3482384 magnetization 

 Broyden mixing:
  rms(total) = 0.83907E+00    rms(broyden)= 0.83907E+00
  rms(prec ) = 0.89788E+00
  weight for this iteration     100.00

 eigenvalues of (default mixing * dielectric matrix)
  average eigenvalue GAMMA=   2.2996
  2.2996

 Free energy of the ion-electron system (eV)
  ---------------------------------------------------
  alpha Z        PSCENC =         2.51538199
  Ewald energy   TEWEN  =      2629.98113996
  -Hartree energ DENC   =     -3471.28680713
  -exchange      EXHF   =         0.00000000
  -V(xc)+E(xc)   XCENC  =       -45.63632354
  PAW double counting   =      1755.18554976    -1598.90783753
  entropy T*S    EENTRO =        -0.00000000
  eigenvalues    EBANDS =      -615.20667099
  atomic energy  EATOM  =      1241.89512738
  Solvation  Ediel_sol  =         0.00000000
  ---------------------------------------------------
  free energy    TOTEN  =      -101.46044010 eV

  energy without entropy =     -101.46044010  energy(sigma->0) =     -101.46044010


--------------------------------------------------------------------------------------------------------




--------------------------------------- Iteration      1(   7)  ---------------------------------------


    POTLOK:  cpu time    1.7017: real time    1.7012
    SETDIJ:  cpu time    0.0080: real time    0.0080
     EDDAV:  cpu time   10.4304: real time   10.4268
       DOS:  cpu time    0.0000: real time    0.0004
    CHARGE:  cpu time    0.4909: real time    0.4919
    MIXING:  cpu time    0.0470: real time    0.0474
    --------------------------------------------
      LOOP:  cpu time   12.6781: real time   12.6757

 eigenvalue-minimisations  :   104
 total energy-change (2. order) : 0.1651604E+01  (-0.3980346E+00)
 number of electron      56.0000012 magnetization 
 augmentation part       -4.3468612 magnetization 

 Broyden mixing:
  rms(total) = 0.12136E+00    rms(broyden)= 0.12121E+00
  rms(prec ) = 0.15272E+00
  weight for this iteration     100.00

 eigenvalues of (default mixing * dielectric matrix)
  average eigenvalue GAMMA=   1.8490
  1.7756  1.9225

 Free energy of the ion-electron system (eV)
  ---------------------------------------------------
  alpha Z        PSCENC =         2.51538199
  Ewald energy   TEWEN  =      2629.98113996
  -Hartree energ DENC   =     -3526.18946152
  -exchange      EXHF   =         0.00000000
  -V(xc)+E(xc)   XCENC  =       -39.90750751
  PAW double counting   =      3556.46507443    -3401.35563653
  entropy T*S    EENTRO =        -0.00000000
  eigenvalues    EBANDS =      -563.21295460
  atomic energy  EATOM  =      1241.89512738
  Solvation  Ediel_sol  =         0.00000000
  ---------------------------------------------------
  free energy    TOTEN  =       -99.80883641 eV

  energy without entropy =      -99.80883641  energy(sigma->0) =      -99.80883641


--------------------------------------------------------------------------------------------------------




--------------------------------------- Iteration      1(   8)  ---------------------------------------


    POTLOK:  cpu time    1.7107: real time    1.7099
    SETDIJ:  cpu time    0.0090: real time    0.0083
     EDDAV:  cpu time   11.0793: real time   11.0785
       DOS:  cpu time    0.0000: real time    0.0004
    CHARGE:  cpu time    0.4839: real time    0.4836
    MIXING:  cpu time    0.0500: real time    0.0502
    --------------------------------------------
      LOOP:  cpu time   13.3330: real time   13.3308

 eigenvalue-minimisations  :   112
 total energy-change (2. order) : 0.5463727E-01  (-0.2722166E-01)
 number of electron      56.0000012 magnetization 
 augmentation part       -4.3404254 magnetization 

 Broyden mixing:
  rms(total) = 0.59957E-01    rms(broyden)= 0.59943E-01
  rms(prec ) = 0.79130E-01
  weight for this iteration     100.00

 eigenvalues of (default mixing * dielectric matrix)
  average eigenvalue GAMMA=   1.9778
  2.6506  1.6414  1.6414

 Free energy of the ion-electron system (eV)
  ---------------------------------------------------
  alpha Z        PSCENC =         2.51538199
  Ewald energy   TEWEN  =      2629.98113996
  -Hartree energ DENC   =     -3534.48602246
  -exchange      EXHF   =         0.00000000
  -V(xc)+E(xc)   XCENC  =       -39.91233092
  PAW double counting   =      3583.67975399    -3428.48833875
  entropy T*S    EENTRO =        -0.00000000
  eigenvalues    EBANDS =      -554.93891032
  atomic energy  EATOM  =      1241.89512738
  Solvation  Ediel_sol  =         0.00000000
  ---------------------------------------------------
  free energy    TOTEN  =       -99.75419914 eV

  energy without entropy =      -99.75419914  energy(sigma->0) =      -99.75419914


--------------------------------------------------------------------------------------------------------




--------------------------------------- Iteration      1(   9)  ---------------------------------------


    POTLOK:  cpu time    1.7147: real time    1.7140
    SETDIJ:  cpu time    0.0080: real time    0.0078
     EDDAV:  cpu time   11.6862: real time   11.6831
       DOS:  cpu time    0.0010: real time    0.0005
    CHARGE:  cpu time    0.4829: real time    0.4833
    MIXING:  cpu time    0.0520: real time    0.0525
    --------------------------------------------
      LOOP:  cpu time   13.9449: real time   13.9411

 eigenvalue-minimisations  :   120
 total energy-change (2. order) : 0.3534810E-01  (-0.6782225E-02)
 number of electron      56.0000012 magnetization 
 augmentation part       -4.3261954 magnetization 

 Broyden mixing:
  rms(total) = 0.32581E-01    rms(broyden)= 0.32580E-01
  rms(prec ) = 0.44324E-01
  weight for this iteration     100.00

 eigenvalues of (default mixing * dielectric matrix)
  average eigenvalue GAMMA=   1.7552
  2.5024  1.8402  1.8402  0.8382

 Free energy of the ion-electron system (eV)
  ---------------------------------------------------
  alpha Z        PSCENC =         2.51538199
  Ewald energy   TEWEN  =      2629.98113996
  -Hartree energ DENC   =     -3546.10847892
  -exchange      EXHF   =         0.00000000
  -V(xc)+E(xc)   XCENC  =       -39.21123967
  PAW double counting   =      3716.18497568    -3561.03970286
  entropy T*S    EENTRO =        -0.00000000
  eigenvalues    EBANDS =      -543.93605459
  atomic energy  EATOM  =      1241.89512738
  Solvation  Ediel_sol  =         0.00000000
  ---------------------------------------------------
  free energy    TOTEN  =       -99.71885104 eV

  energy without entropy =      -99.71885104  energy(sigma->0) =      -99.71885104


--------------------------------------------------------------------------------------------------------




--------------------------------------- Iteration      1(  10)  ---------------------------------------


    POTLOK:  cpu time    1.7167: real time    1.7153
    SETDIJ:  cpu time    0.0090: real time    0.0095
     EDDAV:  cpu time   11.0353: real time   11.0305
       DOS:  cpu time    0.0000: real time    0.0004
    CHARGE:  cpu time    0.4859: real time    0.4856
    MIXING:  cpu time    0.0540: real time    0.0548
    --------------------------------------------
      LOOP:  cpu time   13.3020: real time   13.2962

 eigenvalue-minimisations  :   112
 total energy-change (2. order) :-0.1679757E-03  (-0.2613306E-03)
 number of electron      56.0000012 magnetization 
 augmentation part       -4.3254344 magnetization 

 Broyden mixing:
  rms(total) = 0.14273E-01    rms(broyden)= 0.14273E-01
  rms(prec ) = 0.27654E-01
  weight for this iteration     100.00

 eigenvalues of (default mixing * dielectric matrix)
  average eigenvalue GAMMA=   1.8894
  2.8449  2.2712  1.0800  1.6254  1.6254

 Free energy of the ion-electron system (eV)
  ---------------------------------------------------
  alpha Z        PSCENC =         2.51538199
  Ewald energy   TEWEN  =      2629.98113996
  -Hartree energ DENC   =     -3548.36167065
  -exchange      EXHF   =         0.00000000
  -V(xc)+E(xc)   XCENC  =       -39.21280643
  PAW double counting   =      3643.39073362    -3488.19400281
  entropy T*S    EENTRO =        -0.00000000
  eigenvalues    EBANDS =      -541.73292208
  atomic energy  EATOM  =      1241.89512738
  Solvation  Ediel_sol  =         0.00000000
  ---------------------------------------------------
  free energy    TOTEN  =       -99.71901901 eV

  energy without entropy =      -99.71901901  energy(sigma->0) =      -99.71901901


--------------------------------------------------------------------------------------------------------




--------------------------------------- Iteration      1(  11)  ---------------------------------------


    POTLOK:  cpu time    1.7737: real time    1.7744
    SETDIJ:  cpu time    0.0120: real time    0.0120
     EDDAV:  cpu time   10.4374: real time   10.4343
       DOS:  cpu time    0.0010: real time    0.0009
    CHARGE:  cpu time    0.4829: real time    0.4826
    MIXING:  cpu time    0.0570: real time    0.0571
    --------------------------------------------
      LOOP:  cpu time   12.7631: real time   12.7613

 eigenvalue-minimisations  :   104
 total energy-change (2. order) : 0.1653669E-03  (-0.6642481E-03)
 number of electron      56.0000012 magnetization 
 augmentation part       -4.3238922 magnetization 

 Broyden mixing:
  rms(total) = 0.82295E-02    rms(broyden)= 0.82292E-02
  rms(prec ) = 0.14375E-01
  weight for this iteration     100.00

 eigenvalues of (default mixing * dielectric matrix)
  average eigenvalue GAMMA=   1.8755
  3.2757  2.5608  1.7409  1.7409  1.0504  0.8840

 Free energy of the ion-electron system (eV)
  ---------------------------------------------------
  alpha Z        PSCENC =         2.51538199
  Ewald energy   TEWEN  =      2629.98113996
  -Hartree energ DENC   =     -3555.20857999
  -exchange      EXHF   =         0.00000000
  -V(xc)+E(xc)   XCENC  =       -39.01180367
  PAW double counting   =      3608.58488491    -3453.35069742
  entropy T*S    EENTRO =        -0.00000000
  eigenvalues    EBANDS =      -535.12430681
  atomic energy  EATOM  =      1241.89512738
  Solvation  Ediel_sol  =         0.00000000
  ---------------------------------------------------
  free energy    TOTEN  =       -99.71885364 eV

  energy without entropy =      -99.71885364  energy(sigma->0) =      -99.71885364


--------------------------------------------------------------------------------------------------------




--------------------------------------- Iteration      1(  12)  ---------------------------------------


    POTLOK:  cpu time    1.7307: real time    1.7300
    SETDIJ:  cpu time    0.0080: real time    0.0078
     EDDAV:  cpu time   10.2324: real time   10.2295
       DOS:  cpu time    0.0010: real time    0.0006
    CHARGE:  cpu time    0.4899: real time    0.4891
    MIXING:  cpu time    0.0620: real time    0.0622
    --------------------------------------------
      LOOP:  cpu time   12.5241: real time   12.5193

 eigenvalue-minimisations  :   102
 total energy-change (2. order) :-0.4388673E-02  (-0.1080045E-03)
 number of electron      56.0000012 magnetization 
 augmentation part       -4.3231377 magnetization 

 Broyden mixing:
  rms(total) = 0.57938E-02    rms(broyden)= 0.57937E-02
  rms(prec ) = 0.97926E-02
  weight for this iteration     100.00

 eigenvalues of (default mixing * dielectric matrix)
  average eigenvalue GAMMA=   2.0782
  4.5507  2.4700  2.4700  1.5474  1.5474  0.9808  0.9808

 Free energy of the ion-electron system (eV)
  ---------------------------------------------------
  alpha Z        PSCENC =         2.51538199
  Ewald energy   TEWEN  =      2629.98113996
  -Hartree energ DENC   =     -3557.46608712
  -exchange      EXHF   =         0.00000000
  -V(xc)+E(xc)   XCENC  =       -38.97589108
  PAW double counting   =      3602.14830109    -3446.91208686
  entropy T*S    EENTRO =        -0.00000000
  eigenvalues    EBANDS =      -532.90912768
  atomic energy  EATOM  =      1241.89512738
  Solvation  Ediel_sol  =         0.00000000
  ---------------------------------------------------
  free energy    TOTEN  =       -99.72324232 eV

  energy without entropy =      -99.72324232  energy(sigma->0) =      -99.72324232


--------------------------------------------------------------------------------------------------------




--------------------------------------- Iteration      1(  13)  ---------------------------------------


    POTLOK:  cpu time    1.7287: real time    1.7281
    SETDIJ:  cpu time    0.0090: real time    0.0085
     EDDAV:  cpu time   11.0573: real time   11.0543
       DOS:  cpu time    0.0010: real time    0.0007
    CHARGE:  cpu time    0.4869: real time    0.4877
    MIXING:  cpu time    0.0700: real time    0.0683
    --------------------------------------------
      LOOP:  cpu time   13.3530: real time   13.3475

 eigenvalue-minimisations  :   112
 total energy-change (2. order) :-0.4761796E-02  (-0.1680122E-03)
 number of electron      56.0000012 magnetization 
 augmentation part       -4.3229915 magnetization 

 Broyden mixing:
  rms(total) = 0.34417E-02    rms(broyden)= 0.34416E-02
  rms(prec ) = 0.51617E-02
  weight for this iteration     100.00

 eigenvalues of (default mixing * dielectric matrix)
  average eigenvalue GAMMA=   2.1978
  5.6591  2.9610  2.2599  1.8152  1.8152  0.9668  0.9668  1.1386

 Free energy of the ion-electron system (eV)
  ---------------------------------------------------
  alpha Z        PSCENC =         2.51538199
  Ewald energy   TEWEN  =      2629.98113996
  -Hartree energ DENC   =     -3560.14283332
  -exchange      EXHF   =         0.00000000
  -V(xc)+E(xc)   XCENC  =       -38.92486777
  PAW double counting   =      3608.75005626    -3453.52218511
  entropy T*S    EENTRO =        -0.00000000
  eigenvalues    EBANDS =      -530.27982350
  atomic energy  EATOM  =      1241.89512738
  Solvation  Ediel_sol  =         0.00000000
  ---------------------------------------------------
  free energy    TOTEN  =       -99.72800411 eV

  energy without entropy =      -99.72800411  energy(sigma->0) =      -99.72800411


--------------------------------------------------------------------------------------------------------




--------------------------------------- Iteration      1(  14)  ---------------------------------------


    POTLOK:  cpu time    1.7237: real time    1.7239
    SETDIJ:  cpu time    0.0080: real time    0.0082
     EDDAV:  cpu time   11.0803: real time   11.0766
       DOS:  cpu time    0.0010: real time    0.0008
    CHARGE:  cpu time    0.4849: real time    0.4846
    MIXING:  cpu time    0.0720: real time    0.0720
    --------------------------------------------
      LOOP:  cpu time   13.3700: real time   13.3660

 eigenvalue-minimisations  :   112
 total energy-change (2. order) :-0.3969224E-02  (-0.3076851E-04)
 number of electron      56.0000012 magnetization 
 augmentation part       -4.3225551 magnetization 

 Broyden mixing:
  rms(total) = 0.15700E-02    rms(broyden)= 0.15700E-02
  rms(prec ) = 0.27190E-02
  weight for this iteration     100.00

 eigenvalues of (default mixing * dielectric matrix)
  average eigenvalue GAMMA=   2.2840
  6.5409  2.9069  2.7258  2.1631  1.5985  1.5985  1.0930  0.9648  0.9648

 Free energy of the ion-electron system (eV)
  ---------------------------------------------------
  alpha Z        PSCENC =         2.51538199
  Ewald energy   TEWEN  =      2629.98113996
  -Hartree energ DENC   =     -3560.82968115
  -exchange      EXHF   =         0.00000000
  -V(xc)+E(xc)   XCENC  =       -38.93967800
  PAW double counting   =      3607.55769787    -3452.32956533
  entropy T*S    EENTRO =        -0.00000000
  eigenvalues    EBANDS =      -529.58239606
  atomic energy  EATOM  =      1241.89512738
  Solvation  Ediel_sol  =         0.00000000
  ---------------------------------------------------
  free energy    TOTEN  =       -99.73197334 eV

  energy without entropy =      -99.73197334  energy(sigma->0) =      -99.73197334


--------------------------------------------------------------------------------------------------------




--------------------------------------- Iteration      1(  15)  ---------------------------------------


    POTLOK:  cpu time    1.7277: real time    1.7273
    SETDIJ:  cpu time    0.0080: real time    0.0083
     EDDAV:  cpu time   11.0773: real time   11.0724
       DOS:  cpu time    0.0000: real time    0.0008
    CHARGE:  cpu time    0.4869: real time    0.4865
    MIXING:  cpu time    0.0780: real time    0.0777
    --------------------------------------------
      LOOP:  cpu time   13.3780: real time   13.3730

 eigenvalue-minimisations  :   112
 total energy-change (2. order) :-0.4265411E-02  (-0.5023336E-04)
 number of electron      56.0000012 magnetization 
 augmentation part       -4.3222369 magnetization 

 Broyden mixing:
  rms(total) = 0.14264E-02    rms(broyden)= 0.14263E-02
  rms(prec ) = 0.18852E-02
  weight for this iteration     100.00

 eigenvalues of (default mixing * dielectric matrix)
  average eigenvalue GAMMA=   2.3108
  6.7383  3.7959  2.6311  2.0093  2.0093  1.7552  1.2558  0.9364  0.9887  0.9887

 Free energy of the ion-electron system (eV)
  ---------------------------------------------------
  alpha Z        PSCENC =         2.51538199
  Ewald energy   TEWEN  =      2629.98113996
  -Hartree energ DENC   =     -3561.07931531
  -exchange      EXHF   =         0.00000000
  -V(xc)+E(xc)   XCENC  =       -38.94697910
  PAW double counting   =      3610.96788685    -3455.74017745
  entropy T*S    EENTRO =        -0.00000000
  eigenvalues    EBANDS =      -529.32930308
  atomic energy  EATOM  =      1241.89512738
  Solvation  Ediel_sol  =         0.00000000
  ---------------------------------------------------
  free energy    TOTEN  =       -99.73623875 eV

  energy without entropy =      -99.73623875  energy(sigma->0) =      -99.73623875


--------------------------------------------------------------------------------------------------------




--------------------------------------- Iteration      1(  16)  ---------------------------------------


    POTLOK:  cpu time    1.7717: real time    1.7752
    SETDIJ:  cpu time    0.0080: real time    0.0084
     EDDAV:  cpu time   11.0933: real time   11.0888
       DOS:  cpu time    0.0000: real time    0.0005
    CHARGE:  cpu time    0.4829: real time    0.4826
    MIXING:  cpu time    0.0880: real time    0.0880
    --------------------------------------------
      LOOP:  cpu time   13.4440: real time   13.4433

 eigenvalue-minimisations  :   112
 total energy-change (2. order) :-0.1183303E-02  (-0.6923552E-05)
 number of electron      56.0000012 magnetization 
 augmentation part       -4.3224355 magnetization 

 Broyden mixing:
  rms(total) = 0.63491E-03    rms(broyden)= 0.63490E-03
  rms(prec ) = 0.95404E-03
  weight for this iteration     100.00

 eigenvalues of (default mixing * dielectric matrix)
  average eigenvalue GAMMA=   2.4396
  7.4408  4.7507  2.6592  2.6592  1.8357  1.8357  1.3635  1.3635  0.9738  0.9738
  0.9793

 Free energy of the ion-electron system (eV)
  ---------------------------------------------------
  alpha Z        PSCENC =         2.51538199
  Ewald energy   TEWEN  =      2629.98113996
  -Hartree energ DENC   =     -3561.17893731
  -exchange      EXHF   =         0.00000000
  -V(xc)+E(xc)   XCENC  =       -38.94508122
  PAW double counting   =      3610.83721923    -3455.60890404
  entropy T*S    EENTRO =        -0.00000000
  eigenvalues    EBANDS =      -529.23336804
  atomic energy  EATOM  =      1241.89512738
  Solvation  Ediel_sol  =         0.00000000
  ---------------------------------------------------
  free energy    TOTEN  =       -99.73742205 eV

  energy without entropy =      -99.73742205  energy(sigma->0) =      -99.73742205


--------------------------------------------------------------------------------------------------------




--------------------------------------- Iteration      1(  17)  ---------------------------------------


    POTLOK:  cpu time    1.7187: real time    1.7177
    SETDIJ:  cpu time    0.0080: real time    0.0083
     EDDAV:  cpu time   10.4644: real time   10.4612
       DOS:  cpu time    0.0010: real time    0.0005
    CHARGE:  cpu time    0.4879: real time    0.4873
    MIXING:  cpu time    0.0970: real time    0.0966
    --------------------------------------------
      LOOP:  cpu time   12.7771: real time   12.7716

 eigenvalue-minimisations  :   104
 total energy-change (2. order) :-0.1014704E-02  (-0.8715616E-05)
 number of electron      56.0000012 magnetization 
 augmentation part       -4.3226389 magnetization 

 Broyden mixing:
  rms(total) = 0.34029E-03    rms(broyden)= 0.34027E-03
  rms(prec ) = 0.46431E-03
  weight for this iteration     100.00

 eigenvalues of (default mixing * dielectric matrix)
  average eigenvalue GAMMA=   2.4380
  7.5950  5.1607  2.6435  2.6435  2.0277  2.0277  1.5286  1.5286  1.1695  0.9798
  0.9798  0.9714

 Free energy of the ion-electron system (eV)
  ---------------------------------------------------
  alpha Z        PSCENC =         2.51538199
  Ewald energy   TEWEN  =      2629.98113996
  -Hartree energ DENC   =     -3561.19011242
  -exchange      EXHF   =         0.00000000
  -V(xc)+E(xc)   XCENC  =       -38.94789784
  PAW double counting   =      3609.19578774    -3453.96600377
  entropy T*S    EENTRO =        -0.00000000
  eigenvalues    EBANDS =      -529.22185978
  atomic energy  EATOM  =      1241.89512738
  Solvation  Ediel_sol  =         0.00000000
  ---------------------------------------------------
  free energy    TOTEN  =       -99.73843676 eV

  energy without entropy =      -99.73843676  energy(sigma->0) =      -99.73843676


--------------------------------------------------------------------------------------------------------




--------------------------------------- Iteration      1(  18)  ---------------------------------------


    POTLOK:  cpu time    1.7187: real time    1.7198
    SETDIJ:  cpu time    0.0170: real time    0.0166
     EDDAV:  cpu time   10.4594: real time   10.4546
       DOS:  cpu time    0.0000: real time    0.0006
    CHARGE:  cpu time    0.4869: real time    0.4871
    MIXING:  cpu time    0.1090: real time    0.1088
    --------------------------------------------
      LOOP:  cpu time   12.7911: real time   12.7876

 eigenvalue-minimisations  :   104
 total energy-change (2. order) :-0.2735873E-03  (-0.8999336E-06)
 number of electron      56.0000012 magnetization 
 augmentation part       -4.3226195 magnetization 

 Broyden mixing:
  rms(total) = 0.18655E-03    rms(broyden)= 0.18653E-03
  rms(prec ) = 0.25722E-03
  weight for this iteration     100.00

 eigenvalues of (default mixing * dielectric matrix)
  average eigenvalue GAMMA=   2.5019
  8.1633  5.8292  3.2125  2.6069  2.4352  1.8059  1.8059  1.3732  1.3732  1.0021
  1.0021  0.9575  0.9575

 Free energy of the ion-electron system (eV)
  ---------------------------------------------------
  alpha Z        PSCENC =         2.51538199
  Ewald energy   TEWEN  =      2629.98113996
  -Hartree energ DENC   =     -3561.22438786
  -exchange      EXHF   =         0.00000000
  -V(xc)+E(xc)   XCENC  =       -38.94736197
  PAW double counting   =      3609.39047043    -3454.16133453
  entropy T*S    EENTRO =        -0.00000000
  eigenvalues    EBANDS =      -529.18774575
  atomic energy  EATOM  =      1241.89512738
  Solvation  Ediel_sol  =         0.00000000
  ---------------------------------------------------
  free energy    TOTEN  =       -99.73871034 eV

  energy without entropy =      -99.73871034  energy(sigma->0) =      -99.73871034


--------------------------------------------------------------------------------------------------------




--------------------------------------- Iteration      1(  19)  ---------------------------------------


    POTLOK:  cpu time    1.7257: real time    1.7244
    SETDIJ:  cpu time    0.0080: real time    0.0081
     EDDAV:  cpu time   10.4314: real time   10.4283
       DOS:  cpu time    0.0010: real time    0.0007
    CHARGE:  cpu time    0.4819: real time    0.4825
    MIXING:  cpu time    0.1170: real time    0.1166
    --------------------------------------------
      LOOP:  cpu time   12.7651: real time   12.7607

 eigenvalue-minimisations  :   104
 total energy-change (2. order) :-0.1385523E-03  (-0.5096665E-06)
 number of electron      56.0000012 magnetization 
 augmentation part       -4.3226523 magnetization 

 Broyden mixing:
  rms(total) = 0.17698E-03    rms(broyden)= 0.17697E-03
  rms(prec ) = 0.21200E-03
  weight for this iteration     100.00

 eigenvalues of (default mixing * dielectric matrix)
  average eigenvalue GAMMA=   2.4881
  8.3781  6.0510  3.3505  2.6731  2.1577  2.1577  1.7396  1.7396  1.3993  1.3329
  0.9994  0.9994  0.9279  0.9279

 Free energy of the ion-electron system (eV)
  ---------------------------------------------------
  alpha Z        PSCENC =         2.51538199
  Ewald energy   TEWEN  =      2629.98113996
  -Hartree energ DENC   =     -3561.23600981
  -exchange      EXHF   =         0.00000000
  -V(xc)+E(xc)   XCENC  =       -38.94637874
  PAW double counting   =      3609.22357727    -3453.99457892
  entropy T*S    EENTRO =        -0.00000000
  eigenvalues    EBANDS =      -529.17710803
  atomic energy  EATOM  =      1241.89512738
  Solvation  Ediel_sol  =         0.00000000
  ---------------------------------------------------
  free energy    TOTEN  =       -99.73884889 eV

  energy without entropy =      -99.73884889  energy(sigma->0) =      -99.73884889


--------------------------------------------------------------------------------------------------------




--------------------------------------- Iteration      1(  20)  ---------------------------------------


    POTLOK:  cpu time    1.7227: real time    1.7218
    SETDIJ:  cpu time    0.0080: real time    0.0079
     EDDAV:  cpu time    9.2336: real time    9.2305
       DOS:  cpu time    0.0010: real time    0.0007
    CHARGE:  cpu time    0.4909: real time    0.4912
    MIXING:  cpu time    0.1300: real time    0.1302
    --------------------------------------------
      LOOP:  cpu time   11.5862: real time   11.5822

 eigenvalue-minimisations  :    88
 total energy-change (2. order) :-0.4270136E-04  (-0.7166893E-07)
 number of electron      56.0000012 magnetization 
 augmentation part       -4.3226404 magnetization 

 Broyden mixing:
  rms(total) = 0.55784E-04    rms(broyden)= 0.55783E-04
  rms(prec ) = 0.80361E-04
  weight for this iteration     100.00

 eigenvalues of (default mixing * dielectric matrix)
  average eigenvalue GAMMA=   2.5334
  8.6427  6.4173  4.0879  2.9155  2.5346  1.8795  1.8795  1.6383  1.6383  1.2514
  1.2514  0.9932  0.9932  0.9709  0.9073

 Free energy of the ion-electron system (eV)
  ---------------------------------------------------
  alpha Z        PSCENC =         2.51538199
  Ewald energy   TEWEN  =      2629.98113996
  -Hartree energ DENC   =     -3561.23674885
  -exchange      EXHF   =         0.00000000
  -V(xc)+E(xc)   XCENC  =       -38.94740187
  PAW double counting   =      3609.05864622    -3453.82954459
  entropy T*S    EENTRO =        -0.00000000
  eigenvalues    EBANDS =      -529.17549184
  atomic energy  EATOM  =      1241.89512738
  Solvation  Ediel_sol  =         0.00000000
  ---------------------------------------------------
  free energy    TOTEN  =       -99.73889160 eV

  energy without entropy =      -99.73889160  energy(sigma->0) =      -99.73889160


--------------------------------------------------------------------------------------------------------




--------------------------------------- Iteration      1(  21)  ---------------------------------------


    POTLOK:  cpu time    1.7347: real time    1.7366
    SETDIJ:  cpu time    0.0080: real time    0.0084
     EDDAV:  cpu time    8.5977: real time    8.5936
       DOS:  cpu time    0.0000: real time    0.0007
    CHARGE:  cpu time    0.4829: real time    0.4826
    MIXING:  cpu time    0.1410: real time    0.1413
    --------------------------------------------
      LOOP:  cpu time   10.9643: real time   10.9632

 eigenvalue-minimisations  :    80
 total energy-change (2. order) :-0.2559435E-04  (-0.8357335E-07)
 number of electron      56.0000012 magnetization 
 augmentation part       -4.3226229 magnetization 

 Broyden mixing:
  rms(total) = 0.47162E-04    rms(broyden)= 0.47160E-04
  rms(prec ) = 0.60315E-04
  weight for this iteration     100.00

 eigenvalues of (default mixing * dielectric matrix)
  average eigenvalue GAMMA=   2.4991
  8.5483  6.6432  4.0960  2.9043  2.5847  2.0693  2.0693  1.7214  1.7214  1.4929
  1.1612  1.0254  1.0254  1.0335  0.9443  0.9443

 Free energy of the ion-electron system (eV)
  ---------------------------------------------------
  alpha Z        PSCENC =         2.51538199
  Ewald energy   TEWEN  =      2629.98113996
  -Hartree energ DENC   =     -3561.24421218
  -exchange      EXHF   =         0.00000000
  -V(xc)+E(xc)   XCENC  =       -38.94740077
  PAW double counting   =      3609.17464068    -3453.94566384
  entropy T*S    EENTRO =        -0.00000000
  eigenvalues    EBANDS =      -529.16793040
  atomic energy  EATOM  =      1241.89512738
  Solvation  Ediel_sol  =         0.00000000
  ---------------------------------------------------
  free energy    TOTEN  =       -99.73891719 eV

  energy without entropy =      -99.73891719  energy(sigma->0) =      -99.73891719


--------------------------------------------------------------------------------------------------------




--------------------------------------- Iteration      1(  22)  ---------------------------------------


    POTLOK:  cpu time    1.7137: real time    1.7125
    SETDIJ:  cpu time    0.0090: real time    0.0096
     EDDAV:  cpu time    9.2296: real time    9.2254
       DOS:  cpu time    0.0010: real time    0.0007
    CHARGE:  cpu time    0.4829: real time    0.4839
    MIXING:  cpu time    0.1520: real time    0.1520
    --------------------------------------------
      LOOP:  cpu time   11.5882: real time   11.5842

 eigenvalue-minimisations  :    88
 total energy-change (2. order) :-0.6833988E-05  (-0.1414663E-07)
 number of electron      56.0000012 magnetization 
 augmentation part       -4.3226311 magnetization 

 Broyden mixing:
  rms(total) = 0.17231E-04    rms(broyden)= 0.17230E-04
  rms(prec ) = 0.25615E-04
  weight for this iteration     100.00

 eigenvalues of (default mixing * dielectric matrix)
  average eigenvalue GAMMA=   2.5423
  8.7916  6.8034  4.7407  3.2806  2.6496  2.5340  1.9108  1.9108  1.6514  1.6514
  1.2115  1.2115  1.0237  0.9847  0.9847  0.9393  0.9393

 Free energy of the ion-electron system (eV)
  ---------------------------------------------------
  alpha Z        PSCENC =         2.51538199
  Ewald energy   TEWEN  =      2629.98113996
  -Hartree energ DENC   =     -3561.24371454
  -exchange      EXHF   =         0.00000000
  -V(xc)+E(xc)   XCENC  =       -38.94723683
  PAW double counting   =      3609.21114414    -3453.98210263
  entropy T*S    EENTRO =        -0.00000000
  eigenvalues    EBANDS =      -529.16866350
  atomic energy  EATOM  =      1241.89512738
  Solvation  Ediel_sol  =         0.00000000
  ---------------------------------------------------
  free energy    TOTEN  =       -99.73892402 eV

  energy without entropy =      -99.73892402  energy(sigma->0) =      -99.73892402


--------------------------------------------------------------------------------------------------------




--------------------------------------- Iteration      1(  23)  ---------------------------------------


    POTLOK:  cpu time    1.7187: real time    1.7172
    SETDIJ:  cpu time    0.0080: real time    0.0088
     EDDAV:  cpu time    8.5957: real time    8.5928
       DOS:  cpu time    0.0010: real time    0.0007
    CHARGE:  cpu time    0.4889: real time    0.4895
    MIXING:  cpu time    0.1650: real time    0.1650
    --------------------------------------------
      LOOP:  cpu time   10.9783: real time   10.9741

 eigenvalue-minimisations  :    80
 total energy-change (2. order) :-0.4262720E-05  (-0.1217563E-07)
 number of electron      56.0000012 magnetization 
 augmentation part       -4.3226382 magnetization 

 Broyden mixing:
  rms(total) = 0.12266E-04    rms(broyden)= 0.12266E-04
  rms(prec ) = 0.16316E-04
  weight for this iteration     100.00

 eigenvalues of (default mixing * dielectric matrix)
  average eigenvalue GAMMA=   2.5207
  8.8604  6.8614  4.8894  3.2320  2.6772  2.6772  2.0149  2.0149  1.6606  1.6606
  1.5254  1.1698  1.1698  0.9274  0.9843  0.9843  1.0316  1.0316

 Free energy of the ion-electron system (eV)
  ---------------------------------------------------
  alpha Z        PSCENC =         2.51538199
  Ewald energy   TEWEN  =      2629.98113996
  -Hartree energ DENC   =     -3561.24313217
  -exchange      EXHF   =         0.00000000
  -V(xc)+E(xc)   XCENC  =       -38.94733595
  PAW double counting   =      3609.18633481    -3453.95725022
  entropy T*S    EENTRO =        -0.00000000
  eigenvalues    EBANDS =      -529.16919409
  atomic energy  EATOM  =      1241.89512738
  Solvation  Ediel_sol  =         0.00000000
  ---------------------------------------------------
  free energy    TOTEN  =       -99.73892829 eV

  energy without entropy =      -99.73892829  energy(sigma->0) =      -99.73892829


--------------------------------------------------------------------------------------------------------




--------------------------------------- Iteration      1(  24)  ---------------------------------------


    POTLOK:  cpu time    1.7217: real time    1.7209
    SETDIJ:  cpu time    0.0080: real time    0.0078
     EDDAV:  cpu time    9.2186: real time    9.2149
       DOS:  cpu time    0.0010: real time    0.0009
    CHARGE:  cpu time    0.4899: real time    0.4901
    MIXING:  cpu time    0.1800: real time    0.1796
    --------------------------------------------
      LOOP:  cpu time   11.6182: real time   11.6143

 eigenvalue-minimisations  :    88
 total energy-change (2. order) :-0.1956750E-05  (-0.2997787E-08)
 number of electron      56.0000012 magnetization 
 augmentation part       -4.3226377 magnetization 

 Broyden mixing:
  rms(total) = 0.42593E-05    rms(broyden)= 0.42589E-05
  rms(prec ) = 0.68190E-05
  weight for this iteration     100.00

 eigenvalues of (default mixing * dielectric matrix)
  average eigenvalue GAMMA=   2.5778
  8.8772  7.1531  5.5769  3.9126  2.9942  2.5332  2.4397  1.9010  1.9010  1.6629
  1.6629  1.2136  1.2136  1.0754  0.9932  0.9932  0.9542  0.9542  0.9668

 Free energy of the ion-electron system (eV)
  ---------------------------------------------------
  alpha Z        PSCENC =         2.51538199
  Ewald energy   TEWEN  =      2629.98113996
  -Hartree energ DENC   =     -3561.24391307
  -exchange      EXHF   =         0.00000000
  -V(xc)+E(xc)   XCENC  =       -38.94733087
  PAW double counting   =      3609.15764243    -3453.92858413
  entropy T*S    EENTRO =        -0.00000000
  eigenvalues    EBANDS =      -529.16839394
  atomic energy  EATOM  =      1241.89512738
  Solvation  Ediel_sol  =         0.00000000
  ---------------------------------------------------
  free energy    TOTEN  =       -99.73893024 eV

  energy without entropy =      -99.73893024  energy(sigma->0) =      -99.73893024


--------------------------------------------------------------------------------------------------------




--------------------------------------- Iteration      1(  25)  ---------------------------------------


    POTLOK:  cpu time    1.7317: real time    1.7311
    SETDIJ:  cpu time    0.0080: real time    0.0080
     EDDAV:  cpu time    8.5747: real time    8.5719
       DOS:  cpu time    0.0010: real time    0.0007
    --------------------------------------------
      LOOP:  cpu time   10.3154: real time   10.3117

 eigenvalue-minimisations  :    80
 total energy-change (2. order) :-0.6883229E-06  (-0.1206910E-08)
 number of electron      56.0000012 magnetization 
 augmentation part       -4.3226377 magnetization 

 Free energy of the ion-electron system (eV)
  ---------------------------------------------------
  alpha Z        PSCENC =         2.51538199
  Ewald energy   TEWEN  =      2629.98113996
  -Hartree energ DENC   =     -3561.24458510
  -exchange      EXHF   =         0.00000000
  -V(xc)+E(xc)   XCENC  =       -38.94729778
  PAW double counting   =      3609.15871587    -3453.92966531
  entropy T*S    EENTRO =        -0.00000000
  eigenvalues    EBANDS =      -529.16774794
  atomic energy  EATOM  =      1241.89512738
  Solvation  Ediel_sol  =         0.00000000
  ---------------------------------------------------
  free energy    TOTEN  =       -99.73893093 eV

  energy without entropy =      -99.73893093  energy(sigma->0) =      -99.73893093


--------------------------------------------------------------------------------------------------------




 average (electrostatic) potential at core
  the test charge radii are     0.9892  1.1631  0.5201
  (the norm of the test charge is              1.0000)
       1 -93.4319       2 -93.4566       3 -93.4319       4 -93.4566       5 -40.3935
       6 -40.4287       7 -40.3825       8 -40.4642       9 -40.4287      10 -40.4767
      11 -40.6923      12 -40.6960      13 -40.6843      14 -41.0621      15 -41.0557
      16 -41.0758      17 -41.0661      18 -40.6844      19 -41.0415      20 -41.0521
      21 -41.0523      22 -41.0669      23 -40.6925      24 -40.6966      25 -41.0556
      26 -41.0617
 
 
 
 E-fermi :  -5.3837     XC(G=0):  -0.6100     alpha+bet : -0.3306


 k-point     1 :       0.0000    0.0000    0.0000
  band No.  band energies     occupation 
      1     -15.4065      2.00000
      2     -14.4278      2.00000
      3     -14.3406      2.00000
      4     -14.0664      2.00000
      5     -13.2512      2.00000
      6     -12.8892      2.00000
      7     -11.7959      2.00000
      8     -11.7112      2.00000
      9     -11.3392      2.00000
     10     -10.4976      2.00000
     11      -8.9733      2.00000
     12      -8.6388      2.00000
     13      -8.6317      2.00000
     14      -8.6214      2.00000
     15      -8.1913      2.00000
     16      -8.1728      2.00000
     17      -8.1724      2.00000
     18      -7.8588      2.00000
     19      -7.8558      2.00000
     20      -7.8462      2.00000
     21      -6.7674      2.00000
     22      -6.7532      2.00000
     23      -6.4592      2.00000
     24      -6.4506      2.00000
     25      -6.4422      2.00000
     26      -6.3459      2.00000
     27      -6.3457      2.00000
     28      -6.3318      2.00000
     29      -1.6785      0.00000
     30      -1.3615      0.00000
     31      -1.2105      0.00000
     32      -1.1620      0.00000
     33      -1.1369      0.00000
     34      -1.0622      0.00000
     35      -1.0516      0.00000
     36      -1.0266      0.00000
     37      -0.8623      0.00000
     38      -0.6402      0.00000
     39      -0.3727      0.00000
     40      -0.2766      0.00000
     41      -0.1941      0.00000
     42      -0.1187      0.00000


--------------------------------------------------------------------------------------------------------


 soft charge-density along one line, spin component           1
         0         1         2         3         4         5         6         7         8         9
 total charge-density along one line
 
 pseudopotential strength for first ion, spin component:           1
 19.618  27.377  -0.001   0.003   0.003  -0.001   0.006   0.005
 27.377  38.211  -0.001   0.004   0.004  -0.002   0.008   0.007
 -0.001  -0.001   4.360   0.000  -0.000   8.133   0.000  -0.000
  0.003   0.004   0.000   4.359   0.000   0.000   8.132   0.000
  0.003   0.004  -0.000   0.000   4.359  -0.000   0.000   8.132
 -0.001  -0.002   8.133   0.000  -0.000  15.182   0.001  -0.000
  0.006   0.008   0.000   8.132   0.000   0.001  15.179   0.001
  0.005   0.007  -0.000   0.000   8.132  -0.000   0.001  15.180
 total augmentation occupancy for first ion, spin component:           1
  5.533  -2.026   0.071  -0.341  -0.068  -0.021   0.102   0.021
 -2.026   0.809  -0.043   0.207   0.036   0.010  -0.045  -0.007
  0.071  -0.043   2.798  -0.106  -0.006  -0.604   0.037   0.003
 -0.341   0.207  -0.106   3.281   0.046   0.037  -0.773  -0.018
 -0.068   0.036  -0.006   0.046   2.823   0.003  -0.018  -0.608
 -0.021   0.010  -0.604   0.037   0.003   0.138  -0.010  -0.001
  0.102  -0.045   0.037  -0.773  -0.018  -0.010   0.185   0.006
  0.021  -0.007   0.003  -0.018  -0.608  -0.001   0.006   0.138


------------------------ aborting loop because EDIFF is reached ----------------------------------------


    CHARGE:  cpu time    0.4879: real time    0.4881
    FORLOC:  cpu time    0.1710: real time    0.1712
    FORNL :  cpu time    1.1568: real time    1.1554
    STRESS:  cpu time    8.5387: real time    8.5349
    FORCOR:  cpu time    1.7147: real time    1.7151
    FORHAR:  cpu time    0.5789: real time    0.5789
    MIXING:  cpu time    0.1920: real time    0.1914
    OFIELD:  cpu time    0.0000: real time    0.0001

  FORCE on cell =-STRESS in cart. coord.  units (eV):
  Direction    XX          YY          ZZ          XY          YZ          ZX
  --------------------------------------------------------------------------------------
  Alpha Z     2.51538     2.51538     2.51538
  Ewald     876.64706   876.62235   876.71007    -0.21850     0.02563    -0.50464
  Hartree  1187.03701  1187.09685  1187.11073    -0.35189    -0.48439    -0.21345
  E(xc)    -180.34377  -180.18442  -180.21790    -0.02635     0.01620     0.07736
  Local   -2546.81536 -2546.73226 -2546.83971     0.52198     0.44046     0.78034
  n-local   239.51573   238.63636   238.80633     0.18431    -0.02167    -0.45113
  augment   -13.81739   -13.82375   -13.81854    -0.00201    -0.00206    -0.00307
  Kinetic   434.81264   435.21240   435.10410    -0.05573     0.00361     0.22439
  Fock        0.00000     0.00000     0.00000     0.00000     0.00000     0.00000
  -------------------------------------------------------------------------------------
  Total      -0.44871    -0.65708    -0.62953     0.05181    -0.02221    -0.09020
  in kB      -0.08986    -0.13160    -0.12608     0.01038    -0.00445    -0.01806
  external pressure =       -0.12 kB  Pullay stress =        0.00 kB


 VOLUME and BASIS-vectors are now :
 -----------------------------------------------------------------------------
  energy-cutoff  :      400.00
[...]
    SETDIJ:  cpu time    0.0080: real time    0.0081
     EDDAV:  cpu time   11.7372: real time   11.7337
       DOS:  cpu time    0.0000: real time    0.0004
    CHARGE:  cpu time    0.4909: real time    0.4900
    MIXING:  cpu time    0.0460: real time    0.0463
    --------------------------------------------
      LOOP:  cpu time   14.0179: real time   14.0135

 eigenvalue-minimisations  :   120
 total energy-change (2. order) :-0.3754941E-04  (-0.4568332E-04)
 number of electron      55.9999995 magnetization 
 augmentation part       -4.3106055 magnetization 

 Broyden mixing:
  rms(total) = 0.17200E-02    rms(broyden)= 0.17196E-02
  rms(prec ) = 0.18369E-02
  weight for this iteration     100.00

 eigenvalues of (default mixing * dielectric matrix)
  average eigenvalue GAMMA=   1.0356
  1.0356

 Free energy of the ion-electron system (eV)
  ---------------------------------------------------
  alpha Z        PSCENC =         2.51538199
  Ewald energy   TEWEN  =      2596.72369142
  -Hartree energ DENC   =     -3528.62418179
  -exchange      EXHF   =         0.00000000
  -V(xc)+E(xc)   XCENC  =       -38.84544864
  PAW double counting   =      3677.65312221    -3522.40503057
  entropy T*S    EENTRO =        -0.00000000
  eigenvalues    EBANDS =      -528.88275572
  atomic energy  EATOM  =      1241.89512738
  Solvation  Ediel_sol  =         0.00000000
  ---------------------------------------------------
  free energy    TOTEN  =       -99.97009373 eV

  energy without entropy =      -99.97009373  energy(sigma->0) =      -99.97009373


--------------------------------------------------------------------------------------------------------




--------------------------------------- Iteration     18(   3)  ---------------------------------------


    POTLOK:  cpu time    1.7347: real time    1.7347
    SETDIJ:  cpu time    0.0090: real time    0.0088
     EDDAV:  cpu time   11.6812: real time   11.6776
       DOS:  cpu time    0.0010: real time    0.0005
    CHARGE:  cpu time    0.4849: real time    0.4854
    MIXING:  cpu time    0.0480: real time    0.0474
    --------------------------------------------
      LOOP:  cpu time   13.9589: real time   13.9543

 eigenvalue-minimisations  :   120
 total energy-change (2. order) : 0.2112770E-05  (-0.1206042E-05)
 number of electron      55.9999995 magnetization 
 augmentation part       -4.3105546 magnetization 

 Broyden mixing:
  rms(total) = 0.95953E-03    rms(broyden)= 0.95951E-03
  rms(prec ) = 0.10224E-02
  weight for this iteration     100.00

 eigenvalues of (default mixing * dielectric matrix)
  average eigenvalue GAMMA=   1.5449
  1.0760  2.0138

 Free energy of the ion-electron system (eV)
  ---------------------------------------------------
  alpha Z        PSCENC =         2.51538199
  Ewald energy   TEWEN  =      2596.72369142
  -Hartree energ DENC   =     -3528.62188214
  -exchange      EXHF   =         0.00000000
  -V(xc)+E(xc)   XCENC  =       -38.84624421
  PAW double counting   =      3677.70749939    -3522.45955822
  entropy T*S    EENTRO =        -0.00000000
  eigenvalues    EBANDS =      -528.88410723
  atomic energy  EATOM  =      1241.89512738
  Solvation  Ediel_sol  =         0.00000000
  ---------------------------------------------------
  free energy    TOTEN  =       -99.97009162 eV

  energy without entropy =      -99.97009162  energy(sigma->0) =      -99.97009162


--------------------------------------------------------------------------------------------------------




--------------------------------------- Iteration     18(   4)  ---------------------------------------


    POTLOK:  cpu time    1.7557: real time    1.7579
    SETDIJ:  cpu time    0.0090: real time    0.0083
     EDDAV:  cpu time   11.1053: real time   11.1010
       DOS:  cpu time    0.0000: real time    0.0004
    --------------------------------------------
      LOOP:  cpu time   12.8700: real time   12.8676

 eigenvalue-minimisations  :   112
 total energy-change (2. order) : 0.6108512E-06  (-0.3938614E-06)
 number of electron      55.9999995 magnetization 
 augmentation part       -4.3105546 magnetization 

 Free energy of the ion-electron system (eV)
  ---------------------------------------------------
  alpha Z        PSCENC =         2.51538199
  Ewald energy   TEWEN  =      2596.72369142
  -Hartree energ DENC   =     -3528.61534221
  -exchange      EXHF   =         0.00000000
  -V(xc)+E(xc)   XCENC  =       -38.84693982
  PAW double counting   =      3677.66267390    -3522.41479982
  entropy T*S    EENTRO =        -0.00000000
  eigenvalues    EBANDS =      -528.88988385
  atomic energy  EATOM  =      1241.89512738
  Solvation  Ediel_sol  =         0.00000000
  ---------------------------------------------------
  free energy    TOTEN  =       -99.97009101 eV

  energy without entropy =      -99.97009101  energy(sigma->0) =      -99.97009101


--------------------------------------------------------------------------------------------------------




 average (electrostatic) potential at core
  the test charge radii are     0.9892  1.1631  0.5201
  (the norm of the test charge is              1.0000)
       1 -93.4217       2 -93.3561       3 -93.4219       4 -93.3561       5 -40.3965
       6 -40.4410       7 -40.4057       8 -40.5167       9 -40.4412      10 -40.4852
      11 -40.8585      12 -40.8587      13 -40.9028      14 -40.9824      15 -40.9837
      16 -40.9886      17 -40.9895      18 -40.9037      19 -41.0232      20 -40.9861
      21 -40.9856      22 -41.0092      23 -40.8578      24 -40.8593      25 -40.9841
      26 -40.9825
 
 
 
 E-fermi :  -5.2991     XC(G=0):  -0.6113     alpha+bet : -0.3306


 k-point     1 :       0.0000    0.0000    0.0000
  band No.  band energies     occupation 
      1     -15.2268      2.00000
      2     -14.3002      2.00000
      3     -14.2581      2.00000
      4     -14.0697      2.00000
      5     -13.2200      2.00000
      6     -12.9991      2.00000
      7     -11.8215      2.00000
      8     -11.7900      2.00000
      9     -11.4554      2.00000
     10     -10.6266      2.00000
     11      -8.9851      2.00000
     12      -8.6740      2.00000
     13      -8.5816      2.00000
     14      -8.5179      2.00000
     15      -8.2235      2.00000
     16      -8.0849      2.00000
     17      -8.0695      2.00000
     18      -7.9539      2.00000
     19      -7.8587      2.00000
     20      -7.7961      2.00000
     21      -6.8352      2.00000
     22      -6.7751      2.00000
     23      -6.4887      2.00000
     24      -6.4603      2.00000
     25      -6.4366      2.00000
     26      -6.3667      2.00000
     27      -6.3052      2.00000
     28      -6.2647      2.00000
     29      -1.6450      0.00000
     30      -1.4302      0.00000
     31      -1.3594      0.00000
     32      -1.2533      0.00000
     33      -1.2174      0.00000
     34      -1.1711      0.00000
     35      -1.1230      0.00000
     36      -1.0616      0.00000
     37      -0.8007      0.00000
     38      -0.5873      0.00000
     39      -0.3532      0.00000
     40      -0.2466      0.00000
     41      -0.1425      0.00000
     42      -0.0916      0.00000


--------------------------------------------------------------------------------------------------------


 soft charge-density along one line, spin component           1
         0         1         2         3         4         5         6         7         8         9
 total charge-density along one line
 
 pseudopotential strength for first ion, spin component:           1
 19.621  27.382  -0.000   0.003   0.003  -0.001   0.006   0.005
 27.382  38.218  -0.001   0.004   0.004  -0.001   0.008   0.007
 -0.000  -0.001   4.362   0.000  -0.000   8.137   0.000  -0.000
  0.003   0.004   0.000   4.362   0.000   0.000   8.136   0.000
  0.003   0.004  -0.000   0.000   4.361  -0.000   0.000   8.136
 -0.001  -0.001   8.137   0.000  -0.000  15.188   0.000  -0.000
  0.006   0.008   0.000   8.136   0.000   0.000  15.187   0.001
  0.005   0.007  -0.000   0.000   8.136  -0.000   0.001  15.186
 total augmentation occupancy for first ion, spin component:           1
  5.752  -2.143   0.080  -0.481  -0.177  -0.024   0.149   0.058
 -2.143   0.863  -0.046   0.274   0.086   0.011  -0.067  -0.023
  0.080  -0.046   2.775  -0.157   0.011  -0.600   0.051  -0.002
 -0.481   0.274  -0.157   3.499   0.013   0.051  -0.836  -0.009
 -0.177   0.086   0.011   0.013   2.908  -0.002  -0.009  -0.633
 -0.024   0.011  -0.600   0.051  -0.002   0.137  -0.014   0.001
  0.149  -0.067   0.051  -0.836  -0.009  -0.014   0.203   0.003
  0.058  -0.023  -0.002  -0.009  -0.633   0.001   0.003   0.144


------------------------ aborting loop because EDIFF is reached ----------------------------------------


    CHARGE:  cpu time    0.4969: real time    0.4965
    FORLOC:  cpu time    0.1720: real time    0.1723
    FORNL :  cpu time    1.1528: real time    1.1534
    STRESS:  cpu time    8.7547: real time    8.7512
    FORCOR:  cpu time    1.7147: real time    1.7137
    FORHAR:  cpu time    0.5799: real time    0.5800
    MIXING:  cpu time    0.0490: real time    0.0494
    OFIELD:  cpu time    0.0000: real time    0.0000

  FORCE on cell =-STRESS in cart. coord.  units (eV):
  Direction    XX          YY          ZZ          XY          YZ          ZX
  --------------------------------------------------------------------------------------
  Alpha Z     2.51538     2.51538     2.51538
  Ewald     863.44599   867.49468   865.78137    -0.96462    -3.16837     2.30869
  Hartree  1172.81545  1178.87382  1176.90592    -1.39357    -2.82433     3.22839
  E(xc)    -180.23582  -180.10615  -180.14009    -0.01595     0.00931     0.06866
  Local   -2519.29537 -2528.92745 -2525.34296     2.31042     6.13537    -5.35350
  n-local   238.56519   237.53101   237.78017     0.17312    -0.00346    -0.57200
  augment   -14.01478   -13.98858   -13.99676    -0.00243     0.00350     0.01251
  Kinetic   435.24613   435.56634   435.50977    -0.16050    -0.23957     0.28475
  Fock        0.00000     0.00000     0.00000     0.00000     0.00000     0.00000
  -------------------------------------------------------------------------------------
  Total      -0.95782    -1.04093    -0.98718    -0.05353    -0.08756    -0.02249
  in kB      -0.19182    -0.20847    -0.19771    -0.01072    -0.01754    -0.00450
  external pressure =       -0.20 kB  Pullay stress =        0.00 kB


 VOLUME and BASIS-vectors are now :
 -----------------------------------------------------------------------------
  energy-cutoff  :      400.00
  volume of cell :     8000.00
      direct lattice vectors                 reciprocal lattice vectors
    20.000000000  0.000000000  0.000000000     0.050000000  0.000000000  0.000000000
     0.000000000 20.000000000  0.000000000     0.000000000  0.050000000  0.000000000
     0.000000000  0.000000000 20.000000000     0.000000000  0.000000000  0.050000000

  length of vectors
    20.000000000 20.000000000 20.000000000     0.050000000  0.050000000  0.050000000


 FORCES acting on ions
    electron-ion (+dipol)            ewald-force                    non-local-force                 convergence-correction
 -----------------------------------------------------------------------------------------------
   0.935E+01 -.192E+02 0.869E+02   -.104E+02 0.194E+02 -.884E+02   0.109E+01 -.206E+00 0.150E+01   -.155E-03 -.138E-02 0.109E-02
   0.870E+02 -.532E+01 0.435E+02   -.885E+02 0.557E+01 -.451E+02   0.154E+01 -.254E+00 0.160E+01   0.245E-03 -.128E-03 0.800E-04
   -.518E+02 0.726E+02 -.806E+01   0.521E+02 -.744E+02 0.862E+01   -.226E+00 0.177E+01 -.545E+00   -.144E-02 0.517E-03 -.940E-03
   0.300E+02 0.806E+02 -.458E+02   -.300E+02 -.827E+02 0.466E+02   -.950E-02 0.208E+01 -.815E+00   0.827E-05 0.127E-03 -.335E-03
   -.372E+02 0.537E+02 0.757E+02   0.375E+02 -.541E+02 -.762E+02   -.287E+00 0.387E+00 0.558E+00   -.609E-03 0.388E-03 0.775E-03
   -.291E+02 -.833E+02 0.437E+02   0.293E+02 0.840E+02 -.444E+02   -.173E+00 -.649E+00 0.650E+00   -.121E-02 -.176E-02 -.187E-03
   0.811E+02 0.119E+02 -.408E+02   -.817E+02 -.122E+02 0.408E+02   0.580E+00 0.364E+00 -.207E-01   -.617E-04 -.164E-03 -.169E-03
   -.431E+02 -.705E+02 -.405E+02   0.434E+02 0.710E+02 0.408E+02   -.294E+00 -.534E+00 -.326E+00   -.142E-02 -.117E-02 -.254E-03
   -.867E+02 0.348E+01 -.465E+02   0.875E+02 -.379E+01 0.468E+02   -.811E+00 0.311E+00 -.343E+00   -.159E-02 -.113E-02 -.844E-03
   0.361E+02 -.531E+02 -.742E+02   -.364E+02 0.537E+02 0.750E+02   0.351E+00 -.574E+00 -.779E+00   -.818E-03 -.959E-03 -.470E-03
   0.211E+02 0.413E+02 0.629E+01   -.224E+02 -.436E+02 -.755E+01   0.137E+01 0.229E+01 0.126E+01   -.371E-04 0.351E-04 0.139E-04
   0.135E+01 0.220E+02 -.413E+02   -.102E+01 -.226E+02 0.441E+02   -.331E+00 0.616E+00 -.288E+01   -.127E-03 -.608E-04 -.111E-03
   -.270E+02 0.401E+02 -.418E+01   0.286E+02 -.425E+02 0.441E+01   -.162E+01 0.241E+01 -.233E+00   -.314E-03 0.217E-03 -.116E-03
   -.440E+02 -.334E+01 0.555E+01   0.462E+02 0.367E+01 -.661E+01   -.225E+01 -.332E+00 0.106E+01   -.169E-03 -.135E-03 -.203E-03
   -.202E+02 0.727E+01 -.392E+02   0.206E+02 -.776E+01 0.416E+02   -.395E+00 0.492E+00 -.243E+01   -.274E-03 -.152E-03 0.173E-04
   -.353E+02 0.511E+01 0.275E+02   0.375E+02 -.477E+01 -.286E+02   -.223E+01 -.335E+00 0.111E+01   -.382E-03 -.119E-03 0.134E-03
   0.781E+01 0.344E+02 0.282E+02   -.891E+01 -.363E+02 -.293E+02   0.110E+01 0.193E+01 0.116E+01   0.551E-04 0.211E-03 0.172E-03
   0.611E+01 -.952E+01 0.471E+02   -.646E+01 0.101E+02 -.499E+02   0.355E+00 -.555E+00 0.284E+01   -.307E-04 -.213E-03 0.333E-03
   -.219E+02 -.352E+02 -.200E+02   0.231E+02 0.371E+02 0.211E+02   -.118E+01 -.189E+01 -.107E+01   -.203E-03 0.251E-04 0.147E-03
   0.281E+01 -.310E+01 -.441E+02   -.253E+01 0.260E+01 0.465E+02   -.281E+00 0.493E+00 -.245E+01   -.145E-03 -.180E-03 -.220E-03
   0.245E+02 -.356E+02 -.106E+02   -.259E+02 0.377E+02 0.104E+02   0.142E+01 -.207E+01 0.199E+00   -.750E-04 -.285E-03 -.121E-03
   0.414E+02 0.715E+01 -.199E+02   -.436E+02 -.753E+01 0.209E+02   0.220E+01 0.381E+00 -.105E+01   0.782E-05 0.775E-04 0.631E-04
   0.320E+02 0.248E+02 0.236E+02   -.334E+02 -.271E+02 -.249E+02   0.142E+01 0.223E+01 0.132E+01   -.106E-04 0.904E-05 0.581E-04
   0.350E+02 -.289E+02 0.114E+02   -.367E+02 0.313E+02 -.116E+02   0.169E+01 -.242E+01 0.265E+00   -.563E-04 -.152E-03 0.356E-05
   0.122E+02 -.413E+02 0.113E+02   -.135E+02 0.434E+02 -.116E+02   0.133E+01 -.211E+01 0.264E+00   -.282E-03 -.164E-03 0.279E-04
   -.335E+02 -.195E+02 0.223E+02   0.357E+02 0.199E+02 -.235E+02   -.222E+01 -.385E+00 0.112E+01   -.821E-04 -.287E-03 -.415E-04
 -----------------------------------------------------------------------------------------------
   -.213E+01 -.345E+01 -.197E+01   0.000E+00 0.213E-13 0.178E-13   0.215E+01 0.346E+01 0.197E+01   -.918E-02 -.684E-02 -.110E-02
 
 
 POSITION                                       TOTAL-FORCE (eV/Angst)
 -----------------------------------------------------------------------------------
      9.47402     11.12642      7.67761        -0.004165      0.013716     -0.007612
      7.38392     10.78544      8.69683         0.011350     -0.000911      0.011492
     11.13355      8.63099     10.26116         0.008556     -0.005666      0.012303
      9.04009      8.29495     11.27504         0.001074      0.015681     -0.004189
     10.81619      9.14793      7.93437         0.002036      0.001105     -0.000354
     10.60927     12.97890      8.71049         0.002578      0.002331      0.000892
      7.68620     10.26847     11.02721         0.009364     -0.004056     -0.010098
     10.96333     12.51880     11.09584         0.001399     -0.006491     -0.007126
     12.28369     10.46100     11.31727         0.002348      0.002419      0.000976
      8.78038     12.15821     12.14983        -0.000460      0.001549      0.002104
      8.34351      7.13237     10.63415         0.005062      0.004364      0.002654
      9.20876      7.98498     12.73151        -0.000355     -0.000327     -0.002243
     11.96761      7.38738     10.38164        -0.002684      0.003177     -0.000375
     13.68039     10.66504     10.65671        -0.006648     -0.007582      0.000571
     12.52741     10.15361     12.82562        -0.003748     -0.003349     -0.006877
     12.19950      9.35835      7.24894        -0.003158      0.003984      0.005756
     10.13096      7.94707      7.21460        -0.002565      0.008151      0.009437
      9.29062     11.41280      6.21440         0.000345     -0.000749      0.004135
     11.71066     13.71423     11.77033        -0.001783     -0.009650     -0.008064
      8.95416     11.85232     13.66759        -0.003977     -0.000531     -0.001914
      7.90001     13.43769     12.02635        -0.002119     -0.003516      0.002120
      6.29218     10.02576     11.68827        -0.008322     -0.006542     -0.000971
      6.66815      9.65136      8.02654         0.004164      0.006733      0.001320
      6.53186     12.01100      8.56373         0.000727     -0.000971     -0.000122
      9.77867     14.28733      8.54606        -0.000411     -0.008277     -0.001407
     11.98432     13.21562      8.01625        -0.008609     -0.004593     -0.002408
 -----------------------------------------------------------------------------------
    total drift:                                0.003107      0.000824     -0.000476


--------------------------------------------------------------------------------------------------------



  FREE ENERGIE OF THE ION-ELECTRON SYSTEM (eV)
  ---------------------------------------------------
  free  energy   TOTEN  =       -99.97009101 eV

  energy  without entropy=      -99.97009101  energy(sigma->0) =      -99.97009101
 
 d Force = 0.1462694E-03[-0.287E-04, 0.321E-03]  d Energy = 0.1466763E-03-0.407E-06
 d Force =-0.4860099E+00[-0.486E+00,-0.486E+00]  d Ewald  =-0.4860099E+00-0.332E-08


--------------------------------------------------------------------------------------------------------


    POTLOK:  cpu time    1.7437: real time    1.7422


--------------------------------------------------------------------------------------------------------


 Conjugate gradient step on ions:
 trial-energy change:   -0.000147  1 .order   -0.000146   -0.000321    0.000029
  (g-gl).g = 0.210E-03      g.g   = 0.238E-03  gl.gl    = 0.563E-03
 g(Force)  = 0.238E-03   g(Stress)= 0.000E+00 ortho     = 0.123E-04
 gamma     =   0.37347
 trial     =   1.32638
 opt step  =   1.21753  (harmonic =   1.21753) maximal distance =0.00119638
 next E    =   -99.970092   (d E  =  -0.00015)


--------------------------------------------------------------------------------------------------------


  
 reached required accuracy - stopping structural energy minimisation
 writing wavefunctions
     LOOP+:  cpu time   67.5997: real time   68.0070
    4ORBIT:  cpu time    0.0000: real time    0.0000

 total amount of memory used by VASP MPI-rank0   131440. kBytes
=======================================================================

   base      :      30000. kBytes
   nonl-proj :      17624. kBytes
   fftplans  :      26957. kBytes
   grid      :      48673. kBytes
   one-center:         40. kBytes
   wavefun   :       8146. kBytes
 
  
  
 General timing and accounting informations for this job:
 ========================================================
  
                  Total CPU time used (sec):     2610.564
                            User time (sec):     2579.096
                          System time (sec):       31.468
                         Elapsed time (sec):     2614.325
  
                   Maximum memory used (kb):      185192.
                   Average memory used (kb):           0.
  
                          Minor page faults:      5910269
                          Major page faults:            6
                 Voluntary context switches:         3092
