 vasp.5.4.4.18Apr17-6-g9f103f2a35 (build Nov 06 2017 19:16:10) complex          
  
 executed on           IFC91_ompi date 2018.07.15  13:26:06
 running on   12 total cores
 distrk:  each k-point on   12 cores,    1 groups
 distr:  one band on NCORES_PER_BAND=   6 cores,    2 groups


--------------------------------------------------------------------------------------------------------


 INCAR:
 POTCAR:    PAW_PBE Si 05Jan2001                  
 POTCAR:    PAW_PBE Ge 05Jan2001                  
 POTCAR:    PAW_PBE H 15Jun2001                   
 POTCAR:    PAW_PBE Si 05Jan2001                  
   VRHFIN =Si: s2p2                                                             
   LEXCH  = PE                                                                  
   EATOM  =   103.0669 eV,    7.5752 Ry                                         
                                                                                
   TITEL  = PAW_PBE Si 05Jan2001                                                
   LULTRA =        F    use ultrasoft PP ?                                      
   IUNSCR =        1    unscreen: 0-lin 1-nonlin 2-no                           
   RPACOR =    1.500    partial core radius                                     
   POMASS =   28.085; ZVAL   =    4.000    mass and valenz                      
   RCORE  =    1.900    outmost cutoff radius                                   
   RWIGS  =    2.480; RWIGS  =    1.312    wigner-seitz radius (au A)           
   ENMAX  =  245.345; ENMIN  =  184.009 eV                                      
   ICORE  =        2    local potential                                         
   LCOR   =        T    correct aug charges                                     
   LPAW   =        T    paw PP                                                  
   EAUG   =  322.069                                                            
   DEXC   =    0.000                                                            
   RMAX   =    1.950    core radius for proj-oper                               
   RAUG   =    1.300    factor for augmentation sphere                          
   RDEP   =    1.993    radius for radial grids                                 
   RDEPT  =    1.837    core radius for aug-charge                              
                                                                                
   Atomic configuration                                                         
    6 entries                                                                   
     n  l   j            E        occ.                                          
     1  0  0.50     -1785.8828   2.0000                                         
     2  0  0.50      -139.4969   2.0000                                         
     2  1  1.50       -95.5546   6.0000                                         
     3  0  0.50       -10.8127   2.0000                                         
     3  1  0.50        -4.0811   2.0000                                         
     3  2  1.50        -4.0817   0.0000                                         
   Description                                                                  
     l       E           TYP  RCUT    TYP  RCUT                                 
     0    -10.8127223     23  1.900                                             
     0     -7.6451159     23  1.900                                             
     1     -4.0811372     23  1.900                                             
     1      2.4879257     23  1.900                                             
     2     -4.0817478      7  1.900                                             
  local pseudopotential read in
  partial core-charges read in
  partial kinetic energy density read in
  atomic valenz-charges read in
  non local Contribution for L=           0  read in
    real space projection operators read in
  non local Contribution for L=           0  read in
    real space projection operators read in
  non local Contribution for L=           1  read in
    real space projection operators read in
  non local Contribution for L=           1  read in
    real space projection operators read in
    PAW grid and wavefunctions read in
 
   number of l-projection  operators is LMAX  =           4
   number of lm-projection operators is LMMAX =           8
 
 POTCAR:    PAW_PBE Ge 05Jan2001                  
   VRHFIN =Ge: s2p2                                                             
   LEXCH  = PE                                                                  
   EATOM  =   104.9960 eV,    7.7170 Ry                                         
                                                                                
   TITEL  = PAW_PBE Ge 05Jan2001                                                
   LULTRA =        F    use ultrasoft PP ?                                      
   IUNSCR =        1    unscreen: 0-lin 1-nonlin 2-no                           
   RPACOR =    2.170    partial core radius                                     
   POMASS =   72.610; ZVAL   =    4.000    mass and valenz                      
   RCORE  =    2.300    outmost cutoff radius                                   
   RWIGS  =    2.300; RWIGS  =    1.217    wigner-seitz radius (au A)           
   ENMAX  =  173.807; ENMIN  =  130.355 eV                                      
   ICORE  =        3    local potential                                         
   LCOR   =        T    correct aug charges                                     
   LPAW   =        T    paw PP                                                  
   EAUG   =  385.843                                                            
   DEXC   =    0.000                                                            
   RMAX   =    2.342    core radius for proj-oper                               
   RAUG   =    1.300    factor for augmentation sphere                          
   RDEP   =    2.318    radius for radial grids                                 
   RDEPT  =    2.103    core radius for aug-charge                              
                                                                                
   Atomic configuration                                                         
   10 entries                                                                   
     n  l   j            E        occ.                                          
     1  0  0.50    -10959.8463   2.0000                                         
     2  0  0.50     -1371.6056   2.0000                                         
     2  1  1.50     -1198.4791   6.0000                                         
     3  0  0.50      -168.4733   2.0000                                         
     3  1  1.50      -115.6019   6.0000                                         
     3  2  2.50       -29.3106  10.0000                                         
     4  0  0.50       -11.7309   2.0000                                         
     4  1  0.50        -3.8952   2.0000                                         
     4  2  1.50        -4.0817   0.0000                                         
     4  3  2.50        -4.0817   0.0000                                         
   Description                                                                  
     l       E           TYP  RCUT    TYP  RCUT                                 
     0    -11.7309493     23  2.300                                             
     0     -7.4578696     23  2.300                                             
     1     -3.8952261     23  2.300                                             
     1      6.1178114     23  2.300                                             
     2     -4.0817478     23  2.300                                             
     3     -1.3605826      7  2.300                                             
  local pseudopotential read in
  partial core-charges read in
  partial kinetic energy density read in
  atomic valenz-charges read in
  non local Contribution for L=           0  read in
    real space projection operators read in
  non local Contribution for L=           0  read in
    real space projection operators read in
  non local Contribution for L=           1  read in
    real space projection operators read in
  non local Contribution for L=           1  read in
    real space projection operators read in
  non local Contribution for L=           2  read in
    real space projection operators read in
    PAW grid and wavefunctions read in
 
   number of l-projection  operators is LMAX  =           5
   number of lm-projection operators is LMMAX =          13
 
 POTCAR:    PAW_PBE H 15Jun2001                   
   VRHFIN =H: ultrasoft test                                                    
   LEXCH  = PE                                                                  
   EATOM  =    12.4884 eV,    0.9179 Ry                                         
                                                                                
   TITEL  = PAW_PBE H 15Jun2001                                                 
   LULTRA =        F    use ultrasoft PP ?                                      
   IUNSCR =        0    unscreen: 0-lin 1-nonlin 2-no                           
   RPACOR =    0.000    partial core radius                                     
   POMASS =    1.000; ZVAL   =    1.000    mass and valenz                      
   RCORE  =    1.100    outmost cutoff radius                                   
   RWIGS  =    0.700; RWIGS  =    0.370    wigner-seitz radius (au A)           
   ENMAX  =  250.000; ENMIN  =  200.000 eV                                      
   RCLOC  =    0.701    cutoff for local pot                                    
   LCOR   =        T    correct aug charges                                     
   LPAW   =        T    paw PP                                                  
   EAUG   =  400.000                                                            
   RMAX   =    1.123    core radius for proj-oper                               
   RAUG   =    1.200    factor for augmentation sphere                          
   RDEP   =    1.112    radius for radial grids                                 
   RDEPT  =    0.926    core radius for aug-charge                              
                                                                                
   Atomic configuration                                                         
    2 entries                                                                   
     n  l   j            E        occ.                                          
     1  0  0.50        -6.4927   1.0000                                         
     2  1  0.50        -3.4015   0.0000                                         
   Description                                                                  
     l       E           TYP  RCUT    TYP  RCUT                                 
     0     -6.4927494     23  1.100                                             
     0      6.8029130     23  1.100                                             
     1     -4.0817478     23  1.100                                             
  local pseudopotential read in
  atomic valenz-charges read in
  non local Contribution for L=           0  read in
    real space projection operators read in
  non local Contribution for L=           0  read in
    real space projection operators read in
  non local Contribution for L=           1  read in
    real space projection operators read in
    PAW grid and wavefunctions read in
 
   number of l-projection  operators is LMAX  =           3
   number of lm-projection operators is LMMAX =           5
 

 ----------------------------------------------------------------------------- 
|                                                                             |
|  ADVICE TO THIS USER RUNNING 'VASP/VAMP'   (HEAR YOUR MASTER'S VOICE ...):  |
|                                                                             |
|      You have a (more or less) 'large supercell' and for larger cells       |
|      it might be more efficient to use real space projection opertators     |
|      So try LREAL= Auto  in the INCAR   file.                               |
|      Mind:          For very  accurate calculation you might also keep the  |
|      reciprocal projection scheme          (i.e. LREAL=.FALSE.)             |
|                                                                             |
 ----------------------------------------------------------------------------- 

  PAW_PBE Si 05Jan2001                  :
 energy of atom  1       EATOM= -103.0669
 kinetic energy error for atom=    0.0012 (will be added to EATOM!!)
  PAW_PBE Ge 05Jan2001                  :
 energy of atom  2       EATOM= -104.9960
 kinetic energy error for atom=    0.0003 (will be added to EATOM!!)
  PAW_PBE H 15Jun2001                   :
 energy of atom  3       EATOM=  -12.4884
 kinetic energy error for atom=    0.0098 (will be added to EATOM!!)
 
 
 POSCAR: SiGeH16                                 
  positions in direct lattice
  No initial velocities read in
 exchange correlation table for  LEXCH =        8
   RHO(1)=    0.500       N(1)  =     2000
   RHO(2)=  100.500       N(2)  =     4000
 


--------------------------------------------------------------------------------------------------------


 ion  position               nearest neighbor table
   1  0.475  0.556  0.385-  18 1.55   6 2.39   2 2.39   3 2.39
   2  0.369  0.539  0.436-  23 1.55  24 1.55   4 2.39   1 2.39
   3  0.542  0.457  0.396-  17 1.55  16 1.55   7 2.39   1 2.39
   4  0.385  0.515  0.552-  22 1.55  10 2.39   9 2.39   2 2.39
   5  0.613  0.525  0.565-  15 1.55  14 1.55   8 2.39   7 2.39
   6  0.531  0.648  0.437-  25 1.55  26 1.55   8 2.39   1 2.39
   7  0.557  0.433  0.512-  13 1.55   3 2.39   5 2.39   9 2.39
   8  0.547  0.624  0.554-  19 1.55   6 2.39   5 2.39  10 2.39
   9  0.451  0.416  0.564-  12 1.55  11 1.55   4 2.39   7 2.39
  10  0.440  0.606  0.605-  20 1.55  21 1.55   4 2.39   8 2.39
  11  0.415  0.357  0.529-   9 1.55
  12  0.461  0.400  0.639-   9 1.55
  13  0.600  0.369  0.520-   7 1.55
  14  0.682  0.536  0.531-   5 1.55
  15  0.623  0.509  0.640-   5 1.55
  16  0.611  0.469  0.363-   3 1.55
  17  0.506  0.398  0.362-   3 1.55
  18  0.465  0.572  0.309-   1 1.55
  19  0.583  0.683  0.588-   8 1.55
  20  0.451  0.590  0.680-  10 1.55
  21  0.397  0.670  0.598-  10 1.55
  22  0.316  0.504  0.586-   4 1.55
  23  0.333  0.479  0.402-   2 1.55
  24  0.326  0.603  0.429-   2 1.55
  25  0.488  0.712  0.430-   6 1.55
  26  0.600  0.659  0.404-   6 1.55
 
  LATTYP: Found a simple cubic cell.
 ALAT       =    20.0000000000
  
  Lattice vectors:
  
 A1 = (  20.0000000000,   0.0000000000,   0.0000000000)
 A2 = (   0.0000000000,  20.0000000000,   0.0000000000)
 A3 = (   0.0000000000,   0.0000000000,  20.0000000000)


Analysis of symmetry for initial positions (statically):
=====================================================================
 Subroutine PRICEL returns:
 Original cell was already a primitive cell.
 

 Routine SETGRP: Setting up the symmetry group for a 
 simple cubic supercell.


 Subroutine GETGRP returns: Found  1 space group operations
 (whereof  1 operations were pure point group operations)
 out of a pool of 48 trial point group operations.


The static configuration has the point symmetry C_1 .


Analysis of symmetry for dynamics (positions and initial velocities):
=====================================================================
 Subroutine PRICEL returns:
 Original cell was already a primitive cell.
 

 Routine SETGRP: Setting up the symmetry group for a 
 simple cubic supercell.


 Subroutine GETGRP returns: Found  1 space group operations
 (whereof  1 operations were pure point group operations)
 out of a pool of 48 trial point group operations.


The dynamic configuration has the point symmetry C_1 .


 Subroutine INISYM returns: Found  1 space group operations
 (whereof  1 operations are pure point group operations),
 and found     1 'primitive' translations

 
 
 KPOINTS: Automatic mesh                          

Automatic generation of k-mesh.
Space group operators:
 irot       det(A)        alpha          n_x          n_y          n_z        tau_x        tau_y        tau_z
    1     1.000000     0.000000     1.000000     0.000000     0.000000     0.000000     0.000000     0.000000
 
 Subroutine IBZKPT returns following result:
 ===========================================
 
 Found      1 irreducible k-points:
 
 Following reciprocal coordinates:
            Coordinates               Weight
  0.000000  0.000000  0.000000      1.000000
 
 Following cartesian coordinates:
            Coordinates               Weight
  0.000000  0.000000  0.000000      1.000000
 


--------------------------------------------------------------------------------------------------------




 Dimension of arrays:
   k-points           NKPTS =      1   k-points in BZ     NKDIM =      1   number of bands    NBANDS=     42
   number of dos      NEDOS =    301   number of ions     NIONS =     26
   non local maximal  LDIM  =      5   non local SUM 2l+1 LMDIM =     13
   total plane-waves  NPLWV = 941192
   max r-space proj   IRMAX =      1   max aug-charges    IRDMAX=   6593
   dimension x,y,z NGX =    98 NGY =   98 NGZ =   98
   dimension x,y,z NGXF=   196 NGYF=  196 NGZF=  196
   support grid    NGXF=   196 NGYF=  196 NGZF=  196
   ions per type =               5   5  16
   NGX,Y,Z   is equivalent  to a cutoff of   8.15,  8.15,  8.15 a.u.
   NGXF,Y,Z  is equivalent  to a cutoff of  16.29, 16.29, 16.29 a.u.

 SYSTEM =  SiGe                                    
 POSCAR =  SiGeH16                                 

 Startparameter for this run:
   NWRITE =      2    write-flag & timer
   PREC   = normal    normal or accurate (medium, high low for compatibility)
   ISTART =      0    job   : 0-new  1-cont  2-samecut
   ICHARG =      2    charge: 1-file 2-atom 10-const
   ISPIN  =      1    spin polarized calculation?
   LNONCOLLINEAR =      F non collinear calculations
   LSORBIT =      F    spin-orbit coupling
   INIWAV =      1    electr: 0-lowe 1-rand  2-diag
   LASPH  =      F    aspherical Exc in radial PAW
   METAGGA=      F    non-selfconsistent MetaGGA calc.

 Electronic Relaxation 1
   ENCUT  =  400.0 eV  29.40 Ry    5.42 a.u.  32.61 32.61 32.61*2*pi/ulx,y,z
   ENINI  =  400.0     initial cutoff
   ENAUG  =  400.0 eV  augmentation charge cutoff
   NELM   =     60;   NELMIN=  2; NELMDL= -5     # of ELM steps 
   EDIFF  = 0.1E-05   stopping-criterion for ELM
   LREAL  =      F    real-space projection
   NLSPLINE    = F    spline interpolate recip. space projectors
   LCOMPAT=      F    compatible to vasp.4.4
   GGA_COMPAT  = T    GGA compatible to vasp.4.4-vasp.4.6
   LMAXPAW     = -100 max onsite density
   LMAXMIX     =    2 max onsite mixed and CHGCAR
   VOSKOWN=      0    Vosko Wilk Nusair interpolation
   ROPT   =    0.00000   0.00000   0.00000
 Ionic relaxation
   EDIFFG = -.2E-01   stopping-criterion for IOM
   NSW    =    200    number of steps for IOM
   NBLOCK =      1;   KBLOCK =    200    inner block; outer block 
   IBRION =      2    ionic relax: 0-MD 1-quasi-New 2-CG
   NFREE  =      1    steps in history (QN), initial steepest desc. (CG)
   ISIF   =      2    stress and relaxation
   IWAVPR =     11    prediction:  0-non 1-charg 2-wave 3-comb
   ISYM   =      2    0-nonsym 1-usesym 2-fastsym
   LCORR  =      T    Harris-Foulkes like correction to forces

   POTIM  = 0.5000    time-step for ionic-motion
   TEIN   =    0.0    initial temperature
   TEBEG  =    0.0;   TEEND  =   0.0 temperature during run
   SMASS  =  -3.00    Nose mass-parameter (am)
   estimated Nose-frequenzy (Omega)   =  0.10E-29 period in steps =****** mass=  -0.914E-26a.u.
   SCALEE = 1.0000    scale energy and forces
   NPACO  =    256;   APACO  = 16.0  distance and # of slots for P.C.
   PSTRESS=    0.0 pullay stress

  Mass of Ions in am
   POMASS =  28.09 72.61  1.00
  Ionic Valenz
   ZVAL   =   4.00  4.00  1.00
  Atomic Wigner-Seitz radii
   RWIGS  =  -1.00 -1.00 -1.00
  virtual crystal weights 
   VCA    =   1.00  1.00  1.00
   NELECT =      56.0000    total number of electrons
   NUPDOWN=      -1.0000    fix difference up-down

 DOS related values:
   EMIN   =  10.00;   EMAX   =-10.00  energy-range for DOS
   EFERMI =   0.00
   ISMEAR =     0;   SIGMA  =   0.20  broadening in eV -4-tet -1-fermi 0-gaus

 Electronic relaxation 2 (details)
   IALGO  =     38    algorithm
   LDIAG  =      T    sub-space diagonalisation (order eigenvalues)
   LSUBROT=      F    optimize rotation matrix (better conditioning)
   TURBO    =      0    0=normal 1=particle mesh
   IRESTART =      0    0=no restart 2=restart with 2 vectors
   NREBOOT  =      0    no. of reboots
   NMIN     =      0    reboot dimension
   EREF     =   0.00    reference energy to select bands
   IMIX   =      4    mixing-type and parameters
     AMIX     =   0.40;   BMIX     =  1.00
     AMIX_MAG =   1.60;   BMIX_MAG =  1.00
     AMIN     =   0.10
     WC   =   100.;   INIMIX=   1;  MIXPRE=   1;  MAXMIX= -45

 Intra band minimization:
   WEIMIN = 0.0010     energy-eigenvalue tresh-hold
   EBREAK =  0.60E-08  absolut break condition
   DEPER  =   0.30     relativ break condition  

   TIME   =   0.40     timestep for ELM

  volume/ion in A,a.u.               =     307.69      2076.41
  Fermi-wavevector in a.u.,A,eV,Ry     =   0.313166  0.591797  1.334361  0.098073
  Thomas-Fermi vector in A             =   1.193276
 
 Write flags
   LWAVE        =      T    write WAVECAR
   LDOWNSAMPLE  =      F    k-point downsampling of WAVECAR
   LCHARG       =      T    write CHGCAR
   LVTOT        =      F    write LOCPOT, total local potential
   LVHAR        =      F    write LOCPOT, Hartree potential only
   LELF         =      F    write electronic localiz. function (ELF)
   LORBIT       =      0    0 simple, 1 ext, 2 COOP (PROOUT), +10 PAW based schemes


 Dipole corrections
   LMONO  =      F    monopole corrections only (constant potential shift)
   LDIPOL =      F    correct potential (dipole corrections)
   IDIPOL =      0    1-x, 2-y, 3-z, 4-all directions 
   EPSILON=  1.0000000 bulk dielectric constant

 Exchange correlation treatment:
   GGA     =    --    GGA type
   LEXCH   =     8    internal setting for exchange type
   VOSKOWN=      0    Vosko Wilk Nusair interpolation
   LHFCALC =     F    Hartree Fock is set to
   LHFONE  =     F    Hartree Fock one center treatment
   AEXX    =    0.0000 exact exchange contribution

 Linear response parameters
   LEPSILON=     F    determine dielectric tensor
   LRPA    =     F    only Hartree local field effects (RPA)
   LNABLA  =     F    use nabla operator in PAW spheres
   LVEL    =     F    velocity operator in full k-point grid
   LINTERFAST=   F  fast interpolation
   KINTER  =     0    interpolate to denser k-point grid
   CSHIFT  =0.1000    complex shift for real part using Kramers Kronig
   OMEGAMAX=  -1.0    maximum frequency
   DEG_THRESHOLD= 0.2000000E-02 threshold for treating states as degnerate
   RTIME   =   -0.100 relaxation time in fs
  (WPLASMAI=    0.000 imaginary part of plasma frequency in eV, 0.658/RTIME)
   DFIELD  = 0.0000000 0.0000000 0.0000000 field for delta impulse in time
 
 Orbital magnetization related:
   ORBITALMAG=     F  switch on orbital magnetization
   LCHIMAG   =     F  perturbation theory with respect to B field
   DQ        =  0.001000  dq finite difference perturbation B field
   LLRAUG    =     F  two centre corrections for induced B field



--------------------------------------------------------------------------------------------------------


 conjugate gradient relaxation of ions
 charge density and potential will be updated during run
 non-spin polarized calculation
 Variant of blocked Davidson
 Davidson routine will perform the subspace rotation
 perform sub-space diagonalisation
    after iterative eigenvector-optimisation
 modified Broyden-mixing scheme, WC =      100.0
 initial mixing is a Kerker type mixing with AMIX =  0.4000 and BMIX =      1.0000
 Hartree-type preconditioning will be used
 using additional bands           14
 reciprocal scheme for non local part
 use partial core corrections
 calculate Harris-corrections to forces 
   (improved forces if not selfconsistent)
 use gradient corrections 
 use of overlap-Matrix (Vanderbilt PP)
 Gauss-broadening in eV      SIGMA  =   0.20


--------------------------------------------------------------------------------------------------------


  energy-cutoff  :      400.00
  volume of cell :     8000.00
      direct lattice vectors                 reciprocal lattice vectors
    20.000000000  0.000000000  0.000000000     0.050000000  0.000000000  0.000000000
     0.000000000 20.000000000  0.000000000     0.000000000  0.050000000  0.000000000
     0.000000000  0.000000000 20.000000000     0.000000000  0.000000000  0.050000000

  length of vectors
    20.000000000 20.000000000 20.000000000     0.050000000  0.050000000  0.050000000


 
 k-points in units of 2pi/SCALE and weight: Automatic mesh                          
   0.00000000  0.00000000  0.00000000       1.000
 
 k-points in reciprocal lattice and weights: Automatic mesh                          
   0.00000000  0.00000000  0.00000000       1.000
 
 position of ions in fractional coordinates (direct lattice) 
   0.47547100  0.55626000  0.38465300
   0.36907800  0.53906000  0.43641200
   0.54179100  0.45744600  0.39613600
   0.38461900  0.51474100  0.55243500
   0.61299700  0.52481700  0.56496600
   0.53111600  0.64794100  0.43749600
   0.55736800  0.43311000  0.51215000
   0.54669200  0.62364400  0.55351800
   0.45095700  0.41593600  0.56388300
   0.44028400  0.60643000  0.60524300
   0.41490100  0.35665000  0.52940300
   0.46117000  0.40042600  0.63910800
   0.60034800  0.36907000  0.51957800
   0.68182700  0.53600700  0.53118700
   0.62280400  0.50903400  0.64018900
   0.61080000  0.46880600  0.36278200
   0.50550800  0.39805500  0.36207700
   0.46538400  0.57201900  0.30946400
   0.58275500  0.68306700  0.58775000
   0.45052500  0.59044300  0.68036400
   0.39732000  0.67044900  0.59753500
   0.31566200  0.50359800  0.58596500
   0.33322800  0.47946500  0.40225200
   0.32629100  0.60324700  0.42912600
   0.48792300  0.71185500  0.43020800
   0.60015100  0.65882400  0.40403700
 
 position of ions in cartesian coordinates  (Angst):
   9.50942000 11.12520000  7.69306000
   7.38156000 10.78120000  8.72824000
  10.83582000  9.14892000  7.92272000
   7.69238000 10.29482000 11.04870000
  12.25994000 10.49634000 11.29932000
  10.62232000 12.95882000  8.74992000
  11.14736000  8.66220000 10.24300000
  10.93384000 12.47288000 11.07036000
   9.01914000  8.31872000 11.27766000
   8.80568000 12.12860000 12.10486000
   8.29802000  7.13300000 10.58806000
   9.22340000  8.00852000 12.78216000
  12.00696000  7.38140000 10.39156000
  13.63654000 10.72014000 10.62374000
  12.45608000 10.18068000 12.80378000
  12.21600000  9.37612000  7.25564000
  10.11016000  7.96110000  7.24154000
   9.30768000 11.44038000  6.18928000
  11.65510000 13.66134000 11.75500000
   9.01050000 11.80886000 13.60728000
   7.94640000 13.40898000 11.95070000
   6.31324000 10.07196000 11.71930000
   6.66456000  9.58930000  8.04504000
   6.52582000 12.06494000  8.58252000
   9.75846000 14.23710000  8.60416000
  12.00302000 13.17648000  8.08074000
 


--------------------------------------------------------------------------------------------------------


 k-point  1 :   0.0000 0.0000 0.0000  plane waves:  145165

 maximum and minimum number of plane-waves per node :     24209    24180

 maximum number of plane-waves:    145165
 maximum index in each direction: 
   IXMAX=   32   IYMAX=   32   IZMAX=   32
   IXMIN=  -32   IYMIN=  -32   IZMIN=  -32


 parallel 3D FFT for wavefunctions:
    minimum data exchange during FFTs selected (reduces bandwidth)
 parallel 3D FFT for charge:
    minimum data exchange during FFTs selected (reduces bandwidth)


 total amount of memory used by VASP MPI-rank0   131440. kBytes
=======================================================================

   base      :      30000. kBytes
   nonl-proj :      17624. kBytes
   fftplans  :      26957. kBytes
   grid      :      48673. kBytes
   one-center:         40. kBytes
   wavefun   :       8146. kBytes
 
     INWAV:  cpu time    0.0000: real time    0.0000
 Broyden mixing: mesh for mixing (old mesh)
   NGX = 65   NGY = 65   NGZ = 65
  (NGX  =196   NGY  =196   NGZ  =196)
  gives a total of 274625 points

 initial charge density was supplied:
 charge density of overlapping atoms calculated
 number of electron      56.0000000 magnetization 
 keeping initial charge density in first step


--------------------------------------------------------------------------------------------------------


 Maximum index for augmentation-charges          565 (set IRDMAX)


--------------------------------------------------------------------------------------------------------


 First call to EWALD:  gamma=   0.089
 Maximum number of real-space cells 3x 3x 3
 Maximum number of reciprocal cells 3x 3x 3

    FEWALD:  cpu time    0.0030: real time    0.0026


--------------------------------------- Iteration      1(   1)  ---------------------------------------


    POTLOK:  cpu time    1.7647: real time    1.7669
    SETDIJ:  cpu time    0.0070: real time    0.0075
     EDDAV:  cpu time   11.0693: real time   11.0677
       DOS:  cpu time    0.0000: real time    0.0003
    --------------------------------------------
      LOOP:  cpu time   12.8410: real time   12.8425

 eigenvalue-minimisations  :   116
 total energy-change (2. order) : 0.2043341E+03  (-0.1047884E+04)
 number of electron      56.0000000 magnetization 
 augmentation part       56.0000000 magnetization 

 Free energy of the ion-electron system (eV)
  ---------------------------------------------------
  alpha Z        PSCENC =         2.23981092
  Ewald energy   TEWEN  =      2629.98113996
  -Hartree energ DENC   =     -3441.37657271
  -exchange      EXHF   =         0.00000000
  -V(xc)+E(xc)   XCENC  =       -51.21445099
  PAW double counting   =       915.48941305     -755.22719771
  entropy T*S    EENTRO =        -0.43760103
  eigenvalues    EBANDS =      -335.08566425
  atomic energy  EATOM  =      1239.96520364
  Solvation  Ediel_sol  =         0.00000000
  ---------------------------------------------------
  free energy    TOTEN  =       204.33408088 eV

  energy without entropy =      204.77168191  energy(sigma->0) =      204.55288140


--------------------------------------------------------------------------------------------------------




--------------------------------------- Iteration      1(   2)  ---------------------------------------


     EDDAV:  cpu time   13.2470: real time   13.2435
       DOS:  cpu time    0.0000: real time    0.0002
    --------------------------------------------
      LOOP:  cpu time   13.2470: real time   13.2437

 eigenvalue-minimisations  :   144
 total energy-change (2. order) :-0.2312455E+03  (-0.2165801E+03)
 number of electron      56.0000000 magnetization 
 augmentation part       56.0000000 magnetization 

 Free energy of the ion-electron system (eV)
  ---------------------------------------------------
  alpha Z        PSCENC =         2.23981092
  Ewald energy   TEWEN  =      2629.98113996
  -Hartree energ DENC   =     -3441.37657271
  -exchange      EXHF   =         0.00000000
  -V(xc)+E(xc)   XCENC  =       -51.21445099
  PAW double counting   =       915.48941305     -755.22719771
  entropy T*S    EENTRO =        -0.00000000
  eigenvalues    EBANDS =      -566.76875742
  atomic energy  EATOM  =      1239.96520364
  Solvation  Ediel_sol  =         0.00000000
  ---------------------------------------------------
  free energy    TOTEN  =       -26.91141125 eV

  energy without entropy =      -26.91141125  energy(sigma->0) =      -26.91141125


--------------------------------------------------------------------------------------------------------




--------------------------------------- Iteration      1(   3)  ---------------------------------------


     EDDAV:  cpu time   10.9433: real time   10.9426
       DOS:  cpu time    0.0010: real time    0.0003
    --------------------------------------------
      LOOP:  cpu time   10.9443: real time   10.9428

 eigenvalue-minimisations  :   112
 total energy-change (2. order) :-0.7467186E+02  (-0.7448811E+02)
 number of electron      56.0000000 magnetization 
 augmentation part       56.0000000 magnetization 

 Free energy of the ion-electron system (eV)
  ---------------------------------------------------
  alpha Z        PSCENC =         2.23981092
  Ewald energy   TEWEN  =      2629.98113996
  -Hartree energ DENC   =     -3441.37657271
  -exchange      EXHF   =         0.00000000
  -V(xc)+E(xc)   XCENC  =       -51.21445099
  PAW double counting   =       915.48941305     -755.22719771
  entropy T*S    EENTRO =        -0.00000000
  eigenvalues    EBANDS =      -641.44062107
  atomic energy  EATOM  =      1239.96520364
  Solvation  Ediel_sol  =         0.00000000
  ---------------------------------------------------
  free energy    TOTEN  =      -101.58327491 eV

  energy without entropy =     -101.58327491  energy(sigma->0) =     -101.58327491


--------------------------------------------------------------------------------------------------------




--------------------------------------- Iteration      1(   4)  ---------------------------------------


     EDDAV:  cpu time   10.1525: real time   10.1518
       DOS:  cpu time    0.0010: real time    0.0003
    --------------------------------------------
      LOOP:  cpu time   10.1535: real time   10.1521

 eigenvalue-minimisations  :   104
 total energy-change (2. order) :-0.4249191E+01  (-0.4232979E+01)
 number of electron      56.0000000 magnetization 
 augmentation part       56.0000000 magnetization 

 Free energy of the ion-electron system (eV)
  ---------------------------------------------------
  alpha Z        PSCENC =         2.23981092
  Ewald energy   TEWEN  =      2629.98113996
  -Hartree energ DENC   =     -3441.37657271
  -exchange      EXHF   =         0.00000000
  -V(xc)+E(xc)   XCENC  =       -51.21445099
  PAW double counting   =       915.48941305     -755.22719771
  entropy T*S    EENTRO =        -0.00000000
  eigenvalues    EBANDS =      -645.68981212
  atomic energy  EATOM  =      1239.96520364
  Solvation  Ediel_sol  =         0.00000000
  ---------------------------------------------------
  free energy    TOTEN  =      -105.83246596 eV

  energy without entropy =     -105.83246596  energy(sigma->0) =     -105.83246596


--------------------------------------------------------------------------------------------------------




--------------------------------------- Iteration      1(   5)  ---------------------------------------


     EDDAV:  cpu time   13.2440: real time   13.2414
       DOS:  cpu time    0.0000: real time    0.0003
    CHARGE:  cpu time    0.4849: real time    0.4859
    MIXING:  cpu time    0.0440: real time    0.0436
    --------------------------------------------
      LOOP:  cpu time   13.7729: real time   13.7713

 eigenvalue-minimisations  :   144
 total energy-change (2. order) :-0.7641234E-01  (-0.7636989E-01)
 number of electron      56.0000023 magnetization 
 augmentation part       -3.9462402 magnetization 

 Broyden mixing:
  rms(total) = 0.14805E+01    rms(broyden)= 0.14804E+01
  rms(prec ) = 0.15767E+01
  weight for this iteration     100.00

 Free energy of the ion-electron system (eV)
  ---------------------------------------------------
  alpha Z        PSCENC =         2.23981092
  Ewald energy   TEWEN  =      2629.98113996
  -Hartree energ DENC   =     -3441.37657271
  -exchange      EXHF   =         0.00000000
  -V(xc)+E(xc)   XCENC  =       -51.21445099
  PAW double counting   =       915.48941305     -755.22719771
  entropy T*S    EENTRO =        -0.00000000
  eigenvalues    EBANDS =      -645.76622446
  atomic energy  EATOM  =      1239.96520364
  Solvation  Ediel_sol  =         0.00000000
  ---------------------------------------------------
  free energy    TOTEN  =      -105.90887830 eV

  energy without entropy =     -105.90887830  energy(sigma->0) =     -105.90887830


--------------------------------------------------------------------------------------------------------




--------------------------------------- Iteration      1(   6)  ---------------------------------------


    POTLOK:  cpu time    1.7237: real time    1.7255
    SETDIJ:  cpu time    0.0070: real time    0.0077
     EDDAV:  cpu time   10.1615: real time   10.1613
       DOS:  cpu time    0.0010: real time    0.0003
    CHARGE:  cpu time    0.4839: real time    0.4903
    MIXING:  cpu time    0.0490: real time    0.0486
    --------------------------------------------
      LOOP:  cpu time   12.4261: real time   12.4337

 eigenvalue-minimisations  :   104
 total energy-change (2. order) : 0.3199404E+01  (-0.1573554E+00)
 number of electron      56.0000022 magnetization 
 augmentation part       -3.9472472 magnetization 

 Broyden mixing:
  rms(total) = 0.85722E+00    rms(broyden)= 0.85722E+00
  rms(prec ) = 0.91598E+00
  weight for this iteration     100.00

 eigenvalues of (default mixing * dielectric matrix)
  average eigenvalue GAMMA=   2.3044
  2.3044

 Free energy of the ion-electron system (eV)
  ---------------------------------------------------
  alpha Z        PSCENC =         2.23981092
  Ewald energy   TEWEN  =      2629.98113996
  -Hartree energ DENC   =     -3472.55171154
  -exchange      EXHF   =         0.00000000
  -V(xc)+E(xc)   XCENC  =       -47.58254839
  PAW double counting   =      1799.67629862    -1640.23542945
  entropy T*S    EENTRO =        -0.00000000
  eigenvalues    EBANDS =      -614.20223831
  atomic energy  EATOM  =      1239.96520364
  Solvation  Ediel_sol  =         0.00000000
  ---------------------------------------------------
  free energy    TOTEN  =      -102.70947456 eV

  energy without entropy =     -102.70947456  energy(sigma->0) =     -102.70947456


--------------------------------------------------------------------------------------------------------




--------------------------------------- Iteration      1(   7)  ---------------------------------------


    POTLOK:  cpu time    1.7037: real time    1.7034
    SETDIJ:  cpu time    0.0080: real time    0.0076
     EDDAV:  cpu time   10.2064: real time   10.2065
       DOS:  cpu time    0.0000: real time    0.0003
    CHARGE:  cpu time    0.4869: real time    0.4863
    MIXING:  cpu time    0.0480: real time    0.0480
    --------------------------------------------
      LOOP:  cpu time   12.4531: real time   12.4521

 eigenvalue-minimisations  :   104
 total energy-change (2. order) : 0.1674748E+01  (-0.4063978E+00)
 number of electron      56.0000020 magnetization 
 augmentation part       -3.9458172 magnetization 

 Broyden mixing:
  rms(total) = 0.12189E+00    rms(broyden)= 0.12174E+00
  rms(prec ) = 0.15312E+00
  weight for this iteration     100.00

 eigenvalues of (default mixing * dielectric matrix)
  average eigenvalue GAMMA=   1.8394
  1.7154  1.9634

 Free energy of the ion-electron system (eV)
  ---------------------------------------------------
  alpha Z        PSCENC =         2.23981092
  Ewald energy   TEWEN  =      2629.98113996
  -Hartree energ DENC   =     -3528.06128834
  -exchange      EXHF   =         0.00000000
  -V(xc)+E(xc)   XCENC  =       -41.82772497
  PAW double counting   =      3728.71913420    -3570.37719442
  entropy T*S    EENTRO =        -0.00000000
  eigenvalues    EBANDS =      -561.67380726
  atomic energy  EATOM  =      1239.96520364
  Solvation  Ediel_sol  =         0.00000000
  ---------------------------------------------------
  free energy    TOTEN  =      -101.03472627 eV

  energy without entropy =     -101.03472627  energy(sigma->0) =     -101.03472627


--------------------------------------------------------------------------------------------------------




--------------------------------------- Iteration      1(   8)  ---------------------------------------


    POTLOK:  cpu time    1.7087: real time    1.7085
    SETDIJ:  cpu time    0.0080: real time    0.0077
     EDDAV:  cpu time   10.2014: real time   10.2000
       DOS:  cpu time    0.0000: real time    0.0003
    CHARGE:  cpu time    0.4829: real time    0.4826
    MIXING:  cpu time    0.0500: real time    0.0501
    --------------------------------------------
      LOOP:  cpu time   12.4511: real time   12.4493

 eigenvalue-minimisations  :   104
 total energy-change (2. order) : 0.5275025E-01  (-0.2693223E-01)
 number of electron      56.0000020 magnetization 
 augmentation part       -3.9415445 magnetization 

 Broyden mixing:
  rms(total) = 0.61140E-01    rms(broyden)= 0.61125E-01
  rms(prec ) = 0.80527E-01
  weight for this iteration     100.00

 eigenvalues of (default mixing * dielectric matrix)
  average eigenvalue GAMMA=   1.9716
  2.6373  1.6388  1.6388

 Free energy of the ion-electron system (eV)
  ---------------------------------------------------
  alpha Z        PSCENC =         2.23981092
  Ewald energy   TEWEN  =      2629.98113996
  -Hartree energ DENC   =     -3536.02696709
  -exchange      EXHF   =         0.00000000
  -V(xc)+E(xc)   XCENC  =       -41.85453141
  PAW double counting   =      3746.34123719    -3587.91569653
  entropy T*S    EENTRO =        -0.00000000
  eigenvalues    EBANDS =      -553.71217271
  atomic energy  EATOM  =      1239.96520364
  Solvation  Ediel_sol  =         0.00000000
  ---------------------------------------------------
  free energy    TOTEN  =      -100.98197603 eV

  energy without entropy =     -100.98197603  energy(sigma->0) =     -100.98197603


--------------------------------------------------------------------------------------------------------




--------------------------------------- Iteration      1(   9)  ---------------------------------------


    POTLOK:  cpu time    1.7157: real time    1.7155
    SETDIJ:  cpu time    0.0070: real time    0.0077
     EDDAV:  cpu time   11.3783: real time   11.3766
       DOS:  cpu time    0.0000: real time    0.0003
    CHARGE:  cpu time    0.4909: real time    0.4904
    MIXING:  cpu time    0.0520: real time    0.0526
    --------------------------------------------
      LOOP:  cpu time   13.6439: real time   13.6432

 eigenvalue-minimisations  :   120
 total energy-change (2. order) : 0.3565221E-01  (-0.7666848E-02)
 number of electron      56.0000020 magnetization 
 augmentation part       -3.9270959 magnetization 

 Broyden mixing:
  rms(total) = 0.32900E-01    rms(broyden)= 0.32899E-01
  rms(prec ) = 0.44508E-01
  weight for this iteration     100.00

 eigenvalues of (default mixing * dielectric matrix)
  average eigenvalue GAMMA=   1.7464
  2.5195  1.8272  1.8272  0.8115

 Free energy of the ion-electron system (eV)
  ---------------------------------------------------
  alpha Z        PSCENC =         2.23981092
  Ewald energy   TEWEN  =      2629.98113996
  -Hartree energ DENC   =     -3547.83067255
  -exchange      EXHF   =         0.00000000
  -V(xc)+E(xc)   XCENC  =       -41.16448434
  PAW double counting   =      3879.98364651    -3721.59687157
  entropy T*S    EENTRO =        -0.00000000
  eigenvalues    EBANDS =      -542.52409637
  atomic energy  EATOM  =      1239.96520364
  Solvation  Ediel_sol  =         0.00000000
  ---------------------------------------------------
  free energy    TOTEN  =      -100.94632382 eV

  energy without entropy =     -100.94632382  energy(sigma->0) =     -100.94632382


--------------------------------------------------------------------------------------------------------




--------------------------------------- Iteration      1(  10)  ---------------------------------------


    POTLOK:  cpu time    1.7227: real time    1.7226
    SETDIJ:  cpu time    0.0070: real time    0.0076
     EDDAV:  cpu time   10.8064: real time   10.8042
       DOS:  cpu time    0.0000: real time    0.0003
    CHARGE:  cpu time    0.4859: real time    0.4859
    MIXING:  cpu time    0.0560: real time    0.0557
    --------------------------------------------
      LOOP:  cpu time   13.0780: real time   13.0763

 eigenvalue-minimisations  :   112
 total energy-change (2. order) :-0.5946399E-04  (-0.2721841E-03)
 number of electron      56.0000020 magnetization 
 augmentation part       -3.9264866 magnetization 

 Broyden mixing:
  rms(total) = 0.15847E-01    rms(broyden)= 0.15847E-01
  rms(prec ) = 0.28924E-01
  weight for this iteration     100.00

 eigenvalues of (default mixing * dielectric matrix)
  average eigenvalue GAMMA=   1.8693
  2.7469  2.2979  1.0638  1.6189  1.6189

 Free energy of the ion-electron system (eV)
  ---------------------------------------------------
  alpha Z        PSCENC =         2.23981092
  Ewald energy   TEWEN  =      2629.98113996
  -Hartree energ DENC   =     -3549.93811127
  -exchange      EXHF   =         0.00000000
  -V(xc)+E(xc)   XCENC  =       -41.15371532
  PAW double counting   =      3811.29171321    -3652.85944902
  entropy T*S    EENTRO =        -0.00000000
  eigenvalues    EBANDS =      -540.47297539
  atomic energy  EATOM  =      1239.96520364
  Solvation  Ediel_sol  =         0.00000000
  ---------------------------------------------------
  free energy    TOTEN  =      -100.94638328 eV

  energy without entropy =     -100.94638328  energy(sigma->0) =     -100.94638328


--------------------------------------------------------------------------------------------------------




--------------------------------------- Iteration      1(  11)  ---------------------------------------


    POTLOK:  cpu time    1.9467: real time    1.9611
    SETDIJ:  cpu time    0.0070: real time    0.0077
     EDDAV:  cpu time   10.1475: real time   10.1509
       DOS:  cpu time    0.0010: real time    0.0003
    CHARGE:  cpu time    0.4859: real time    0.4861
    MIXING:  cpu time    0.0580: real time    0.0583
    --------------------------------------------
      LOOP:  cpu time   12.6461: real time   12.6645

 eigenvalue-minimisations  :   104
 total energy-change (2. order) : 0.4821279E-04  (-0.6431193E-03)
 number of electron      56.0000020 magnetization 
 augmentation part       -3.9254853 magnetization 

 Broyden mixing:
  rms(total) = 0.80769E-02    rms(broyden)= 0.80766E-02
  rms(prec ) = 0.14649E-01
  weight for this iteration     100.00

 eigenvalues of (default mixing * dielectric matrix)
  average eigenvalue GAMMA=   1.8632
  3.2075  2.5860  1.7291  1.7291  1.0427  0.8850

 Free energy of the ion-electron system (eV)
  ---------------------------------------------------
  alpha Z        PSCENC =         2.23981092
  Ewald energy   TEWEN  =      2629.98113996
  -Hartree energ DENC   =     -3556.65054283
  -exchange      EXHF   =         0.00000000
  -V(xc)+E(xc)   XCENC  =       -40.96736194
  PAW double counting   =      3769.01608091    -3610.54043353
  entropy T*S    EENTRO =        -0.00000000
  eigenvalues    EBANDS =      -533.99023219
  atomic energy  EATOM  =      1239.96520364
  Solvation  Ediel_sol  =         0.00000000
  ---------------------------------------------------
  free energy    TOTEN  =      -100.94633507 eV

  energy without entropy =     -100.94633507  energy(sigma->0) =     -100.94633507


--------------------------------------------------------------------------------------------------------




--------------------------------------- Iteration      1(  12)  ---------------------------------------


    POTLOK:  cpu time    1.7387: real time    1.7384
    SETDIJ:  cpu time    0.0080: real time    0.0076
     EDDAV:  cpu time    9.9855: real time    9.9925
       DOS:  cpu time    0.0000: real time    0.0003
    CHARGE:  cpu time    0.4879: real time    0.4886
    MIXING:  cpu time    0.0620: real time    0.0618
    --------------------------------------------
      LOOP:  cpu time   12.2821: real time   12.2891

 eigenvalue-minimisations  :   102
 total energy-change (2. order) :-0.4198309E-02  (-0.1103852E-03)
 number of electron      56.0000020 magnetization 
 augmentation part       -3.9249720 magnetization 

 Broyden mixing:
  rms(total) = 0.57039E-02    rms(broyden)= 0.57038E-02
  rms(prec ) = 0.99623E-02
  weight for this iteration     100.00

 eigenvalues of (default mixing * dielectric matrix)
  average eigenvalue GAMMA=   2.0846
  4.5817  2.6021  2.3458  1.5640  1.5640  0.9673  0.9673

 Free energy of the ion-electron system (eV)
  ---------------------------------------------------
  alpha Z        PSCENC =         2.23981092
  Ewald energy   TEWEN  =      2629.98113996
  -Hartree energ DENC   =     -3559.03237821
  -exchange      EXHF   =         0.00000000
  -V(xc)+E(xc)   XCENC  =       -40.92406961
  PAW double counting   =      3760.67697106    -3602.19806084
  entropy T*S    EENTRO =        -0.00000000
  eigenvalues    EBANDS =      -531.65915029
  atomic energy  EATOM  =      1239.96520364
  Solvation  Ediel_sol  =         0.00000000
  ---------------------------------------------------
  free energy    TOTEN  =      -100.95053338 eV

  energy without entropy =     -100.95053338  energy(sigma->0) =     -100.95053338


--------------------------------------------------------------------------------------------------------




--------------------------------------- Iteration      1(  13)  ---------------------------------------


    POTLOK:  cpu time    1.7377: real time    1.7364
    SETDIJ:  cpu time    0.0070: real time    0.0077
     EDDAV:  cpu time   10.8044: real time   10.8031
       DOS:  cpu time    0.0010: real time    0.0004
    CHARGE:  cpu time    0.4859: real time    0.4861
    MIXING:  cpu time    0.0650: real time    0.0656
    --------------------------------------------
      LOOP:  cpu time   13.1020: real time   13.0992

 eigenvalue-minimisations  :   112
 total energy-change (2. order) :-0.4730975E-02  (-0.1915399E-03)
 number of electron      56.0000020 magnetization 
 augmentation part       -3.9247341 magnetization 

 Broyden mixing:
  rms(total) = 0.35007E-02    rms(broyden)= 0.35006E-02
  rms(prec ) = 0.52120E-02
  weight for this iteration     100.00

 eigenvalues of (default mixing * dielectric matrix)
  average eigenvalue GAMMA=   2.1960
  5.6737  2.8776  2.3497  1.8005  1.8005  0.9639  0.9639  1.1384

 Free energy of the ion-electron system (eV)
  ---------------------------------------------------
  alpha Z        PSCENC =         2.23981092
  Ewald energy   TEWEN  =      2629.98113996
  -Hartree energ DENC   =     -3561.89974495
  -exchange      EXHF   =         0.00000000
  -V(xc)+E(xc)   XCENC  =       -40.87132781
  PAW double counting   =      3765.10166203    -3606.63117014
  entropy T*S    EENTRO =        -0.00000000
  eigenvalues    EBANDS =      -528.84083800
  atomic energy  EATOM  =      1239.96520364
  Solvation  Ediel_sol  =         0.00000000
  ---------------------------------------------------
  free energy    TOTEN  =      -100.95526435 eV

  energy without entropy =     -100.95526435  energy(sigma->0) =     -100.95526435


--------------------------------------------------------------------------------------------------------




--------------------------------------- Iteration      1(  14)  ---------------------------------------


    POTLOK:  cpu time    1.7297: real time    1.7290
    SETDIJ:  cpu time    0.0080: real time    0.0077
     EDDAV:  cpu time   10.8164: real time   10.8145
       DOS:  cpu time    0.0000: real time    0.0003
    CHARGE:  cpu time    0.4939: real time    0.4938
    MIXING:  cpu time    0.0710: real time    0.0710
    --------------------------------------------
      LOOP:  cpu time   13.1180: real time   13.1164

 eigenvalue-minimisations  :   112
 total energy-change (2. order) :-0.4237738E-02  (-0.3531018E-04)
 number of electron      56.0000020 magnetization 
 augmentation part       -3.9241803 magnetization 

 Broyden mixing:
  rms(total) = 0.15260E-02    rms(broyden)= 0.15259E-02
  rms(prec ) = 0.27018E-02
  weight for this iteration     100.00

 eigenvalues of (default mixing * dielectric matrix)
  average eigenvalue GAMMA=   2.3015
  6.5438  2.8527  2.8527  2.1887  1.6381  1.6381  1.0782  0.9604  0.9604

 Free energy of the ion-electron system (eV)
  ---------------------------------------------------
  alpha Z        PSCENC =         2.23981092
  Ewald energy   TEWEN  =      2629.98113996
  -Hartree energ DENC   =     -3562.60638258
  -exchange      EXHF   =         0.00000000
  -V(xc)+E(xc)   XCENC  =       -40.88421782
  PAW double counting   =      3764.78859211    -3606.31924471
  entropy T*S    EENTRO =        -0.00000000
  eigenvalues    EBANDS =      -528.12440361
  atomic energy  EATOM  =      1239.96520364
  Solvation  Ediel_sol  =         0.00000000
  ---------------------------------------------------
  free energy    TOTEN  =      -100.95950209 eV

  energy without entropy =     -100.95950209  energy(sigma->0) =     -100.95950209


--------------------------------------------------------------------------------------------------------




--------------------------------------- Iteration      1(  15)  ---------------------------------------


    POTLOK:  cpu time    1.7267: real time    1.7261
    SETDIJ:  cpu time    0.0080: real time    0.0076
     EDDAV:  cpu time   10.8004: real time   10.7994
       DOS:  cpu time    0.0000: real time    0.0003
    CHARGE:  cpu time    0.4869: real time    0.4858
    MIXING:  cpu time    0.0810: real time    0.0806
    --------------------------------------------
      LOOP:  cpu time   13.1030: real time   13.0999

 eigenvalue-minimisations  :   112
 total energy-change (2. order) :-0.4344826E-02  (-0.5273691E-04)
 number of electron      56.0000020 magnetization 
 augmentation part       -3.9239493 magnetization 

 Broyden mixing:
  rms(total) = 0.15075E-02    rms(broyden)= 0.15074E-02
  rms(prec ) = 0.19381E-02
  weight for this iteration     100.00

 eigenvalues of (default mixing * dielectric matrix)
  average eigenvalue GAMMA=   2.3080
  6.7650  3.8047  2.6205  2.0340  1.8824  1.8824  1.2202  0.9266  0.9719  0.9719

 Free energy of the ion-electron system (eV)
  ---------------------------------------------------
  alpha Z        PSCENC =         2.23981092
  Ewald energy   TEWEN  =      2629.98113996
  -Hartree energ DENC   =     -3562.81924010
  -exchange      EXHF   =         0.00000000
  -V(xc)+E(xc)   XCENC  =       -40.89386093
  PAW double counting   =      3768.55544311    -3610.08551553
  entropy T*S    EENTRO =        -0.00000000
  eigenvalues    EBANDS =      -527.90682797
  atomic energy  EATOM  =      1239.96520364
  Solvation  Ediel_sol  =         0.00000000
  ---------------------------------------------------
  free energy    TOTEN  =      -100.96384692 eV

  energy without entropy =     -100.96384692  energy(sigma->0) =     -100.96384692


--------------------------------------------------------------------------------------------------------




--------------------------------------- Iteration      1(  16)  ---------------------------------------


    POTLOK:  cpu time    1.7397: real time    1.7437
    SETDIJ:  cpu time    0.0110: real time    0.0110
     EDDAV:  cpu time   10.7974: real time   10.7940
       DOS:  cpu time    0.0000: real time    0.0002
    CHARGE:  cpu time    0.4949: real time    0.4948
    MIXING:  cpu time    0.0870: real time    0.0874
    --------------------------------------------
      LOOP:  cpu time   13.1300: real time   13.1312

 eigenvalue-minimisations  :   112
 total energy-change (2. order) :-0.9872185E-03  (-0.5148003E-05)
 number of electron      56.0000020 magnetization 
 augmentation part       -3.9241527 magnetization 

 Broyden mixing:
  rms(total) = 0.64114E-03    rms(broyden)= 0.64112E-03
  rms(prec ) = 0.96367E-03
  weight for this iteration     100.00

 eigenvalues of (default mixing * dielectric matrix)
  average eigenvalue GAMMA=   2.4070
  7.3248  4.6251  2.6236  2.6236  1.8151  1.8151  1.3773  1.3773  0.9634  0.9634
  0.9681

 Free energy of the ion-electron system (eV)
  ---------------------------------------------------
  alpha Z        PSCENC =         2.23981092
  Ewald energy   TEWEN  =      2629.98113996
  -Hartree energ DENC   =     -3562.92735293
  -exchange      EXHF   =         0.00000000
  -V(xc)+E(xc)   XCENC  =       -40.89130140
  PAW double counting   =      3768.50456284    -3610.03382656
  entropy T*S    EENTRO =        -0.00000000
  eigenvalues    EBANDS =      -527.80307060
  atomic energy  EATOM  =      1239.96520364
  Solvation  Ediel_sol  =         0.00000000
  ---------------------------------------------------
  free energy    TOTEN  =      -100.96483413 eV

  energy without entropy =     -100.96483413  energy(sigma->0) =     -100.96483413


--------------------------------------------------------------------------------------------------------




--------------------------------------- Iteration      1(  17)  ---------------------------------------


    POTLOK:  cpu time    1.7247: real time    1.7236
    SETDIJ:  cpu time    0.0070: real time    0.0077
     EDDAV:  cpu time   10.1915: real time   10.1895
       DOS:  cpu time    0.0000: real time    0.0003
    CHARGE:  cpu time    0.4909: real time    0.4909
    MIXING:  cpu time    0.0980: real time    0.0967
    --------------------------------------------
      LOOP:  cpu time   12.5121: real time   12.5088

 eigenvalue-minimisations  :   104
 total energy-change (2. order) :-0.1025046E-02  (-0.8363491E-05)
 number of electron      56.0000020 magnetization 
 augmentation part       -3.9243500 magnetization 

 Broyden mixing:
  rms(total) = 0.30912E-03    rms(broyden)= 0.30908E-03
  rms(prec ) = 0.45467E-03
  weight for this iteration     100.00

 eigenvalues of (default mixing * dielectric matrix)
  average eigenvalue GAMMA=   2.3951
  7.5464  4.9850  2.6824  2.6824  1.9568  1.9568  1.4843  1.4843  1.0536  0.9634
  0.9634  0.9820

 Free energy of the ion-electron system (eV)
  ---------------------------------------------------
  alpha Z        PSCENC =         2.23981092
  Ewald energy   TEWEN  =      2629.98113996
  -Hartree energ DENC   =     -3562.94620575
  -exchange      EXHF   =         0.00000000
  -V(xc)+E(xc)   XCENC  =       -40.89348291
  PAW double counting   =      3766.82101670    -3608.34918592
  entropy T*S    EENTRO =        -0.00000000
  eigenvalues    EBANDS =      -527.78415581
  atomic energy  EATOM  =      1239.96520364
  Solvation  Ediel_sol  =         0.00000000
  ---------------------------------------------------
  free energy    TOTEN  =      -100.96585918 eV

  energy without entropy =     -100.96585918  energy(sigma->0) =     -100.96585918


--------------------------------------------------------------------------------------------------------




--------------------------------------- Iteration      1(  18)  ---------------------------------------


    POTLOK:  cpu time    1.7197: real time    1.7208
    SETDIJ:  cpu time    0.0080: real time    0.0077
     EDDAV:  cpu time   10.1994: real time   10.1971
       DOS:  cpu time    0.0010: real time    0.0003
    CHARGE:  cpu time    0.4919: real time    0.4927
    MIXING:  cpu time    0.1090: real time    0.1082
    --------------------------------------------
      LOOP:  cpu time   12.5291: real time   12.5268

 eigenvalue-minimisations  :   104
 total energy-change (2. order) :-0.2757584E-03  (-0.9084913E-06)
 number of electron      56.0000020 magnetization 
 augmentation part       -3.9243380 magnetization 

 Broyden mixing:
  rms(total) = 0.17493E-03    rms(broyden)= 0.17490E-03
  rms(prec ) = 0.26131E-03
  weight for this iteration     100.00

 eigenvalues of (default mixing * dielectric matrix)
  average eigenvalue GAMMA=   2.4856
  8.1498  5.7691  3.1799  2.6220  2.3476  1.7873  1.7873  1.3764  1.3764  0.9697
  0.9697  0.9886  0.9886

 Free energy of the ion-electron system (eV)
  ---------------------------------------------------
  alpha Z        PSCENC =         2.23981092
  Ewald energy   TEWEN  =      2629.98113996
  -Hartree energ DENC   =     -3562.97606412
  -exchange      EXHF   =         0.00000000
  -V(xc)+E(xc)   XCENC  =       -40.89316927
  PAW double counting   =      3766.63648433    -3608.16513408
  entropy T*S    EENTRO =        -0.00000000
  eigenvalues    EBANDS =      -527.75440632
  atomic energy  EATOM  =      1239.96520364
  Solvation  Ediel_sol  =         0.00000000
  ---------------------------------------------------
  free energy    TOTEN  =      -100.96613494 eV

  energy without entropy =     -100.96613494  energy(sigma->0) =     -100.96613494


--------------------------------------------------------------------------------------------------------




--------------------------------------- Iteration      1(  19)  ---------------------------------------


    POTLOK:  cpu time    1.7277: real time    1.7285
    SETDIJ:  cpu time    0.0080: real time    0.0076
     EDDAV:  cpu time   10.1805: real time   10.1822
       DOS:  cpu time    0.0000: real time    0.0003
    CHARGE:  cpu time    0.4819: real time    0.4819
    MIXING:  cpu time    0.1190: real time    0.1192
    --------------------------------------------
      LOOP:  cpu time   12.5171: real time   12.5198

 eigenvalue-minimisations  :   104
 total energy-change (2. order) :-0.1626843E-03  (-0.5895087E-06)
 number of electron      56.0000020 magnetization 
 augmentation part       -3.9243627 magnetization 

 Broyden mixing:
  rms(total) = 0.16797E-03    rms(broyden)= 0.16796E-03
  rms(prec ) = 0.20862E-03
  weight for this iteration     100.00

 eigenvalues of (default mixing * dielectric matrix)
  average eigenvalue GAMMA=   2.4719
  8.3214  6.0645  3.3029  2.6916  2.0511  2.0511  1.7705  1.7705  1.4368  1.3109
  0.9886  0.9886  0.9290  0.9290

 Free energy of the ion-electron system (eV)
  ---------------------------------------------------
  alpha Z        PSCENC =         2.23981092
  Ewald energy   TEWEN  =      2629.98113996
  -Hartree energ DENC   =     -3562.99281207
  -exchange      EXHF   =         0.00000000
  -V(xc)+E(xc)   XCENC  =       -40.89203630
  PAW double counting   =      3766.58953627    -3608.11841997
  entropy T*S    EENTRO =        -0.00000000
  eigenvalues    EBANDS =      -527.73872006
  atomic energy  EATOM  =      1239.96520364
  Solvation  Ediel_sol  =         0.00000000
  ---------------------------------------------------
  free energy    TOTEN  =      -100.96629762 eV

  energy without entropy =     -100.96629762  energy(sigma->0) =     -100.96629762


--------------------------------------------------------------------------------------------------------




--------------------------------------- Iteration      1(  20)  ---------------------------------------


    POTLOK:  cpu time    1.7247: real time    1.7400
    SETDIJ:  cpu time    0.0080: real time    0.0076
     EDDAV:  cpu time    8.9996: real time    9.0006
       DOS:  cpu time    0.0000: real time    0.0003
    CHARGE:  cpu time    0.4919: real time    0.4975
    MIXING:  cpu time    0.1320: real time    0.1315
    --------------------------------------------
      LOOP:  cpu time   11.3563: real time   11.3776

 eigenvalue-minimisations  :    88
 total energy-change (2. order) :-0.5168326E-04  (-0.9457968E-07)
 number of electron      56.0000020 magnetization 
 augmentation part       -3.9243440 magnetization 

 Broyden mixing:
  rms(total) = 0.56024E-04    rms(broyden)= 0.56024E-04
  rms(prec ) = 0.82207E-04
  weight for this iteration     100.00

 eigenvalues of (default mixing * dielectric matrix)
  average eigenvalue GAMMA=   2.5038
  8.6007  6.3202  3.9068  2.7673  2.6011  1.9401  1.8262  1.8262  1.3857  1.3857
  1.1703  0.9804  0.9804  0.9735  0.8926

 Free energy of the ion-electron system (eV)
  ---------------------------------------------------
  alpha Z        PSCENC =         2.23981092
  Ewald energy   TEWEN  =      2629.98113996
  -Hartree energ DENC   =     -3562.99579658
  -exchange      EXHF   =         0.00000000
  -V(xc)+E(xc)   XCENC  =       -40.89300844
  PAW double counting   =      3766.47163420    -3608.00049823
  entropy T*S    EENTRO =        -0.00000000
  eigenvalues    EBANDS =      -527.73483478
  atomic energy  EATOM  =      1239.96520364
  Solvation  Ediel_sol  =         0.00000000
  ---------------------------------------------------
  free energy    TOTEN  =      -100.96634931 eV

  energy without entropy =     -100.96634931  energy(sigma->0) =     -100.96634931


--------------------------------------------------------------------------------------------------------




--------------------------------------- Iteration      1(  21)  ---------------------------------------


    POTLOK:  cpu time    1.7277: real time    1.7297
    SETDIJ:  cpu time    0.0070: real time    0.0078
     EDDAV:  cpu time    8.3617: real time    8.3600
       DOS:  cpu time    0.0010: real time    0.0003
    CHARGE:  cpu time    0.4889: real time    0.4893
    MIXING:  cpu time    0.1430: real time    0.1428
    --------------------------------------------
      LOOP:  cpu time   10.7294: real time   10.7297

 eigenvalue-minimisations  :    80
 total energy-change (2. order) :-0.2692072E-04  (-0.8343273E-07)
 number of electron      56.0000020 magnetization 
 augmentation part       -3.9243258 magnetization 

 Broyden mixing:
  rms(total) = 0.56945E-04    rms(broyden)= 0.56942E-04
  rms(prec ) = 0.71688E-04
  weight for this iteration     100.00

 eigenvalues of (default mixing * dielectric matrix)
  average eigenvalue GAMMA=   2.4991
  8.5292  6.6168  4.0417  2.8566  2.6463  2.0743  2.0743  1.7414  1.7414  1.5443
  1.1475  0.9470  0.9470  1.0063  1.0361  1.0361

 Free energy of the ion-electron system (eV)
  ---------------------------------------------------
  alpha Z        PSCENC =         2.23981092
  Ewald energy   TEWEN  =      2629.98113996
  -Hartree energ DENC   =     -3563.00316017
  -exchange      EXHF   =         0.00000000
  -V(xc)+E(xc)   XCENC  =       -40.89299471
  PAW double counting   =      3766.58288651    -3608.11184238
  entropy T*S    EENTRO =        -0.00000000
  eigenvalues    EBANDS =      -527.72742000
  atomic energy  EATOM  =      1239.96520364
  Solvation  Ediel_sol  =         0.00000000
  ---------------------------------------------------
  free energy    TOTEN  =      -100.96637623 eV

  energy without entropy =     -100.96637623  energy(sigma->0) =     -100.96637623


--------------------------------------------------------------------------------------------------------




--------------------------------------- Iteration      1(  22)  ---------------------------------------


    POTLOK:  cpu time    1.7157: real time    1.7155
    SETDIJ:  cpu time    0.0080: real time    0.0076
     EDDAV:  cpu time    8.9966: real time    9.0030
       DOS:  cpu time    0.0000: real time    0.0003
    CHARGE:  cpu time    0.4839: real time    0.4848
    MIXING:  cpu time    0.1520: real time    0.1525
    --------------------------------------------
      LOOP:  cpu time   11.3563: real time   11.3637

 eigenvalue-minimisations  :    88
 total energy-change (2. order) :-0.8034647E-05  (-0.1815662E-07)
 number of electron      56.0000020 magnetization 
 augmentation part       -3.9243363 magnetization 

 Broyden mixing:
  rms(total) = 0.20250E-04    rms(broyden)= 0.20250E-04
  rms(prec ) = 0.28077E-04
  weight for this iteration     100.00

 eigenvalues of (default mixing * dielectric matrix)
  average eigenvalue GAMMA=   2.5163
  8.8022  6.7439  4.6169  3.1531  2.5467  2.5467  1.8809  1.8809  1.6611  1.6611
  1.2097  1.2097  1.0227  0.9685  0.9685  0.9519  0.9519

 Free energy of the ion-electron system (eV)
  ---------------------------------------------------
  alpha Z        PSCENC =         2.23981092
  Ewald energy   TEWEN  =      2629.98113996
  -Hartree energ DENC   =     -3563.00237663
  -exchange      EXHF   =         0.00000000
  -V(xc)+E(xc)   XCENC  =       -40.89281324
  PAW double counting   =      3766.63735880    -3608.16623960
  entropy T*S    EENTRO =        -0.00000000
  eigenvalues    EBANDS =      -527.72846811
  atomic energy  EATOM  =      1239.96520364
  Solvation  Ediel_sol  =         0.00000000
  ---------------------------------------------------
  free energy    TOTEN  =      -100.96638426 eV

  energy without entropy =     -100.96638426  energy(sigma->0) =     -100.96638426


--------------------------------------------------------------------------------------------------------




--------------------------------------- Iteration      1(  23)  ---------------------------------------


    POTLOK:  cpu time    1.7197: real time    1.7192
    SETDIJ:  cpu time    0.0080: real time    0.0082
     EDDAV:  cpu time    8.3817: real time    8.3792
       DOS:  cpu time    0.0000: real time    0.0003
    CHARGE:  cpu time    0.4869: real time    0.4868
    MIXING:  cpu time    0.1680: real time    0.1673
    --------------------------------------------
      LOOP:  cpu time   10.7644: real time   10.7611

 eigenvalue-minimisations  :    80
 total energy-change (2. order) :-0.3741462E-05  (-0.9541722E-08)
 number of electron      56.0000020 magnetization 
 augmentation part       -3.9243444 magnetization 

 Broyden mixing:
  rms(total) = 0.15855E-04    rms(broyden)= 0.15854E-04
  rms(prec ) = 0.20281E-04
  weight for this iteration     100.00

 eigenvalues of (default mixing * dielectric matrix)
  average eigenvalue GAMMA=   2.4833
  8.8752  6.7847  4.7513  3.1005  2.5851  2.5851  1.9745  1.9745  1.6814  1.6814
  1.4742  1.1570  1.0815  1.0815  0.9404  0.9404  1.0158  1.0158

 Free energy of the ion-electron system (eV)
  ---------------------------------------------------
  alpha Z        PSCENC =         2.23981092
  Ewald energy   TEWEN  =      2629.98113996
  -Hartree energ DENC   =     -3563.00160740
  -exchange      EXHF   =         0.00000000
  -V(xc)+E(xc)   XCENC  =       -40.89292686
  PAW double counting   =      3766.60907664    -3608.13791663
  entropy T*S    EENTRO =        -0.00000000
  eigenvalues    EBANDS =      -527.72916827
  atomic energy  EATOM  =      1239.96520364
  Solvation  Ediel_sol  =         0.00000000
  ---------------------------------------------------
  free energy    TOTEN  =      -100.96638800 eV

  energy without entropy =     -100.96638800  energy(sigma->0) =     -100.96638800


--------------------------------------------------------------------------------------------------------




--------------------------------------- Iteration      1(  24)  ---------------------------------------


    POTLOK:  cpu time    1.7277: real time    1.7279
    SETDIJ:  cpu time    0.0080: real time    0.0077
     EDDAV:  cpu time    8.3417: real time    8.3759
       DOS:  cpu time    0.0000: real time    0.0004
    CHARGE:  cpu time    0.4979: real time    0.4973
    MIXING:  cpu time    0.1790: real time    0.1797
    --------------------------------------------
      LOOP:  cpu time   10.7544: real time   10.7889

 eigenvalue-minimisations  :    80
 total energy-change (2. order) :-0.2237167E-05  (-0.2885395E-08)
 number of electron      56.0000020 magnetization 
 augmentation part       -3.9243437 magnetization 

 Broyden mixing:
  rms(total) = 0.83839E-05    rms(broyden)= 0.83837E-05
  rms(prec ) = 0.10812E-04
  weight for this iteration     100.00

 eigenvalues of (default mixing * dielectric matrix)
  average eigenvalue GAMMA=   2.5468
  8.8506  7.0963  5.3769  3.8145  2.9085  2.4803  2.3690  1.8628  1.8628  1.6814
  1.6814  1.2137  1.2137  1.1325  0.9870  0.9870  0.9458  0.9458  0.9798

 Free energy of the ion-electron system (eV)
  ---------------------------------------------------
  alpha Z        PSCENC =         2.23981092
  Ewald energy   TEWEN  =      2629.98113996
  -Hartree energ DENC   =     -3563.00212314
  -exchange      EXHF   =         0.00000000
  -V(xc)+E(xc)   XCENC  =       -40.89295377
  PAW double counting   =      3766.55817572    -3608.08703866
  entropy T*S    EENTRO =        -0.00000000
  eigenvalues    EBANDS =      -527.72860491
  atomic energy  EATOM  =      1239.96520364
  Solvation  Ediel_sol  =         0.00000000
  ---------------------------------------------------
  free energy    TOTEN  =      -100.96639024 eV

  energy without entropy =     -100.96639024  energy(sigma->0) =     -100.96639024


--------------------------------------------------------------------------------------------------------




--------------------------------------- Iteration      1(  25)  ---------------------------------------


    POTLOK:  cpu time    1.7347: real time    1.7337
    SETDIJ:  cpu time    0.0080: real time    0.0076
     EDDAV:  cpu time    8.3737: real time    8.3718
       DOS:  cpu time    0.0010: real time    0.0003
    --------------------------------------------
      LOOP:  cpu time   10.1175: real time   10.1133

 eigenvalue-minimisations  :    80
 total energy-change (2. order) :-0.9780074E-06  (-0.1730283E-08)
 number of electron      56.0000020 magnetization 
 augmentation part       -3.9243437 magnetization 

 Free energy of the ion-electron system (eV)
  ---------------------------------------------------
  alpha Z        PSCENC =         2.23981092
  Ewald energy   TEWEN  =      2629.98113996
  -Hartree energ DENC   =     -3563.00297027
  -exchange      EXHF   =         0.00000000
  -V(xc)+E(xc)   XCENC  =       -40.89291652
  PAW double counting   =      3766.56743186    -3608.09630449
  entropy T*S    EENTRO =        -0.00000000
  eigenvalues    EBANDS =      -527.72778632
  atomic energy  EATOM  =      1239.96520364
  Solvation  Ediel_sol  =         0.00000000
  ---------------------------------------------------
  free energy    TOTEN  =      -100.96639122 eV

  energy without entropy =     -100.96639122  energy(sigma->0) =     -100.96639122


--------------------------------------------------------------------------------------------------------




 average (electrostatic) potential at core
  the test charge radii are     0.9892  1.1631  0.5201
  (the norm of the test charge is              1.0000)
       1 -93.3943       2 -93.4179       3 -93.4635       4 -93.4332       5 -93.4969
       6 -40.4417       7 -40.3838       8 -40.4245       9 -40.4418      10 -40.4355
      11 -41.0616      12 -41.0660      13 -41.0669      14 -40.6860      15 -40.6900
      16 -40.6976      17 -40.6980      18 -40.6972      19 -41.0544      20 -41.0616
      21 -41.0616      22 -40.6866      23 -40.7007      24 -40.7060      25 -41.0667
      26 -41.0618
 
 
 
 E-fermi :  -5.3722     XC(G=0):  -0.6091     alpha+bet : -0.3347


 k-point     1 :       0.0000    0.0000    0.0000
  band No.  band energies     occupation 
      1     -15.3081      2.00000
      2     -14.5498      2.00000
      3     -14.1117      2.00000
      4     -13.8572      2.00000
      5     -13.1925      2.00000
      6     -12.7186      2.00000
      7     -11.8493      2.00000
      8     -11.4482      2.00000
      9     -11.3940      2.00000
     10     -10.4566      2.00000
     11      -8.9707      2.00000
     12      -8.6333      2.00000
     13      -8.6267      2.00000
     14      -8.6198      2.00000
     15      -8.1956      2.00000
     16      -8.1844      2.00000
     17      -8.1755      2.00000
     18      -7.8667      2.00000
     19      -7.8544      2.00000
     20      -7.8494      2.00000
     21      -6.7806      2.00000
     22      -6.7577      2.00000
     23      -6.4811      2.00000
     24      -6.4561      2.00000
     25      -6.4426      2.00000
     26      -6.3704      2.00000
     27      -6.3580      2.00000
     28      -6.3550      2.00000
     29      -1.6999      0.00000
     30      -1.3996      0.00000
     31      -1.2701      0.00000
     32      -1.2102      0.00000
     33      -1.1753      0.00000
     34      -1.1180      0.00000
     35      -1.0684      0.00000
     36      -0.9578      0.00000
     37      -0.8370      0.00000
     38      -0.6093      0.00000
     39      -0.4088      0.00000
     40      -0.3303      0.00000
     41      -0.2162      0.00000
     42      -0.1597      0.00000


--------------------------------------------------------------------------------------------------------


 soft charge-density along one line, spin component           1
         0         1         2         3         4         5         6         7         8         9
 total charge-density along one line
 
 pseudopotential strength for first ion, spin component:           1
 19.613  27.371   0.001   0.003   0.001   0.003   0.005   0.002
 27.371  38.201   0.002   0.004   0.002   0.004   0.008   0.003
  0.001   0.002   4.359   0.000   0.000   8.131   0.000   0.001
  0.003   0.004   0.000   4.359   0.000   0.000   8.131   0.000
  0.001   0.002   0.000   0.000   4.358   0.001   0.000   8.130
  0.003   0.004   8.131   0.000   0.001  15.178   0.001   0.001
  0.005   0.008   0.000   8.131   0.000   0.001  15.177   0.001
  0.002   0.003   0.001   0.000   8.130   0.001   0.001  15.177
 total augmentation occupancy for first ion, spin component:           1
  5.560  -2.039   0.051  -0.338  -0.054  -0.015   0.101   0.016
 -2.039   0.811  -0.035   0.205   0.032   0.008  -0.045  -0.006
  0.051  -0.035   2.839  -0.111  -0.031  -0.616   0.038   0.009
 -0.338   0.205  -0.111   3.285   0.051   0.039  -0.776  -0.020
 -0.054   0.032  -0.031   0.051   2.843   0.009  -0.020  -0.615
 -0.015   0.008  -0.616   0.039   0.009   0.140  -0.011  -0.002
  0.101  -0.045   0.038  -0.776  -0.020  -0.011   0.186   0.006
  0.016  -0.006   0.009  -0.020  -0.615  -0.002   0.006   0.139


------------------------ aborting loop because EDIFF is reached ----------------------------------------


    CHARGE:  cpu time    0.4919: real time    0.4923
    FORLOC:  cpu time    0.1730: real time    0.1728
    FORNL :  cpu time    1.1268: real time    1.1268
    STRESS:  cpu time    8.3467: real time    8.3459
    FORCOR:  cpu time    1.7197: real time    1.7190
    FORHAR:  cpu time    0.5839: real time    0.5837
    MIXING:  cpu time    0.1920: real time    0.1921
    OFIELD:  cpu time    0.0000: real time    0.0001

  FORCE on cell =-STRESS in cart. coord.  units (eV):
  Direction    XX          YY          ZZ          XY          YZ          ZX
  --------------------------------------------------------------------------------------
  Alpha Z     2.23981     2.23981     2.23981
  Ewald     876.64706   876.62235   876.71007    -0.21850     0.02563    -0.50464
  Hartree  1188.36999  1186.57745  1188.05570    -0.41787     0.14398    -0.20904
  E(xc)    -178.67656  -178.79443  -178.70686     0.06351    -0.00186    -0.05122
  Local   -2558.19093 -2556.46158 -2557.93441     0.66649    -0.17187     0.69984
  n-local   255.52737   256.27356   255.69061    -0.31588    -0.00174     0.23594
  augment   -20.64262   -20.66051   -20.64300     0.00084    -0.00565    -0.00838
  Kinetic   432.43649   431.96672   432.29495     0.14458     0.01671    -0.10950
  Fock        0.00000     0.00000     0.00000     0.00000     0.00000     0.00000
  -------------------------------------------------------------------------------------
  Total      -2.28939    -2.23663    -2.29312    -0.07682     0.00521     0.05299
  in kB      -0.45850    -0.44793    -0.45925    -0.01538     0.00104     0.01061
  external pressure =       -0.46 kB  Pullay stress =        0.00 kB


 VOLUME and BASIS-vectors are now :
 -----------------------------------------------------------------------------
  energy-cutoff  :      400.00
[...]
 next E    =  -101.223256   (d E  =  -0.00013)


--------------------------------------------------------------------------------------------------------


    WAVPRE:  cpu time    0.5799: real time    0.5828
    FEWALD:  cpu time    0.0030: real time    0.0022
    ORTHCH:  cpu time    0.9869: real time    0.9878
     LOOP+:  cpu time   78.4491: real time   78.4393


--------------------------------------- Iteration     19(   1)  ---------------------------------------


    POTLOK:  cpu time    1.7337: real time    1.7346
    SETDIJ:  cpu time    0.0080: real time    0.0079
     EDDAV:  cpu time    8.6797: real time    8.6771
       DOS:  cpu time    0.0010: real time    0.0003
    CHARGE:  cpu time    0.4829: real time    0.4897
    MIXING:  cpu time    0.0450: real time    0.0446
    --------------------------------------------
      LOOP:  cpu time   10.9503: real time   10.9543

 eigenvalue-minimisations  :    84
 total energy-change (2. order) :-0.7416177E-05  (-0.4099138E-04)
 number of electron      55.9999997 magnetization 
 augmentation part       -3.9147642 magnetization 

 Broyden mixing:
  rms(total) = 0.66994E-03    rms(broyden)= 0.66978E-03
  rms(prec ) = 0.70041E-03
  weight for this iteration     100.00

 Free energy of the ion-electron system (eV)
  ---------------------------------------------------
  alpha Z        PSCENC =         2.23981092
  Ewald energy   TEWEN  =      2617.58718702
  -Hartree energ DENC   =     -3550.55879430
  -exchange      EXHF   =         0.00000000
  -V(xc)+E(xc)   XCENC  =       -40.49692155
  PAW double counting   =      3928.34769867    -3769.91482094
  entropy T*S    EENTRO =        -0.00000000
  eigenvalues    EBANDS =      -528.39261520
  atomic energy  EATOM  =      1239.96520364
  Solvation  Ediel_sol  =         0.00000000
  ---------------------------------------------------
  free energy    TOTEN  =      -101.22325175 eV

  energy without entropy =     -101.22325175  energy(sigma->0) =     -101.22325175


--------------------------------------------------------------------------------------------------------




--------------------------------------- Iteration     19(   2)  ---------------------------------------


    POTLOK:  cpu time    1.7347: real time    1.7342
    SETDIJ:  cpu time    0.0080: real time    0.0077
     EDDAV:  cpu time   11.4823: real time   11.4781
       DOS:  cpu time    0.0000: real time    0.0003
    CHARGE:  cpu time    0.4869: real time    0.4871
    MIXING:  cpu time    0.0460: real time    0.0459
    --------------------------------------------
      LOOP:  cpu time   13.7579: real time   13.7532

 eigenvalue-minimisations  :   120
 total energy-change (2. order) :-0.2264930E-05  (-0.2019062E-05)
 number of electron      55.9999997 magnetization 
 augmentation part       -3.9147626 magnetization 

 Broyden mixing:
  rms(total) = 0.38616E-03    rms(broyden)= 0.38606E-03
  rms(prec ) = 0.41148E-03
  weight for this iteration     100.00

 eigenvalues of (default mixing * dielectric matrix)
  average eigenvalue GAMMA=   1.0359
  1.0359

 Free energy of the ion-electron system (eV)
  ---------------------------------------------------
  alpha Z        PSCENC =         2.23981092
  Ewald energy   TEWEN  =      2617.58718702
  -Hartree energ DENC   =     -3550.55976311
  -exchange      EXHF   =         0.00000000
  -V(xc)+E(xc)   XCENC  =       -40.49677384
  PAW double counting   =      3928.30025285    -3769.86743951
  entropy T*S    EENTRO =        -0.00000000
  eigenvalues    EBANDS =      -528.39173199
  atomic energy  EATOM  =      1239.96520364
  Solvation  Ediel_sol  =         0.00000000
  ---------------------------------------------------
  free energy    TOTEN  =      -101.22325402 eV

  energy without entropy =     -101.22325402  energy(sigma->0) =     -101.22325402


--------------------------------------------------------------------------------------------------------




--------------------------------------- Iteration     19(   3)  ---------------------------------------


    POTLOK:  cpu time    1.7367: real time    1.7360
    SETDIJ:  cpu time    0.0090: real time    0.0085
     EDDAV:  cpu time    8.4307: real time    8.4282
       DOS:  cpu time    0.0000: real time    0.0003
    --------------------------------------------
      LOOP:  cpu time   10.1765: real time   10.1728

 eigenvalue-minimisations  :    80
 total energy-change (2. order) :-0.5194252E-06  (-0.4693861E-07)
 number of electron      55.9999997 magnetization 
 augmentation part       -3.9147626 magnetization 

 Free energy of the ion-electron system (eV)
  ---------------------------------------------------
  alpha Z        PSCENC =         2.23981092
  Ewald energy   TEWEN  =      2617.58718702
  -Hartree energ DENC   =     -3550.56103276
  -exchange      EXHF   =         0.00000000
  -V(xc)+E(xc)   XCENC  =       -40.49663849
  PAW double counting   =      3928.32543442    -3769.89264909
  entropy T*S    EENTRO =        -0.00000000
  eigenvalues    EBANDS =      -528.39057019
  atomic energy  EATOM  =      1239.96520364
  Solvation  Ediel_sol  =         0.00000000
  ---------------------------------------------------
  free energy    TOTEN  =      -101.22325454 eV

  energy without entropy =     -101.22325454  energy(sigma->0) =     -101.22325454


--------------------------------------------------------------------------------------------------------




 average (electrostatic) potential at core
  the test charge radii are     0.9892  1.1631  0.5201
  (the norm of the test charge is              1.0000)
       1 -93.3356       2 -93.2814       3 -93.3471       4 -93.4136       5 -93.4212
       6 -40.4353       7 -40.3991       8 -40.4550       9 -40.4342      10 -40.4356
      11 -40.9814      12 -40.9812      13 -41.0077      14 -40.8536      15 -40.8547
      16 -40.8501      17 -40.8501      18 -40.8887      19 -41.0146      20 -40.9780
      21 -40.9779      22 -40.9004      23 -40.8431      24 -40.8417      25 -40.9812
      26 -40.9820
 
 
 
 E-fermi :  -5.3458     XC(G=0):  -0.6088     alpha+bet : -0.3347


 k-point     1 :       0.0000    0.0000    0.0000
  band No.  band energies     occupation 
      1     -15.1816      2.00000
      2     -14.3596      2.00000
      3     -14.1022      2.00000
      4     -13.9630      2.00000
      5     -13.1760      2.00000
      6     -12.8492      2.00000
      7     -11.8942      2.00000
      8     -11.5455      2.00000
      9     -11.5032      2.00000
     10     -10.5889      2.00000
     11      -8.9981      2.00000
     12      -8.6787      2.00000
     13      -8.6273      2.00000
     14      -8.5643      2.00000
     15      -8.2520      2.00000
     16      -8.1491      2.00000
     17      -8.0718      2.00000
     18      -7.9391      2.00000
     19      -7.9005      2.00000
     20      -7.7948      2.00000
     21      -6.8595      2.00000
     22      -6.7769      2.00000
     23      -6.5584      2.00000
     24      -6.4578      2.00000
     25      -6.3969      2.00000
     26      -6.3670      2.00000
     27      -6.3333      2.00000
     28      -6.3066      2.00000
     29      -1.6481      0.00000
     30      -1.4059      0.00000
     31      -1.3957      0.00000
     32      -1.2973      0.00000
     33      -1.2577      0.00000
     34      -1.1385      0.00000
     35      -1.0892      0.00000
     36      -0.9123      0.00000
     37      -0.8308      0.00000
     38      -0.5092      0.00000
     39      -0.3625      0.00000
     40      -0.2829      0.00000
     41      -0.1949      0.00000
     42      -0.0918      0.00000


--------------------------------------------------------------------------------------------------------


 soft charge-density along one line, spin component           1
         0         1         2         3         4         5         6         7         8         9
 total charge-density along one line
 
 pseudopotential strength for first ion, spin component:           1
 19.614  27.372   0.001   0.003   0.001   0.003   0.006   0.002
 27.372  38.204   0.002   0.004   0.002   0.003   0.008   0.003
  0.001   0.002   4.361   0.000   0.000   8.136   0.000   0.000
  0.003   0.004   0.000   4.362   0.000   0.000   8.136   0.000
  0.001   0.002   0.000   0.000   4.361   0.000   0.000   8.135
  0.003   0.003   8.136   0.000   0.000  15.186   0.000   0.001
  0.006   0.008   0.000   8.136   0.000   0.000  15.187   0.001
  0.002   0.003   0.000   0.000   8.135   0.001   0.001  15.185
 total augmentation occupancy for first ion, spin component:           1
  5.914  -2.231  -0.005  -0.472  -0.113   0.004   0.148   0.036
 -2.231   0.902  -0.010   0.269   0.060   0.001  -0.067  -0.015
 -0.005  -0.010   2.929  -0.172  -0.093  -0.644   0.055   0.026
 -0.472   0.269  -0.172   3.510   0.050   0.056  -0.843  -0.021
 -0.113   0.060  -0.093   0.050   2.992   0.026  -0.021  -0.660
  0.004   0.001  -0.644   0.056   0.026   0.148  -0.015  -0.007
  0.148  -0.067   0.055  -0.843  -0.021  -0.015   0.206   0.007
  0.036  -0.015   0.026  -0.021  -0.660  -0.007   0.007   0.152


------------------------ aborting loop because EDIFF is reached ----------------------------------------


    CHARGE:  cpu time    0.4919: real time    0.4909
    FORLOC:  cpu time    0.1720: real time    0.1723
    FORNL :  cpu time    1.1278: real time    1.1276
    STRESS:  cpu time    8.3997: real time    8.4376
    FORCOR:  cpu time    1.7197: real time    1.7187
    FORHAR:  cpu time    0.5829: real time    0.5832
    MIXING:  cpu time    0.0460: real time    0.0465
    OFIELD:  cpu time    0.0000: real time    0.0001

  FORCE on cell =-STRESS in cart. coord.  units (eV):
  Direction    XX          YY          ZZ          XY          YZ          ZX
  --------------------------------------------------------------------------------------
  Alpha Z     2.23981     2.23981     2.23981
  Ewald     878.26966   865.10606   874.20980    -1.03135     1.48461     1.40031
  Hartree  1189.52302  1175.54269  1185.49989    -0.14417     1.31299     0.63325
  E(xc)    -178.99668  -179.18367  -179.05352     0.05682    -0.00660    -0.05460
  Local   -2561.52933 -2533.70340 -2553.34413     1.29229    -2.66385    -1.89536
  n-local   255.53871   256.13850   255.76300    -0.29104    -0.14096     0.02021
  augment   -20.86625   -20.76586   -20.84844    -0.00355     0.02360     0.03482
  Kinetic   434.83549   433.52285   434.62540     0.06029    -0.04547    -0.12366
  Fock        0.00000     0.00000     0.00000     0.00000     0.00000     0.00000
  -------------------------------------------------------------------------------------
  Total      -0.98557    -1.10302    -0.90819    -0.06071    -0.03568     0.01498
  in kB      -0.19738    -0.22090    -0.18189    -0.01216    -0.00715     0.00300
  external pressure =       -0.20 kB  Pullay stress =        0.00 kB


 VOLUME and BASIS-vectors are now :
 -----------------------------------------------------------------------------
  energy-cutoff  :      400.00
  volume of cell :     8000.00
      direct lattice vectors                 reciprocal lattice vectors
    20.000000000  0.000000000  0.000000000     0.050000000  0.000000000  0.000000000
     0.000000000 20.000000000  0.000000000     0.000000000  0.050000000  0.000000000
     0.000000000  0.000000000 20.000000000     0.000000000  0.000000000  0.050000000

  length of vectors
    20.000000000 20.000000000 20.000000000     0.050000000  0.050000000  0.050000000


 FORCES acting on ions
    electron-ion (+dipol)            ewald-force                    non-local-force                 convergence-correction
 -----------------------------------------------------------------------------------------------
   0.111E+02 -.204E+02 0.873E+02   -.116E+02 0.199E+02 -.888E+02   0.506E+00 0.462E+00 0.152E+01   0.198E-03 -.335E-05 -.513E-04
   0.871E+02 -.531E+01 0.460E+02   -.887E+02 0.543E+01 -.468E+02   0.162E+01 -.110E+00 0.810E+00   0.485E-03 -.175E-04 -.975E-05
   -.375E+02 0.542E+02 0.729E+02   0.379E+02 -.550E+02 -.750E+02   -.472E+00 0.727E+00 0.205E+01   -.345E-04 0.272E-03 -.353E-03
   0.796E+02 0.129E+02 -.414E+02   -.814E+02 -.131E+02 0.413E+02   0.178E+01 0.140E+00 0.611E-01   0.331E-03 -.285E-04 0.219E-03
   -.848E+02 0.495E+01 -.451E+02   0.870E+02 -.507E+01 0.463E+02   -.221E+01 0.118E+00 -.121E+01   0.511E-04 -.301E-03 0.323E-03
   -.299E+02 -.843E+02 0.444E+02   0.300E+02 0.850E+02 -.450E+02   -.135E+00 -.656E+00 0.638E+00   -.766E-04 -.363E-03 -.556E-03
   -.509E+02 0.767E+02 -.100E+02   0.515E+02 -.770E+02 0.988E+01   -.571E+00 0.299E+00 0.148E+00   0.257E-03 -.245E-04 0.161E-03
   -.423E+02 -.717E+02 -.412E+02   0.429E+02 0.719E+02 0.416E+02   -.576E+00 -.245E+00 -.346E+00   0.594E-04 -.322E-03 0.123E-03
   0.275E+02 0.843E+02 -.460E+02   -.280E+02 -.849E+02 0.465E+02   0.534E+00 0.608E+00 -.472E+00   -.169E-03 0.105E-03 0.116E-03
   0.351E+02 -.543E+02 -.754E+02   -.357E+02 0.547E+02 0.761E+02   0.580E+00 -.324E+00 -.670E+00   -.205E-03 -.425E-03 -.723E-05
   0.198E+02 0.398E+02 0.561E+01   -.209E+02 -.418E+02 -.667E+01   0.114E+01 0.197E+01 0.106E+01   0.601E-04 0.147E-03 0.775E-04
   0.113E+01 0.217E+02 -.392E+02   -.820E+00 -.222E+02 0.417E+02   -.310E+00 0.548E+00 -.244E+01   -.982E-04 0.995E-05 0.743E-04
   -.256E+02 0.387E+02 -.423E+01   0.269E+02 -.407E+02 0.444E+01   -.134E+01 0.206E+01 -.219E+00   0.892E-04 0.792E-04 -.456E-04
   -.458E+02 -.391E+01 0.582E+01   0.485E+02 0.433E+01 -.705E+01   -.266E+01 -.421E+00 0.123E+01   0.208E-03 -.621E-05 -.274E-04
   -.203E+02 0.825E+01 -.410E+02   0.208E+02 -.889E+01 0.439E+02   -.414E+00 0.641E+00 -.287E+01   0.100E-03 -.142E-03 0.133E-03
   -.366E+02 0.490E+01 0.290E+02   0.393E+02 -.448E+01 -.303E+02   -.261E+01 -.415E+00 0.134E+01   -.434E-04 0.208E-03 -.123E-03
   0.863E+01 0.362E+02 0.286E+02   -.996E+01 -.385E+02 -.299E+02   0.132E+01 0.230E+01 0.130E+01   -.395E-04 0.116E-03 0.466E-04
   0.705E+01 -.987E+01 0.472E+02   -.748E+01 0.105E+02 -.500E+02   0.430E+00 -.584E+00 0.281E+01   -.135E-03 -.581E-04 -.181E-03
   -.212E+02 -.358E+02 -.204E+02   0.224E+02 0.377E+02 0.215E+02   -.111E+01 -.192E+01 -.108E+01   0.776E-04 -.498E-04 0.865E-04
   0.292E+01 -.315E+01 -.444E+02   -.266E+01 0.266E+01 0.469E+02   -.272E+00 0.483E+00 -.245E+01   -.163E-03 -.151E-03 0.150E-03
   0.240E+02 -.364E+02 -.107E+02   -.253E+02 0.385E+02 0.106E+02   0.136E+01 -.210E+01 0.192E+00   -.100E-03 0.347E-04 0.926E-05
   0.435E+02 0.688E+01 -.205E+02   -.461E+02 -.728E+01 0.217E+02   0.262E+01 0.410E+00 -.121E+01   -.117E-03 0.656E-04 -.720E-04
   0.324E+02 0.249E+02 0.237E+02   -.338E+02 -.272E+02 -.250E+02   0.143E+01 0.222E+01 0.131E+01   0.191E-03 -.208E-03 0.161E-04
   0.349E+02 -.292E+02 0.123E+02   -.365E+02 0.317E+02 -.126E+02   0.165E+01 -.242E+01 0.338E+00   0.497E-04 0.351E-03 -.126E-04
   0.125E+02 -.415E+02 0.113E+02   -.138E+02 0.436E+02 -.116E+02   0.137E+01 -.210E+01 0.249E+00   -.540E-04 -.289E-04 -.158E-03
   -.334E+02 -.199E+02 0.225E+02   0.356E+02 0.203E+02 -.236E+02   -.221E+01 -.416E+00 0.113E+01   -.117E-03 -.132E-03 -.203E-03
 -----------------------------------------------------------------------------------------------
   -.145E+01 -.127E+01 -.324E+01   -.213E-13 0.355E-13 0.711E-13   0.145E+01 0.127E+01 0.325E+01   0.806E-03 -.871E-03 -.266E-03
 
 
 POSITION                                       TOTAL-FORCE (eV/Angst)
 -----------------------------------------------------------------------------------
      9.49339     11.09358      7.69445        -0.010132     -0.000341     -0.007578
      7.40535     10.77231      8.73702         0.006456      0.002455      0.004621
     10.82575      9.16759      7.90143         0.000915      0.004513      0.008398
      7.65618     10.29828     11.02808        -0.006509      0.003047     -0.000338
     12.30713     10.49314     11.31648        -0.001796      0.001665     -0.008045
     10.62494     12.95420      8.71501         0.001601      0.000298      0.005276
     11.17747      8.67174     10.22729         0.004800      0.012473      0.003724
     10.97636     12.48104     11.09711         0.000701     -0.012100      0.002154
      8.98936      8.31671     11.28502         0.002179      0.003301      0.001378
      8.77390     12.12341     12.12344         0.003325      0.000566      0.000058
      8.28394      7.09482     10.62313         0.005378      0.010526      0.001010
      9.18104      7.97879     12.79346        -0.001715      0.002657     -0.001252
     12.02544      7.36714     10.36540         0.002864      0.002484     -0.002532
     13.65301     10.70669     10.69230        -0.009357     -0.001548      0.005224
     12.51449     10.16960     12.76398         0.002576     -0.003165      0.004668
     12.14465      9.38016      7.22274         0.000888      0.003930     -0.002039
     10.15387      8.00106      7.24307        -0.002296      0.000253      0.002120
      9.27029     11.39512      6.23968        -0.004422     -0.001209     -0.004716
     11.68310     13.69556     11.78050        -0.003882     -0.010818     -0.002740
      8.94186     11.82134     13.64283        -0.004848     -0.003810     -0.004818
      7.92930     13.42753     12.00253         0.004793     -0.008347     -0.001471
      6.30651     10.08756     11.65301         0.002707      0.003655     -0.005818
      6.68043      9.64201      8.06864         0.009021      0.000454      0.004589
      6.57145     12.00675      8.56670         0.004148      0.002705      0.000706
      9.77695     14.25192      8.56028         0.000112     -0.006330     -0.001009
     11.99327     13.20995      8.01476        -0.007506     -0.007312     -0.001570
 -----------------------------------------------------------------------------------
    total drift:                                0.002218      0.002040      0.000148


--------------------------------------------------------------------------------------------------------



  FREE ENERGIE OF THE ION-ELECTRON SYSTEM (eV)
  ---------------------------------------------------
  free  energy   TOTEN  =      -101.22325454 eV

  energy  without entropy=     -101.22325454  energy(sigma->0) =     -101.22325454
 
 d Force = 0.9034331E-05[ 0.138E-06, 0.179E-04]  d Energy = 0.1035922E-04-0.132E-05
 d Force = 0.3295684E-01[ 0.330E-01, 0.330E-01]  d Ewald  = 0.3295683E-01 0.220E-08


--------------------------------------------------------------------------------------------------------


    POTLOK:  cpu time    1.7417: real time    1.7409


--------------------------------------------------------------------------------------------------------




--------------------------------------------------------------------------------------------------------


  
 reached required accuracy - stopping structural energy minimisation
 writing wavefunctions
     LOOP+:  cpu time   49.8654: real time   50.3932
    4ORBIT:  cpu time    0.0000: real time    0.0000

 total amount of memory used by VASP MPI-rank0   131440. kBytes
=======================================================================

   base      :      30000. kBytes
   nonl-proj :      17624. kBytes
   fftplans  :      26957. kBytes
   grid      :      48673. kBytes
   one-center:         40. kBytes
   wavefun   :       8146. kBytes
 
  
  
 General timing and accounting informations for this job:
 ========================================================
  
                  Total CPU time used (sec):     2633.823
                            User time (sec):     2601.789
                          System time (sec):       32.034
                         Elapsed time (sec):     2637.714
  
                   Maximum memory used (kb):      186424.
                   Average memory used (kb):           0.
  
                          Minor page faults:      5966667
                          Major page faults:            7
                 Voluntary context switches:         5605
