 vasp.5.4.4.18Apr17-6-g9f103f2a35 (build Nov 06 2017 19:16:10) complex          
  
 executed on           IFC91_ompi date 2018.07.15  03:09:36
 running on   12 total cores
 distrk:  each k-point on   12 cores,    1 groups
 distr:  one band on NCORES_PER_BAND=   6 cores,    2 groups


--------------------------------------------------------------------------------------------------------


 INCAR:
 POTCAR:    PAW_PBE Si 05Jan2001                  
 POTCAR:    PAW_PBE Ge 05Jan2001                  
 POTCAR:    PAW_PBE H 15Jun2001                   
 POTCAR:    PAW_PBE Si 05Jan2001                  
   VRHFIN =Si: s2p2                                                             
   LEXCH  = PE                                                                  
   EATOM  =   103.0669 eV,    7.5752 Ry                                         
                                                                                
   TITEL  = PAW_PBE Si 05Jan2001                                                
   LULTRA =        F    use ultrasoft PP ?                                      
   IUNSCR =        1    unscreen: 0-lin 1-nonlin 2-no                           
   RPACOR =    1.500    partial core radius                                     
   POMASS =   28.085; ZVAL   =    4.000    mass and valenz                      
   RCORE  =    1.900    outmost cutoff radius                                   
   RWIGS  =    2.480; RWIGS  =    1.312    wigner-seitz radius (au A)           
   ENMAX  =  245.345; ENMIN  =  184.009 eV                                      
   ICORE  =        2    local potential                                         
   LCOR   =        T    correct aug charges                                     
   LPAW   =        T    paw PP                                                  
   EAUG   =  322.069                                                            
   DEXC   =    0.000                                                            
   RMAX   =    1.950    core radius for proj-oper                               
   RAUG   =    1.300    factor for augmentation sphere                          
   RDEP   =    1.993    radius for radial grids                                 
   RDEPT  =    1.837    core radius for aug-charge                              
                                                                                
   Atomic configuration                                                         
    6 entries                                                                   
     n  l   j            E        occ.                                          
     1  0  0.50     -1785.8828   2.0000                                         
     2  0  0.50      -139.4969   2.0000                                         
     2  1  1.50       -95.5546   6.0000                                         
     3  0  0.50       -10.8127   2.0000                                         
     3  1  0.50        -4.0811   2.0000                                         
     3  2  1.50        -4.0817   0.0000                                         
   Description                                                                  
     l       E           TYP  RCUT    TYP  RCUT                                 
     0    -10.8127223     23  1.900                                             
     0     -7.6451159     23  1.900                                             
     1     -4.0811372     23  1.900                                             
     1      2.4879257     23  1.900                                             
     2     -4.0817478      7  1.900                                             
  local pseudopotential read in
  partial core-charges read in
  partial kinetic energy density read in
  atomic valenz-charges read in
  non local Contribution for L=           0  read in
    real space projection operators read in
  non local Contribution for L=           0  read in
    real space projection operators read in
  non local Contribution for L=           1  read in
    real space projection operators read in
  non local Contribution for L=           1  read in
    real space projection operators read in
    PAW grid and wavefunctions read in
 
   number of l-projection  operators is LMAX  =           4
   number of lm-projection operators is LMMAX =           8
 
 POTCAR:    PAW_PBE Ge 05Jan2001                  
   VRHFIN =Ge: s2p2                                                             
   LEXCH  = PE                                                                  
   EATOM  =   104.9960 eV,    7.7170 Ry                                         
                                                                                
   TITEL  = PAW_PBE Ge 05Jan2001                                                
   LULTRA =        F    use ultrasoft PP ?                                      
   IUNSCR =        1    unscreen: 0-lin 1-nonlin 2-no                           
   RPACOR =    2.170    partial core radius                                     
   POMASS =   72.610; ZVAL   =    4.000    mass and valenz                      
   RCORE  =    2.300    outmost cutoff radius                                   
   RWIGS  =    2.300; RWIGS  =    1.217    wigner-seitz radius (au A)           
   ENMAX  =  173.807; ENMIN  =  130.355 eV                                      
   ICORE  =        3    local potential                                         
   LCOR   =        T    correct aug charges                                     
   LPAW   =        T    paw PP                                                  
   EAUG   =  385.843                                                            
   DEXC   =    0.000                                                            
   RMAX   =    2.342    core radius for proj-oper                               
   RAUG   =    1.300    factor for augmentation sphere                          
   RDEP   =    2.318    radius for radial grids                                 
   RDEPT  =    2.103    core radius for aug-charge                              
                                                                                
   Atomic configuration                                                         
   10 entries                                                                   
     n  l   j            E        occ.                                          
     1  0  0.50    -10959.8463   2.0000                                         
     2  0  0.50     -1371.6056   2.0000                                         
     2  1  1.50     -1198.4791   6.0000                                         
     3  0  0.50      -168.4733   2.0000                                         
     3  1  1.50      -115.6019   6.0000                                         
     3  2  2.50       -29.3106  10.0000                                         
     4  0  0.50       -11.7309   2.0000                                         
     4  1  0.50        -3.8952   2.0000                                         
     4  2  1.50        -4.0817   0.0000                                         
     4  3  2.50        -4.0817   0.0000                                         
   Description                                                                  
     l       E           TYP  RCUT    TYP  RCUT                                 
     0    -11.7309493     23  2.300                                             
     0     -7.4578696     23  2.300                                             
     1     -3.8952261     23  2.300                                             
     1      6.1178114     23  2.300                                             
     2     -4.0817478     23  2.300                                             
     3     -1.3605826      7  2.300                                             
  local pseudopotential read in
  partial core-charges read in
  partial kinetic energy density read in
  atomic valenz-charges read in
  non local Contribution for L=           0  read in
    real space projection operators read in
  non local Contribution for L=           0  read in
    real space projection operators read in
  non local Contribution for L=           1  read in
    real space projection operators read in
  non local Contribution for L=           1  read in
    real space projection operators read in
  non local Contribution for L=           2  read in
    real space projection operators read in
    PAW grid and wavefunctions read in
 
   number of l-projection  operators is LMAX  =           5
   number of lm-projection operators is LMMAX =          13
 
 POTCAR:    PAW_PBE H 15Jun2001                   
   VRHFIN =H: ultrasoft test                                                    
   LEXCH  = PE                                                                  
   EATOM  =    12.4884 eV,    0.9179 Ry                                         
                                                                                
   TITEL  = PAW_PBE H 15Jun2001                                                 
   LULTRA =        F    use ultrasoft PP ?                                      
   IUNSCR =        0    unscreen: 0-lin 1-nonlin 2-no                           
   RPACOR =    0.000    partial core radius                                     
   POMASS =    1.000; ZVAL   =    1.000    mass and valenz                      
   RCORE  =    1.100    outmost cutoff radius                                   
   RWIGS  =    0.700; RWIGS  =    0.370    wigner-seitz radius (au A)           
   ENMAX  =  250.000; ENMIN  =  200.000 eV                                      
   RCLOC  =    0.701    cutoff for local pot                                    
   LCOR   =        T    correct aug charges                                     
   LPAW   =        T    paw PP                                                  
   EAUG   =  400.000                                                            
   RMAX   =    1.123    core radius for proj-oper                               
   RAUG   =    1.200    factor for augmentation sphere                          
   RDEP   =    1.112    radius for radial grids                                 
   RDEPT  =    0.926    core radius for aug-charge                              
                                                                                
   Atomic configuration                                                         
    2 entries                                                                   
     n  l   j            E        occ.                                          
     1  0  0.50        -6.4927   1.0000                                         
     2  1  0.50        -3.4015   0.0000                                         
   Description                                                                  
     l       E           TYP  RCUT    TYP  RCUT                                 
     0     -6.4927494     23  1.100                                             
     0      6.8029130     23  1.100                                             
     1     -4.0817478     23  1.100                                             
  local pseudopotential read in
  atomic valenz-charges read in
  non local Contribution for L=           0  read in
    real space projection operators read in
  non local Contribution for L=           0  read in
    real space projection operators read in
  non local Contribution for L=           1  read in
    real space projection operators read in
    PAW grid and wavefunctions read in
 
   number of l-projection  operators is LMAX  =           3
   number of lm-projection operators is LMMAX =           5
 

 ----------------------------------------------------------------------------- 
|                                                                             |
|  ADVICE TO THIS USER RUNNING 'VASP/VAMP'   (HEAR YOUR MASTER'S VOICE ...):  |
|                                                                             |
|      You have a (more or less) 'large supercell' and for larger cells       |
|      it might be more efficient to use real space projection opertators     |
|      So try LREAL= Auto  in the INCAR   file.                               |
|      Mind:          For very  accurate calculation you might also keep the  |
|      reciprocal projection scheme          (i.e. LREAL=.FALSE.)             |
|                                                                             |
 ----------------------------------------------------------------------------- 

  PAW_PBE Si 05Jan2001                  :
 energy of atom  1       EATOM= -103.0669
 kinetic energy error for atom=    0.0012 (will be added to EATOM!!)
  PAW_PBE Ge 05Jan2001                  :
 energy of atom  2       EATOM= -104.9960
 kinetic energy error for atom=    0.0003 (will be added to EATOM!!)
  PAW_PBE H 15Jun2001                   :
 energy of atom  3       EATOM=  -12.4884
 kinetic energy error for atom=    0.0098 (will be added to EATOM!!)
 
 
 POSCAR: SiGeH16                                 
  positions in direct lattice
  No initial velocities read in
 exchange correlation table for  LEXCH =        8
   RHO(1)=    0.500       N(1)  =     2000
   RHO(2)=  100.500       N(2)  =     4000
 


--------------------------------------------------------------------------------------------------------


 ion  position               nearest neighbor table
   1  0.475  0.556  0.385-  18 1.55   6 2.39   2 2.39   3 2.39
   2  0.369  0.539  0.436-  23 1.55  24 1.55   4 2.39   1 2.39
   3  0.542  0.457  0.396-  17 1.55  16 1.55   7 2.39   1 2.39
   4  0.385  0.515  0.552-  22 1.55  10 2.39   9 2.39   2 2.39
   5  0.547  0.624  0.554-  19 1.55   6 2.39   8 2.39  10 2.39
   6  0.531  0.648  0.437-  25 1.55  26 1.55   5 2.39   1 2.39
   7  0.557  0.433  0.512-  13 1.55   3 2.39   8 2.39   9 2.39
   8  0.613  0.525  0.565-  15 1.55  14 1.55   5 2.39   7 2.39
   9  0.451  0.416  0.564-  12 1.55  11 1.55   4 2.39   7 2.39
  10  0.440  0.606  0.605-  20 1.55  21 1.55   4 2.39   5 2.39
  11  0.415  0.357  0.529-   9 1.55
  12  0.461  0.400  0.639-   9 1.55
  13  0.600  0.369  0.520-   7 1.55
  14  0.682  0.536  0.531-   8 1.55
  15  0.623  0.509  0.640-   8 1.55
  16  0.611  0.469  0.363-   3 1.55
  17  0.506  0.398  0.362-   3 1.55
  18  0.465  0.572  0.309-   1 1.55
  19  0.583  0.683  0.588-   5 1.55
  20  0.451  0.590  0.680-  10 1.55
  21  0.397  0.670  0.598-  10 1.55
  22  0.316  0.504  0.586-   4 1.55
  23  0.333  0.479  0.402-   2 1.55
  24  0.326  0.603  0.429-   2 1.55
  25  0.488  0.712  0.430-   6 1.55
  26  0.600  0.659  0.404-   6 1.55
 
  LATTYP: Found a simple cubic cell.
 ALAT       =    20.0000000000
  
  Lattice vectors:
  
 A1 = (  20.0000000000,   0.0000000000,   0.0000000000)
 A2 = (   0.0000000000,  20.0000000000,   0.0000000000)
 A3 = (   0.0000000000,   0.0000000000,  20.0000000000)


Analysis of symmetry for initial positions (statically):
=====================================================================
 Subroutine PRICEL returns:
 Original cell was already a primitive cell.
 

 Routine SETGRP: Setting up the symmetry group for a 
 simple cubic supercell.


 Subroutine GETGRP returns: Found  1 space group operations
 (whereof  1 operations were pure point group operations)
 out of a pool of 48 trial point group operations.


The static configuration has the point symmetry C_1 .


Analysis of symmetry for dynamics (positions and initial velocities):
=====================================================================
 Subroutine PRICEL returns:
 Original cell was already a primitive cell.
 

 Routine SETGRP: Setting up the symmetry group for a 
 simple cubic supercell.


 Subroutine GETGRP returns: Found  1 space group operations
 (whereof  1 operations were pure point group operations)
 out of a pool of 48 trial point group operations.


The dynamic configuration has the point symmetry C_1 .


 Subroutine INISYM returns: Found  1 space group operations
 (whereof  1 operations are pure point group operations),
 and found     1 'primitive' translations

 
 
 KPOINTS: Automatic mesh                          

Automatic generation of k-mesh.
Space group operators:
 irot       det(A)        alpha          n_x          n_y          n_z        tau_x        tau_y        tau_z
    1     1.000000     0.000000     1.000000     0.000000     0.000000     0.000000     0.000000     0.000000
 
 Subroutine IBZKPT returns following result:
 ===========================================
 
 Found      1 irreducible k-points:
 
 Following reciprocal coordinates:
            Coordinates               Weight
  0.000000  0.000000  0.000000      1.000000
 
 Following cartesian coordinates:
            Coordinates               Weight
  0.000000  0.000000  0.000000      1.000000
 


--------------------------------------------------------------------------------------------------------




 Dimension of arrays:
   k-points           NKPTS =      1   k-points in BZ     NKDIM =      1   number of bands    NBANDS=     42
   number of dos      NEDOS =    301   number of ions     NIONS =     26
   non local maximal  LDIM  =      5   non local SUM 2l+1 LMDIM =     13
   total plane-waves  NPLWV = 941192
   max r-space proj   IRMAX =      1   max aug-charges    IRDMAX=   6593
   dimension x,y,z NGX =    98 NGY =   98 NGZ =   98
   dimension x,y,z NGXF=   196 NGYF=  196 NGZF=  196
   support grid    NGXF=   196 NGYF=  196 NGZF=  196
   ions per type =               5   5  16
   NGX,Y,Z   is equivalent  to a cutoff of   8.15,  8.15,  8.15 a.u.
   NGXF,Y,Z  is equivalent  to a cutoff of  16.29, 16.29, 16.29 a.u.

 SYSTEM =  SiGe                                    
 POSCAR =  SiGeH16                                 

 Startparameter for this run:
   NWRITE =      2    write-flag & timer
   PREC   = normal    normal or accurate (medium, high low for compatibility)
   ISTART =      0    job   : 0-new  1-cont  2-samecut
   ICHARG =      2    charge: 1-file 2-atom 10-const
   ISPIN  =      1    spin polarized calculation?
   LNONCOLLINEAR =      F non collinear calculations
   LSORBIT =      F    spin-orbit coupling
   INIWAV =      1    electr: 0-lowe 1-rand  2-diag
   LASPH  =      F    aspherical Exc in radial PAW
   METAGGA=      F    non-selfconsistent MetaGGA calc.

 Electronic Relaxation 1
   ENCUT  =  400.0 eV  29.40 Ry    5.42 a.u.  32.61 32.61 32.61*2*pi/ulx,y,z
   ENINI  =  400.0     initial cutoff
   ENAUG  =  400.0 eV  augmentation charge cutoff
   NELM   =     60;   NELMIN=  2; NELMDL= -5     # of ELM steps 
   EDIFF  = 0.1E-05   stopping-criterion for ELM
   LREAL  =      F    real-space projection
   NLSPLINE    = F    spline interpolate recip. space projectors
   LCOMPAT=      F    compatible to vasp.4.4
   GGA_COMPAT  = T    GGA compatible to vasp.4.4-vasp.4.6
   LMAXPAW     = -100 max onsite density
   LMAXMIX     =    2 max onsite mixed and CHGCAR
   VOSKOWN=      0    Vosko Wilk Nusair interpolation
   ROPT   =    0.00000   0.00000   0.00000
 Ionic relaxation
   EDIFFG = -.2E-01   stopping-criterion for IOM
   NSW    =    200    number of steps for IOM
   NBLOCK =      1;   KBLOCK =    200    inner block; outer block 
   IBRION =      2    ionic relax: 0-MD 1-quasi-New 2-CG
   NFREE  =      1    steps in history (QN), initial steepest desc. (CG)
   ISIF   =      2    stress and relaxation
   IWAVPR =     11    prediction:  0-non 1-charg 2-wave 3-comb
   ISYM   =      2    0-nonsym 1-usesym 2-fastsym
   LCORR  =      T    Harris-Foulkes like correction to forces

   POTIM  = 0.5000    time-step for ionic-motion
   TEIN   =    0.0    initial temperature
   TEBEG  =    0.0;   TEEND  =   0.0 temperature during run
   SMASS  =  -3.00    Nose mass-parameter (am)
   estimated Nose-frequenzy (Omega)   =  0.10E-29 period in steps =****** mass=  -0.914E-26a.u.
   SCALEE = 1.0000    scale energy and forces
   NPACO  =    256;   APACO  = 16.0  distance and # of slots for P.C.
   PSTRESS=    0.0 pullay stress

  Mass of Ions in am
   POMASS =  28.09 72.61  1.00
  Ionic Valenz
   ZVAL   =   4.00  4.00  1.00
  Atomic Wigner-Seitz radii
   RWIGS  =  -1.00 -1.00 -1.00
  virtual crystal weights 
   VCA    =   1.00  1.00  1.00
   NELECT =      56.0000    total number of electrons
   NUPDOWN=      -1.0000    fix difference up-down

 DOS related values:
   EMIN   =  10.00;   EMAX   =-10.00  energy-range for DOS
   EFERMI =   0.00
   ISMEAR =     0;   SIGMA  =   0.20  broadening in eV -4-tet -1-fermi 0-gaus

 Electronic relaxation 2 (details)
   IALGO  =     38    algorithm
   LDIAG  =      T    sub-space diagonalisation (order eigenvalues)
   LSUBROT=      F    optimize rotation matrix (better conditioning)
   TURBO    =      0    0=normal 1=particle mesh
   IRESTART =      0    0=no restart 2=restart with 2 vectors
   NREBOOT  =      0    no. of reboots
   NMIN     =      0    reboot dimension
   EREF     =   0.00    reference energy to select bands
   IMIX   =      4    mixing-type and parameters
     AMIX     =   0.40;   BMIX     =  1.00
     AMIX_MAG =   1.60;   BMIX_MAG =  1.00
     AMIN     =   0.10
     WC   =   100.;   INIMIX=   1;  MIXPRE=   1;  MAXMIX= -45

 Intra band minimization:
   WEIMIN = 0.0010     energy-eigenvalue tresh-hold
   EBREAK =  0.60E-08  absolut break condition
   DEPER  =   0.30     relativ break condition  

   TIME   =   0.40     timestep for ELM

  volume/ion in A,a.u.               =     307.69      2076.41
  Fermi-wavevector in a.u.,A,eV,Ry     =   0.313166  0.591797  1.334361  0.098073
  Thomas-Fermi vector in A             =   1.193276
 
 Write flags
   LWAVE        =      T    write WAVECAR
   LDOWNSAMPLE  =      F    k-point downsampling of WAVECAR
   LCHARG       =      T    write CHGCAR
   LVTOT        =      F    write LOCPOT, total local potential
   LVHAR        =      F    write LOCPOT, Hartree potential only
   LELF         =      F    write electronic localiz. function (ELF)
   LORBIT       =      0    0 simple, 1 ext, 2 COOP (PROOUT), +10 PAW based schemes


 Dipole corrections
   LMONO  =      F    monopole corrections only (constant potential shift)
   LDIPOL =      F    correct potential (dipole corrections)
   IDIPOL =      0    1-x, 2-y, 3-z, 4-all directions 
   EPSILON=  1.0000000 bulk dielectric constant

 Exchange correlation treatment:
   GGA     =    --    GGA type
   LEXCH   =     8    internal setting for exchange type
   VOSKOWN=      0    Vosko Wilk Nusair interpolation
   LHFCALC =     F    Hartree Fock is set to
   LHFONE  =     F    Hartree Fock one center treatment
   AEXX    =    0.0000 exact exchange contribution

 Linear response parameters
   LEPSILON=     F    determine dielectric tensor
   LRPA    =     F    only Hartree local field effects (RPA)
   LNABLA  =     F    use nabla operator in PAW spheres
   LVEL    =     F    velocity operator in full k-point grid
   LINTERFAST=   F  fast interpolation
   KINTER  =     0    interpolate to denser k-point grid
   CSHIFT  =0.1000    complex shift for real part using Kramers Kronig
   OMEGAMAX=  -1.0    maximum frequency
   DEG_THRESHOLD= 0.2000000E-02 threshold for treating states as degnerate
   RTIME   =   -0.100 relaxation time in fs
  (WPLASMAI=    0.000 imaginary part of plasma frequency in eV, 0.658/RTIME)
   DFIELD  = 0.0000000 0.0000000 0.0000000 field for delta impulse in time
 
 Orbital magnetization related:
   ORBITALMAG=     F  switch on orbital magnetization
   LCHIMAG   =     F  perturbation theory with respect to B field
   DQ        =  0.001000  dq finite difference perturbation B field
   LLRAUG    =     F  two centre corrections for induced B field



--------------------------------------------------------------------------------------------------------


 conjugate gradient relaxation of ions
 charge density and potential will be updated during run
 non-spin polarized calculation
 Variant of blocked Davidson
 Davidson routine will perform the subspace rotation
 perform sub-space diagonalisation
    after iterative eigenvector-optimisation
 modified Broyden-mixing scheme, WC =      100.0
 initial mixing is a Kerker type mixing with AMIX =  0.4000 and BMIX =      1.0000
 Hartree-type preconditioning will be used
 using additional bands           14
 reciprocal scheme for non local part
 use partial core corrections
 calculate Harris-corrections to forces 
   (improved forces if not selfconsistent)
 use gradient corrections 
 use of overlap-Matrix (Vanderbilt PP)
 Gauss-broadening in eV      SIGMA  =   0.20


--------------------------------------------------------------------------------------------------------


  energy-cutoff  :      400.00
  volume of cell :     8000.00
      direct lattice vectors                 reciprocal lattice vectors
    20.000000000  0.000000000  0.000000000     0.050000000  0.000000000  0.000000000
     0.000000000 20.000000000  0.000000000     0.000000000  0.050000000  0.000000000
     0.000000000  0.000000000 20.000000000     0.000000000  0.000000000  0.050000000

  length of vectors
    20.000000000 20.000000000 20.000000000     0.050000000  0.050000000  0.050000000


 
 k-points in units of 2pi/SCALE and weight: Automatic mesh                          
   0.00000000  0.00000000  0.00000000       1.000
 
 k-points in reciprocal lattice and weights: Automatic mesh                          
   0.00000000  0.00000000  0.00000000       1.000
 
 position of ions in fractional coordinates (direct lattice) 
   0.47547100  0.55626000  0.38465300
   0.36907800  0.53906000  0.43641200
   0.54179100  0.45744600  0.39613600
   0.38461900  0.51474100  0.55243500
   0.54669200  0.62364400  0.55351800
   0.53111600  0.64794100  0.43749600
   0.55736800  0.43311000  0.51215000
   0.61299700  0.52481700  0.56496600
   0.45095700  0.41593600  0.56388300
   0.44028400  0.60643000  0.60524300
   0.41490100  0.35665000  0.52940300
   0.46117000  0.40042600  0.63910800
   0.60034800  0.36907000  0.51957800
   0.68182700  0.53600700  0.53118700
   0.62280400  0.50903400  0.64018900
   0.61080000  0.46880600  0.36278200
   0.50550800  0.39805500  0.36207700
   0.46538400  0.57201900  0.30946400
   0.58275500  0.68306700  0.58775000
   0.45052500  0.59044300  0.68036400
   0.39732000  0.67044900  0.59753500
   0.31566200  0.50359800  0.58596500
   0.33322800  0.47946500  0.40225200
   0.32629100  0.60324700  0.42912600
   0.48792300  0.71185500  0.43020800
   0.60015100  0.65882400  0.40403700
 
 position of ions in cartesian coordinates  (Angst):
   9.50942000 11.12520000  7.69306000
   7.38156000 10.78120000  8.72824000
  10.83582000  9.14892000  7.92272000
   7.69238000 10.29482000 11.04870000
  10.93384000 12.47288000 11.07036000
  10.62232000 12.95882000  8.74992000
  11.14736000  8.66220000 10.24300000
  12.25994000 10.49634000 11.29932000
   9.01914000  8.31872000 11.27766000
   8.80568000 12.12860000 12.10486000
   8.29802000  7.13300000 10.58806000
   9.22340000  8.00852000 12.78216000
  12.00696000  7.38140000 10.39156000
  13.63654000 10.72014000 10.62374000
  12.45608000 10.18068000 12.80378000
  12.21600000  9.37612000  7.25564000
  10.11016000  7.96110000  7.24154000
   9.30768000 11.44038000  6.18928000
  11.65510000 13.66134000 11.75500000
   9.01050000 11.80886000 13.60728000
   7.94640000 13.40898000 11.95070000
   6.31324000 10.07196000 11.71930000
   6.66456000  9.58930000  8.04504000
   6.52582000 12.06494000  8.58252000
   9.75846000 14.23710000  8.60416000
  12.00302000 13.17648000  8.08074000
 


--------------------------------------------------------------------------------------------------------


 k-point  1 :   0.0000 0.0000 0.0000  plane waves:  145165

 maximum and minimum number of plane-waves per node :     24209    24180

 maximum number of plane-waves:    145165
 maximum index in each direction: 
   IXMAX=   32   IYMAX=   32   IZMAX=   32
   IXMIN=  -32   IYMIN=  -32   IZMIN=  -32


 parallel 3D FFT for wavefunctions:
    minimum data exchange during FFTs selected (reduces bandwidth)
 parallel 3D FFT for charge:
    minimum data exchange during FFTs selected (reduces bandwidth)


 total amount of memory used by VASP MPI-rank0   131440. kBytes
=======================================================================

   base      :      30000. kBytes
   nonl-proj :      17624. kBytes
   fftplans  :      26957. kBytes
   grid      :      48673. kBytes
   one-center:         40. kBytes
   wavefun   :       8146. kBytes
 
     INWAV:  cpu time    0.0000: real time    0.0000
 Broyden mixing: mesh for mixing (old mesh)
   NGX = 65   NGY = 65   NGZ = 65
  (NGX  =196   NGY  =196   NGZ  =196)
  gives a total of 274625 points

 initial charge density was supplied:
 charge density of overlapping atoms calculated
 number of electron      56.0000000 magnetization 
 keeping initial charge density in first step


--------------------------------------------------------------------------------------------------------


 Maximum index for augmentation-charges          565 (set IRDMAX)


--------------------------------------------------------------------------------------------------------


 First call to EWALD:  gamma=   0.089
 Maximum number of real-space cells 3x 3x 3
 Maximum number of reciprocal cells 3x 3x 3

    FEWALD:  cpu time    0.0030: real time    0.0031


--------------------------------------- Iteration      1(   1)  ---------------------------------------


    POTLOK:  cpu time    1.7687: real time    1.7704
    SETDIJ:  cpu time    0.0090: real time    0.0084
     EDDAV:  cpu time   11.0883: real time   11.0933
       DOS:  cpu time    0.0000: real time    0.0003
    --------------------------------------------
      LOOP:  cpu time   12.8660: real time   12.8724

 eigenvalue-minimisations  :   116
 total energy-change (2. order) : 0.2039898E+03  (-0.1047970E+04)
 number of electron      56.0000000 magnetization 
 augmentation part       56.0000000 magnetization 

 Free energy of the ion-electron system (eV)
  ---------------------------------------------------
  alpha Z        PSCENC =         2.23981092
  Ewald energy   TEWEN  =      2629.98113996
  -Hartree energ DENC   =     -3441.42584178
  -exchange      EXHF   =         0.00000000
  -V(xc)+E(xc)   XCENC  =       -51.23347553
  PAW double counting   =       915.48941305     -755.22719771
  entropy T*S    EENTRO =        -0.42575410
  eigenvalues    EBANDS =      -335.37346611
  atomic energy  EATOM  =      1239.96520364
  Solvation  Ediel_sol  =         0.00000000
  ---------------------------------------------------
  free energy    TOTEN  =       203.98983233 eV

  energy without entropy =      204.41558643  energy(sigma->0) =      204.20270938


--------------------------------------------------------------------------------------------------------




--------------------------------------- Iteration      1(   2)  ---------------------------------------


     EDDAV:  cpu time   12.6681: real time   12.6686
       DOS:  cpu time    0.0000: real time    0.0002
    --------------------------------------------
      LOOP:  cpu time   12.6681: real time   12.6688

 eigenvalue-minimisations  :   136
 total energy-change (2. order) :-0.2292517E+03  (-0.2155371E+03)
 number of electron      56.0000000 magnetization 
 augmentation part       56.0000000 magnetization 

 Free energy of the ion-electron system (eV)
  ---------------------------------------------------
  alpha Z        PSCENC =         2.23981092
  Ewald energy   TEWEN  =      2629.98113996
  -Hartree energ DENC   =     -3441.42584178
  -exchange      EXHF   =         0.00000000
  -V(xc)+E(xc)   XCENC  =       -51.23347553
  PAW double counting   =       915.48941305     -755.22719771
  entropy T*S    EENTRO =        -0.00000000
  eigenvalues    EBANDS =      -565.05096178
  atomic energy  EATOM  =      1239.96520364
  Solvation  Ediel_sol  =         0.00000000
  ---------------------------------------------------
  free energy    TOTEN  =       -25.26190924 eV

  energy without entropy =      -25.26190924  energy(sigma->0) =      -25.26190924


--------------------------------------------------------------------------------------------------------




--------------------------------------- Iteration      1(   3)  ---------------------------------------


     EDDAV:  cpu time   10.9583: real time   10.9601
       DOS:  cpu time    0.0000: real time    0.0002
    --------------------------------------------
      LOOP:  cpu time   10.9583: real time   10.9603

 eigenvalue-minimisations  :   112
 total energy-change (2. order) :-0.7605210E+02  (-0.7587103E+02)
 number of electron      56.0000000 magnetization 
 augmentation part       56.0000000 magnetization 

 Free energy of the ion-electron system (eV)
  ---------------------------------------------------
  alpha Z        PSCENC =         2.23981092
  Ewald energy   TEWEN  =      2629.98113996
  -Hartree energ DENC   =     -3441.42584178
  -exchange      EXHF   =         0.00000000
  -V(xc)+E(xc)   XCENC  =       -51.23347553
  PAW double counting   =       915.48941305     -755.22719771
  entropy T*S    EENTRO =        -0.00000000
  eigenvalues    EBANDS =      -641.10306212
  atomic energy  EATOM  =      1239.96520364
  Solvation  Ediel_sol  =         0.00000000
  ---------------------------------------------------
  free energy    TOTEN  =      -101.31400957 eV

  energy without entropy =     -101.31400957  energy(sigma->0) =     -101.31400957


--------------------------------------------------------------------------------------------------------




--------------------------------------- Iteration      1(   4)  ---------------------------------------


     EDDAV:  cpu time   10.2394: real time   10.2352
       DOS:  cpu time    0.0000: real time    0.0002
    --------------------------------------------
      LOOP:  cpu time   10.2394: real time   10.2354

 eigenvalue-minimisations  :   104
 total energy-change (2. order) :-0.4380253E+01  (-0.4364143E+01)
 number of electron      56.0000000 magnetization 
 augmentation part       56.0000000 magnetization 

 Free energy of the ion-electron system (eV)
  ---------------------------------------------------
  alpha Z        PSCENC =         2.23981092
  Ewald energy   TEWEN  =      2629.98113996
  -Hartree energ DENC   =     -3441.42584178
  -exchange      EXHF   =         0.00000000
  -V(xc)+E(xc)   XCENC  =       -51.23347553
  PAW double counting   =       915.48941305     -755.22719771
  entropy T*S    EENTRO =        -0.00000000
  eigenvalues    EBANDS =      -645.48331495
  atomic energy  EATOM  =      1239.96520364
  Solvation  Ediel_sol  =         0.00000000
  ---------------------------------------------------
  free energy    TOTEN  =      -105.69426240 eV

  energy without entropy =     -105.69426240  energy(sigma->0) =     -105.69426240


--------------------------------------------------------------------------------------------------------




--------------------------------------- Iteration      1(   5)  ---------------------------------------


     EDDAV:  cpu time   12.6641: real time   12.6587
       DOS:  cpu time    0.0000: real time    0.0003
    CHARGE:  cpu time    0.4849: real time    0.4854
    MIXING:  cpu time    0.0440: real time    0.0438
    --------------------------------------------
      LOOP:  cpu time   13.1930: real time   13.1882

 eigenvalue-minimisations  :   136
 total energy-change (2. order) :-0.7511937E-01  (-0.7506015E-01)
 number of electron      56.0000017 magnetization 
 augmentation part       -3.9376430 magnetization 

 Broyden mixing:
  rms(total) = 0.14746E+01    rms(broyden)= 0.14745E+01
  rms(prec ) = 0.15705E+01
  weight for this iteration     100.00

 Free energy of the ion-electron system (eV)
  ---------------------------------------------------
  alpha Z        PSCENC =         2.23981092
  Ewald energy   TEWEN  =      2629.98113996
  -Hartree energ DENC   =     -3441.42584178
  -exchange      EXHF   =         0.00000000
  -V(xc)+E(xc)   XCENC  =       -51.23347553
  PAW double counting   =       915.48941305     -755.22719771
  entropy T*S    EENTRO =        -0.00000000
  eigenvalues    EBANDS =      -645.55843432
  atomic energy  EATOM  =      1239.96520364
  Solvation  Ediel_sol  =         0.00000000
  ---------------------------------------------------
  free energy    TOTEN  =      -105.76938177 eV

  energy without entropy =     -105.76938177  energy(sigma->0) =     -105.76938177


--------------------------------------------------------------------------------------------------------




--------------------------------------- Iteration      1(   6)  ---------------------------------------


    POTLOK:  cpu time    1.7607: real time    1.7612
    SETDIJ:  cpu time    0.0080: real time    0.0080
     EDDAV:  cpu time   10.2504: real time   10.2463
       DOS:  cpu time    0.0000: real time    0.0003
    CHARGE:  cpu time    0.4929: real time    0.4919
    MIXING:  cpu time    0.0470: real time    0.0474
    --------------------------------------------
      LOOP:  cpu time   12.5591: real time   12.5552

 eigenvalue-minimisations  :   104
 total energy-change (2. order) : 0.3179147E+01  (-0.1590609E+00)
 number of electron      56.0000015 magnetization 
 augmentation part       -3.9393895 magnetization 

 Broyden mixing:
  rms(total) = 0.85411E+00    rms(broyden)= 0.85410E+00
  rms(prec ) = 0.91271E+00
  weight for this iteration     100.00

 eigenvalues of (default mixing * dielectric matrix)
  average eigenvalue GAMMA=   2.3051
  2.3051

 Free energy of the ion-electron system (eV)
  ---------------------------------------------------
  alpha Z        PSCENC =         2.23981092
  Ewald energy   TEWEN  =      2629.98113996
  -Hartree energ DENC   =     -3472.58430484
  -exchange      EXHF   =         0.00000000
  -V(xc)+E(xc)   XCENC  =       -47.60492239
  PAW double counting   =      1797.83714783    -1638.40861722
  entropy T*S    EENTRO =        -0.00000000
  eigenvalues    EBANDS =      -614.01569230
  atomic energy  EATOM  =      1239.96520364
  Solvation  Ediel_sol  =         0.00000000
  ---------------------------------------------------
  free energy    TOTEN  =      -102.59023442 eV

  energy without entropy =     -102.59023442  energy(sigma->0) =     -102.59023442


--------------------------------------------------------------------------------------------------------




--------------------------------------- Iteration      1(   7)  ---------------------------------------


    POTLOK:  cpu time    1.7307: real time    1.7294
    SETDIJ:  cpu time    0.0100: real time    0.0109
     EDDAV:  cpu time   10.2524: real time   10.2483
       DOS:  cpu time    0.0000: real time    0.0006
    CHARGE:  cpu time    0.4919: real time    0.4913
    MIXING:  cpu time    0.0500: real time    0.0503
    --------------------------------------------
      LOOP:  cpu time   12.5351: real time   12.5308

 eigenvalue-minimisations  :   104
 total energy-change (2. order) : 0.1668133E+01  (-0.4026872E+00)
 number of electron      56.0000014 magnetization 
 augmentation part       -3.9399921 magnetization 

 Broyden mixing:
  rms(total) = 0.12159E+00    rms(broyden)= 0.12144E+00
  rms(prec ) = 0.15266E+00
  weight for this iteration     100.00

 eigenvalues of (default mixing * dielectric matrix)
  average eigenvalue GAMMA=   1.8376
  1.6849  1.9903

 Free energy of the ion-electron system (eV)
  ---------------------------------------------------
  alpha Z        PSCENC =         2.23981092
  Ewald energy   TEWEN  =      2629.98113996
  -Hartree energ DENC   =     -3528.02951214
  -exchange      EXHF   =         0.00000000
  -V(xc)+E(xc)   XCENC  =       -41.85955832
  PAW double counting   =      3723.05265492    -3564.73448294
  entropy T*S    EENTRO =        -0.00000000
  eigenvalues    EBANDS =      -561.53735781
  atomic energy  EATOM  =      1239.96520364
  Solvation  Ediel_sol  =         0.00000000
  ---------------------------------------------------
  free energy    TOTEN  =      -100.92210177 eV

  energy without entropy =     -100.92210177  energy(sigma->0) =     -100.92210177


--------------------------------------------------------------------------------------------------------




--------------------------------------- Iteration      1(   8)  ---------------------------------------


    POTLOK:  cpu time    1.7157: real time    1.7148
    SETDIJ:  cpu time    0.0080: real time    0.0085
     EDDAV:  cpu time   10.2364: real time   10.2324
       DOS:  cpu time    0.0000: real time    0.0004
    CHARGE:  cpu time    0.4879: real time    0.4879
    MIXING:  cpu time    0.0500: real time    0.0500
    --------------------------------------------
      LOOP:  cpu time   12.4981: real time   12.4940

 eigenvalue-minimisations  :   104
 total energy-change (2. order) : 0.5335514E-01  (-0.2567356E-01)
 number of electron      56.0000014 magnetization 
 augmentation part       -3.9354471 magnetization 

 Broyden mixing:
  rms(total) = 0.60819E-01    rms(broyden)= 0.60804E-01
  rms(prec ) = 0.80324E-01
  weight for this iteration     100.00

 eigenvalues of (default mixing * dielectric matrix)
  average eigenvalue GAMMA=   1.9750
  2.6295  1.6477  1.6477

 Free energy of the ion-electron system (eV)
  ---------------------------------------------------
  alpha Z        PSCENC =         2.23981092
  Ewald energy   TEWEN  =      2629.98113996
  -Hartree energ DENC   =     -3536.01403202
  -exchange      EXHF   =         0.00000000
  -V(xc)+E(xc)   XCENC  =       -41.87894265
  PAW double counting   =      3746.60073629    -3588.19601442
  entropy T*S    EENTRO =        -0.00000000
  eigenvalues    EBANDS =      -553.56664834
  atomic energy  EATOM  =      1239.96520364
  Solvation  Ediel_sol  =         0.00000000
  ---------------------------------------------------
  free energy    TOTEN  =      -100.86874663 eV

  energy without entropy =     -100.86874663  energy(sigma->0) =     -100.86874663


--------------------------------------------------------------------------------------------------------




--------------------------------------- Iteration      1(   9)  ---------------------------------------


    POTLOK:  cpu time    1.7517: real time    1.7529
    SETDIJ:  cpu time    0.0090: real time    0.0087
     EDDAV:  cpu time   11.4443: real time   11.4402
       DOS:  cpu time    0.0000: real time    0.0003
    CHARGE:  cpu time    0.4849: real time    0.4848
    MIXING:  cpu time    0.0540: real time    0.0542
    --------------------------------------------
      LOOP:  cpu time   13.7439: real time   13.7411

 eigenvalue-minimisations  :   120
 total energy-change (2. order) : 0.3549000E-01  (-0.7591774E-02)
 number of electron      56.0000014 magnetization 
 augmentation part       -3.9211766 magnetization 

 Broyden mixing:
  rms(total) = 0.32432E-01    rms(broyden)= 0.32431E-01
  rms(prec ) = 0.44142E-01
  weight for this iteration     100.00

 eigenvalues of (default mixing * dielectric matrix)
  average eigenvalue GAMMA=   1.7429
  2.5008  1.8287  1.8287  0.8135

 Free energy of the ion-electron system (eV)
  ---------------------------------------------------
  alpha Z        PSCENC =         2.23981092
  Ewald energy   TEWEN  =      2629.98113996
  -Hartree energ DENC   =     -3547.77107363
  -exchange      EXHF   =         0.00000000
  -V(xc)+E(xc)   XCENC  =       -41.19947958
  PAW double counting   =      3870.83975837    -3712.47031862
  entropy T*S    EENTRO =        -0.00000000
  eigenvalues    EBANDS =      -542.41829768
  atomic energy  EATOM  =      1239.96520364
  Solvation  Ediel_sol  =         0.00000000
  ---------------------------------------------------
  free energy    TOTEN  =      -100.83325663 eV

  energy without entropy =     -100.83325663  energy(sigma->0) =     -100.83325663


--------------------------------------------------------------------------------------------------------




--------------------------------------- Iteration      1(  10)  ---------------------------------------


    POTLOK:  cpu time    1.7287: real time    1.7282
    SETDIJ:  cpu time    0.0090: real time    0.0085
     EDDAV:  cpu time   10.8444: real time   10.8409
       DOS:  cpu time    0.0000: real time    0.0003
    CHARGE:  cpu time    0.4949: real time    0.4936
    MIXING:  cpu time    0.0570: real time    0.0572
    --------------------------------------------
      LOOP:  cpu time   13.1340: real time   13.1288

 eigenvalue-minimisations  :   112
 total energy-change (2. order) :-0.1772210E-03  (-0.2661124E-03)
 number of electron      56.0000014 magnetization 
 augmentation part       -3.9205036 magnetization 

 Broyden mixing:
  rms(total) = 0.15463E-01    rms(broyden)= 0.15462E-01
  rms(prec ) = 0.28720E-01
  weight for this iteration     100.00

 eigenvalues of (default mixing * dielectric matrix)
  average eigenvalue GAMMA=   1.8829
  2.7215  2.3694  1.0495  1.6369  1.6369

 Free energy of the ion-electron system (eV)
  ---------------------------------------------------
  alpha Z        PSCENC =         2.23981092
  Ewald energy   TEWEN  =      2629.98113996
  -Hartree energ DENC   =     -3549.86696641
  -exchange      EXHF   =         0.00000000
  -V(xc)+E(xc)   XCENC  =       -41.19170989
  PAW double counting   =      3800.06520416    -3641.64916558
  entropy T*S    EENTRO =        -0.00000000
  eigenvalues    EBANDS =      -540.37695064
  atomic energy  EATOM  =      1239.96520364
  Solvation  Ediel_sol  =         0.00000000
  ---------------------------------------------------
  free energy    TOTEN  =      -100.83343385 eV

  energy without entropy =     -100.83343385  energy(sigma->0) =     -100.83343385


--------------------------------------------------------------------------------------------------------




--------------------------------------- Iteration      1(  11)  ---------------------------------------


    POTLOK:  cpu time    1.7387: real time    1.7435
    SETDIJ:  cpu time    0.0160: real time    0.0152
     EDDAV:  cpu time   10.2424: real time   10.2388
       DOS:  cpu time    0.0010: real time    0.0003
    CHARGE:  cpu time    0.4849: real time    0.4850
    MIXING:  cpu time    0.0580: real time    0.0579
    --------------------------------------------
      LOOP:  cpu time   12.5411: real time   12.5408

 eigenvalue-minimisations  :   104
 total energy-change (2. order) : 0.2166578E-03  (-0.6693050E-03)
 number of electron      56.0000014 magnetization 
 augmentation part       -3.9195347 magnetization 

 Broyden mixing:
  rms(total) = 0.79949E-02    rms(broyden)= 0.79946E-02
  rms(prec ) = 0.14476E-01
  weight for this iteration     100.00

 eigenvalues of (default mixing * dielectric matrix)
  average eigenvalue GAMMA=   1.8665
  3.2136  2.5884  1.7312  1.7312  1.0453  0.8895

 Free energy of the ion-electron system (eV)
  ---------------------------------------------------
  alpha Z        PSCENC =         2.23981092
  Ewald energy   TEWEN  =      2629.98113996
  -Hartree energ DENC   =     -3556.72561667
  -exchange      EXHF   =         0.00000000
  -V(xc)+E(xc)   XCENC  =       -40.99616880
  PAW double counting   =      3758.77109449    -3600.31183006
  entropy T*S    EENTRO =        -0.00000000
  eigenvalues    EBANDS =      -533.75685066
  atomic energy  EATOM  =      1239.96520364
  Solvation  Ediel_sol  =         0.00000000
  ---------------------------------------------------
  free energy    TOTEN  =      -100.83321719 eV

  energy without entropy =     -100.83321719  energy(sigma->0) =     -100.83321719


--------------------------------------------------------------------------------------------------------




--------------------------------------- Iteration      1(  12)  ---------------------------------------


    POTLOK:  cpu time    1.7437: real time    1.7434
    SETDIJ:  cpu time    0.0090: real time    0.0085
     EDDAV:  cpu time    9.6445: real time    9.6418
       DOS:  cpu time    0.0010: real time    0.0003
    CHARGE:  cpu time    0.4849: real time    0.4853
    MIXING:  cpu time    0.0610: real time    0.0611
    --------------------------------------------
      LOOP:  cpu time   11.9442: real time   11.9405

 eigenvalue-minimisations  :    96
 total energy-change (2. order) :-0.4097225E-02  (-0.1051799E-03)
 number of electron      56.0000014 magnetization 
 augmentation part       -3.9190002 magnetization 

 Broyden mixing:
  rms(total) = 0.56784E-02    rms(broyden)= 0.56784E-02
  rms(prec ) = 0.99870E-02
  weight for this iteration     100.00

 eigenvalues of (default mixing * dielectric matrix)
  average eigenvalue GAMMA=   2.0738
  4.4773  2.4819  2.4819  1.5740  1.5740  0.9636  0.9636

 Free energy of the ion-electron system (eV)
  ---------------------------------------------------
  alpha Z        PSCENC =         2.23981092
  Ewald energy   TEWEN  =      2629.98113996
  -Hartree energ DENC   =     -3558.98341851
  -exchange      EXHF   =         0.00000000
  -V(xc)+E(xc)   XCENC  =       -40.95521370
  PAW double counting   =      3752.78601282    -3594.32515774
  entropy T*S    EENTRO =        -0.00000000
  eigenvalues    EBANDS =      -531.54569179
  atomic energy  EATOM  =      1239.96520364
  Solvation  Ediel_sol  =         0.00000000
  ---------------------------------------------------
  free energy    TOTEN  =      -100.83731442 eV

  energy without entropy =     -100.83731442  energy(sigma->0) =     -100.83731442


--------------------------------------------------------------------------------------------------------




--------------------------------------- Iteration      1(  13)  ---------------------------------------


    POTLOK:  cpu time    1.7437: real time    1.7425
    SETDIJ:  cpu time    0.0080: real time    0.0081
     EDDAV:  cpu time   10.8534: real time   10.8489
       DOS:  cpu time    0.0000: real time    0.0003
    CHARGE:  cpu time    0.4909: real time    0.4913
    MIXING:  cpu time    0.0660: real time    0.0658
    --------------------------------------------
      LOOP:  cpu time   13.1620: real time   13.1571

 eigenvalue-minimisations  :   112
 total energy-change (2. order) :-0.4967289E-02  (-0.1928027E-03)
 number of electron      56.0000014 magnetization 
 augmentation part       -3.9186788 magnetization 

 Broyden mixing:
  rms(total) = 0.34367E-02    rms(broyden)= 0.34366E-02
  rms(prec ) = 0.51594E-02
  weight for this iteration     100.00

 eigenvalues of (default mixing * dielectric matrix)
  average eigenvalue GAMMA=   2.1951
  5.6788  2.8871  2.3456  1.7909  1.7909  0.9607  0.9607  1.1459

 Free energy of the ion-electron system (eV)
  ---------------------------------------------------
  alpha Z        PSCENC =         2.23981092
  Ewald energy   TEWEN  =      2629.98113996
  -Hartree energ DENC   =     -3561.88669259
  -exchange      EXHF   =         0.00000000
  -V(xc)+E(xc)   XCENC  =       -40.90142730
  PAW double counting   =      3758.68254073    -3600.23104941
  entropy T*S    EENTRO =        -0.00000000
  eigenvalues    EBANDS =      -528.69180765
  atomic energy  EATOM  =      1239.96520364
  Solvation  Ediel_sol  =         0.00000000
  ---------------------------------------------------
  free energy    TOTEN  =      -100.84228171 eV

  energy without entropy =     -100.84228171  energy(sigma->0) =     -100.84228171


--------------------------------------------------------------------------------------------------------




--------------------------------------- Iteration      1(  14)  ---------------------------------------


    POTLOK:  cpu time    1.7477: real time    1.7498
    SETDIJ:  cpu time    0.0090: real time    0.0085
     EDDAV:  cpu time   10.8344: real time   10.8305
       DOS:  cpu time    0.0000: real time    0.0003
    CHARGE:  cpu time    0.4889: real time    0.4891
    MIXING:  cpu time    0.0720: real time    0.0715
    --------------------------------------------
      LOOP:  cpu time   13.1520: real time   13.1497

 eigenvalue-minimisations  :   112
 total energy-change (2. order) :-0.3888778E-02  (-0.3061105E-04)
 number of electron      56.0000014 magnetization 
 augmentation part       -3.9181656 magnetization 

 Broyden mixing:
  rms(total) = 0.15557E-02    rms(broyden)= 0.15557E-02
  rms(prec ) = 0.27480E-02
  weight for this iteration     100.00

 eigenvalues of (default mixing * dielectric matrix)
  average eigenvalue GAMMA=   2.3141
  6.5439  2.8762  2.8762  2.2304  1.6517  1.6517  1.0792  0.9587  0.9587

 Free energy of the ion-electron system (eV)
  ---------------------------------------------------
  alpha Z        PSCENC =         2.23981092
  Ewald energy   TEWEN  =      2629.98113996
  -Hartree energ DENC   =     -3562.56525667
  -exchange      EXHF   =         0.00000000
  -V(xc)+E(xc)   XCENC  =       -40.91571436
  PAW double counting   =      3756.71930556    -3598.26767794
  entropy T*S    EENTRO =        -0.00000000
  eigenvalues    EBANDS =      -528.00298158
  atomic energy  EATOM  =      1239.96520364
  Solvation  Ediel_sol  =         0.00000000
  ---------------------------------------------------
  free energy    TOTEN  =      -100.84617048 eV

  energy without entropy =     -100.84617048  energy(sigma->0) =     -100.84617048


--------------------------------------------------------------------------------------------------------




--------------------------------------- Iteration      1(  15)  ---------------------------------------


    POTLOK:  cpu time    1.7327: real time    1.7322
    SETDIJ:  cpu time    0.0080: real time    0.0079
     EDDAV:  cpu time   10.8374: real time   10.8335
       DOS:  cpu time    0.0000: real time    0.0002
    CHARGE:  cpu time    0.4989: real time    0.4982
    MIXING:  cpu time    0.0800: real time    0.0803
    --------------------------------------------
      LOOP:  cpu time   13.1570: real time   13.1524

 eigenvalue-minimisations  :   112
 total energy-change (2. order) :-0.4567085E-02  (-0.5697410E-04)
 number of electron      56.0000014 magnetization 
 augmentation part       -3.9179808 magnetization 

 Broyden mixing:
  rms(total) = 0.14612E-02    rms(broyden)= 0.14612E-02
  rms(prec ) = 0.18761E-02
  weight for this iteration     100.00

 eigenvalues of (default mixing * dielectric matrix)
  average eigenvalue GAMMA=   2.2990
  6.7698  3.7459  2.5974  2.0619  1.8635  1.8635  1.2316  0.9642  0.9642  0.9279

 Free energy of the ion-electron system (eV)
  ---------------------------------------------------
  alpha Z        PSCENC =         2.23981092
  Ewald energy   TEWEN  =      2629.98113996
  -Hartree energ DENC   =     -3562.79979868
  -exchange      EXHF   =         0.00000000
  -V(xc)+E(xc)   XCENC  =       -40.92474704
  PAW double counting   =      3760.60038402    -3602.14805635
  entropy T*S    EENTRO =        -0.00000000
  eigenvalues    EBANDS =      -527.76467403
  atomic energy  EATOM  =      1239.96520364
  Solvation  Ediel_sol  =         0.00000000
  ---------------------------------------------------
  free energy    TOTEN  =      -100.85073757 eV

  energy without entropy =     -100.85073757  energy(sigma->0) =     -100.85073757


--------------------------------------------------------------------------------------------------------




--------------------------------------- Iteration      1(  16)  ---------------------------------------


    POTLOK:  cpu time    1.7287: real time    1.7297
    SETDIJ:  cpu time    0.0080: real time    0.0084
     EDDAV:  cpu time   10.8364: real time   10.8314
       DOS:  cpu time    0.0000: real time    0.0004
    CHARGE:  cpu time    0.4849: real time    0.4851
    MIXING:  cpu time    0.0870: real time    0.0868
    --------------------------------------------
      LOOP:  cpu time   13.1450: real time   13.1417

 eigenvalue-minimisations  :   112
 total energy-change (2. order) :-0.8693855E-03  (-0.4078044E-05)
 number of electron      56.0000014 magnetization 
 augmentation part       -3.9181678 magnetization 

 Broyden mixing:
  rms(total) = 0.63680E-03    rms(broyden)= 0.63679E-03
  rms(prec ) = 0.97397E-03
  weight for this iteration     100.00

 eigenvalues of (default mixing * dielectric matrix)
  average eigenvalue GAMMA=   2.4120
  7.3735  4.5966  2.6321  2.6321  1.8111  1.8111  1.3907  1.3907  0.9600  0.9600
  0.9738

 Free energy of the ion-electron system (eV)
  ---------------------------------------------------
  alpha Z        PSCENC =         2.23981092
  Ewald energy   TEWEN  =      2629.98113996
  -Hartree energ DENC   =     -3562.89952911
  -exchange      EXHF   =         0.00000000
  -V(xc)+E(xc)   XCENC  =       -40.92254839
  PAW double counting   =      3760.49311675    -3602.04027911
  entropy T*S    EENTRO =        -0.00000000
  eigenvalues    EBANDS =      -527.66852162
  atomic energy  EATOM  =      1239.96520364
  Solvation  Ediel_sol  =         0.00000000
  ---------------------------------------------------
  free energy    TOTEN  =      -100.85160696 eV

  energy without entropy =     -100.85160696  energy(sigma->0) =     -100.85160696


--------------------------------------------------------------------------------------------------------




--------------------------------------- Iteration      1(  17)  ---------------------------------------


    POTLOK:  cpu time    1.7247: real time    1.7248
    SETDIJ:  cpu time    0.0080: real time    0.0082
     EDDAV:  cpu time   10.2384: real time   10.2343
       DOS:  cpu time    0.0010: real time    0.0003
    CHARGE:  cpu time    0.4879: real time    0.4883
    MIXING:  cpu time    0.0970: real time    0.0969
    --------------------------------------------
      LOOP:  cpu time   12.5571: real time   12.5528

 eigenvalue-minimisations  :   104
 total energy-change (2. order) :-0.1085211E-02  (-0.9218803E-05)
 number of electron      56.0000014 magnetization 
 augmentation part       -3.9183403 magnetization 

 Broyden mixing:
  rms(total) = 0.30733E-03    rms(broyden)= 0.30729E-03
  rms(prec ) = 0.45225E-03
  weight for this iteration     100.00

 eigenvalues of (default mixing * dielectric matrix)
  average eigenvalue GAMMA=   2.3938
  7.5768  4.9835  2.6847  2.6847  1.9376  1.9376  1.4915  1.4915  1.0435  0.9614
  0.9614  0.9717

 Free energy of the ion-electron system (eV)
  ---------------------------------------------------
  alpha Z        PSCENC =         2.23981092
  Ewald energy   TEWEN  =      2629.98113996
  -Hartree energ DENC   =     -3562.92309842
  -exchange      EXHF   =         0.00000000
  -V(xc)+E(xc)   XCENC  =       -40.92463115
  PAW double counting   =      3758.99758072    -3600.54365484
  entropy T*S    EENTRO =        -0.00000000
  eigenvalues    EBANDS =      -527.64504300
  atomic energy  EATOM  =      1239.96520364
  Solvation  Ediel_sol  =         0.00000000
  ---------------------------------------------------
  free energy    TOTEN  =      -100.85269217 eV

  energy without entropy =     -100.85269217  energy(sigma->0) =     -100.85269217


--------------------------------------------------------------------------------------------------------




--------------------------------------- Iteration      1(  18)  ---------------------------------------


    POTLOK:  cpu time    1.7307: real time    1.7302
    SETDIJ:  cpu time    0.0080: real time    0.0082
     EDDAV:  cpu time   10.2574: real time   10.2539
       DOS:  cpu time    0.0010: real time    0.0004
    CHARGE:  cpu time    0.4839: real time    0.4841
    MIXING:  cpu time    0.1070: real time    0.1078
    --------------------------------------------
      LOOP:  cpu time   12.5881: real time   12.5845

 eigenvalue-minimisations  :   104
 total energy-change (2. order) :-0.2606833E-03  (-0.8341307E-06)
 number of electron      56.0000014 magnetization 
 augmentation part       -3.9183272 magnetization 

 Broyden mixing:
  rms(total) = 0.17667E-03    rms(broyden)= 0.17664E-03
  rms(prec ) = 0.26657E-03
  weight for this iteration     100.00

 eigenvalues of (default mixing * dielectric matrix)
  average eigenvalue GAMMA=   2.4825
  8.1662  5.7403  3.1773  2.5876  2.3738  1.7740  1.7740  1.3910  1.3910  0.9955
  0.9955  0.9532  0.9532

 Free energy of the ion-electron system (eV)
  ---------------------------------------------------
  alpha Z        PSCENC =         2.23981092
  Ewald energy   TEWEN  =      2629.98113996
  -Hartree energ DENC   =     -3562.95176024
  -exchange      EXHF   =         0.00000000
  -V(xc)+E(xc)   XCENC  =       -40.92438948
  PAW double counting   =      3758.82980422    -3600.37633286
  entropy T*S    EENTRO =        -0.00000000
  eigenvalues    EBANDS =      -527.61642900
  atomic energy  EATOM  =      1239.96520364
  Solvation  Ediel_sol  =         0.00000000
  ---------------------------------------------------
  free energy    TOTEN  =      -100.85295285 eV

  energy without entropy =     -100.85295285  energy(sigma->0) =     -100.85295285


--------------------------------------------------------------------------------------------------------




--------------------------------------- Iteration      1(  19)  ---------------------------------------


    POTLOK:  cpu time    1.7757: real time    1.7763
    SETDIJ:  cpu time    0.0090: real time    0.0089
     EDDAV:  cpu time    9.6165: real time    9.6132
       DOS:  cpu time    0.0000: real time    0.0003
    CHARGE:  cpu time    0.4879: real time    0.4869
    MIXING:  cpu time    0.1170: real time    0.1174
    --------------------------------------------
      LOOP:  cpu time   12.0062: real time   12.0030

 eigenvalue-minimisations  :    96
 total energy-change (2. order) :-0.1723146E-03  (-0.6319190E-06)
 number of electron      56.0000014 magnetization 
 augmentation part       -3.9183553 magnetization 

 Broyden mixing:
  rms(total) = 0.17171E-03    rms(broyden)= 0.17170E-03
  rms(prec ) = 0.21211E-03
  weight for this iteration     100.00

 eigenvalues of (default mixing * dielectric matrix)
  average eigenvalue GAMMA=   2.4655
  8.3063  6.0701  3.2829  2.6982  1.9830  1.9830  1.7457  1.7457  1.6016  1.2833
  0.9840  0.9840  0.9245  0.9245

 Free energy of the ion-electron system (eV)
  ---------------------------------------------------
  alpha Z        PSCENC =         2.23981092
  Ewald energy   TEWEN  =      2629.98113996
  -Hartree energ DENC   =     -3562.96842448
  -exchange      EXHF   =         0.00000000
  -V(xc)+E(xc)   XCENC  =       -40.92325510
  PAW double counting   =      3758.73620303    -3600.28300905
  entropy T*S    EENTRO =        -0.00000000
  eigenvalues    EBANDS =      -527.60079408
  atomic energy  EATOM  =      1239.96520364
  Solvation  Ediel_sol  =         0.00000000
  ---------------------------------------------------
  free energy    TOTEN  =      -100.85312516 eV

  energy without entropy =     -100.85312516  energy(sigma->0) =     -100.85312516


--------------------------------------------------------------------------------------------------------




--------------------------------------- Iteration      1(  20)  ---------------------------------------


    POTLOK:  cpu time    1.7387: real time    1.7387
    SETDIJ:  cpu time    0.0090: real time    0.0085
     EDDAV:  cpu time    9.0486: real time    9.0488
       DOS:  cpu time    0.0010: real time    0.0004
    CHARGE:  cpu time    0.4819: real time    0.4824
    MIXING:  cpu time    0.1330: real time    0.1331
    --------------------------------------------
      LOOP:  cpu time   11.4123: real time   11.4118

 eigenvalue-minimisations  :    88
 total energy-change (2. order) :-0.5035215E-04  (-0.8589394E-07)
 number of electron      56.0000014 magnetization 
 augmentation part       -3.9183374 magnetization 

 Broyden mixing:
  rms(total) = 0.54738E-04    rms(broyden)= 0.54738E-04
  rms(prec ) = 0.82672E-04
  weight for this iteration     100.00

 eigenvalues of (default mixing * dielectric matrix)
  average eigenvalue GAMMA=   2.5198
  8.5980  6.4001  4.0307  2.8593  2.5746  1.8134  1.8134  1.8861  1.4092  1.4092
  1.1872  0.9771  0.9771  0.9715  0.8899

 Free energy of the ion-electron system (eV)
  ---------------------------------------------------
  alpha Z        PSCENC =         2.23981092
  Ewald energy   TEWEN  =      2629.98113996
  -Hartree energ DENC   =     -3562.97242122
  -exchange      EXHF   =         0.00000000
  -V(xc)+E(xc)   XCENC  =       -40.92416011
  PAW double counting   =      3758.59930355    -3600.14607726
  entropy T*S    EENTRO =        -0.00000000
  eigenvalues    EBANDS =      -527.59597500
  atomic energy  EATOM  =      1239.96520364
  Solvation  Ediel_sol  =         0.00000000
  ---------------------------------------------------
  free energy    TOTEN  =      -100.85317552 eV

  energy without entropy =     -100.85317552  energy(sigma->0) =     -100.85317552


--------------------------------------------------------------------------------------------------------




--------------------------------------- Iteration      1(  21)  ---------------------------------------


    POTLOK:  cpu time    1.7307: real time    1.7311
    SETDIJ:  cpu time    0.0080: real time    0.0078
     EDDAV:  cpu time    8.4527: real time    8.4494
       DOS:  cpu time    0.0000: real time    0.0006
    CHARGE:  cpu time    0.4869: real time    0.4861
    MIXING:  cpu time    0.1420: real time    0.1414
    --------------------------------------------
      LOOP:  cpu time   10.8204: real time   10.8165

 eigenvalue-minimisations  :    80
 total energy-change (2. order) :-0.3020213E-04  (-0.1021857E-06)
 number of electron      56.0000014 magnetization 
 augmentation part       -3.9183172 magnetization 

 Broyden mixing:
  rms(total) = 0.58260E-04    rms(broyden)= 0.58257E-04
  rms(prec ) = 0.72795E-04
  weight for this iteration     100.00

 eigenvalues of (default mixing * dielectric matrix)
  average eigenvalue GAMMA=   2.4931
  8.5330  6.6252  4.1038  2.8912  2.6385  1.9813  1.9813  1.6904  1.6904  1.6876
  1.1750  0.9984  0.9381  0.9381  1.0091  1.0091

 Free energy of the ion-electron system (eV)
  ---------------------------------------------------
  alpha Z        PSCENC =         2.23981092
  Ewald energy   TEWEN  =      2629.98113996
  -Hartree energ DENC   =     -3562.97987229
  -exchange      EXHF   =         0.00000000
  -V(xc)+E(xc)   XCENC  =       -40.92420487
  PAW double counting   =      3758.71644954    -3600.26332485
  entropy T*S    EENTRO =        -0.00000000
  eigenvalues    EBANDS =      -527.58840776
  atomic energy  EATOM  =      1239.96520364
  Solvation  Ediel_sol  =         0.00000000
  ---------------------------------------------------
  free energy    TOTEN  =      -100.85320572 eV

  energy without entropy =     -100.85320572  energy(sigma->0) =     -100.85320572


--------------------------------------------------------------------------------------------------------




--------------------------------------- Iteration      1(  22)  ---------------------------------------


    POTLOK:  cpu time    1.7227: real time    1.7224
    SETDIJ:  cpu time    0.0080: real time    0.0111
     EDDAV:  cpu time    9.0496: real time    9.0459
       DOS:  cpu time    0.0010: real time    0.0004
    CHARGE:  cpu time    0.4849: real time    0.4850
    MIXING:  cpu time    0.1520: real time    0.1523
    --------------------------------------------
      LOOP:  cpu time   11.4183: real time   11.4172

 eigenvalue-minimisations  :    88
 total energy-change (2. order) :-0.7365239E-05  (-0.1767422E-07)
 number of electron      56.0000014 magnetization 
 augmentation part       -3.9183275 magnetization 

 Broyden mixing:
  rms(total) = 0.20437E-04    rms(broyden)= 0.20437E-04
  rms(prec ) = 0.28250E-04
  weight for this iteration     100.00

 eigenvalues of (default mixing * dielectric matrix)
  average eigenvalue GAMMA=   2.5173
  8.8105  6.7449  4.6364  3.1615  2.5652  2.5652  1.8632  1.8632  1.6576  1.6576
  1.2109  1.2109  1.0141  0.9445  0.9445  0.9722  0.9722

 Free energy of the ion-electron system (eV)
  ---------------------------------------------------
  alpha Z        PSCENC =         2.23981092
  Ewald energy   TEWEN  =      2629.98113996
  -Hartree energ DENC   =     -3562.97886830
  -exchange      EXHF   =         0.00000000
  -V(xc)+E(xc)   XCENC  =       -40.92402588
  PAW double counting   =      3758.78518172    -3600.33197051
  entropy T*S    EENTRO =        -0.00000000
  eigenvalues    EBANDS =      -527.58968463
  atomic energy  EATOM  =      1239.96520364
  Solvation  Ediel_sol  =         0.00000000
  ---------------------------------------------------
  free energy    TOTEN  =      -100.85321308 eV

  energy without entropy =     -100.85321308  energy(sigma->0) =     -100.85321308


--------------------------------------------------------------------------------------------------------




--------------------------------------- Iteration      1(  23)  ---------------------------------------


    POTLOK:  cpu time    1.7267: real time    1.7265
    SETDIJ:  cpu time    0.0150: real time    0.0141
     EDDAV:  cpu time    8.4327: real time    8.4302
       DOS:  cpu time    0.0000: real time    0.0005
    CHARGE:  cpu time    0.4859: real time    0.4859
    MIXING:  cpu time    0.1670: real time    0.1657
    --------------------------------------------
      LOOP:  cpu time   10.8274: real time   10.8229

 eigenvalue-minimisations  :    80
 total energy-change (2. order) :-0.4013442E-05  (-0.1134796E-07)
 number of electron      56.0000014 magnetization 
 augmentation part       -3.9183372 magnetization 

 Broyden mixing:
  rms(total) = 0.17963E-04    rms(broyden)= 0.17962E-04
  rms(prec ) = 0.22615E-04
  weight for this iteration     100.00

 eigenvalues of (default mixing * dielectric matrix)
  average eigenvalue GAMMA=   2.5144
  8.8715  6.8235  4.7618  3.0455  2.7116  2.7116  1.9651  1.9651  1.7954  1.6559
  1.6559  1.1787  1.1787  0.9422  0.9422  1.0489  1.0024  1.0024

 Free energy of the ion-electron system (eV)
  ---------------------------------------------------
  alpha Z        PSCENC =         2.23981092
  Ewald energy   TEWEN  =      2629.98113996
  -Hartree energ DENC   =     -3562.97766631
  -exchange      EXHF   =         0.00000000
  -V(xc)+E(xc)   XCENC  =       -40.92413038
  PAW double counting   =      3758.75038948    -3600.29712505
  entropy T*S    EENTRO =        -0.00000000
  eigenvalues    EBANDS =      -527.59083935
  atomic energy  EATOM  =      1239.96520364
  Solvation  Ediel_sol  =         0.00000000
  ---------------------------------------------------
  free energy    TOTEN  =      -100.85321710 eV

  energy without entropy =     -100.85321710  energy(sigma->0) =     -100.85321710


--------------------------------------------------------------------------------------------------------




--------------------------------------- Iteration      1(  24)  ---------------------------------------


    POTLOK:  cpu time    1.7347: real time    1.7347
    SETDIJ:  cpu time    0.0080: real time    0.0080
     EDDAV:  cpu time    9.0246: real time    9.0214
       DOS:  cpu time    0.0000: real time    0.0004
    CHARGE:  cpu time    0.4859: real time    0.4854
    MIXING:  cpu time    0.1830: real time    0.1836
    --------------------------------------------
      LOOP:  cpu time   11.4363: real time   11.4334

 eigenvalue-minimisations  :    88
 total energy-change (2. order) :-0.2345806E-05  (-0.3498821E-08)
 number of electron      56.0000014 magnetization 
 augmentation part       -3.9183354 magnetization 

 Broyden mixing:
  rms(total) = 0.66295E-05    rms(broyden)= 0.66292E-05
  rms(prec ) = 0.87588E-05
  weight for this iteration     100.00

 eigenvalues of (default mixing * dielectric matrix)
  average eigenvalue GAMMA=   2.5491
  8.8566  7.1040  5.4163  3.8583  2.9232  2.4566  2.3806  1.8627  1.8627  1.6637
  1.6637  1.2188  1.2188  1.1398  0.9800  0.9800  0.9371  0.9371  0.9726

 Free energy of the ion-electron system (eV)
  ---------------------------------------------------
  alpha Z        PSCENC =         2.23981092
  Ewald energy   TEWEN  =      2629.98113996
  -Hartree energ DENC   =     -3562.97856846
  -exchange      EXHF   =         0.00000000
  -V(xc)+E(xc)   XCENC  =       -40.92415352
  PAW double counting   =      3758.70205955    -3600.24883358
  entropy T*S    EENTRO =        -0.00000000
  eigenvalues    EBANDS =      -527.58987794
  atomic energy  EATOM  =      1239.96520364
  Solvation  Ediel_sol  =         0.00000000
  ---------------------------------------------------
  free energy    TOTEN  =      -100.85321944 eV

  energy without entropy =     -100.85321944  energy(sigma->0) =     -100.85321944


--------------------------------------------------------------------------------------------------------




--------------------------------------- Iteration      1(  25)  ---------------------------------------


    POTLOK:  cpu time    1.8897: real time    1.9095
    SETDIJ:  cpu time    0.0080: real time    0.0082
     EDDAV:  cpu time    9.0326: real time    9.0310
       DOS:  cpu time    0.0010: real time    0.0005
    --------------------------------------------
      LOOP:  cpu time   10.9313: real time   10.9493

 eigenvalue-minimisations  :    88
 total energy-change (2. order) :-0.6388473E-06  (-0.1345906E-08)
 number of electron      56.0000014 magnetization 
 augmentation part       -3.9183354 magnetization 

 Free energy of the ion-electron system (eV)
  ---------------------------------------------------
  alpha Z        PSCENC =         2.23981092
  Ewald energy   TEWEN  =      2629.98113996
  -Hartree energ DENC   =     -3562.97933815
  -exchange      EXHF   =         0.00000000
  -V(xc)+E(xc)   XCENC  =       -40.92412486
  PAW double counting   =      3758.71257469    -3600.25935630
  entropy T*S    EENTRO =        -0.00000000
  eigenvalues    EBANDS =      -527.58912997
  atomic energy  EATOM  =      1239.96520364
  Solvation  Ediel_sol  =         0.00000000
  ---------------------------------------------------
  free energy    TOTEN  =      -100.85322008 eV

  energy without entropy =     -100.85322008  energy(sigma->0) =     -100.85322008


--------------------------------------------------------------------------------------------------------




 average (electrostatic) potential at core
  the test charge radii are     0.9892  1.1631  0.5201
  (the norm of the test charge is              1.0000)
       1 -93.3971       2 -93.4165       3 -93.4555       4 -93.4358       5 -93.4756
       6 -40.3933       7 -40.4266       8 -40.4281       9 -40.4337      10 -40.3871
      11 -41.0546      12 -41.0640      13 -41.0559      14 -41.0551      15 -41.0592
      16 -40.6964      17 -40.6920      18 -40.6986      19 -40.6773      20 -41.0688
      21 -41.0646      22 -40.6877      23 -40.6986      24 -40.7045      25 -41.0698
      26 -41.0690
 
 
 
 E-fermi :  -5.4221     XC(G=0):  -0.6093     alpha+bet : -0.3347


 k-point     1 :       0.0000    0.0000    0.0000
  band No.  band energies     occupation 
      1     -15.2759      2.00000
      2     -14.4031      2.00000
      3     -14.1537      2.00000
      4     -13.9725      2.00000
      5     -13.1982      2.00000
      6     -12.9270      2.00000
      7     -11.7264      2.00000
      8     -11.4078      2.00000
      9     -11.3630      2.00000
     10     -10.4312      2.00000
     11      -8.9580      2.00000
     12      -8.6354      2.00000
     13      -8.6290      2.00000
     14      -8.6185      2.00000
     15      -8.1850      2.00000
     16      -8.1733      2.00000
     17      -8.1625      2.00000
     18      -7.8603      2.00000
     19      -7.8518      2.00000
     20      -7.8492      2.00000
     21      -6.7783      2.00000
     22      -6.7644      2.00000
     23      -6.4767      2.00000
     24      -6.4582      2.00000
     25      -6.4450      2.00000
     26      -6.3719      2.00000
     27      -6.3645      2.00000
     28      -6.3539      2.00000
     29      -1.7315      0.00000
     30      -1.3844      0.00000
     31      -1.2506      0.00000
     32      -1.1947      0.00000
     33      -1.1589      0.00000
     34      -1.1105      0.00000
     35      -1.0803      0.00000
     36      -0.9497      0.00000
     37      -0.9088      0.00000
     38      -0.6036      0.00000
     39      -0.3971      0.00000
     40      -0.3455      0.00000
     41      -0.2544      0.00000
     42      -0.1570      0.00000


--------------------------------------------------------------------------------------------------------


 soft charge-density along one line, spin component           1
         0         1         2         3         4         5         6         7         8         9
 total charge-density along one line
 
 pseudopotential strength for first ion, spin component:           1
 19.613  27.371   0.002   0.003   0.001   0.003   0.006   0.002
 27.371  38.202   0.002   0.004   0.002   0.004   0.008   0.003
  0.002   0.002   4.359   0.000   0.000   8.131   0.000   0.001
  0.003   0.004   0.000   4.359   0.000   0.000   8.131   0.000
  0.001   0.002   0.000   0.000   4.358   0.001   0.000   8.130
  0.003   0.004   8.131   0.000   0.001  15.178   0.001   0.001
  0.006   0.008   0.000   8.131   0.000   0.001  15.177   0.001
  0.002   0.003   0.001   0.000   8.130   0.001   0.001  15.177
 total augmentation occupancy for first ion, spin component:           1
  5.556  -2.037   0.051  -0.340  -0.055  -0.014   0.102   0.017
 -2.037   0.809  -0.035   0.205   0.032   0.008  -0.045  -0.006
  0.051  -0.035   2.836  -0.112  -0.032  -0.615   0.039   0.009
 -0.340   0.205  -0.112   3.283   0.050   0.039  -0.775  -0.019
 -0.055   0.032  -0.032   0.050   2.841   0.009  -0.019  -0.614
 -0.014   0.008  -0.615   0.039   0.009   0.140  -0.011  -0.002
  0.102  -0.045   0.039  -0.775  -0.019  -0.011   0.186   0.006
  0.017  -0.006   0.009  -0.019  -0.614  -0.002   0.006   0.139


------------------------ aborting loop because EDIFF is reached ----------------------------------------


    CHARGE:  cpu time    0.4929: real time    0.4926
    FORLOC:  cpu time    0.1730: real time    0.1734
    FORNL :  cpu time    1.1238: real time    1.1229
    STRESS:  cpu time    8.0168: real time    8.0144
    FORCOR:  cpu time    1.7277: real time    1.7281
    FORHAR:  cpu time    0.5849: real time    0.5847
    MIXING:  cpu time    0.1920: real time    0.1921
    OFIELD:  cpu time    0.0000: real time    0.0000

  FORCE on cell =-STRESS in cart. coord.  units (eV):
  Direction    XX          YY          ZZ          XY          YZ          ZX
  --------------------------------------------------------------------------------------
  Alpha Z     2.23981     2.23981     2.23981
  Ewald     876.64706   876.62235   876.71007    -0.21850     0.02563    -0.50464
  Hartree  1187.88477  1187.01929  1188.07527    -0.16958     0.33644    -0.42831
  E(xc)    -178.67383  -178.67377  -178.74307     0.09022     0.06284     0.00141
  Local   -2557.86968 -2557.00363 -2558.12605     0.45007    -0.32346     0.93627
  n-local   256.22057   256.29826   256.55046    -0.49096    -0.35805    -0.01440
  augment   -20.71997   -20.72892   -20.72571     0.00462     0.00047    -0.00359
  Kinetic   432.06839   431.99583   431.85719     0.22921     0.20050     0.00857
  Fock        0.00000     0.00000     0.00000     0.00000     0.00000     0.00000
  -------------------------------------------------------------------------------------
  Total      -2.20288    -2.23077    -2.16205    -0.10493    -0.05562    -0.00469
  in kB      -0.44118    -0.44676    -0.43300    -0.02101    -0.01114    -0.00094
  external pressure =       -0.44 kB  Pullay stress =        0.00 kB


 VOLUME and BASIS-vectors are now :
 -----------------------------------------------------------------------------
  energy-cutoff  :      400.00
[...]
    SETDIJ:  cpu time    0.0080: real time    0.0079
     EDDAV:  cpu time   11.5113: real time   11.5091
       DOS:  cpu time    0.0000: real time    0.0004
    CHARGE:  cpu time    0.4839: real time    0.4841
    MIXING:  cpu time    0.0460: real time    0.0463
    --------------------------------------------
      LOOP:  cpu time   13.7909: real time   13.7880

 eigenvalue-minimisations  :   120
 total energy-change (2. order) :-0.2931870E-04  (-0.3750337E-04)
 number of electron      56.0000008 magnetization 
 augmentation part       -3.9108482 magnetization 

 Broyden mixing:
  rms(total) = 0.17486E-02    rms(broyden)= 0.17481E-02
  rms(prec ) = 0.18699E-02
  weight for this iteration     100.00

 eigenvalues of (default mixing * dielectric matrix)
  average eigenvalue GAMMA=   1.0657
  1.0657

 Free energy of the ion-electron system (eV)
  ---------------------------------------------------
  alpha Z        PSCENC =         2.23981092
  Ewald energy   TEWEN  =      2623.17600676
  -Hartree energ DENC   =     -3555.86611707
  -exchange      EXHF   =         0.00000000
  -V(xc)+E(xc)   XCENC  =       -40.56209695
  PAW double counting   =      3906.31573371    -3747.90103785
  entropy T*S    EENTRO =        -0.00000000
  eigenvalues    EBANDS =      -528.43737318
  atomic energy  EATOM  =      1239.96520364
  Solvation  Ediel_sol  =         0.00000000
  ---------------------------------------------------
  free energy    TOTEN  =      -101.06987002 eV

  energy without entropy =     -101.06987002  energy(sigma->0) =     -101.06987002


--------------------------------------------------------------------------------------------------------




--------------------------------------- Iteration     18(   3)  ---------------------------------------


    POTLOK:  cpu time    1.7417: real time    1.7421
    SETDIJ:  cpu time    0.0090: real time    0.0086
     EDDAV:  cpu time   11.4643: real time   11.4616
       DOS:  cpu time    0.0000: real time    0.0004
    CHARGE:  cpu time    0.4909: real time    0.4909
    MIXING:  cpu time    0.0480: real time    0.0473
    --------------------------------------------
      LOOP:  cpu time   13.7539: real time   13.7508

 eigenvalue-minimisations  :   120
 total energy-change (2. order) : 0.3228629E-05  (-0.1137492E-05)
 number of electron      56.0000008 magnetization 
 augmentation part       -3.9108493 magnetization 

 Broyden mixing:
  rms(total) = 0.97304E-03    rms(broyden)= 0.97300E-03
  rms(prec ) = 0.10392E-02
  weight for this iteration     100.00

 eigenvalues of (default mixing * dielectric matrix)
  average eigenvalue GAMMA=   1.5800
  1.0801  2.0799

 Free energy of the ion-electron system (eV)
  ---------------------------------------------------
  alpha Z        PSCENC =         2.23981092
  Ewald energy   TEWEN  =      2623.17600676
  -Hartree energ DENC   =     -3555.86535487
  -exchange      EXHF   =         0.00000000
  -V(xc)+E(xc)   XCENC  =       -40.56184615
  PAW double counting   =      3906.30149746    -3747.88672945
  entropy T*S    EENTRO =        -0.00000000
  eigenvalues    EBANDS =      -528.43845511
  atomic energy  EATOM  =      1239.96520364
  Solvation  Ediel_sol  =         0.00000000
  ---------------------------------------------------
  free energy    TOTEN  =      -101.06986679 eV

  energy without entropy =     -101.06986679  energy(sigma->0) =     -101.06986679


--------------------------------------------------------------------------------------------------------




--------------------------------------- Iteration     18(   4)  ---------------------------------------


    POTLOK:  cpu time    1.7427: real time    1.7429
    SETDIJ:  cpu time    0.0080: real time    0.0083
     EDDAV:  cpu time   10.8703: real time   10.8686
       DOS:  cpu time    0.0000: real time    0.0002
    --------------------------------------------
      LOOP:  cpu time   12.6211: real time   12.6201

 eigenvalue-minimisations  :   112
 total energy-change (2. order) : 0.7980179E-06  (-0.5249237E-06)
 number of electron      56.0000008 magnetization 
 augmentation part       -3.9108493 magnetization 

 Free energy of the ion-electron system (eV)
  ---------------------------------------------------
  alpha Z        PSCENC =         2.23981092
  Ewald energy   TEWEN  =      2623.17600676
  -Hartree energ DENC   =     -3555.86490368
  -exchange      EXHF   =         0.00000000
  -V(xc)+E(xc)   XCENC  =       -40.56160182
  PAW double counting   =      3906.26447469    -3747.84965367
  entropy T*S    EENTRO =        -0.00000000
  eigenvalues    EBANDS =      -528.43920284
  atomic energy  EATOM  =      1239.96520364
  Solvation  Ediel_sol  =         0.00000000
  ---------------------------------------------------
  free energy    TOTEN  =      -101.06986599 eV

  energy without entropy =     -101.06986599  energy(sigma->0) =     -101.06986599


--------------------------------------------------------------------------------------------------------




 average (electrostatic) potential at core
  the test charge radii are     0.9892  1.1631  0.5201
  (the norm of the test charge is              1.0000)
       1 -93.3354       2 -93.2786       3 -93.3464       4 -93.4127       5 -93.4926
       6 -40.3882       7 -40.4528       8 -40.4340       9 -40.4321      10 -40.3889
      11 -40.9837      12 -40.9833      13 -41.0145      14 -40.9804      15 -40.9796
      16 -40.8541      17 -40.8512      18 -40.8904      19 -40.9123      20 -40.9805
      21 -40.9818      22 -40.9003      23 -40.8458      24 -40.8473      25 -40.9864
      26 -40.9864
 
 
 
 E-fermi :  -5.3589     XC(G=0):  -0.6095     alpha+bet : -0.3347


 k-point     1 :       0.0000    0.0000    0.0000
  band No.  band energies     occupation 
      1     -15.1750      2.00000
      2     -14.2956      2.00000
      3     -14.1328      2.00000
      4     -14.0281      2.00000
      5     -13.2089      2.00000
      6     -13.0160      2.00000
      7     -11.7920      2.00000
      8     -11.5180      2.00000
      9     -11.4704      2.00000
     10     -10.5542      2.00000
     11      -9.0294      2.00000
     12      -8.6754      2.00000
     13      -8.6015      2.00000
     14      -8.5162      2.00000
     15      -8.2146      2.00000
     16      -8.1053      2.00000
     17      -8.0412      2.00000
     18      -7.9610      2.00000
     19      -7.9181      2.00000
     20      -7.8236      2.00000
     21      -6.8437      2.00000
     22      -6.7928      2.00000
     23      -6.5476      2.00000
     24      -6.4694      2.00000
     25      -6.4299      2.00000
     26      -6.3959      2.00000
     27      -6.3486      2.00000
     28      -6.3142      2.00000
     29      -1.6730      0.00000
     30      -1.4042      0.00000
     31      -1.3482      0.00000
     32      -1.2796      0.00000
     33      -1.2490      0.00000
     34      -1.1200      0.00000
     35      -1.1064      0.00000
     36      -0.9511      0.00000
     37      -0.8790      0.00000
     38      -0.4974      0.00000
     39      -0.3392      0.00000
     40      -0.2964      0.00000
     41      -0.2125      0.00000
     42      -0.1169      0.00000


--------------------------------------------------------------------------------------------------------


 soft charge-density along one line, spin component           1
         0         1         2         3         4         5         6         7         8         9
 total charge-density along one line
 
 pseudopotential strength for first ion, spin component:           1
 19.614  27.372   0.001   0.003   0.001   0.003   0.006   0.003
 27.372  38.204   0.002   0.004   0.002   0.004   0.008   0.003
  0.001   0.002   4.361   0.000   0.000   8.136   0.000   0.000
  0.003   0.004   0.000   4.362   0.000   0.000   8.136   0.000
  0.001   0.002   0.000   0.000   4.361   0.000   0.000   8.135
  0.003   0.004   8.136   0.000   0.000  15.186   0.000   0.001
  0.006   0.008   0.000   8.136   0.000   0.000  15.187   0.001
  0.003   0.003   0.000   0.000   8.135   0.001   0.001  15.185
 total augmentation occupancy for first ion, spin component:           1
  5.911  -2.229   0.006  -0.479  -0.115   0.001   0.150   0.037
 -2.229   0.900  -0.016   0.273   0.060   0.002  -0.068  -0.016
  0.006  -0.016   2.932  -0.182  -0.094  -0.645   0.059   0.026
 -0.479   0.273  -0.182   3.507   0.039   0.059  -0.842  -0.017
 -0.115   0.060  -0.094   0.039   2.986   0.027  -0.017  -0.658
  0.001   0.002  -0.645   0.059   0.027   0.148  -0.016  -0.007
  0.150  -0.068   0.059  -0.842  -0.017  -0.016   0.205   0.006
  0.037  -0.016   0.026  -0.017  -0.658  -0.007   0.006   0.151


------------------------ aborting loop because EDIFF is reached ----------------------------------------


    CHARGE:  cpu time    0.4889: real time    0.4888
    FORLOC:  cpu time    0.1740: real time    0.1729
    FORNL :  cpu time    1.1178: real time    1.1174
    STRESS:  cpu time    8.1608: real time    8.1591
    FORCOR:  cpu time    1.7277: real time    1.7265
    FORHAR:  cpu time    0.5849: real time    0.5850
    MIXING:  cpu time    0.0470: real time    0.0477
    OFIELD:  cpu time    0.0000: real time    0.0000

  FORCE on cell =-STRESS in cart. coord.  units (eV):
  Direction    XX          YY          ZZ          XY          YZ          ZX
  --------------------------------------------------------------------------------------
  Alpha Z     2.23981     2.23981     2.23981
  Ewald     876.47855   871.48121   875.21459     0.51226     2.95839    -0.18607
  Hartree  1187.55159  1182.72536  1185.59154     1.73598     3.56514    -0.08072
  E(xc)    -179.00472  -179.02588  -179.08957     0.08861     0.07385    -0.00189
  Local   -2557.81538 -2547.68914 -2554.51708    -2.24043    -6.56811     0.35937
  n-local   256.39319   256.40754   256.63676    -0.42079    -0.38609    -0.11029
  augment   -20.89037   -20.85963   -20.86173    -0.01950    -0.01348     0.01359
  Kinetic   434.09688   433.63816   433.94327     0.33359     0.33470    -0.01060
  Fock        0.00000     0.00000     0.00000     0.00000     0.00000     0.00000
  -------------------------------------------------------------------------------------
  Total      -0.95045    -1.08256    -0.84243    -0.01028    -0.03561    -0.01660
  in kB      -0.19035    -0.21681    -0.16872    -0.00206    -0.00713    -0.00333
  external pressure =       -0.19 kB  Pullay stress =        0.00 kB


 VOLUME and BASIS-vectors are now :
 -----------------------------------------------------------------------------
  energy-cutoff  :      400.00
  volume of cell :     8000.00
      direct lattice vectors                 reciprocal lattice vectors
    20.000000000  0.000000000  0.000000000     0.050000000  0.000000000  0.000000000
     0.000000000 20.000000000  0.000000000     0.000000000  0.050000000  0.000000000
     0.000000000  0.000000000 20.000000000     0.000000000  0.000000000  0.050000000

  length of vectors
    20.000000000 20.000000000 20.000000000     0.050000000  0.050000000  0.050000000


 FORCES acting on ions
    electron-ion (+dipol)            ewald-force                    non-local-force                 convergence-correction
 -----------------------------------------------------------------------------------------------
   0.107E+02 -.201E+02 0.875E+02   -.113E+02 0.197E+02 -.891E+02   0.563E+00 0.438E+00 0.157E+01   0.201E-03 0.878E-03 -.176E-02
   0.878E+02 -.489E+01 0.465E+02   -.894E+02 0.502E+01 -.472E+02   0.156E+01 -.133E+00 0.761E+00   -.500E-03 0.573E-03 -.105E-02
   -.374E+02 0.545E+02 0.731E+02   0.379E+02 -.552E+02 -.751E+02   -.523E+00 0.696E+00 0.199E+01   0.522E-03 0.777E-03 -.236E-02
   0.795E+02 0.133E+02 -.417E+02   -.813E+02 -.134E+02 0.417E+02   0.184E+01 0.133E+00 0.871E-01   -.336E-03 -.665E-03 -.393E-03
   -.426E+02 -.692E+02 -.408E+02   0.434E+02 0.705E+02 0.415E+02   -.808E+00 -.138E+01 -.719E+00   -.912E-03 -.338E-03 -.204E-02
   -.298E+02 -.846E+02 0.463E+02   0.301E+02 0.852E+02 -.466E+02   -.216E+00 -.623E+00 0.285E+00   -.441E-03 -.370E-03 -.176E-02
   -.520E+02 0.764E+02 -.107E+02   0.523E+02 -.770E+02 0.104E+02   -.345E+00 0.560E+00 0.336E+00   -.549E-03 -.589E-03 -.586E-03
   -.877E+02 0.668E+01 -.463E+02   0.885E+02 -.643E+01 0.468E+02   -.746E+00 -.257E+00 -.479E+00   -.465E-03 -.111E-03 -.867E-03
   0.276E+02 0.845E+02 -.460E+02   -.281E+02 -.851E+02 0.464E+02   0.500E+00 0.589E+00 -.471E+00   -.101E-02 -.125E-03 0.304E-03
   0.367E+02 -.539E+02 -.764E+02   -.369E+02 0.543E+02 0.770E+02   0.249E+00 -.404E+00 -.550E+00   -.702E-03 -.819E-03 -.897E-03
   0.201E+02 0.397E+02 0.541E+01   -.212E+02 -.416E+02 -.645E+01   0.116E+01 0.196E+01 0.105E+01   -.443E-04 0.124E-03 0.750E-04
   0.979E+00 0.215E+02 -.393E+02   -.658E+00 -.221E+02 0.417E+02   -.325E+00 0.533E+00 -.244E+01   -.208E-03 -.359E-04 -.157E-03
   -.258E+02 0.383E+02 -.446E+01   0.272E+02 -.403E+02 0.470E+01   -.137E+01 0.204E+01 -.243E+00   0.286E-04 -.318E-03 -.663E-04
   -.441E+02 -.360E+01 0.516E+01   0.463E+02 0.395E+01 -.619E+01   -.226E+01 -.346E+00 0.103E+01   0.632E-04 -.145E-04 -.417E-03
   -.200E+02 0.790E+01 -.392E+02   0.204E+02 -.844E+01 0.416E+02   -.364E+00 0.548E+00 -.242E+01   -.117E-03 -.169E-03 0.940E-04
   -.367E+02 0.479E+01 0.288E+02   0.394E+02 -.435E+01 -.301E+02   -.262E+01 -.429E+00 0.132E+01   -.852E-04 0.995E-04 -.414E-03
   0.868E+01 0.359E+02 0.289E+02   -.100E+02 -.382E+02 -.303E+02   0.133E+01 0.228E+01 0.134E+01   0.158E-03 0.164E-03 -.355E-03
   0.677E+01 -.104E+02 0.472E+02   -.719E+01 0.110E+02 -.501E+02   0.409E+00 -.627E+00 0.281E+01   0.165E-03 0.528E-04 0.534E-05
   -.222E+02 -.374E+02 -.214E+02   0.235E+02 0.397E+02 0.226E+02   -.132E+01 -.227E+01 -.128E+01   0.161E-04 0.129E-03 -.247E-03
   0.287E+01 -.309E+01 -.447E+02   -.260E+01 0.260E+01 0.471E+02   -.273E+00 0.489E+00 -.245E+01   -.176E-03 -.197E-03 0.305E-04
   0.245E+02 -.363E+02 -.110E+02   -.259E+02 0.384E+02 0.108E+02   0.139E+01 -.208E+01 0.173E+00   -.204E-03 0.187E-04 -.246E-03
   0.434E+02 0.646E+01 -.209E+02   -.460E+02 -.683E+01 0.222E+02   0.261E+01 0.372E+00 -.125E+01   0.311E-04 -.203E-03 -.426E-04
   0.324E+02 0.249E+02 0.237E+02   -.338E+02 -.271E+02 -.250E+02   0.143E+01 0.222E+01 0.132E+01   -.138E-03 0.171E-03 -.182E-03
   0.349E+02 -.292E+02 0.123E+02   -.366E+02 0.317E+02 -.127E+02   0.164E+01 -.243E+01 0.333E+00   -.104E-03 0.479E-04 -.278E-03
   0.125E+02 -.416E+02 0.119E+02   -.139E+02 0.437E+02 -.122E+02   0.136E+01 -.209E+01 0.292E+00   0.262E-04 -.238E-03 -.305E-03
   -.337E+02 -.200E+02 0.226E+02   0.359E+02 0.204E+02 -.237E+02   -.221E+01 -.409E+00 0.113E+01   -.312E-03 -.889E-04 -.262E-03
 -----------------------------------------------------------------------------------------------
   -.265E+01 0.614E+00 -.351E+01   0.497E-13 -.533E-13 0.746E-13   0.266E+01 -.612E+00 0.353E+01   -.509E-02 -.125E-02 -.142E-01
 
 
 POSITION                                       TOTAL-FORCE (eV/Angst)
 -----------------------------------------------------------------------------------
      9.49672     11.09266      7.70649        -0.005144     -0.011345      0.001326
      7.40324     10.76931      8.73548         0.016170     -0.005466      0.002604
     10.82124      9.15739      7.89083        -0.012899      0.004452      0.010574
      7.66832     10.30028     11.02451        -0.004953      0.007666      0.003215
     10.95110     12.50303     11.08810         0.007690      0.001946      0.016777
     10.62143     12.94592      8.75202         0.000569     -0.004592      0.000556
     11.16235      8.64199     10.21256         0.003046      0.014173     -0.001210
     12.29273     10.52363     11.31582        -0.003502     -0.004065      0.001291
      8.97986      8.30435     11.28208         0.003612      0.000394      0.001737
      8.80343     12.12942     12.09988         0.002958     -0.004952      0.002323
      8.25697      7.08657     10.63174         0.000228      0.007704      0.003196
      9.17982      7.97543     12.79118        -0.003855     -0.001158      0.001097
     12.02937      7.35190     10.36429         0.000556      0.001719     -0.003430
     13.69586     10.74027     10.67290        -0.007316      0.002481      0.005956
     12.51748     10.18515     12.82006         0.001567      0.002782     -0.006022
     12.14363      9.37641      7.22224         0.006804      0.002181     -0.008170
     10.14716      8.00203      7.21394         0.002334      0.007224      0.000710
      9.28564     11.41597      6.25556        -0.003925      0.003329     -0.015661
     11.63115     13.66962     11.74582        -0.008355     -0.011730     -0.006579
      8.97391     11.82357     13.61829        -0.001216     -0.002277     -0.005801
      7.93882     13.42175     11.98923         0.005365     -0.009159     -0.003446
      6.32401     10.10923     11.66551        -0.003358      0.002560     -0.000696
      6.67831      9.63933      8.06689         0.005840      0.002544      0.003318
      6.57273     12.00601      8.56745        -0.000074      0.003428     -0.000916
      9.77312     14.24026      8.57209        -0.002855     -0.004300     -0.000694
     11.99099     13.19651      8.05339         0.000715     -0.005539     -0.002058
 -----------------------------------------------------------------------------------
    total drift:                                0.001014      0.001644     -0.000693


--------------------------------------------------------------------------------------------------------



  FREE ENERGIE OF THE ION-ELECTRON SYSTEM (eV)
  ---------------------------------------------------
  free  energy   TOTEN  =      -101.06986599 eV

  energy  without entropy=     -101.06986599  energy(sigma->0) =     -101.06986599
 
 d Force = 0.1166534E-03[-0.522E-04, 0.286E-03]  d Energy = 0.1159445E-03 0.709E-06
 d Force = 0.1110657E+00[ 0.111E+00, 0.111E+00]  d Ewald  = 0.1110657E+00-0.896E-08


--------------------------------------------------------------------------------------------------------


    POTLOK:  cpu time    1.7477: real time    1.7470


--------------------------------------------------------------------------------------------------------


 Conjugate gradient step on ions:
 trial-energy change:   -0.000116  1 .order   -0.000117   -0.000286    0.000052
  (g-gl).g = 0.199E-03      g.g   = 0.206E-03  gl.gl    = 0.559E-03
 g(Force)  = 0.206E-03   g(Stress)= 0.000E+00 ortho     = 0.108E-05
 gamma     =   0.35609
 trial     =   1.38077
 opt step  =   1.16722  (harmonic =   1.16722) maximal distance =0.00094171
 next E    =  -101.069871   (d E  =  -0.00012)


--------------------------------------------------------------------------------------------------------


  
 reached required accuracy - stopping structural energy minimisation
 writing wavefunctions
     LOOP+:  cpu time   66.0240: real time   66.4378
    4ORBIT:  cpu time    0.0000: real time    0.0000

 total amount of memory used by VASP MPI-rank0   131440. kBytes
=======================================================================

   base      :      30000. kBytes
   nonl-proj :      17624. kBytes
   fftplans  :      26957. kBytes
   grid      :      48673. kBytes
   one-center:         40. kBytes
   wavefun   :       8146. kBytes
 
  
  
 General timing and accounting informations for this job:
 ========================================================
  
                  Total CPU time used (sec):     2427.080
                            User time (sec):     2397.224
                          System time (sec):       29.856
                         Elapsed time (sec):     2432.307
  
                   Maximum memory used (kb):      185944.
                   Average memory used (kb):           0.
  
                          Minor page faults:      5825963
                          Major page faults:            6
                 Voluntary context switches:         4380
