 vasp.5.4.4.18Apr17-6-g9f103f2a35 (build Nov 06 2017 19:16:10) complex          
  
 executed on           IFC91_ompi date 2018.07.11  13:48:05
 running on   12 total cores
 distrk:  each k-point on   12 cores,    1 groups
 distr:  one band on NCORES_PER_BAND=   6 cores,    2 groups


--------------------------------------------------------------------------------------------------------


 INCAR:
 POTCAR:    PAW_PBE Si 05Jan2001                  
 POTCAR:    PAW_PBE Ge 05Jan2001                  
 POTCAR:    PAW_PBE H 15Jun2001                   
 POTCAR:    PAW_PBE Si 05Jan2001                  
   VRHFIN =Si: s2p2                                                             
   LEXCH  = PE                                                                  
   EATOM  =   103.0669 eV,    7.5752 Ry                                         
                                                                                
   TITEL  = PAW_PBE Si 05Jan2001                                                
   LULTRA =        F    use ultrasoft PP ?                                      
   IUNSCR =        1    unscreen: 0-lin 1-nonlin 2-no                           
   RPACOR =    1.500    partial core radius                                     
   POMASS =   28.085; ZVAL   =    4.000    mass and valenz                      
   RCORE  =    1.900    outmost cutoff radius                                   
   RWIGS  =    2.480; RWIGS  =    1.312    wigner-seitz radius (au A)           
   ENMAX  =  245.345; ENMIN  =  184.009 eV                                      
   ICORE  =        2    local potential                                         
   LCOR   =        T    correct aug charges                                     
   LPAW   =        T    paw PP                                                  
   EAUG   =  322.069                                                            
   DEXC   =    0.000                                                            
   RMAX   =    1.950    core radius for proj-oper                               
   RAUG   =    1.300    factor for augmentation sphere                          
   RDEP   =    1.993    radius for radial grids                                 
   RDEPT  =    1.837    core radius for aug-charge                              
                                                                                
   Atomic configuration                                                         
    6 entries                                                                   
     n  l   j            E        occ.                                          
     1  0  0.50     -1785.8828   2.0000                                         
     2  0  0.50      -139.4969   2.0000                                         
     2  1  1.50       -95.5546   6.0000                                         
     3  0  0.50       -10.8127   2.0000                                         
     3  1  0.50        -4.0811   2.0000                                         
     3  2  1.50        -4.0817   0.0000                                         
   Description                                                                  
     l       E           TYP  RCUT    TYP  RCUT                                 
     0    -10.8127223     23  1.900                                             
     0     -7.6451159     23  1.900                                             
     1     -4.0811372     23  1.900                                             
     1      2.4879257     23  1.900                                             
     2     -4.0817478      7  1.900                                             
  local pseudopotential read in
  partial core-charges read in
  partial kinetic energy density read in
  atomic valenz-charges read in
  non local Contribution for L=           0  read in
    real space projection operators read in
  non local Contribution for L=           0  read in
    real space projection operators read in
  non local Contribution for L=           1  read in
    real space projection operators read in
  non local Contribution for L=           1  read in
    real space projection operators read in
    PAW grid and wavefunctions read in
 
   number of l-projection  operators is LMAX  =           4
   number of lm-projection operators is LMMAX =           8
 
 POTCAR:    PAW_PBE Ge 05Jan2001                  
   VRHFIN =Ge: s2p2                                                             
   LEXCH  = PE                                                                  
   EATOM  =   104.9960 eV,    7.7170 Ry                                         
                                                                                
   TITEL  = PAW_PBE Ge 05Jan2001                                                
   LULTRA =        F    use ultrasoft PP ?                                      
   IUNSCR =        1    unscreen: 0-lin 1-nonlin 2-no                           
   RPACOR =    2.170    partial core radius                                     
   POMASS =   72.610; ZVAL   =    4.000    mass and valenz                      
   RCORE  =    2.300    outmost cutoff radius                                   
   RWIGS  =    2.300; RWIGS  =    1.217    wigner-seitz radius (au A)           
   ENMAX  =  173.807; ENMIN  =  130.355 eV                                      
   ICORE  =        3    local potential                                         
   LCOR   =        T    correct aug charges                                     
   LPAW   =        T    paw PP                                                  
   EAUG   =  385.843                                                            
   DEXC   =    0.000                                                            
   RMAX   =    2.342    core radius for proj-oper                               
   RAUG   =    1.300    factor for augmentation sphere                          
   RDEP   =    2.318    radius for radial grids                                 
   RDEPT  =    2.103    core radius for aug-charge                              
                                                                                
   Atomic configuration                                                         
   10 entries                                                                   
     n  l   j            E        occ.                                          
     1  0  0.50    -10959.8463   2.0000                                         
     2  0  0.50     -1371.6056   2.0000                                         
     2  1  1.50     -1198.4791   6.0000                                         
     3  0  0.50      -168.4733   2.0000                                         
     3  1  1.50      -115.6019   6.0000                                         
     3  2  2.50       -29.3106  10.0000                                         
     4  0  0.50       -11.7309   2.0000                                         
     4  1  0.50        -3.8952   2.0000                                         
     4  2  1.50        -4.0817   0.0000                                         
     4  3  2.50        -4.0817   0.0000                                         
   Description                                                                  
     l       E           TYP  RCUT    TYP  RCUT                                 
     0    -11.7309493     23  2.300                                             
     0     -7.4578696     23  2.300                                             
     1     -3.8952261     23  2.300                                             
     1      6.1178114     23  2.300                                             
     2     -4.0817478     23  2.300                                             
     3     -1.3605826      7  2.300                                             
  local pseudopotential read in
  partial core-charges read in
  partial kinetic energy density read in
  atomic valenz-charges read in
  non local Contribution for L=           0  read in
    real space projection operators read in
  non local Contribution for L=           0  read in
    real space projection operators read in
  non local Contribution for L=           1  read in
    real space projection operators read in
  non local Contribution for L=           1  read in
    real space projection operators read in
  non local Contribution for L=           2  read in
    real space projection operators read in
    PAW grid and wavefunctions read in
 
   number of l-projection  operators is LMAX  =           5
   number of lm-projection operators is LMMAX =          13
 
 POTCAR:    PAW_PBE H 15Jun2001                   
   VRHFIN =H: ultrasoft test                                                    
   LEXCH  = PE                                                                  
   EATOM  =    12.4884 eV,    0.9179 Ry                                         
                                                                                
   TITEL  = PAW_PBE H 15Jun2001                                                 
   LULTRA =        F    use ultrasoft PP ?                                      
   IUNSCR =        0    unscreen: 0-lin 1-nonlin 2-no                           
   RPACOR =    0.000    partial core radius                                     
   POMASS =    1.000; ZVAL   =    1.000    mass and valenz                      
   RCORE  =    1.100    outmost cutoff radius                                   
   RWIGS  =    0.700; RWIGS  =    0.370    wigner-seitz radius (au A)           
   ENMAX  =  250.000; ENMIN  =  200.000 eV                                      
   RCLOC  =    0.701    cutoff for local pot                                    
   LCOR   =        T    correct aug charges                                     
   LPAW   =        T    paw PP                                                  
   EAUG   =  400.000                                                            
   RMAX   =    1.123    core radius for proj-oper                               
   RAUG   =    1.200    factor for augmentation sphere                          
   RDEP   =    1.112    radius for radial grids                                 
   RDEPT  =    0.926    core radius for aug-charge                              
                                                                                
   Atomic configuration                                                         
    2 entries                                                                   
     n  l   j            E        occ.                                          
     1  0  0.50        -6.4927   1.0000                                         
     2  1  0.50        -3.4015   0.0000                                         
   Description                                                                  
     l       E           TYP  RCUT    TYP  RCUT                                 
     0     -6.4927494     23  1.100                                             
     0      6.8029130     23  1.100                                             
     1     -4.0817478     23  1.100                                             
  local pseudopotential read in
  atomic valenz-charges read in
  non local Contribution for L=           0  read in
    real space projection operators read in
  non local Contribution for L=           0  read in
    real space projection operators read in
  non local Contribution for L=           1  read in
    real space projection operators read in
    PAW grid and wavefunctions read in
 
   number of l-projection  operators is LMAX  =           3
   number of lm-projection operators is LMMAX =           5
 

 ----------------------------------------------------------------------------- 
|                                                                             |
|  ADVICE TO THIS USER RUNNING 'VASP/VAMP'   (HEAR YOUR MASTER'S VOICE ...):  |
|                                                                             |
|      You have a (more or less) 'large supercell' and for larger cells       |
|      it might be more efficient to use real space projection opertators     |
|      So try LREAL= Auto  in the INCAR   file.                               |
|      Mind:          For very  accurate calculation you might also keep the  |
|      reciprocal projection scheme          (i.e. LREAL=.FALSE.)             |
|                                                                             |
 ----------------------------------------------------------------------------- 

  PAW_PBE Si 05Jan2001                  :
 energy of atom  1       EATOM= -103.0669
 kinetic energy error for atom=    0.0012 (will be added to EATOM!!)
  PAW_PBE Ge 05Jan2001                  :
 energy of atom  2       EATOM= -104.9960
 kinetic energy error for atom=    0.0003 (will be added to EATOM!!)
  PAW_PBE H 15Jun2001                   :
 energy of atom  3       EATOM=  -12.4884
 kinetic energy error for atom=    0.0098 (will be added to EATOM!!)
 
 
 POSCAR: SiGeH16                                 
  positions in direct lattice
  No initial velocities read in
 exchange correlation table for  LEXCH =        8
   RHO(1)=    0.500       N(1)  =     2000
   RHO(2)=  100.500       N(2)  =     4000
 


--------------------------------------------------------------------------------------------------------


 ion  position               nearest neighbor table
   1  0.475  0.556  0.385-  18 1.55   6 2.39   2 2.39   5 2.39
   2  0.369  0.539  0.436-  23 1.55  24 1.55   7 2.39   1 2.39
   3  0.451  0.416  0.564-  12 1.55  11 1.55   7 2.39   8 2.39
   4  0.440  0.606  0.605-  20 1.55  21 1.55   7 2.39   9 2.39
   5  0.542  0.457  0.396-  17 1.55  16 1.55   8 2.39   1 2.39
   6  0.531  0.648  0.437-  25 1.55  26 1.55   9 2.39   1 2.39
   7  0.385  0.515  0.552-  22 1.55   4 2.39   3 2.39   2 2.39
   8  0.557  0.433  0.512-  13 1.55   5 2.39  10 2.39   3 2.39
   9  0.547  0.624  0.554-  19 1.55   6 2.39  10 2.39   4 2.39
  10  0.613  0.525  0.565-  15 1.55  14 1.55   9 2.39   8 2.39
  11  0.415  0.357  0.529-   3 1.55
  12  0.461  0.400  0.639-   3 1.55
  13  0.600  0.369  0.520-   8 1.55
  14  0.682  0.536  0.531-  10 1.55
  15  0.623  0.509  0.640-  10 1.55
  16  0.611  0.469  0.363-   5 1.55
  17  0.506  0.398  0.362-   5 1.55
  18  0.465  0.572  0.309-   1 1.55
  19  0.583  0.683  0.588-   9 1.55
  20  0.451  0.590  0.680-   4 1.55
  21  0.397  0.670  0.598-   4 1.55
  22  0.316  0.504  0.586-   7 1.55
  23  0.333  0.479  0.402-   2 1.55
  24  0.326  0.603  0.429-   2 1.55
  25  0.488  0.712  0.430-   6 1.55
  26  0.600  0.659  0.404-   6 1.55
 
  LATTYP: Found a simple cubic cell.
 ALAT       =    20.0000000000
  
  Lattice vectors:
  
 A1 = (  20.0000000000,   0.0000000000,   0.0000000000)
 A2 = (   0.0000000000,  20.0000000000,   0.0000000000)
 A3 = (   0.0000000000,   0.0000000000,  20.0000000000)


Analysis of symmetry for initial positions (statically):
=====================================================================
 Subroutine PRICEL returns:
 Original cell was already a primitive cell.
 

 Routine SETGRP: Setting up the symmetry group for a 
 simple cubic supercell.


 Subroutine GETGRP returns: Found  1 space group operations
 (whereof  1 operations were pure point group operations)
 out of a pool of 48 trial point group operations.


The static configuration has the point symmetry C_1 .


Analysis of symmetry for dynamics (positions and initial velocities):
=====================================================================
 Subroutine PRICEL returns:
 Original cell was already a primitive cell.
 

 Routine SETGRP: Setting up the symmetry group for a 
 simple cubic supercell.


 Subroutine GETGRP returns: Found  1 space group operations
 (whereof  1 operations were pure point group operations)
 out of a pool of 48 trial point group operations.


The dynamic configuration has the point symmetry C_1 .


 Subroutine INISYM returns: Found  1 space group operations
 (whereof  1 operations are pure point group operations),
 and found     1 'primitive' translations

 
 
 KPOINTS: Automatic mesh                          

Automatic generation of k-mesh.
Space group operators:
 irot       det(A)        alpha          n_x          n_y          n_z        tau_x        tau_y        tau_z
    1     1.000000     0.000000     1.000000     0.000000     0.000000     0.000000     0.000000     0.000000
 
 Subroutine IBZKPT returns following result:
 ===========================================
 
 Found      1 irreducible k-points:
 
 Following reciprocal coordinates:
            Coordinates               Weight
  0.000000  0.000000  0.000000      1.000000
 
 Following cartesian coordinates:
            Coordinates               Weight
  0.000000  0.000000  0.000000      1.000000
 


--------------------------------------------------------------------------------------------------------




 Dimension of arrays:
   k-points           NKPTS =      1   k-points in BZ     NKDIM =      1   number of bands    NBANDS=     42
   number of dos      NEDOS =    301   number of ions     NIONS =     26
   non local maximal  LDIM  =      5   non local SUM 2l+1 LMDIM =     13
   total plane-waves  NPLWV = 941192
   max r-space proj   IRMAX =      1   max aug-charges    IRDMAX=   6593
   dimension x,y,z NGX =    98 NGY =   98 NGZ =   98
   dimension x,y,z NGXF=   196 NGYF=  196 NGZF=  196
   support grid    NGXF=   196 NGYF=  196 NGZF=  196
   ions per type =               4   6  16
   NGX,Y,Z   is equivalent  to a cutoff of   8.15,  8.15,  8.15 a.u.
   NGXF,Y,Z  is equivalent  to a cutoff of  16.29, 16.29, 16.29 a.u.

 SYSTEM =  SiGe                                    
 POSCAR =  SiGeH16                                 

 Startparameter for this run:
   NWRITE =      2    write-flag & timer
   PREC   = normal    normal or accurate (medium, high low for compatibility)
   ISTART =      0    job   : 0-new  1-cont  2-samecut
   ICHARG =      2    charge: 1-file 2-atom 10-const
   ISPIN  =      1    spin polarized calculation?
   LNONCOLLINEAR =      F non collinear calculations
   LSORBIT =      F    spin-orbit coupling
   INIWAV =      1    electr: 0-lowe 1-rand  2-diag
   LASPH  =      F    aspherical Exc in radial PAW
   METAGGA=      F    non-selfconsistent MetaGGA calc.

 Electronic Relaxation 1
   ENCUT  =  400.0 eV  29.40 Ry    5.42 a.u.  32.61 32.61 32.61*2*pi/ulx,y,z
   ENINI  =  400.0     initial cutoff
   ENAUG  =  400.0 eV  augmentation charge cutoff
   NELM   =     60;   NELMIN=  2; NELMDL= -5     # of ELM steps 
   EDIFF  = 0.1E-05   stopping-criterion for ELM
   LREAL  =      F    real-space projection
   NLSPLINE    = F    spline interpolate recip. space projectors
   LCOMPAT=      F    compatible to vasp.4.4
   GGA_COMPAT  = T    GGA compatible to vasp.4.4-vasp.4.6
   LMAXPAW     = -100 max onsite density
   LMAXMIX     =    2 max onsite mixed and CHGCAR
   VOSKOWN=      0    Vosko Wilk Nusair interpolation
   ROPT   =    0.00000   0.00000   0.00000
 Ionic relaxation
   EDIFFG = -.2E-01   stopping-criterion for IOM
   NSW    =    200    number of steps for IOM
   NBLOCK =      1;   KBLOCK =    200    inner block; outer block 
   IBRION =      2    ionic relax: 0-MD 1-quasi-New 2-CG
   NFREE  =      1    steps in history (QN), initial steepest desc. (CG)
   ISIF   =      2    stress and relaxation
   IWAVPR =     11    prediction:  0-non 1-charg 2-wave 3-comb
   ISYM   =      2    0-nonsym 1-usesym 2-fastsym
   LCORR  =      T    Harris-Foulkes like correction to forces

   POTIM  = 0.5000    time-step for ionic-motion
   TEIN   =    0.0    initial temperature
   TEBEG  =    0.0;   TEEND  =   0.0 temperature during run
   SMASS  =  -3.00    Nose mass-parameter (am)
   estimated Nose-frequenzy (Omega)   =  0.10E-29 period in steps =****** mass=  -0.914E-26a.u.
   SCALEE = 1.0000    scale energy and forces
   NPACO  =    256;   APACO  = 16.0  distance and # of slots for P.C.
   PSTRESS=    0.0 pullay stress

  Mass of Ions in am
   POMASS =  28.09 72.61  1.00
  Ionic Valenz
   ZVAL   =   4.00  4.00  1.00
  Atomic Wigner-Seitz radii
   RWIGS  =  -1.00 -1.00 -1.00
  virtual crystal weights 
   VCA    =   1.00  1.00  1.00
   NELECT =      56.0000    total number of electrons
   NUPDOWN=      -1.0000    fix difference up-down

 DOS related values:
   EMIN   =  10.00;   EMAX   =-10.00  energy-range for DOS
   EFERMI =   0.00
   ISMEAR =     0;   SIGMA  =   0.20  broadening in eV -4-tet -1-fermi 0-gaus

 Electronic relaxation 2 (details)
   IALGO  =     38    algorithm
   LDIAG  =      T    sub-space diagonalisation (order eigenvalues)
   LSUBROT=      F    optimize rotation matrix (better conditioning)
   TURBO    =      0    0=normal 1=particle mesh
   IRESTART =      0    0=no restart 2=restart with 2 vectors
   NREBOOT  =      0    no. of reboots
   NMIN     =      0    reboot dimension
   EREF     =   0.00    reference energy to select bands
   IMIX   =      4    mixing-type and parameters
     AMIX     =   0.40;   BMIX     =  1.00
     AMIX_MAG =   1.60;   BMIX_MAG =  1.00
     AMIN     =   0.10
     WC   =   100.;   INIMIX=   1;  MIXPRE=   1;  MAXMIX= -45

 Intra band minimization:
   WEIMIN = 0.0010     energy-eigenvalue tresh-hold
   EBREAK =  0.60E-08  absolut break condition
   DEPER  =   0.30     relativ break condition  

   TIME   =   0.40     timestep for ELM

  volume/ion in A,a.u.               =     307.69      2076.41
  Fermi-wavevector in a.u.,A,eV,Ry     =   0.313166  0.591797  1.334361  0.098073
  Thomas-Fermi vector in A             =   1.193276
 
 Write flags
   LWAVE        =      T    write WAVECAR
   LDOWNSAMPLE  =      F    k-point downsampling of WAVECAR
   LCHARG       =      T    write CHGCAR
   LVTOT        =      F    write LOCPOT, total local potential
   LVHAR        =      F    write LOCPOT, Hartree potential only
   LELF         =      F    write electronic localiz. function (ELF)
   LORBIT       =      0    0 simple, 1 ext, 2 COOP (PROOUT), +10 PAW based schemes


 Dipole corrections
   LMONO  =      F    monopole corrections only (constant potential shift)
   LDIPOL =      F    correct potential (dipole corrections)
   IDIPOL =      0    1-x, 2-y, 3-z, 4-all directions 
   EPSILON=  1.0000000 bulk dielectric constant

 Exchange correlation treatment:
   GGA     =    --    GGA type
   LEXCH   =     8    internal setting for exchange type
   VOSKOWN=      0    Vosko Wilk Nusair interpolation
   LHFCALC =     F    Hartree Fock is set to
   LHFONE  =     F    Hartree Fock one center treatment
   AEXX    =    0.0000 exact exchange contribution

 Linear response parameters
   LEPSILON=     F    determine dielectric tensor
   LRPA    =     F    only Hartree local field effects (RPA)
   LNABLA  =     F    use nabla operator in PAW spheres
   LVEL    =     F    velocity operator in full k-point grid
   LINTERFAST=   F  fast interpolation
   KINTER  =     0    interpolate to denser k-point grid
   CSHIFT  =0.1000    complex shift for real part using Kramers Kronig
   OMEGAMAX=  -1.0    maximum frequency
   DEG_THRESHOLD= 0.2000000E-02 threshold for treating states as degnerate
   RTIME   =   -0.100 relaxation time in fs
  (WPLASMAI=    0.000 imaginary part of plasma frequency in eV, 0.658/RTIME)
   DFIELD  = 0.0000000 0.0000000 0.0000000 field for delta impulse in time
 
 Orbital magnetization related:
   ORBITALMAG=     F  switch on orbital magnetization
   LCHIMAG   =     F  perturbation theory with respect to B field
   DQ        =  0.001000  dq finite difference perturbation B field
   LLRAUG    =     F  two centre corrections for induced B field



--------------------------------------------------------------------------------------------------------


 conjugate gradient relaxation of ions
 charge density and potential will be updated during run
 non-spin polarized calculation
 Variant of blocked Davidson
 Davidson routine will perform the subspace rotation
 perform sub-space diagonalisation
    after iterative eigenvector-optimisation
 modified Broyden-mixing scheme, WC =      100.0
 initial mixing is a Kerker type mixing with AMIX =  0.4000 and BMIX =      1.0000
 Hartree-type preconditioning will be used
 using additional bands           14
 reciprocal scheme for non local part
 use partial core corrections
 calculate Harris-corrections to forces 
   (improved forces if not selfconsistent)
 use gradient corrections 
 use of overlap-Matrix (Vanderbilt PP)
 Gauss-broadening in eV      SIGMA  =   0.20


--------------------------------------------------------------------------------------------------------


  energy-cutoff  :      400.00
  volume of cell :     8000.00
      direct lattice vectors                 reciprocal lattice vectors
    20.000000000  0.000000000  0.000000000     0.050000000  0.000000000  0.000000000
     0.000000000 20.000000000  0.000000000     0.000000000  0.050000000  0.000000000
     0.000000000  0.000000000 20.000000000     0.000000000  0.000000000  0.050000000

  length of vectors
    20.000000000 20.000000000 20.000000000     0.050000000  0.050000000  0.050000000


 
 k-points in units of 2pi/SCALE and weight: Automatic mesh                          
   0.00000000  0.00000000  0.00000000       1.000
 
 k-points in reciprocal lattice and weights: Automatic mesh                          
   0.00000000  0.00000000  0.00000000       1.000
 
 position of ions in fractional coordinates (direct lattice) 
   0.47547100  0.55626000  0.38465300
   0.36907800  0.53906000  0.43641200
   0.45095700  0.41593600  0.56388300
   0.44028400  0.60643000  0.60524300
   0.54179100  0.45744600  0.39613600
   0.53111600  0.64794100  0.43749600
   0.38461900  0.51474100  0.55243500
   0.55736800  0.43311000  0.51215000
   0.54669200  0.62364400  0.55351800
   0.61299700  0.52481700  0.56496600
   0.41490100  0.35665000  0.52940300
   0.46117000  0.40042600  0.63910800
   0.60034800  0.36907000  0.51957800
   0.68182700  0.53600700  0.53118700
   0.62280400  0.50903400  0.64018900
   0.61080000  0.46880600  0.36278200
   0.50550800  0.39805500  0.36207700
   0.46538400  0.57201900  0.30946400
   0.58275500  0.68306700  0.58775000
   0.45052500  0.59044300  0.68036400
   0.39732000  0.67044900  0.59753500
   0.31566200  0.50359800  0.58596500
   0.33322800  0.47946500  0.40225200
   0.32629100  0.60324700  0.42912600
   0.48792300  0.71185500  0.43020800
   0.60015100  0.65882400  0.40403700
 
 position of ions in cartesian coordinates  (Angst):
   9.50942000 11.12520000  7.69306000
   7.38156000 10.78120000  8.72824000
   9.01914000  8.31872000 11.27766000
   8.80568000 12.12860000 12.10486000
  10.83582000  9.14892000  7.92272000
  10.62232000 12.95882000  8.74992000
   7.69238000 10.29482000 11.04870000
  11.14736000  8.66220000 10.24300000
  10.93384000 12.47288000 11.07036000
  12.25994000 10.49634000 11.29932000
   8.29802000  7.13300000 10.58806000
   9.22340000  8.00852000 12.78216000
  12.00696000  7.38140000 10.39156000
  13.63654000 10.72014000 10.62374000
  12.45608000 10.18068000 12.80378000
  12.21600000  9.37612000  7.25564000
  10.11016000  7.96110000  7.24154000
   9.30768000 11.44038000  6.18928000
  11.65510000 13.66134000 11.75500000
   9.01050000 11.80886000 13.60728000
   7.94640000 13.40898000 11.95070000
   6.31324000 10.07196000 11.71930000
   6.66456000  9.58930000  8.04504000
   6.52582000 12.06494000  8.58252000
   9.75846000 14.23710000  8.60416000
  12.00302000 13.17648000  8.08074000
 


--------------------------------------------------------------------------------------------------------


 k-point  1 :   0.0000 0.0000 0.0000  plane waves:  145165

 maximum and minimum number of plane-waves per node :     24209    24180

 maximum number of plane-waves:    145165
 maximum index in each direction: 
   IXMAX=   32   IYMAX=   32   IZMAX=   32
   IXMIN=  -32   IYMIN=  -32   IZMIN=  -32


 parallel 3D FFT for wavefunctions:
    minimum data exchange during FFTs selected (reduces bandwidth)
 parallel 3D FFT for charge:
    minimum data exchange during FFTs selected (reduces bandwidth)


 total amount of memory used by VASP MPI-rank0   131440. kBytes
=======================================================================

   base      :      30000. kBytes
   nonl-proj :      17624. kBytes
   fftplans  :      26957. kBytes
   grid      :      48673. kBytes
   one-center:         40. kBytes
   wavefun   :       8146. kBytes
 
     INWAV:  cpu time    0.0000: real time    0.0000
 Broyden mixing: mesh for mixing (old mesh)
   NGX = 65   NGY = 65   NGZ = 65
  (NGX  =196   NGY  =196   NGZ  =196)
  gives a total of 274625 points

 initial charge density was supplied:
 charge density of overlapping atoms calculated
 number of electron      56.0000000 magnetization 
 keeping initial charge density in first step


--------------------------------------------------------------------------------------------------------


 Maximum index for augmentation-charges          565 (set IRDMAX)


--------------------------------------------------------------------------------------------------------


 First call to EWALD:  gamma=   0.089
 Maximum number of real-space cells 3x 3x 3
 Maximum number of reciprocal cells 3x 3x 3

    FEWALD:  cpu time    0.0040: real time    0.0033


--------------------------------------- Iteration      1(   1)  ---------------------------------------


    POTLOK:  cpu time    1.7627: real time    1.7645
    SETDIJ:  cpu time    0.0080: real time    0.0077
     EDDAV:  cpu time   11.3593: real time   11.3563
       DOS:  cpu time    0.0000: real time    0.0003
    --------------------------------------------
      LOOP:  cpu time   13.1300: real time   13.1289

 eigenvalue-minimisations  :   116
 total energy-change (2. order) : 0.2073756E+03  (-0.1046649E+04)
 number of electron      56.0000000 magnetization 
 augmentation part       56.0000000 magnetization 

 Free energy of the ion-electron system (eV)
  ---------------------------------------------------
  alpha Z        PSCENC =         2.51538199
  Ewald energy   TEWEN  =      2629.98113996
  -Hartree energ DENC   =     -3440.31222751
  -exchange      EXHF   =         0.00000000
  -V(xc)+E(xc)   XCENC  =       -49.24028238
  PAW double counting   =       915.51080863     -758.35430496
  entropy T*S    EENTRO =        -0.42983222
  eigenvalues    EBANDS =      -334.19020755
  atomic energy  EATOM  =      1241.89512738
  Solvation  Ediel_sol  =         0.00000000
  ---------------------------------------------------
  free energy    TOTEN  =       207.37560333 eV

  energy without entropy =      207.80543556  energy(sigma->0) =      207.59051944


--------------------------------------------------------------------------------------------------------




--------------------------------------- Iteration      1(   2)  ---------------------------------------


     EDDAV:  cpu time   13.6969: real time   13.7417
       DOS:  cpu time    0.0000: real time    0.0002
    --------------------------------------------
      LOOP:  cpu time   13.6969: real time   13.7419

 eigenvalue-minimisations  :   144
 total energy-change (2. order) :-0.2331909E+03  (-0.2183564E+03)
 number of electron      56.0000000 magnetization 
 augmentation part       56.0000000 magnetization 

 Free energy of the ion-electron system (eV)
  ---------------------------------------------------
  alpha Z        PSCENC =         2.51538199
  Ewald energy   TEWEN  =      2629.98113996
  -Hartree energ DENC   =     -3440.31222751
  -exchange      EXHF   =         0.00000000
  -V(xc)+E(xc)   XCENC  =       -49.24028238
  PAW double counting   =       915.51080863     -758.35430496
  entropy T*S    EENTRO =        -0.00000000
  eigenvalues    EBANDS =      -567.81093648
  atomic energy  EATOM  =      1241.89512738
  Solvation  Ediel_sol  =         0.00000000
  ---------------------------------------------------
  free energy    TOTEN  =       -25.81529337 eV

  energy without entropy =      -25.81529337  energy(sigma->0) =      -25.81529337


--------------------------------------------------------------------------------------------------------




--------------------------------------- Iteration      1(   3)  ---------------------------------------


     EDDAV:  cpu time   11.2823: real time   11.2917
       DOS:  cpu time    0.0000: real time    0.0002
    --------------------------------------------
      LOOP:  cpu time   11.2823: real time   11.2919

 eigenvalue-minimisations  :   112
 total energy-change (2. order) :-0.7465906E+02  (-0.7449429E+02)
 number of electron      56.0000000 magnetization 
 augmentation part       56.0000000 magnetization 

 Free energy of the ion-electron system (eV)
  ---------------------------------------------------
  alpha Z        PSCENC =         2.51538199
  Ewald energy   TEWEN  =      2629.98113996
  -Hartree energ DENC   =     -3440.31222751
  -exchange      EXHF   =         0.00000000
  -V(xc)+E(xc)   XCENC  =       -49.24028238
  PAW double counting   =       915.51080863     -758.35430496
  entropy T*S    EENTRO =        -0.00000000
  eigenvalues    EBANDS =      -642.47000113
  atomic energy  EATOM  =      1241.89512738
  Solvation  Ediel_sol  =         0.00000000
  ---------------------------------------------------
  free energy    TOTEN  =      -100.47435802 eV

  energy without entropy =     -100.47435802  energy(sigma->0) =     -100.47435802


--------------------------------------------------------------------------------------------------------




--------------------------------------- Iteration      1(   4)  ---------------------------------------


     EDDAV:  cpu time   10.4564: real time   10.4538
       DOS:  cpu time    0.0000: real time    0.0002
    --------------------------------------------
      LOOP:  cpu time   10.4564: real time   10.4540

 eigenvalue-minimisations  :   104
 total energy-change (2. order) :-0.4216264E+01  (-0.4201292E+01)
 number of electron      56.0000000 magnetization 
 augmentation part       56.0000000 magnetization 

 Free energy of the ion-electron system (eV)
  ---------------------------------------------------
  alpha Z        PSCENC =         2.51538199
  Ewald energy   TEWEN  =      2629.98113996
  -Hartree energ DENC   =     -3440.31222751
  -exchange      EXHF   =         0.00000000
  -V(xc)+E(xc)   XCENC  =       -49.24028238
  PAW double counting   =       915.51080863     -758.35430496
  entropy T*S    EENTRO =        -0.00000000
  eigenvalues    EBANDS =      -646.68626554
  atomic energy  EATOM  =      1241.89512738
  Solvation  Ediel_sol  =         0.00000000
  ---------------------------------------------------
  free energy    TOTEN  =      -104.69062243 eV

  energy without entropy =     -104.69062243  energy(sigma->0) =     -104.69062243


--------------------------------------------------------------------------------------------------------




--------------------------------------- Iteration      1(   5)  ---------------------------------------


     EDDAV:  cpu time   12.9000: real time   12.9742
       DOS:  cpu time    0.0010: real time    0.0003
    CHARGE:  cpu time    0.4839: real time    0.4847
    MIXING:  cpu time    0.0440: real time    0.0436
    --------------------------------------------
      LOOP:  cpu time   13.4290: real time   13.5028

 eigenvalue-minimisations  :   136
 total energy-change (2. order) :-0.6898187E-01  (-0.6891901E-01)
 number of electron      56.0000012 magnetization 
 augmentation part       -4.3554368 magnetization 

 Broyden mixing:
  rms(total) = 0.14575E+01    rms(broyden)= 0.14574E+01
  rms(prec ) = 0.15538E+01
  weight for this iteration     100.00

 Free energy of the ion-electron system (eV)
  ---------------------------------------------------
  alpha Z        PSCENC =         2.51538199
  Ewald energy   TEWEN  =      2629.98113996
  -Hartree energ DENC   =     -3440.31222751
  -exchange      EXHF   =         0.00000000
  -V(xc)+E(xc)   XCENC  =       -49.24028238
  PAW double counting   =       915.51080863     -758.35430496
  entropy T*S    EENTRO =        -0.00000000
  eigenvalues    EBANDS =      -646.75524741
  atomic energy  EATOM  =      1241.89512738
  Solvation  Ediel_sol  =         0.00000000
  ---------------------------------------------------
  free energy    TOTEN  =      -104.75960430 eV

  energy without entropy =     -104.75960430  energy(sigma->0) =     -104.75960430


--------------------------------------------------------------------------------------------------------




--------------------------------------- Iteration      1(   6)  ---------------------------------------


    POTLOK:  cpu time    1.6957: real time    1.6958
    SETDIJ:  cpu time    0.0070: real time    0.0077
     EDDAV:  cpu time   10.4694: real time   10.4657
       DOS:  cpu time    0.0000: real time    0.0003
    CHARGE:  cpu time    0.4889: real time    0.4890
    MIXING:  cpu time    0.0450: real time    0.0447
    --------------------------------------------
      LOOP:  cpu time   12.7061: real time   12.7033

 eigenvalue-minimisations  :   104
 total energy-change (2. order) : 0.3177959E+01  (-0.1589958E+00)
 number of electron      56.0000011 magnetization 
 augmentation part       -4.3547745 magnetization 

 Broyden mixing:
  rms(total) = 0.84183E+00    rms(broyden)= 0.84183E+00
  rms(prec ) = 0.90080E+00
  weight for this iteration     100.00

 eigenvalues of (default mixing * dielectric matrix)
  average eigenvalue GAMMA=   2.2972
  2.2972

 Free energy of the ion-electron system (eV)
  ---------------------------------------------------
  alpha Z        PSCENC =         2.51538199
  Ewald energy   TEWEN  =      2629.98113996
  -Hartree energ DENC   =     -3471.24946063
  -exchange      EXHF   =         0.00000000
  -V(xc)+E(xc)   XCENC  =       -45.61226026
  PAW double counting   =      1756.95480936    -1600.66524045
  entropy T*S    EENTRO =        -0.00000000
  eigenvalues    EBANDS =      -615.40114267
  atomic energy  EATOM  =      1241.89512738
  Solvation  Ediel_sol  =         0.00000000
  ---------------------------------------------------
  free energy    TOTEN  =      -101.58164533 eV

  energy without entropy =     -101.58164533  energy(sigma->0) =     -101.58164533


--------------------------------------------------------------------------------------------------------




--------------------------------------- Iteration      1(   7)  ---------------------------------------


    POTLOK:  cpu time    1.7097: real time    1.7118
    SETDIJ:  cpu time    0.0080: real time    0.0079
     EDDAV:  cpu time   10.4034: real time   10.4692
       DOS:  cpu time    0.0010: real time    0.0005
    CHARGE:  cpu time    0.4849: real time    0.4858
    MIXING:  cpu time    0.0480: real time    0.0474
    --------------------------------------------
      LOOP:  cpu time   12.6551: real time   12.7227

 eigenvalue-minimisations  :   104
 total energy-change (2. order) : 0.1658113E+01  (-0.4019554E+00)
 number of electron      56.0000009 magnetization 
 augmentation part       -4.3507666 magnetization 

 Broyden mixing:
  rms(total) = 0.12100E+00    rms(broyden)= 0.12085E+00
  rms(prec ) = 0.15233E+00
  weight for this iteration     100.00

 eigenvalues of (default mixing * dielectric matrix)
  average eigenvalue GAMMA=   1.8416
  1.7357  1.9474

 Free energy of the ion-electron system (eV)
  ---------------------------------------------------
  alpha Z        PSCENC =         2.51538199
  Ewald energy   TEWEN  =      2629.98113996
  -Hartree energ DENC   =     -3526.19770330
  -exchange      EXHF   =         0.00000000
  -V(xc)+E(xc)   XCENC  =       -39.87962639
  PAW double counting   =      3559.08577769    -3403.95269823
  entropy T*S    EENTRO =        -0.00000000
  eigenvalues    EBANDS =      -563.37093189
  atomic energy  EATOM  =      1241.89512738
  Solvation  Ediel_sol  =         0.00000000
  ---------------------------------------------------
  free energy    TOTEN  =       -99.92353280 eV

  energy without entropy =      -99.92353280  energy(sigma->0) =      -99.92353280


--------------------------------------------------------------------------------------------------------




--------------------------------------- Iteration      1(   8)  ---------------------------------------


    POTLOK:  cpu time    1.7027: real time    1.7023
    SETDIJ:  cpu time    0.0080: real time    0.0079
     EDDAV:  cpu time   11.0643: real time   11.0822
       DOS:  cpu time    0.0000: real time    0.0004
    CHARGE:  cpu time    0.4849: real time    0.4844
    MIXING:  cpu time    0.0500: real time    0.0497
    --------------------------------------------
      LOOP:  cpu time   13.3100: real time   13.3268

 eigenvalue-minimisations  :   112
 total energy-change (2. order) : 0.5328881E-01  (-0.2732376E-01)
 number of electron      56.0000009 magnetization 
 augmentation part       -4.3453984 magnetization 

 Broyden mixing:
  rms(total) = 0.60464E-01    rms(broyden)= 0.60449E-01
  rms(prec ) = 0.79780E-01
  weight for this iteration     100.00

 eigenvalues of (default mixing * dielectric matrix)
  average eigenvalue GAMMA=   1.9656
  2.6398  1.6285  1.6285

 Free energy of the ion-electron system (eV)
  ---------------------------------------------------
  alpha Z        PSCENC =         2.51538199
  Ewald energy   TEWEN  =      2629.98113996
  -Hartree energ DENC   =     -3534.39039520
  -exchange      EXHF   =         0.00000000
  -V(xc)+E(xc)   XCENC  =       -39.88064053
  PAW double counting   =      3581.26971474    -3426.05944540
  entropy T*S    EENTRO =        -0.00000000
  eigenvalues    EBANDS =      -555.20112693
  atomic energy  EATOM  =      1241.89512738
  Solvation  Ediel_sol  =         0.00000000
  ---------------------------------------------------
  free energy    TOTEN  =       -99.87024399 eV

  energy without entropy =      -99.87024399  energy(sigma->0) =      -99.87024399


--------------------------------------------------------------------------------------------------------




--------------------------------------- Iteration      1(   9)  ---------------------------------------


    POTLOK:  cpu time    1.7137: real time    1.7134
    SETDIJ:  cpu time    0.0080: real time    0.0078
     EDDAV:  cpu time   11.0633: real time   11.0642
       DOS:  cpu time    0.0000: real time    0.0004
    CHARGE:  cpu time    0.4829: real time    0.4824
    MIXING:  cpu time    0.0520: real time    0.0526
    --------------------------------------------
      LOOP:  cpu time   13.3200: real time   13.3207

 eigenvalue-minimisations  :   112
 total energy-change (2. order) : 0.3570192E-01  (-0.7137024E-02)
 number of electron      56.0000009 magnetization 
 augmentation part       -4.3306953 magnetization 

 Broyden mixing:
  rms(total) = 0.32319E-01    rms(broyden)= 0.32318E-01
  rms(prec ) = 0.44077E-01
  weight for this iteration     100.00

 eigenvalues of (default mixing * dielectric matrix)
  average eigenvalue GAMMA=   1.7554
  2.5081  1.8367  1.8367  0.8402

 Free energy of the ion-electron system (eV)
  ---------------------------------------------------
  alpha Z        PSCENC =         2.51538199
  Ewald energy   TEWEN  =      2629.98113996
  -Hartree energ DENC   =     -3546.09867382
  -exchange      EXHF   =         0.00000000
  -V(xc)+E(xc)   XCENC  =       -39.18482665
  PAW double counting   =      3716.22207982    -3561.05793595
  entropy T*S    EENTRO =        -0.00000000
  eigenvalues    EBANDS =      -544.10683480
  atomic energy  EATOM  =      1241.89512738
  Solvation  Ediel_sol  =         0.00000000
  ---------------------------------------------------
  free energy    TOTEN  =       -99.83454207 eV

  energy without entropy =      -99.83454207  energy(sigma->0) =      -99.83454207


--------------------------------------------------------------------------------------------------------




--------------------------------------- Iteration      1(  10)  ---------------------------------------


    POTLOK:  cpu time    1.7167: real time    1.7265
    SETDIJ:  cpu time    0.0080: real time    0.0078
     EDDAV:  cpu time   11.0283: real time   11.0806
       DOS:  cpu time    0.0010: real time    0.0006
    CHARGE:  cpu time    0.4989: real time    0.4989
    MIXING:  cpu time    0.0530: real time    0.0536
    --------------------------------------------
      LOOP:  cpu time   13.3060: real time   13.3680

 eigenvalue-minimisations  :   112
 total energy-change (2. order) :-0.6111894E-04  (-0.2764476E-03)
 number of electron      56.0000009 magnetization 
 augmentation part       -4.3297868 magnetization 

 Broyden mixing:
  rms(total) = 0.14682E-01    rms(broyden)= 0.14682E-01
  rms(prec ) = 0.28022E-01
  weight for this iteration     100.00

 eigenvalues of (default mixing * dielectric matrix)
  average eigenvalue GAMMA=   1.8680
  2.8236  2.2209  1.0774  1.6089  1.6089

 Free energy of the ion-electron system (eV)
  ---------------------------------------------------
  alpha Z        PSCENC =         2.51538199
  Ewald energy   TEWEN  =      2629.98113996
  -Hartree energ DENC   =     -3548.34200820
  -exchange      EXHF   =         0.00000000
  -V(xc)+E(xc)   XCENC  =       -39.17394625
  PAW double counting   =      3649.49007196    -3494.27848343
  entropy T*S    EENTRO =        -0.00000000
  eigenvalues    EBANDS =      -541.92188660
  atomic energy  EATOM  =      1241.89512738
  Solvation  Ediel_sol  =         0.00000000
  ---------------------------------------------------
  free energy    TOTEN  =       -99.83460319 eV

  energy without entropy =      -99.83460319  energy(sigma->0) =      -99.83460319


--------------------------------------------------------------------------------------------------------




--------------------------------------- Iteration      1(  11)  ---------------------------------------


    POTLOK:  cpu time    1.7297: real time    1.7300
    SETDIJ:  cpu time    0.0080: real time    0.0077
     EDDAV:  cpu time   10.4514: real time   10.4573
       DOS:  cpu time    0.0010: real time    0.0004
    CHARGE:  cpu time    0.4879: real time    0.4870
    MIXING:  cpu time    0.0570: real time    0.0570
    --------------------------------------------
      LOOP:  cpu time   12.7351: real time   12.7393

 eigenvalue-minimisations  :   104
 total energy-change (2. order) : 0.9192050E-04  (-0.6510057E-03)
 number of electron      56.0000009 magnetization 
 augmentation part       -4.3284287 magnetization 

 Broyden mixing:
  rms(total) = 0.80658E-02    rms(broyden)= 0.80655E-02
  rms(prec ) = 0.14564E-01
  weight for this iteration     100.00

 eigenvalues of (default mixing * dielectric matrix)
  average eigenvalue GAMMA=   1.8824
  3.2679  2.5828  1.7420  1.7420  1.0531  0.9068

 Free energy of the ion-electron system (eV)
  ---------------------------------------------------
  alpha Z        PSCENC =         2.51538199
  Ewald energy   TEWEN  =      2629.98113996
  -Hartree energ DENC   =     -3555.01346959
  -exchange      EXHF   =         0.00000000
  -V(xc)+E(xc)   XCENC  =       -38.98143409
  PAW double counting   =      3615.56553118    -3460.31574532
  entropy T*S    EENTRO =        -0.00000000
  eigenvalues    EBANDS =      -535.48104278
  atomic energy  EATOM  =      1241.89512738
  Solvation  Ediel_sol  =         0.00000000
  ---------------------------------------------------
  free energy    TOTEN  =       -99.83451127 eV

  energy without entropy =      -99.83451127  energy(sigma->0) =      -99.83451127


--------------------------------------------------------------------------------------------------------




--------------------------------------- Iteration      1(  12)  ---------------------------------------


    POTLOK:  cpu time    1.7497: real time    1.7523
    SETDIJ:  cpu time    0.0080: real time    0.0077
     EDDAV:  cpu time   10.1575: real time   10.2304
       DOS:  cpu time    0.0000: real time    0.0003
    CHARGE:  cpu time    0.4879: real time    0.4868
    MIXING:  cpu time    0.0610: real time    0.0605
    --------------------------------------------
      LOOP:  cpu time   12.4641: real time   12.5381

 eigenvalue-minimisations  :   102
 total energy-change (2. order) :-0.4634712E-02  (-0.1264496E-03)
 number of electron      56.0000009 magnetization 
 augmentation part       -4.3277988 magnetization 

 Broyden mixing:
  rms(total) = 0.55023E-02    rms(broyden)= 0.55022E-02
  rms(prec ) = 0.94688E-02
  weight for this iteration     100.00

 eigenvalues of (default mixing * dielectric matrix)
  average eigenvalue GAMMA=   2.0996
  4.6636  2.6219  2.3389  1.5602  1.5602  0.9761  0.9761

 Free energy of the ion-electron system (eV)
  ---------------------------------------------------
  alpha Z        PSCENC =         2.51538199
  Ewald energy   TEWEN  =      2629.98113996
  -Hartree energ DENC   =     -3557.59482776
  -exchange      EXHF   =         0.00000000
  -V(xc)+E(xc)   XCENC  =       -38.93927024
  PAW double counting   =      3604.94556911    -3449.69119981
  entropy T*S    EENTRO =        -0.00000000
  eigenvalues    EBANDS =      -532.95106661
  atomic energy  EATOM  =      1241.89512738
  Solvation  Ediel_sol  =         0.00000000
  ---------------------------------------------------
  free energy    TOTEN  =       -99.83914598 eV

  energy without entropy =      -99.83914598  energy(sigma->0) =      -99.83914598


--------------------------------------------------------------------------------------------------------




--------------------------------------- Iteration      1(  13)  ---------------------------------------


    POTLOK:  cpu time    1.7287: real time    1.7294
    SETDIJ:  cpu time    0.0080: real time    0.0078
     EDDAV:  cpu time   11.0863: real time   11.0818
       DOS:  cpu time    0.0000: real time    0.0003
    CHARGE:  cpu time    0.4899: real time    0.4904
    MIXING:  cpu time    0.0650: real time    0.0650
    --------------------------------------------
      LOOP:  cpu time   13.3780: real time   13.3748

 eigenvalue-minimisations  :   112
 total energy-change (2. order) :-0.4435754E-02  (-0.1632746E-03)
 number of electron      56.0000009 magnetization 
 augmentation part       -4.3275516 magnetization 

 Broyden mixing:
  rms(total) = 0.33861E-02    rms(broyden)= 0.33860E-02
  rms(prec ) = 0.50810E-02
  weight for this iteration     100.00

 eigenvalues of (default mixing * dielectric matrix)
  average eigenvalue GAMMA=   2.2091
  5.6688  2.9261  2.2931  1.8344  1.8344  0.9736  0.9736  1.1688

 Free energy of the ion-electron system (eV)
  ---------------------------------------------------
  alpha Z        PSCENC =         2.51538199
  Ewald energy   TEWEN  =      2629.98113996
  -Hartree energ DENC   =     -3560.20962688
  -exchange      EXHF   =         0.00000000
  -V(xc)+E(xc)   XCENC  =       -38.89111197
  PAW double counting   =      3610.20607567    -3454.95988400
  entropy T*S    EENTRO =        -0.00000000
  eigenvalues    EBANDS =      -530.38068388
  atomic energy  EATOM  =      1241.89512738
  Solvation  Ediel_sol  =         0.00000000
  ---------------------------------------------------
  free energy    TOTEN  =       -99.84358173 eV

  energy without entropy =      -99.84358173  energy(sigma->0) =      -99.84358173


--------------------------------------------------------------------------------------------------------




--------------------------------------- Iteration      1(  14)  ---------------------------------------


    POTLOK:  cpu time    1.7267: real time    1.7260
    SETDIJ:  cpu time    0.0080: real time    0.0080
     EDDAV:  cpu time   11.0903: real time   11.1082
       DOS:  cpu time    0.0000: real time    0.0004
    CHARGE:  cpu time    0.4869: real time    0.4881
    MIXING:  cpu time    0.0710: real time    0.0708
    --------------------------------------------
      LOOP:  cpu time   13.3830: real time   13.4014

 eigenvalue-minimisations  :   112
 total energy-change (2. order) :-0.4456625E-02  (-0.3724103E-04)
 number of electron      56.0000009 magnetization 
 augmentation part       -4.3270218 magnetization 

 Broyden mixing:
  rms(total) = 0.14431E-02    rms(broyden)= 0.14431E-02
  rms(prec ) = 0.25944E-02
  weight for this iteration     100.00

 eigenvalues of (default mixing * dielectric matrix)
  average eigenvalue GAMMA=   2.2941
  6.5813  2.9499  2.7205  2.1031  1.6301  1.6301  1.1056  0.9634  0.9634

 Free energy of the ion-electron system (eV)
  ---------------------------------------------------
  alpha Z        PSCENC =         2.51538199
  Ewald energy   TEWEN  =      2629.98113996
  -Hartree energ DENC   =     -3560.88348721
  -exchange      EXHF   =         0.00000000
  -V(xc)+E(xc)   XCENC  =       -38.90588353
  PAW double counting   =      3610.25906267    -3455.01361815
  entropy T*S    EENTRO =        -0.00000000
  eigenvalues    EBANDS =      -529.69576148
  atomic energy  EATOM  =      1241.89512738
  Solvation  Ediel_sol  =         0.00000000
  ---------------------------------------------------
  free energy    TOTEN  =       -99.84803836 eV

  energy without entropy =      -99.84803836  energy(sigma->0) =      -99.84803836


--------------------------------------------------------------------------------------------------------




--------------------------------------- Iteration      1(  15)  ---------------------------------------


    POTLOK:  cpu time    1.7157: real time    1.7223
    SETDIJ:  cpu time    0.0080: real time    0.0077
     EDDAV:  cpu time   11.0843: real time   11.0809
       DOS:  cpu time    0.0000: real time    0.0003
    CHARGE:  cpu time    0.4839: real time    0.4842
    MIXING:  cpu time    0.0790: real time    0.0789
    --------------------------------------------
      LOOP:  cpu time   13.3710: real time   13.3744

 eigenvalue-minimisations  :   112
 total energy-change (2. order) :-0.3878212E-02  (-0.4224609E-04)
 number of electron      56.0000009 magnetization 
 augmentation part       -4.3268059 magnetization 

 Broyden mixing:
  rms(total) = 0.12911E-02    rms(broyden)= 0.12910E-02
  rms(prec ) = 0.17735E-02
  weight for this iteration     100.00

 eigenvalues of (default mixing * dielectric matrix)
  average eigenvalue GAMMA=   2.3158
  6.6988  3.8233  2.6054  2.0133  2.0133  1.7890  1.2784  0.9448  0.9956  0.9956

 Free energy of the ion-electron system (eV)
  ---------------------------------------------------
  alpha Z        PSCENC =         2.51538199
  Ewald energy   TEWEN  =      2629.98113996
  -Hartree energ DENC   =     -3561.09690810
  -exchange      EXHF   =         0.00000000
  -V(xc)+E(xc)   XCENC  =       -38.91222607
  PAW double counting   =      3613.62949947    -3458.38411113
  entropy T*S    EENTRO =        -0.00000000
  eigenvalues    EBANDS =      -529.47982006
  atomic energy  EATOM  =      1241.89512738
  Solvation  Ediel_sol  =         0.00000000
  ---------------------------------------------------
  free energy    TOTEN  =       -99.85191657 eV

  energy without entropy =      -99.85191657  energy(sigma->0) =      -99.85191657


--------------------------------------------------------------------------------------------------------




--------------------------------------- Iteration      1(  16)  ---------------------------------------


    POTLOK:  cpu time    1.7077: real time    1.7425
    SETDIJ:  cpu time    0.0080: real time    0.0078
     EDDAV:  cpu time   11.0703: real time   11.0688
       DOS:  cpu time    0.0010: real time    0.0008
    CHARGE:  cpu time    0.4999: real time    0.5002
    MIXING:  cpu time    0.0880: real time    0.0879
    --------------------------------------------
      LOOP:  cpu time   13.3750: real time   13.4080

 eigenvalue-minimisations  :   112
 total energy-change (2. order) :-0.1229491E-02  (-0.7570679E-05)
 number of electron      56.0000009 magnetization 
 augmentation part       -4.3270457 magnetization 

 Broyden mixing:
  rms(total) = 0.58274E-03    rms(broyden)= 0.58273E-03
  rms(prec ) = 0.90210E-03
  weight for this iteration     100.00

 eigenvalues of (default mixing * dielectric matrix)
  average eigenvalue GAMMA=   2.4202
  7.3745  4.7186  2.6320  2.6320  1.8065  1.8065  1.3638  1.3638  0.9747  0.9747
  0.9745

 Free energy of the ion-electron system (eV)
  ---------------------------------------------------
  alpha Z        PSCENC =         2.51538199
  Ewald energy   TEWEN  =      2629.98113996
  -Hartree energ DENC   =     -3561.20226762
  -exchange      EXHF   =         0.00000000
  -V(xc)+E(xc)   XCENC  =       -38.91025764
  PAW double counting   =      3613.42496054    -3458.17862933
  entropy T*S    EENTRO =        -0.00000000
  eigenvalues    EBANDS =      -529.37860134
  atomic energy  EATOM  =      1241.89512738
  Solvation  Ediel_sol  =         0.00000000
  ---------------------------------------------------
  free energy    TOTEN  =       -99.85314606 eV

  energy without entropy =      -99.85314606  energy(sigma->0) =      -99.85314606


--------------------------------------------------------------------------------------------------------




--------------------------------------- Iteration      1(  17)  ---------------------------------------


    POTLOK:  cpu time    1.7347: real time    1.7359
    SETDIJ:  cpu time    0.0100: real time    0.0095
     EDDAV:  cpu time   11.0573: real time   11.0563
       DOS:  cpu time    0.0010: real time    0.0007
    CHARGE:  cpu time    0.4949: real time    0.4942
    MIXING:  cpu time    0.0980: real time    0.0986
    --------------------------------------------
      LOOP:  cpu time   13.3960: real time   13.3952

 eigenvalue-minimisations  :   112
 total energy-change (2. order) :-0.9584610E-03  (-0.7614532E-05)
 number of electron      56.0000009 magnetization 
 augmentation part       -4.3272115 magnetization 

 Broyden mixing:
  rms(total) = 0.32450E-03    rms(broyden)= 0.32447E-03
  rms(prec ) = 0.46273E-03
  weight for this iteration     100.00

 eigenvalues of (default mixing * dielectric matrix)
  average eigenvalue GAMMA=   2.4392
  7.5671  5.1216  2.6718  2.6718  1.9788  1.9788  1.5771  1.5771  1.2011  0.9786
  0.9786  0.9672

 Free energy of the ion-electron system (eV)
  ---------------------------------------------------
  alpha Z        PSCENC =         2.51538199
  Ewald energy   TEWEN  =      2629.98113996
  -Hartree energ DENC   =     -3561.20836002
  -exchange      EXHF   =         0.00000000
  -V(xc)+E(xc)   XCENC  =       -38.91374331
  PAW double counting   =      3611.90844111    -3456.66095995
  entropy T*S    EENTRO =        -0.00000000
  eigenvalues    EBANDS =      -529.37113169
  atomic energy  EATOM  =      1241.89512738
  Solvation  Ediel_sol  =         0.00000000
  ---------------------------------------------------
  free energy    TOTEN  =       -99.85410452 eV

  energy without entropy =      -99.85410452  energy(sigma->0) =      -99.85410452


--------------------------------------------------------------------------------------------------------




--------------------------------------- Iteration      1(  18)  ---------------------------------------


    POTLOK:  cpu time    1.7227: real time    1.7223
    SETDIJ:  cpu time    0.0080: real time    0.0078
     EDDAV:  cpu time   10.4584: real time   10.4550
       DOS:  cpu time    0.0000: real time    0.0007
    CHARGE:  cpu time    0.4879: real time    0.4863
    MIXING:  cpu time    0.1070: real time    0.1077
    --------------------------------------------
      LOOP:  cpu time   12.7841: real time   12.7800

 eigenvalue-minimisations  :   104
 total energy-change (2. order) :-0.3211999E-03  (-0.1183686E-05)
 number of electron      56.0000009 magnetization 
 augmentation part       -4.3271810 magnetization 

 Broyden mixing:
  rms(total) = 0.15372E-03    rms(broyden)= 0.15369E-03
  rms(prec ) = 0.22688E-03
  weight for this iteration     100.00

 eigenvalues of (default mixing * dielectric matrix)
  average eigenvalue GAMMA=   2.4984
  8.1622  5.8244  3.1936  2.5958  2.3977  1.7874  1.7874  1.3837  1.3837  0.9708
  0.9708  1.0110  1.0110

 Free energy of the ion-electron system (eV)
  ---------------------------------------------------
  alpha Z        PSCENC =         2.51538199
  Ewald energy   TEWEN  =      2629.98113996
  -Hartree energ DENC   =     -3561.25587679
  -exchange      EXHF   =         0.00000000
  -V(xc)+E(xc)   XCENC  =       -38.91245158
  PAW double counting   =      3611.89908291    -3456.65223829
  entropy T*S    EENTRO =        -0.00000000
  eigenvalues    EBANDS =      -529.32459130
  atomic energy  EATOM  =      1241.89512738
  Solvation  Ediel_sol  =         0.00000000
  ---------------------------------------------------
  free energy    TOTEN  =       -99.85442572 eV

  energy without entropy =      -99.85442572  energy(sigma->0) =      -99.85442572


--------------------------------------------------------------------------------------------------------




--------------------------------------- Iteration      1(  19)  ---------------------------------------


    POTLOK:  cpu time    1.7277: real time    1.7273
    SETDIJ:  cpu time    0.0070: real time    0.0078
     EDDAV:  cpu time   10.4664: real time   10.4612
       DOS:  cpu time    0.0000: real time    0.0008
    CHARGE:  cpu time    0.4899: real time    0.4893
    MIXING:  cpu time    0.1190: real time    0.1193
    --------------------------------------------
      LOOP:  cpu time   12.8101: real time   12.8057

 eigenvalue-minimisations  :   104
 total energy-change (2. order) :-0.1164766E-03  (-0.3798969E-06)
 number of electron      56.0000009 magnetization 
 augmentation part       -4.3272087 magnetization 

 Broyden mixing:
  rms(total) = 0.14395E-03    rms(broyden)= 0.14394E-03
  rms(prec ) = 0.18275E-03
  weight for this iteration     100.00

 eigenvalues of (default mixing * dielectric matrix)
  average eigenvalue GAMMA=   2.4912
  8.3768  6.0657  3.3504  2.6965  2.1047  2.1047  1.7661  1.7661  1.5214  1.2588
  0.9990  0.9990  0.9337  0.9337

 Free energy of the ion-electron system (eV)
  ---------------------------------------------------
  alpha Z        PSCENC =         2.51538199
  Ewald energy   TEWEN  =      2629.98113996
  -Hartree energ DENC   =     -3561.26002518
  -exchange      EXHF   =         0.00000000
  -V(xc)+E(xc)   XCENC  =       -38.91195156
  PAW double counting   =      3611.83115834    -3456.58439427
  entropy T*S    EENTRO =        -0.00000000
  eigenvalues    EBANDS =      -529.32097885
  atomic energy  EATOM  =      1241.89512738
  Solvation  Ediel_sol  =         0.00000000
  ---------------------------------------------------
  free energy    TOTEN  =       -99.85454220 eV

  energy without entropy =      -99.85454220  energy(sigma->0) =      -99.85454220


--------------------------------------------------------------------------------------------------------




--------------------------------------- Iteration      1(  20)  ---------------------------------------


    POTLOK:  cpu time    1.7267: real time    1.7263
    SETDIJ:  cpu time    0.0080: real time    0.0078
     EDDAV:  cpu time    9.2006: real time    9.2104
       DOS:  cpu time    0.0010: real time    0.0008
    CHARGE:  cpu time    0.4879: real time    0.4881
    MIXING:  cpu time    0.1300: real time    0.1300
    --------------------------------------------
      LOOP:  cpu time   11.5542: real time   11.5633

 eigenvalue-minimisations  :    88
 total energy-change (2. order) :-0.5116491E-04  (-0.8963040E-07)
 number of electron      56.0000009 magnetization 
 augmentation part       -4.3272013 magnetization 

 Broyden mixing:
  rms(total) = 0.51592E-04    rms(broyden)= 0.51592E-04
  rms(prec ) = 0.75835E-04
  weight for this iteration     100.00

 eigenvalues of (default mixing * dielectric matrix)
  average eigenvalue GAMMA=   2.5314
  8.6267  6.4098  4.0604  2.8547  2.5745  1.8174  1.8174  1.8717  1.4199  1.4199
  1.2425  0.9899  0.9899  0.9743  0.9028

 Free energy of the ion-electron system (eV)
  ---------------------------------------------------
  alpha Z        PSCENC =         2.51538199
  Ewald energy   TEWEN  =      2629.98113996
  -Hartree energ DENC   =     -3561.26108454
  -exchange      EXHF   =         0.00000000
  -V(xc)+E(xc)   XCENC  =       -38.91285683
  PAW double counting   =      3611.69407155    -3456.44722105
  entropy T*S    EENTRO =        -0.00000000
  eigenvalues    EBANDS =      -529.31915182
  atomic energy  EATOM  =      1241.89512738
  Solvation  Ediel_sol  =         0.00000000
  ---------------------------------------------------
  free energy    TOTEN  =       -99.85459336 eV

  energy without entropy =      -99.85459336  energy(sigma->0) =      -99.85459336


--------------------------------------------------------------------------------------------------------




--------------------------------------- Iteration      1(  21)  ---------------------------------------


    POTLOK:  cpu time    1.7187: real time    1.7188
    SETDIJ:  cpu time    0.0080: real time    0.0081
     EDDAV:  cpu time    9.2526: real time    9.2486
       DOS:  cpu time    0.0000: real time    0.0003
    CHARGE:  cpu time    0.4879: real time    0.4875
    MIXING:  cpu time    0.1400: real time    0.1402
    --------------------------------------------
      LOOP:  cpu time   11.6072: real time   11.6036

 eigenvalue-minimisations  :    88
 total energy-change (2. order) :-0.2302763E-04  (-0.7213399E-07)
 number of electron      56.0000009 magnetization 
 augmentation part       -4.3271867 magnetization 

 Broyden mixing:
  rms(total) = 0.42266E-04    rms(broyden)= 0.42264E-04
  rms(prec ) = 0.55914E-04
  weight for this iteration     100.00

 eigenvalues of (default mixing * dielectric matrix)
  average eigenvalue GAMMA=   2.5182
  8.5495  6.6718  4.1395  2.9341  2.6178  2.0468  2.0468  1.7533  1.7533  1.6081
  1.1050  1.1050  0.9547  0.9547  1.0257  1.0257

 Free energy of the ion-electron system (eV)
  ---------------------------------------------------
  alpha Z        PSCENC =         2.51538199
  Ewald energy   TEWEN  =      2629.98113996
  -Hartree energ DENC   =     -3561.26925315
  -exchange      EXHF   =         0.00000000
  -V(xc)+E(xc)   XCENC  =       -38.91278190
  PAW double counting   =      3611.80268716    -3456.55594788
  entropy T*S    EENTRO =        -0.00000000
  eigenvalues    EBANDS =      -529.31096996
  atomic energy  EATOM  =      1241.89512738
  Solvation  Ediel_sol  =         0.00000000
  ---------------------------------------------------
  free energy    TOTEN  =       -99.85461639 eV

  energy without entropy =      -99.85461639  energy(sigma->0) =      -99.85461639


--------------------------------------------------------------------------------------------------------




--------------------------------------- Iteration      1(  22)  ---------------------------------------


    POTLOK:  cpu time    1.7237: real time    1.7254
    SETDIJ:  cpu time    0.0080: real time    0.0076
     EDDAV:  cpu time    9.2266: real time    9.2226
       DOS:  cpu time    0.0000: real time    0.0003
    CHARGE:  cpu time    0.4889: real time    0.4888
    MIXING:  cpu time    0.1530: real time    0.1534
    --------------------------------------------
      LOOP:  cpu time   11.6002: real time   11.5981

 eigenvalue-minimisations  :    88
 total energy-change (2. order) :-0.7868315E-05  (-0.1709781E-07)
 number of electron      56.0000009 magnetization 
 augmentation part       -4.3271950 magnetization 

 Broyden mixing:
  rms(total) = 0.16052E-04    rms(broyden)= 0.16051E-04
  rms(prec ) = 0.23643E-04
  weight for this iteration     100.00

 eigenvalues of (default mixing * dielectric matrix)
  average eigenvalue GAMMA=   2.5432
  8.8026  6.7870  4.7177  3.2809  2.5927  2.5927  1.8540  1.8540  1.6872  1.6872
  1.2532  1.2532  0.9947  0.9909  0.9909  0.9480  0.9480

 Free energy of the ion-electron system (eV)
  ---------------------------------------------------
  alpha Z        PSCENC =         2.51538199
  Ewald energy   TEWEN  =      2629.98113996
  -Hartree energ DENC   =     -3561.26800815
  -exchange      EXHF   =         0.00000000
  -V(xc)+E(xc)   XCENC  =       -38.91268655
  PAW double counting   =      3611.83363284    -3456.58683142
  entropy T*S    EENTRO =        -0.00000000
  eigenvalues    EBANDS =      -529.31238031
  atomic energy  EATOM  =      1241.89512738
  Solvation  Ediel_sol  =         0.00000000
  ---------------------------------------------------
  free energy    TOTEN  =       -99.85462426 eV

  energy without entropy =      -99.85462426  energy(sigma->0) =      -99.85462426


--------------------------------------------------------------------------------------------------------




--------------------------------------- Iteration      1(  23)  ---------------------------------------


    POTLOK:  cpu time    1.7177: real time    1.7166
    SETDIJ:  cpu time    0.0070: real time    0.0078
     EDDAV:  cpu time    9.2476: real time    9.2439
       DOS:  cpu time    0.0010: real time    0.0003
    CHARGE:  cpu time    0.4879: real time    0.4880
    MIXING:  cpu time    0.1680: real time    0.1682
    --------------------------------------------
      LOOP:  cpu time   11.6292: real time   11.6247

 eigenvalue-minimisations  :    88
 total energy-change (2. order) :-0.3266346E-05  (-0.8233982E-08)
 number of electron      56.0000009 magnetization 
 augmentation part       -4.3272015 magnetization 

 Broyden mixing:
  rms(total) = 0.12637E-04    rms(broyden)= 0.12637E-04
  rms(prec ) = 0.16940E-04
  weight for this iteration     100.00

 eigenvalues of (default mixing * dielectric matrix)
  average eigenvalue GAMMA=   2.5114
  8.8658  6.8341  4.8558  3.2573  2.6370  2.6370  1.9111  1.9111  1.7123  1.6582
  1.6582  1.1389  1.1389  0.9130  1.0456  1.0456  0.9924  0.9924

 Free energy of the ion-electron system (eV)
  ---------------------------------------------------
  alpha Z        PSCENC =         2.51538199
  Ewald energy   TEWEN  =      2629.98113996
  -Hartree energ DENC   =     -3561.26744120
  -exchange      EXHF   =         0.00000000
  -V(xc)+E(xc)   XCENC  =       -38.91278824
  PAW double counting   =      3611.80917892    -3456.56233964
  entropy T*S    EENTRO =        -0.00000000
  eigenvalues    EBANDS =      -529.31288669
  atomic energy  EATOM  =      1241.89512738
  Solvation  Ediel_sol  =         0.00000000
  ---------------------------------------------------
  free energy    TOTEN  =       -99.85462753 eV

  energy without entropy =      -99.85462753  energy(sigma->0) =      -99.85462753


--------------------------------------------------------------------------------------------------------




--------------------------------------- Iteration      1(  24)  ---------------------------------------


    POTLOK:  cpu time    1.7247: real time    1.7243
    SETDIJ:  cpu time    0.0080: real time    0.0079
     EDDAV:  cpu time    9.2386: real time    9.2356
       DOS:  cpu time    0.0000: real time    0.0003
    CHARGE:  cpu time    0.4869: real time    0.4870
    MIXING:  cpu time    0.1800: real time    0.1804
    --------------------------------------------
      LOOP:  cpu time   11.6382: real time   11.6355

 eigenvalue-minimisations  :    88
 total energy-change (2. order) :-0.2024176E-05  (-0.2661837E-08)
 number of electron      56.0000009 magnetization 
 augmentation part       -4.3272011 magnetization 

 Broyden mixing:
  rms(total) = 0.54050E-05    rms(broyden)= 0.54047E-05
  rms(prec ) = 0.80641E-05
  weight for this iteration     100.00

 eigenvalues of (default mixing * dielectric matrix)
  average eigenvalue GAMMA=   2.5723
  8.8748  7.1326  5.5424  3.9010  2.9909  2.4682  2.4682  1.8325  1.8325  1.7002
  1.7002  1.2435  1.2435  0.9907  0.9907  0.9531  0.9531  1.0437  1.0124

 Free energy of the ion-electron system (eV)
  ---------------------------------------------------
  alpha Z        PSCENC =         2.51538199
  Ewald energy   TEWEN  =      2629.98113996
  -Hartree energ DENC   =     -3561.26824177
  -exchange      EXHF   =         0.00000000
  -V(xc)+E(xc)   XCENC  =       -38.91276531
  PAW double counting   =      3611.77983059    -3456.53301993
  entropy T*S    EENTRO =        -0.00000000
  eigenvalues    EBANDS =      -529.31208246
  atomic energy  EATOM  =      1241.89512738
  Solvation  Ediel_sol  =         0.00000000
  ---------------------------------------------------
  free energy    TOTEN  =       -99.85462955 eV

  energy without entropy =      -99.85462955  energy(sigma->0) =      -99.85462955


--------------------------------------------------------------------------------------------------------




--------------------------------------- Iteration      1(  25)  ---------------------------------------


    POTLOK:  cpu time    1.7317: real time    1.7305
    SETDIJ:  cpu time    0.0080: real time    0.0078
     EDDAV:  cpu time    9.2406: real time    9.2477
       DOS:  cpu time    0.0010: real time    0.0003
    --------------------------------------------
      LOOP:  cpu time   10.9813: real time   10.9863

 eigenvalue-minimisations  :    88
 total energy-change (2. order) :-0.7052990E-06  (-0.1231781E-08)
 number of electron      56.0000009 magnetization 
 augmentation part       -4.3272011 magnetization 

 Free energy of the ion-electron system (eV)
  ---------------------------------------------------
  alpha Z        PSCENC =         2.51538199
  Ewald energy   TEWEN  =      2629.98113996
  -Hartree energ DENC   =     -3561.26916773
  -exchange      EXHF   =         0.00000000
  -V(xc)+E(xc)   XCENC  =       -38.91273988
  PAW double counting   =      3611.78312231    -3456.53631902
  entropy T*S    EENTRO =        -0.00000000
  eigenvalues    EBANDS =      -529.31117527
  atomic energy  EATOM  =      1241.89512738
  Solvation  Ediel_sol  =         0.00000000
  ---------------------------------------------------
  free energy    TOTEN  =       -99.85463025 eV

  energy without entropy =      -99.85463025  energy(sigma->0) =      -99.85463025


--------------------------------------------------------------------------------------------------------




 average (electrostatic) potential at core
  the test charge radii are     0.9892  1.1631  0.5201
  (the norm of the test charge is              1.0000)
       1 -93.4291       2 -93.4650       3 -93.5046       4 -93.5045       5 -40.4362
       6 -40.4362       7 -40.3404       8 -40.4206       9 -40.4206      10 -40.4779
      11 -40.6913      12 -40.6908      13 -41.0511      14 -41.0589      15 -41.0490
      16 -41.0679      17 -41.0588      18 -40.6830      19 -41.0515      20 -40.6908
      21 -40.6913      22 -41.0775      23 -40.6985      24 -40.6986      25 -41.0576
      26 -41.0675
 
 
 
 E-fermi :  -5.3626     XC(G=0):  -0.6099     alpha+bet : -0.3306


 k-point     1 :       0.0000    0.0000    0.0000
  band No.  band energies     occupation 
      1     -15.4136      2.00000
      2     -14.4500      2.00000
      3     -14.3369      2.00000
      4     -14.1467      2.00000
      5     -12.9843      2.00000
      6     -12.9281      2.00000
      7     -11.7770      2.00000
      8     -11.7218      2.00000
      9     -11.4507      2.00000
     10     -10.5404      2.00000
     11      -8.9863      2.00000
     12      -8.6413      2.00000
     13      -8.6242      2.00000
     14      -8.6241      2.00000
     15      -8.2046      2.00000
     16      -8.1863      2.00000
     17      -8.1804      2.00000
     18      -7.8601      2.00000
     19      -7.8576      2.00000
     20      -7.8517      2.00000
     21      -6.7585      2.00000
     22      -6.7573      2.00000
     23      -6.4642      2.00000
     24      -6.4494      2.00000
     25      -6.4400      2.00000
     26      -6.3458      2.00000
     27      -6.3425      2.00000
     28      -6.3317      2.00000
     29      -1.6330      0.00000
     30      -1.3293      0.00000
     31      -1.2699      0.00000
     32      -1.2192      0.00000
     33      -1.1576      0.00000
     34      -1.0583      0.00000
     35      -1.0267      0.00000
     36      -0.8970      0.00000
     37      -0.8717      0.00000
     38      -0.6543      0.00000
     39      -0.3470      0.00000
     40      -0.2076      0.00000
     41      -0.1931      0.00000
     42      -0.1834      0.00000


--------------------------------------------------------------------------------------------------------


 soft charge-density along one line, spin component           1
         0         1         2         3         4         5         6         7         8         9
 total charge-density along one line
 
 pseudopotential strength for first ion, spin component:           1
 19.618  27.377  -0.001   0.003   0.003  -0.001   0.006   0.005
 27.377  38.210  -0.001   0.004   0.004  -0.001   0.008   0.007
 -0.001  -0.001   4.360   0.000  -0.000   8.133   0.000  -0.000
  0.003   0.004   0.000   4.359   0.000   0.000   8.132   0.000
  0.003   0.004  -0.000   0.000   4.359  -0.000   0.000   8.132
 -0.001  -0.001   8.133   0.000  -0.000  15.181   0.001  -0.000
  0.006   0.008   0.000   8.132   0.000   0.001  15.179   0.001
  0.005   0.007  -0.000   0.000   8.132  -0.000   0.001  15.180
 total augmentation occupancy for first ion, spin component:           1
  5.537  -2.029   0.070  -0.340  -0.067  -0.021   0.101   0.021
 -2.029   0.810  -0.043   0.206   0.037   0.009  -0.045  -0.007
  0.070  -0.043   2.801  -0.107  -0.007  -0.605   0.037   0.003
 -0.340   0.206  -0.107   3.283   0.047   0.037  -0.773  -0.018
 -0.067   0.037  -0.007   0.047   2.825   0.003  -0.018  -0.609
 -0.021   0.009  -0.605   0.037   0.003   0.138  -0.010  -0.001
  0.101  -0.045   0.037  -0.773  -0.018  -0.010   0.185   0.006
  0.021  -0.007   0.003  -0.018  -0.609  -0.001   0.006   0.138


------------------------ aborting loop because EDIFF is reached ----------------------------------------


    CHARGE:  cpu time    0.4829: real time    0.4833
    FORLOC:  cpu time    0.1730: real time    0.1729
    FORNL :  cpu time    1.1548: real time    1.1533
    STRESS:  cpu time    8.6187: real time    8.6150
    FORCOR:  cpu time    1.7177: real time    1.7174
    FORHAR:  cpu time    0.5809: real time    0.5815
    MIXING:  cpu time    0.1910: real time    0.1912
    OFIELD:  cpu time    0.0000: real time    0.0000

  FORCE on cell =-STRESS in cart. coord.  units (eV):
  Direction    XX          YY          ZZ          XY          YZ          ZX
  --------------------------------------------------------------------------------------
  Alpha Z     2.51538     2.51538     2.51538
  Ewald     876.64706   876.62235   876.71007    -0.21850     0.02563    -0.50464
  Hartree  1186.89105  1186.83022  1187.54783    -0.21363    -0.09438    -0.47450
  E(xc)    -180.41148  -180.24724  -180.18483    -0.02967    -0.00830     0.09416
  Local   -2546.60377 -2546.43993 -2547.17910     0.41739     0.05669     1.02763
  n-local   239.28016   238.42076   238.03038     0.15739     0.05741    -0.50198
  augment   -13.79081   -13.78425   -13.77424    -0.00174    -0.00165     0.00556
  Kinetic   434.91995   435.36925   435.55380    -0.08258    -0.02529     0.26332
  Fock        0.00000     0.00000     0.00000     0.00000     0.00000     0.00000
  -------------------------------------------------------------------------------------
  Total      -0.55245    -0.71344    -0.78071     0.02866     0.01010    -0.09044
  in kB      -0.11064    -0.14288    -0.15635     0.00574     0.00202    -0.01811
  external pressure =       -0.14 kB  Pullay stress =        0.00 kB


 VOLUME and BASIS-vectors are now :
 -----------------------------------------------------------------------------
  energy-cutoff  :      400.00
[...]
 next E    =  -100.103302   (d E  =  -0.00013)


--------------------------------------------------------------------------------------------------------


    WAVPRE:  cpu time    0.5789: real time    0.5814
    FEWALD:  cpu time    0.0020: real time    0.0027
    ORTHCH:  cpu time    1.0198: real time    1.0196
     LOOP+:  cpu time   81.0867: real time   81.0910


--------------------------------------- Iteration     18(   1)  ---------------------------------------


    POTLOK:  cpu time    1.7077: real time    1.7191
    SETDIJ:  cpu time    0.0080: real time    0.0080
     EDDAV:  cpu time    8.8786: real time    8.8744
       DOS:  cpu time    0.0000: real time    0.0003
    CHARGE:  cpu time    0.4869: real time    0.4872
    MIXING:  cpu time    0.0430: real time    0.0428
    --------------------------------------------
      LOOP:  cpu time   11.1243: real time   11.1318

 eigenvalue-minimisations  :    84
 total energy-change (2. order) :-0.4436376E-04  (-0.2280815E-03)
 number of electron      56.0000035 magnetization 
 augmentation part       -4.3137206 magnetization 

 Broyden mixing:
  rms(total) = 0.15672E-02    rms(broyden)= 0.15668E-02
  rms(prec ) = 0.16288E-02
  weight for this iteration     100.00

 Free energy of the ion-electron system (eV)
  ---------------------------------------------------
  alpha Z        PSCENC =         2.51538199
  Ewald energy   TEWEN  =      2591.54044434
  -Hartree energ DENC   =     -3523.70796058
  -exchange      EXHF   =         0.00000000
  -V(xc)+E(xc)   XCENC  =       -38.78682279
  PAW double counting   =      3679.06457288    -3523.80010145
  entropy T*S    EENTRO =        -0.00000000
  eigenvalues    EBANDS =      -528.82393701
  atomic energy  EATOM  =      1241.89512738
  Solvation  Ediel_sol  =         0.00000000
  ---------------------------------------------------
  free energy    TOTEN  =      -100.10329523 eV

  energy without entropy =     -100.10329523  energy(sigma->0) =     -100.10329523


--------------------------------------------------------------------------------------------------------




--------------------------------------- Iteration     18(   2)  ---------------------------------------


    POTLOK:  cpu time    1.7247: real time    1.7239
    SETDIJ:  cpu time    0.0080: real time    0.0080
     EDDAV:  cpu time   11.7162: real time   11.7126
       DOS:  cpu time    0.0010: real time    0.0004
    CHARGE:  cpu time    0.4839: real time    0.4846
    MIXING:  cpu time    0.0460: real time    0.0457
    --------------------------------------------
      LOOP:  cpu time   13.9799: real time   13.9753

 eigenvalue-minimisations  :   120
 total energy-change (2. order) :-0.8994657E-05  (-0.1087451E-04)
 number of electron      56.0000035 magnetization 
 augmentation part       -4.3138540 magnetization 

 Broyden mixing:
  rms(total) = 0.96092E-03    rms(broyden)= 0.96060E-03
  rms(prec ) = 0.10227E-02
  weight for this iteration     100.00

 eigenvalues of (default mixing * dielectric matrix)
  average eigenvalue GAMMA=   0.9899
  0.9899

 Free energy of the ion-electron system (eV)
  ---------------------------------------------------
  alpha Z        PSCENC =         2.51538199
  Ewald energy   TEWEN  =      2591.54044434
  -Hartree energ DENC   =     -3523.70128862
  -exchange      EXHF   =         0.00000000
  -V(xc)+E(xc)   XCENC  =       -38.78719359
  PAW double counting   =      3678.90897490    -3523.64415159
  entropy T*S    EENTRO =        -0.00000000
  eigenvalues    EBANDS =      -528.83059903
  atomic energy  EATOM  =      1241.89512738
  Solvation  Ediel_sol  =         0.00000000
  ---------------------------------------------------
  free energy    TOTEN  =      -100.10330422 eV

  energy without entropy =     -100.10330422  energy(sigma->0) =     -100.10330422


--------------------------------------------------------------------------------------------------------




--------------------------------------- Iteration     18(   3)  ---------------------------------------


    POTLOK:  cpu time    1.7257: real time    1.7246
    SETDIJ:  cpu time    0.0080: real time    0.0079
     EDDAV:  cpu time   10.4834: real time   10.4804
       DOS:  cpu time    0.0000: real time    0.0004
    --------------------------------------------
      LOOP:  cpu time   12.2171: real time   12.2132

 eigenvalue-minimisations  :   104
 total energy-change (2. order) : 0.5928605E-06  (-0.2831934E-06)
 number of electron      56.0000035 magnetization 
 augmentation part       -4.3138540 magnetization 

 Free energy of the ion-electron system (eV)
  ---------------------------------------------------
  alpha Z        PSCENC =         2.51538199
  Ewald energy   TEWEN  =      2591.54044434
  -Hartree energ DENC   =     -3523.69541988
  -exchange      EXHF   =         0.00000000
  -V(xc)+E(xc)   XCENC  =       -38.78768781
  PAW double counting   =      3678.69344215    -3523.42844150
  entropy T*S    EENTRO =        -0.00000000
  eigenvalues    EBANDS =      -528.83615031
  atomic energy  EATOM  =      1241.89512738
  Solvation  Ediel_sol  =         0.00000000
  ---------------------------------------------------
  free energy    TOTEN  =      -100.10330363 eV

  energy without entropy =     -100.10330363  energy(sigma->0) =     -100.10330363


--------------------------------------------------------------------------------------------------------




 average (electrostatic) potential at core
  the test charge radii are     0.9892  1.1631  0.5201
  (the norm of the test charge is              1.0000)
       1 -93.4209       2 -93.3581       3 -93.4255       4 -93.4251       5 -40.4391
       6 -40.4390       7 -40.3533       8 -40.4571       9 -40.4568      10 -40.4834
      11 -40.8574      12 -40.8617      13 -41.0157      14 -40.9805      15 -40.9813
      16 -40.9812      17 -40.9815      18 -40.9061      19 -41.0152      20 -40.8609
      21 -40.8577      22 -41.0021      23 -40.8537      24 -40.8547      25 -40.9819
      26 -40.9808
 
 
 
 E-fermi :  -5.3189     XC(G=0):  -0.6099     alpha+bet : -0.3306


 k-point     1 :       0.0000    0.0000    0.0000
  band No.  band energies     occupation 
      1     -15.2284      2.00000
      2     -14.2909      2.00000
      3     -14.2492      2.00000
      4     -14.1168      2.00000
      5     -13.0222      2.00000
      6     -12.9959      2.00000
      7     -11.8386      2.00000
      8     -11.7760      2.00000
      9     -11.5459      2.00000
     10     -10.6770      2.00000
     11      -8.9494      2.00000
     12      -8.6699      2.00000
     13      -8.6568      2.00000
     14      -8.5002      2.00000
     15      -8.3111      2.00000
     16      -8.1205      2.00000
     17      -8.0899      2.00000
     18      -7.9309      2.00000
     19      -7.8399      2.00000
     20      -7.7756      2.00000
     21      -6.7934      2.00000
     22      -6.7903      2.00000
     23      -6.4872      2.00000
     24      -6.4303      2.00000
     25      -6.3808      2.00000
     26      -6.3602      2.00000
     27      -6.3103      2.00000
     28      -6.2805      2.00000
     29      -1.5954      0.00000
     30      -1.3899      0.00000
     31      -1.3519      0.00000
     32      -1.3246      0.00000
     33      -1.2595      0.00000
     34      -1.1607      0.00000
     35      -1.0847      0.00000
     36      -0.8998      0.00000
     37      -0.8532      0.00000
     38      -0.6228      0.00000
     39      -0.3036      0.00000
     40      -0.1992      0.00000
     41      -0.1567      0.00000
     42      -0.1223      0.00000


--------------------------------------------------------------------------------------------------------


 soft charge-density along one line, spin component           1
         0         1         2         3         4         5         6         7         8         9
 total charge-density along one line
 
 pseudopotential strength for first ion, spin component:           1
 19.621  27.382  -0.000   0.003   0.003  -0.001   0.005   0.005
 27.382  38.217  -0.001   0.004   0.004  -0.001   0.008   0.007
 -0.000  -0.001   4.362   0.000  -0.000   8.136   0.000  -0.000
  0.003   0.004   0.000   4.362   0.000   0.000   8.136   0.000
  0.003   0.004  -0.000   0.000   4.361  -0.000   0.000   8.136
 -0.001  -0.001   8.136   0.000  -0.000  15.188   0.000  -0.000
  0.005   0.008   0.000   8.136   0.000   0.000  15.187   0.001
  0.005   0.007  -0.000   0.000   8.136  -0.000   0.001  15.186
 total augmentation occupancy for first ion, spin component:           1
  5.750  -2.142   0.093  -0.474  -0.184  -0.028   0.146   0.060
 -2.142   0.863  -0.054   0.270   0.090   0.013  -0.065  -0.024
  0.093  -0.054   2.776  -0.164   0.006  -0.601   0.053  -0.000
 -0.474   0.270  -0.164   3.498   0.015   0.053  -0.836  -0.010
 -0.184   0.090   0.006   0.015   2.901  -0.000  -0.010  -0.631
 -0.028   0.013  -0.601   0.053  -0.000   0.137  -0.015  -0.000
  0.146  -0.065   0.053  -0.836  -0.010  -0.015   0.203   0.004
  0.060  -0.024  -0.000  -0.010  -0.631  -0.000   0.004   0.144


------------------------ aborting loop because EDIFF is reached ----------------------------------------


    CHARGE:  cpu time    0.4949: real time    0.4951
    FORLOC:  cpu time    0.1730: real time    0.1732
    FORNL :  cpu time    1.1448: real time    1.1548
    STRESS:  cpu time    8.6957: real time    8.6914
    FORCOR:  cpu time    1.7167: real time    1.7175
    FORHAR:  cpu time    0.5829: real time    0.5815
    MIXING:  cpu time    0.0460: real time    0.0463
    OFIELD:  cpu time    0.0000: real time    0.0000

  FORCE on cell =-STRESS in cart. coord.  units (eV):
  Direction    XX          YY          ZZ          XY          YZ          ZX
  --------------------------------------------------------------------------------------
  Alpha Z     2.51538     2.51538     2.51538
  Ewald     859.95734   864.15063   867.43081    -0.55966    -0.48589     0.49746
  Hartree  1169.25324  1175.19864  1179.22415    -0.92323    -0.58681     1.73917
  E(xc)    -180.36209  -180.19432  -180.11586    -0.03030    -0.01187     0.09655
  Local   -2511.80792 -2521.84116 -2529.43233     1.46533     1.14127    -2.18812
  n-local   238.01499   237.21871   237.02875     0.14511     0.01465    -0.46451
  augment   -13.93630   -13.96165   -14.01546     0.00494     0.01137    -0.01660
  Kinetic   435.38495   435.77722   436.41553    -0.08071    -0.12864     0.28249
  Fock        0.00000     0.00000     0.00000     0.00000     0.00000     0.00000
  -------------------------------------------------------------------------------------
  Total      -0.98041    -1.13654    -0.94904     0.02148    -0.04592    -0.05355
  in kB      -0.19635    -0.22762    -0.19007     0.00430    -0.00920    -0.01072
  external pressure =       -0.20 kB  Pullay stress =        0.00 kB


 VOLUME and BASIS-vectors are now :
 -----------------------------------------------------------------------------
  energy-cutoff  :      400.00
  volume of cell :     8000.00
      direct lattice vectors                 reciprocal lattice vectors
    20.000000000  0.000000000  0.000000000     0.050000000  0.000000000  0.000000000
     0.000000000 20.000000000  0.000000000     0.000000000  0.050000000  0.000000000
     0.000000000  0.000000000 20.000000000     0.000000000  0.000000000  0.050000000

  length of vectors
    20.000000000 20.000000000 20.000000000     0.050000000  0.050000000  0.050000000


 FORCES acting on ions
    electron-ion (+dipol)            ewald-force                    non-local-force                 convergence-correction
 -----------------------------------------------------------------------------------------------
   0.895E+01 -.185E+02 0.870E+02   -.100E+02 0.187E+02 -.885E+02   0.111E+01 -.257E+00 0.148E+01   0.409E-03 0.484E-04 -.159E-03
   0.866E+02 -.459E+01 0.435E+02   -.882E+02 0.486E+01 -.452E+02   0.158E+01 -.267E+00 0.164E+01   0.221E-02 0.578E-04 0.275E-03
   0.277E+02 0.804E+02 -.443E+02   -.284E+02 -.826E+02 0.454E+02   0.672E+00 0.214E+01 -.114E+01   0.481E-03 0.897E-03 0.603E-03
   0.351E+02 -.517E+02 -.729E+02   -.360E+02 0.531E+02 0.747E+02   0.870E+00 -.139E+01 -.190E+01   0.597E-03 -.100E-02 0.180E-03
   -.373E+02 0.539E+02 0.734E+02   0.375E+02 -.542E+02 -.743E+02   -.239E+00 0.303E+00 0.882E+00   -.307E-03 0.344E-03 -.351E-03
   -.296E+02 -.829E+02 0.439E+02   0.298E+02 0.835E+02 -.445E+02   -.186E+00 -.665E+00 0.671E+00   -.269E-03 -.194E-03 -.453E-03
   0.810E+02 0.132E+02 -.397E+02   -.814E+02 -.133E+02 0.399E+02   0.434E+00 0.723E-01 -.224E+00   0.672E-03 0.493E-04 -.106E-03
   -.525E+02 0.749E+02 -.803E+01   0.525E+02 -.756E+02 0.829E+01   -.328E-01 0.686E+00 -.268E+00   0.438E-03 0.155E-03 -.246E-03
   -.444E+02 -.700E+02 -.395E+02   0.444E+02 0.705E+02 0.401E+02   0.349E-01 -.514E+00 -.528E+00   0.457E-03 0.126E-04 -.280E-03
   -.859E+02 0.502E+01 -.453E+02   0.869E+02 -.507E+01 0.458E+02   -.951E+00 0.488E-01 -.471E+00   0.875E-03 0.864E-05 0.279E-03
   0.213E+02 0.408E+02 0.638E+01   -.227E+02 -.431E+02 -.765E+01   0.141E+01 0.228E+01 0.127E+01   -.398E-03 -.318E-03 -.594E-04
   0.128E+01 0.220E+02 -.410E+02   -.943E+00 -.227E+02 0.439E+02   -.338E+00 0.631E+00 -.288E+01   -.227E-03 0.312E-04 -.537E-04
   -.258E+02 0.381E+02 -.395E+01   0.271E+02 -.401E+02 0.415E+01   -.138E+01 0.204E+01 -.195E+00   -.455E-03 0.436E-03 -.123E-03
   -.436E+02 -.370E+01 0.569E+01   0.459E+02 0.406E+01 -.676E+01   -.225E+01 -.360E+00 0.108E+01   0.129E-03 -.114E-03 0.584E-03
   -.202E+02 0.734E+01 -.389E+02   0.206E+02 -.784E+01 0.413E+02   -.398E+00 0.505E+00 -.243E+01   0.592E-03 0.112E-03 -.304E-03
   -.351E+02 0.501E+01 0.272E+02   0.373E+02 -.467E+01 -.283E+02   -.224E+01 -.339E+00 0.110E+01   -.543E-03 -.152E-04 -.722E-04
   0.783E+01 0.342E+02 0.278E+02   -.893E+01 -.361E+02 -.290E+02   0.110E+01 0.194E+01 0.115E+01   0.265E-03 0.675E-03 0.626E-04
   0.634E+01 -.991E+01 0.469E+02   -.672E+01 0.105E+02 -.497E+02   0.377E+00 -.593E+00 0.283E+01   -.498E-04 -.224E-03 0.997E-03
   -.216E+02 -.356E+02 -.200E+02   0.228E+02 0.375E+02 0.211E+02   -.116E+01 -.191E+01 -.105E+01   -.408E-03 -.387E-03 -.303E-03
   0.268E+01 -.288E+01 -.462E+02   -.234E+01 0.230E+01 0.491E+02   -.336E+00 0.584E+00 -.289E+01   -.207E-03 -.604E-04 -.569E-04
   0.257E+02 -.374E+02 -.106E+02   -.274E+02 0.398E+02 0.104E+02   0.167E+01 -.243E+01 0.249E+00   -.410E-03 0.258E-03 0.925E-04
   0.417E+02 0.667E+01 -.199E+02   -.439E+02 -.702E+01 0.209E+02   0.220E+01 0.347E+00 -.103E+01   0.476E-03 0.106E-03 -.388E-03
   0.321E+02 0.250E+02 0.232E+02   -.335E+02 -.273E+02 -.245E+02   0.143E+01 0.225E+01 0.129E+01   0.258E-03 -.418E-03 -.118E-03
   0.351E+02 -.288E+02 0.116E+02   -.368E+02 0.312E+02 -.118E+02   0.169E+01 -.241E+01 0.279E+00   0.212E-03 0.464E-03 0.860E-04
   0.121E+02 -.414E+02 0.115E+02   -.134E+02 0.435E+02 -.117E+02   0.133E+01 -.211E+01 0.272E+00   0.343E-03 -.609E-03 -.202E-03
   -.338E+02 -.195E+02 0.220E+02   0.360E+02 0.199E+02 -.231E+02   -.223E+01 -.386E+00 0.109E+01   -.539E-03 -.167E-04 -.798E-04
 -----------------------------------------------------------------------------------------------
   -.418E+01 -.177E+00 -.267E+00   0.853E-13 0.853E-13 0.355E-13   0.417E+01 0.177E+00 0.268E+00   0.460E-02 0.300E-03 -.195E-03
 
 
 POSITION                                       TOTAL-FORCE (eV/Angst)
 -----------------------------------------------------------------------------------
      9.47189     11.12921      7.66459         0.010901     -0.001824      0.011594
      7.39270     10.78674      8.70594         0.008025      0.001031     -0.002364
      9.00588      8.29087     11.29798        -0.002704     -0.002143     -0.010156
      8.79002     12.14386     12.13448        -0.002841      0.005329     -0.008121
     10.81767      9.14738      7.88914        -0.005245      0.009728      0.007458
     10.60330     12.97219      8.71939        -0.003758     -0.012411      0.002612
      7.70402     10.29682     11.04235         0.002868     -0.000666      0.003289
     11.14809      8.60938     10.26303        -0.004857      0.011163     -0.003288
     10.92934     12.51245     11.11024        -0.003631     -0.009047     -0.007803
     12.30051     10.48974     11.34034        -0.006482      0.000866     -0.005156
      8.29337      7.14055     10.65327         0.002785      0.012236      0.008416
      9.17695      7.97415     12.75190        -0.004675     -0.000493      0.003532
     12.01982      7.31847     10.38743        -0.006869      0.003383     -0.001571
     13.68981     10.71241     10.67262         0.006466     -0.000467      0.004363
     12.54692     10.17675     12.84672         0.005637      0.000572      0.000378
     12.20276      9.35906      7.20876        -0.000559      0.002613     -0.004617
     10.13085      7.94464      7.17417         0.000000      0.009589      0.001193
      9.27702     11.43467      6.20680        -0.003833     -0.000573      0.001203
     11.66070     13.72154     11.77738        -0.006510     -0.002964     -0.002942
      8.96014     11.84716     13.59271        -0.004288     -0.002246      0.003095
      7.94402     13.37452     12.00708         0.004503     -0.014046      0.003347
      6.30228     10.07601     11.69781         0.002254      0.001256     -0.005661
      6.67039      9.64688      8.05305         0.005594      0.004309      0.005395
      6.53796     12.01035      8.56610         0.006386     -0.005438      0.003809
      9.77597     14.28229      8.55024         0.001143     -0.009171     -0.002341
     11.98701     13.20989      8.04483        -0.000308     -0.000585     -0.005664
 -----------------------------------------------------------------------------------
    total drift:                                0.001993     -0.000383      0.000931


--------------------------------------------------------------------------------------------------------



  FREE ENERGIE OF THE ION-ELECTRON SYSTEM (eV)
  ---------------------------------------------------
  free  energy   TOTEN  =      -100.10330363 eV

  energy  without entropy=     -100.10330363  energy(sigma->0) =     -100.10330363
 
 d Force = 0.5358602E-04[ 0.163E-05, 0.106E-03]  d Energy = 0.5281592E-04 0.770E-06
 d Force =-0.4883097E-01[-0.489E-01,-0.488E-01]  d Ewald  =-0.4883098E-01 0.568E-08


--------------------------------------------------------------------------------------------------------


    POTLOK:  cpu time    1.7457: real time    1.7446


--------------------------------------------------------------------------------------------------------




--------------------------------------------------------------------------------------------------------


  
 reached required accuracy - stopping structural energy minimisation
 writing wavefunctions
     LOOP+:  cpu time   52.6440: real time   53.1086
    4ORBIT:  cpu time    0.0000: real time    0.0000

 total amount of memory used by VASP MPI-rank0   131440. kBytes
=======================================================================

   base      :      30000. kBytes
   nonl-proj :      17624. kBytes
   fftplans  :      26957. kBytes
   grid      :      48673. kBytes
   one-center:         40. kBytes
   wavefun   :       8146. kBytes
 
  
  
 General timing and accounting informations for this job:
 ========================================================
  
                  Total CPU time used (sec):     2792.541
                            User time (sec):     2759.230
                          System time (sec):       33.311
                         Elapsed time (sec):     2800.233
  
                   Maximum memory used (kb):      185256.
                   Average memory used (kb):           0.
  
                          Minor page faults:      6581769
                          Major page faults:            9
                 Voluntary context switches:         2583
