 vasp.5.4.4.18Apr17-6-g9f103f2a35 (build Nov 06 2017 19:16:10) complex          
  
 executed on           IFC91_ompi date 2018.07.19  00:57:12
 running on   12 total cores
 distrk:  each k-point on   12 cores,    1 groups
 distr:  one band on NCORES_PER_BAND=   6 cores,    2 groups


--------------------------------------------------------------------------------------------------------


 INCAR:
 POTCAR:    PAW_PBE Si 05Jan2001                  
 POTCAR:    PAW_PBE Ge 05Jan2001                  
 POTCAR:    PAW_PBE H 15Jun2001                   
 POTCAR:    PAW_PBE Si 05Jan2001                  
   VRHFIN =Si: s2p2                                                             
   LEXCH  = PE                                                                  
   EATOM  =   103.0669 eV,    7.5752 Ry                                         
                                                                                
   TITEL  = PAW_PBE Si 05Jan2001                                                
   LULTRA =        F    use ultrasoft PP ?                                      
   IUNSCR =        1    unscreen: 0-lin 1-nonlin 2-no                           
   RPACOR =    1.500    partial core radius                                     
   POMASS =   28.085; ZVAL   =    4.000    mass and valenz                      
   RCORE  =    1.900    outmost cutoff radius                                   
   RWIGS  =    2.480; RWIGS  =    1.312    wigner-seitz radius (au A)           
   ENMAX  =  245.345; ENMIN  =  184.009 eV                                      
   ICORE  =        2    local potential                                         
   LCOR   =        T    correct aug charges                                     
   LPAW   =        T    paw PP                                                  
   EAUG   =  322.069                                                            
   DEXC   =    0.000                                                            
   RMAX   =    1.950    core radius for proj-oper                               
   RAUG   =    1.300    factor for augmentation sphere                          
   RDEP   =    1.993    radius for radial grids                                 
   RDEPT  =    1.837    core radius for aug-charge                              
                                                                                
   Atomic configuration                                                         
    6 entries                                                                   
     n  l   j            E        occ.                                          
     1  0  0.50     -1785.8828   2.0000                                         
     2  0  0.50      -139.4969   2.0000                                         
     2  1  1.50       -95.5546   6.0000                                         
     3  0  0.50       -10.8127   2.0000                                         
     3  1  0.50        -4.0811   2.0000                                         
     3  2  1.50        -4.0817   0.0000                                         
   Description                                                                  
     l       E           TYP  RCUT    TYP  RCUT                                 
     0    -10.8127223     23  1.900                                             
     0     -7.6451159     23  1.900                                             
     1     -4.0811372     23  1.900                                             
     1      2.4879257     23  1.900                                             
     2     -4.0817478      7  1.900                                             
  local pseudopotential read in
  partial core-charges read in
  partial kinetic energy density read in
  atomic valenz-charges read in
  non local Contribution for L=           0  read in
    real space projection operators read in
  non local Contribution for L=           0  read in
    real space projection operators read in
  non local Contribution for L=           1  read in
    real space projection operators read in
  non local Contribution for L=           1  read in
    real space projection operators read in
    PAW grid and wavefunctions read in
 
   number of l-projection  operators is LMAX  =           4
   number of lm-projection operators is LMMAX =           8
 
 POTCAR:    PAW_PBE Ge 05Jan2001                  
   VRHFIN =Ge: s2p2                                                             
   LEXCH  = PE                                                                  
   EATOM  =   104.9960 eV,    7.7170 Ry                                         
                                                                                
   TITEL  = PAW_PBE Ge 05Jan2001                                                
   LULTRA =        F    use ultrasoft PP ?                                      
   IUNSCR =        1    unscreen: 0-lin 1-nonlin 2-no                           
   RPACOR =    2.170    partial core radius                                     
   POMASS =   72.610; ZVAL   =    4.000    mass and valenz                      
   RCORE  =    2.300    outmost cutoff radius                                   
   RWIGS  =    2.300; RWIGS  =    1.217    wigner-seitz radius (au A)           
   ENMAX  =  173.807; ENMIN  =  130.355 eV                                      
   ICORE  =        3    local potential                                         
   LCOR   =        T    correct aug charges                                     
   LPAW   =        T    paw PP                                                  
   EAUG   =  385.843                                                            
   DEXC   =    0.000                                                            
   RMAX   =    2.342    core radius for proj-oper                               
   RAUG   =    1.300    factor for augmentation sphere                          
   RDEP   =    2.318    radius for radial grids                                 
   RDEPT  =    2.103    core radius for aug-charge                              
                                                                                
   Atomic configuration                                                         
   10 entries                                                                   
     n  l   j            E        occ.                                          
     1  0  0.50    -10959.8463   2.0000                                         
     2  0  0.50     -1371.6056   2.0000                                         
     2  1  1.50     -1198.4791   6.0000                                         
     3  0  0.50      -168.4733   2.0000                                         
     3  1  1.50      -115.6019   6.0000                                         
     3  2  2.50       -29.3106  10.0000                                         
     4  0  0.50       -11.7309   2.0000                                         
     4  1  0.50        -3.8952   2.0000                                         
     4  2  1.50        -4.0817   0.0000                                         
     4  3  2.50        -4.0817   0.0000                                         
   Description                                                                  
     l       E           TYP  RCUT    TYP  RCUT                                 
     0    -11.7309493     23  2.300                                             
     0     -7.4578696     23  2.300                                             
     1     -3.8952261     23  2.300                                             
     1      6.1178114     23  2.300                                             
     2     -4.0817478     23  2.300                                             
     3     -1.3605826      7  2.300                                             
  local pseudopotential read in
  partial core-charges read in
  partial kinetic energy density read in
  atomic valenz-charges read in
  non local Contribution for L=           0  read in
    real space projection operators read in
  non local Contribution for L=           0  read in
    real space projection operators read in
  non local Contribution for L=           1  read in
    real space projection operators read in
  non local Contribution for L=           1  read in
    real space projection operators read in
  non local Contribution for L=           2  read in
    real space projection operators read in
    PAW grid and wavefunctions read in
 
   number of l-projection  operators is LMAX  =           5
   number of lm-projection operators is LMMAX =          13
 
 POTCAR:    PAW_PBE H 15Jun2001                   
   VRHFIN =H: ultrasoft test                                                    
   LEXCH  = PE                                                                  
   EATOM  =    12.4884 eV,    0.9179 Ry                                         
                                                                                
   TITEL  = PAW_PBE H 15Jun2001                                                 
   LULTRA =        F    use ultrasoft PP ?                                      
   IUNSCR =        0    unscreen: 0-lin 1-nonlin 2-no                           
   RPACOR =    0.000    partial core radius                                     
   POMASS =    1.000; ZVAL   =    1.000    mass and valenz                      
   RCORE  =    1.100    outmost cutoff radius                                   
   RWIGS  =    0.700; RWIGS  =    0.370    wigner-seitz radius (au A)           
   ENMAX  =  250.000; ENMIN  =  200.000 eV                                      
   RCLOC  =    0.701    cutoff for local pot                                    
   LCOR   =        T    correct aug charges                                     
   LPAW   =        T    paw PP                                                  
   EAUG   =  400.000                                                            
   RMAX   =    1.123    core radius for proj-oper                               
   RAUG   =    1.200    factor for augmentation sphere                          
   RDEP   =    1.112    radius for radial grids                                 
   RDEPT  =    0.926    core radius for aug-charge                              
                                                                                
   Atomic configuration                                                         
    2 entries                                                                   
     n  l   j            E        occ.                                          
     1  0  0.50        -6.4927   1.0000                                         
     2  1  0.50        -3.4015   0.0000                                         
   Description                                                                  
     l       E           TYP  RCUT    TYP  RCUT                                 
     0     -6.4927494     23  1.100                                             
     0      6.8029130     23  1.100                                             
     1     -4.0817478     23  1.100                                             
  local pseudopotential read in
  atomic valenz-charges read in
  non local Contribution for L=           0  read in
    real space projection operators read in
  non local Contribution for L=           0  read in
    real space projection operators read in
  non local Contribution for L=           1  read in
    real space projection operators read in
    PAW grid and wavefunctions read in
 
   number of l-projection  operators is LMAX  =           3
   number of lm-projection operators is LMMAX =           5
 

 ----------------------------------------------------------------------------- 
|                                                                             |
|  ADVICE TO THIS USER RUNNING 'VASP/VAMP'   (HEAR YOUR MASTER'S VOICE ...):  |
|                                                                             |
|      You have a (more or less) 'large supercell' and for larger cells       |
|      it might be more efficient to use real space projection opertators     |
|      So try LREAL= Auto  in the INCAR   file.                               |
|      Mind:          For very  accurate calculation you might also keep the  |
|      reciprocal projection scheme          (i.e. LREAL=.FALSE.)             |
|                                                                             |
 ----------------------------------------------------------------------------- 

  PAW_PBE Si 05Jan2001                  :
 energy of atom  1       EATOM= -103.0669
 kinetic energy error for atom=    0.0012 (will be added to EATOM!!)
  PAW_PBE Ge 05Jan2001                  :
 energy of atom  2       EATOM= -104.9960
 kinetic energy error for atom=    0.0003 (will be added to EATOM!!)
  PAW_PBE H 15Jun2001                   :
 energy of atom  3       EATOM=  -12.4884
 kinetic energy error for atom=    0.0098 (will be added to EATOM!!)
 
 
 POSCAR: SiGeH16                                 
  positions in direct lattice
  No initial velocities read in
 exchange correlation table for  LEXCH =        8
   RHO(1)=    0.500       N(1)  =     2000
   RHO(2)=  100.500       N(2)  =     4000
 


--------------------------------------------------------------------------------------------------------


 ion  position               nearest neighbor table
   1  0.475  0.556  0.385-  18 1.55   7 2.39   2 2.39   6 2.39
   2  0.369  0.539  0.436-  23 1.55  24 1.55   3 2.39   1 2.39
   3  0.385  0.515  0.552-  22 1.55  10 2.39   9 2.39   2 2.39
   4  0.557  0.433  0.512-  13 1.55   6 2.39   5 2.39   9 2.39
   5  0.613  0.525  0.565-  15 1.55  14 1.55   8 2.39   4 2.39
   6  0.542  0.457  0.396-  17 1.55  16 1.55   4 2.39   1 2.39
   7  0.531  0.648  0.437-  25 1.55  26 1.55   8 2.39   1 2.39
   8  0.547  0.624  0.554-  19 1.55   7 2.39   5 2.39  10 2.39
   9  0.451  0.416  0.564-  12 1.55  11 1.55   3 2.39   4 2.39
  10  0.440  0.606  0.605-  20 1.55  21 1.55   3 2.39   8 2.39
  11  0.415  0.357  0.529-   9 1.55
  12  0.461  0.400  0.639-   9 1.55
  13  0.600  0.369  0.520-   4 1.55
  14  0.682  0.536  0.531-   5 1.55
  15  0.623  0.509  0.640-   5 1.55
  16  0.611  0.469  0.363-   6 1.55
  17  0.506  0.398  0.362-   6 1.55
  18  0.465  0.572  0.309-   1 1.55
  19  0.583  0.683  0.588-   8 1.55
  20  0.451  0.590  0.680-  10 1.55
  21  0.397  0.670  0.598-  10 1.55
  22  0.316  0.504  0.586-   3 1.55
  23  0.333  0.479  0.402-   2 1.55
  24  0.326  0.603  0.429-   2 1.55
  25  0.488  0.712  0.430-   7 1.55
  26  0.600  0.659  0.404-   7 1.55
 
  LATTYP: Found a simple cubic cell.
 ALAT       =    20.0000000000
  
  Lattice vectors:
  
 A1 = (  20.0000000000,   0.0000000000,   0.0000000000)
 A2 = (   0.0000000000,  20.0000000000,   0.0000000000)
 A3 = (   0.0000000000,   0.0000000000,  20.0000000000)


Analysis of symmetry for initial positions (statically):
=====================================================================
 Subroutine PRICEL returns:
 Original cell was already a primitive cell.
 

 Routine SETGRP: Setting up the symmetry group for a 
 simple cubic supercell.


 Subroutine GETGRP returns: Found  1 space group operations
 (whereof  1 operations were pure point group operations)
 out of a pool of 48 trial point group operations.


The static configuration has the point symmetry C_1 .


Analysis of symmetry for dynamics (positions and initial velocities):
=====================================================================
 Subroutine PRICEL returns:
 Original cell was already a primitive cell.
 

 Routine SETGRP: Setting up the symmetry group for a 
 simple cubic supercell.


 Subroutine GETGRP returns: Found  1 space group operations
 (whereof  1 operations were pure point group operations)
 out of a pool of 48 trial point group operations.


The dynamic configuration has the point symmetry C_1 .


 Subroutine INISYM returns: Found  1 space group operations
 (whereof  1 operations are pure point group operations),
 and found     1 'primitive' translations

 
 
 KPOINTS: Automatic mesh                          

Automatic generation of k-mesh.
Space group operators:
 irot       det(A)        alpha          n_x          n_y          n_z        tau_x        tau_y        tau_z
    1     1.000000     0.000000     1.000000     0.000000     0.000000     0.000000     0.000000     0.000000
 
 Subroutine IBZKPT returns following result:
 ===========================================
 
 Found      1 irreducible k-points:
 
 Following reciprocal coordinates:
            Coordinates               Weight
  0.000000  0.000000  0.000000      1.000000
 
 Following cartesian coordinates:
            Coordinates               Weight
  0.000000  0.000000  0.000000      1.000000
 


--------------------------------------------------------------------------------------------------------




 Dimension of arrays:
   k-points           NKPTS =      1   k-points in BZ     NKDIM =      1   number of bands    NBANDS=     42
   number of dos      NEDOS =    301   number of ions     NIONS =     26
   non local maximal  LDIM  =      5   non local SUM 2l+1 LMDIM =     13
   total plane-waves  NPLWV = 941192
   max r-space proj   IRMAX =      1   max aug-charges    IRDMAX=   6593
   dimension x,y,z NGX =    98 NGY =   98 NGZ =   98
   dimension x,y,z NGXF=   196 NGYF=  196 NGZF=  196
   support grid    NGXF=   196 NGYF=  196 NGZF=  196
   ions per type =               5   5  16
   NGX,Y,Z   is equivalent  to a cutoff of   8.15,  8.15,  8.15 a.u.
   NGXF,Y,Z  is equivalent  to a cutoff of  16.29, 16.29, 16.29 a.u.

 SYSTEM =  SiGe                                    
 POSCAR =  SiGeH16                                 

 Startparameter for this run:
   NWRITE =      2    write-flag & timer
   PREC   = normal    normal or accurate (medium, high low for compatibility)
   ISTART =      0    job   : 0-new  1-cont  2-samecut
   ICHARG =      2    charge: 1-file 2-atom 10-const
   ISPIN  =      1    spin polarized calculation?
   LNONCOLLINEAR =      F non collinear calculations
   LSORBIT =      F    spin-orbit coupling
   INIWAV =      1    electr: 0-lowe 1-rand  2-diag
   LASPH  =      F    aspherical Exc in radial PAW
   METAGGA=      F    non-selfconsistent MetaGGA calc.

 Electronic Relaxation 1
   ENCUT  =  400.0 eV  29.40 Ry    5.42 a.u.  32.61 32.61 32.61*2*pi/ulx,y,z
   ENINI  =  400.0     initial cutoff
   ENAUG  =  400.0 eV  augmentation charge cutoff
   NELM   =     60;   NELMIN=  2; NELMDL= -5     # of ELM steps 
   EDIFF  = 0.1E-05   stopping-criterion for ELM
   LREAL  =      F    real-space projection
   NLSPLINE    = F    spline interpolate recip. space projectors
   LCOMPAT=      F    compatible to vasp.4.4
   GGA_COMPAT  = T    GGA compatible to vasp.4.4-vasp.4.6
   LMAXPAW     = -100 max onsite density
   LMAXMIX     =    2 max onsite mixed and CHGCAR
   VOSKOWN=      0    Vosko Wilk Nusair interpolation
   ROPT   =    0.00000   0.00000   0.00000
 Ionic relaxation
   EDIFFG = -.2E-01   stopping-criterion for IOM
   NSW    =    200    number of steps for IOM
   NBLOCK =      1;   KBLOCK =    200    inner block; outer block 
   IBRION =      2    ionic relax: 0-MD 1-quasi-New 2-CG
   NFREE  =      1    steps in history (QN), initial steepest desc. (CG)
   ISIF   =      2    stress and relaxation
   IWAVPR =     11    prediction:  0-non 1-charg 2-wave 3-comb
   ISYM   =      2    0-nonsym 1-usesym 2-fastsym
   LCORR  =      T    Harris-Foulkes like correction to forces

   POTIM  = 0.5000    time-step for ionic-motion
   TEIN   =    0.0    initial temperature
   TEBEG  =    0.0;   TEEND  =   0.0 temperature during run
   SMASS  =  -3.00    Nose mass-parameter (am)
   estimated Nose-frequenzy (Omega)   =  0.10E-29 period in steps =****** mass=  -0.914E-26a.u.
   SCALEE = 1.0000    scale energy and forces
   NPACO  =    256;   APACO  = 16.0  distance and # of slots for P.C.
   PSTRESS=    0.0 pullay stress

  Mass of Ions in am
   POMASS =  28.09 72.61  1.00
  Ionic Valenz
   ZVAL   =   4.00  4.00  1.00
  Atomic Wigner-Seitz radii
   RWIGS  =  -1.00 -1.00 -1.00
  virtual crystal weights 
   VCA    =   1.00  1.00  1.00
   NELECT =      56.0000    total number of electrons
   NUPDOWN=      -1.0000    fix difference up-down

 DOS related values:
   EMIN   =  10.00;   EMAX   =-10.00  energy-range for DOS
   EFERMI =   0.00
   ISMEAR =     0;   SIGMA  =   0.20  broadening in eV -4-tet -1-fermi 0-gaus

 Electronic relaxation 2 (details)
   IALGO  =     38    algorithm
   LDIAG  =      T    sub-space diagonalisation (order eigenvalues)
   LSUBROT=      F    optimize rotation matrix (better conditioning)
   TURBO    =      0    0=normal 1=particle mesh
   IRESTART =      0    0=no restart 2=restart with 2 vectors
   NREBOOT  =      0    no. of reboots
   NMIN     =      0    reboot dimension
   EREF     =   0.00    reference energy to select bands
   IMIX   =      4    mixing-type and parameters
     AMIX     =   0.40;   BMIX     =  1.00
     AMIX_MAG =   1.60;   BMIX_MAG =  1.00
     AMIN     =   0.10
     WC   =   100.;   INIMIX=   1;  MIXPRE=   1;  MAXMIX= -45

 Intra band minimization:
   WEIMIN = 0.0010     energy-eigenvalue tresh-hold
   EBREAK =  0.60E-08  absolut break condition
   DEPER  =   0.30     relativ break condition  

   TIME   =   0.40     timestep for ELM

  volume/ion in A,a.u.               =     307.69      2076.41
  Fermi-wavevector in a.u.,A,eV,Ry     =   0.313166  0.591797  1.334361  0.098073
  Thomas-Fermi vector in A             =   1.193276
 
 Write flags
   LWAVE        =      T    write WAVECAR
   LDOWNSAMPLE  =      F    k-point downsampling of WAVECAR
   LCHARG       =      T    write CHGCAR
   LVTOT        =      F    write LOCPOT, total local potential
   LVHAR        =      F    write LOCPOT, Hartree potential only
   LELF         =      F    write electronic localiz. function (ELF)
   LORBIT       =      0    0 simple, 1 ext, 2 COOP (PROOUT), +10 PAW based schemes


 Dipole corrections
   LMONO  =      F    monopole corrections only (constant potential shift)
   LDIPOL =      F    correct potential (dipole corrections)
   IDIPOL =      0    1-x, 2-y, 3-z, 4-all directions 
   EPSILON=  1.0000000 bulk dielectric constant

 Exchange correlation treatment:
   GGA     =    --    GGA type
   LEXCH   =     8    internal setting for exchange type
   VOSKOWN=      0    Vosko Wilk Nusair interpolation
   LHFCALC =     F    Hartree Fock is set to
   LHFONE  =     F    Hartree Fock one center treatment
   AEXX    =    0.0000 exact exchange contribution

 Linear response parameters
   LEPSILON=     F    determine dielectric tensor
   LRPA    =     F    only Hartree local field effects (RPA)
   LNABLA  =     F    use nabla operator in PAW spheres
   LVEL    =     F    velocity operator in full k-point grid
   LINTERFAST=   F  fast interpolation
   KINTER  =     0    interpolate to denser k-point grid
   CSHIFT  =0.1000    complex shift for real part using Kramers Kronig
   OMEGAMAX=  -1.0    maximum frequency
   DEG_THRESHOLD= 0.2000000E-02 threshold for treating states as degnerate
   RTIME   =   -0.100 relaxation time in fs
  (WPLASMAI=    0.000 imaginary part of plasma frequency in eV, 0.658/RTIME)
   DFIELD  = 0.0000000 0.0000000 0.0000000 field for delta impulse in time
 
 Orbital magnetization related:
   ORBITALMAG=     F  switch on orbital magnetization
   LCHIMAG   =     F  perturbation theory with respect to B field
   DQ        =  0.001000  dq finite difference perturbation B field
   LLRAUG    =     F  two centre corrections for induced B field



--------------------------------------------------------------------------------------------------------


 conjugate gradient relaxation of ions
 charge density and potential will be updated during run
 non-spin polarized calculation
 Variant of blocked Davidson
 Davidson routine will perform the subspace rotation
 perform sub-space diagonalisation
    after iterative eigenvector-optimisation
 modified Broyden-mixing scheme, WC =      100.0
 initial mixing is a Kerker type mixing with AMIX =  0.4000 and BMIX =      1.0000
 Hartree-type preconditioning will be used
 using additional bands           14
 reciprocal scheme for non local part
 use partial core corrections
 calculate Harris-corrections to forces 
   (improved forces if not selfconsistent)
 use gradient corrections 
 use of overlap-Matrix (Vanderbilt PP)
 Gauss-broadening in eV      SIGMA  =   0.20


--------------------------------------------------------------------------------------------------------


  energy-cutoff  :      400.00
  volume of cell :     8000.00
      direct lattice vectors                 reciprocal lattice vectors
    20.000000000  0.000000000  0.000000000     0.050000000  0.000000000  0.000000000
     0.000000000 20.000000000  0.000000000     0.000000000  0.050000000  0.000000000
     0.000000000  0.000000000 20.000000000     0.000000000  0.000000000  0.050000000

  length of vectors
    20.000000000 20.000000000 20.000000000     0.050000000  0.050000000  0.050000000


 
 k-points in units of 2pi/SCALE and weight: Automatic mesh                          
   0.00000000  0.00000000  0.00000000       1.000
 
 k-points in reciprocal lattice and weights: Automatic mesh                          
   0.00000000  0.00000000  0.00000000       1.000
 
 position of ions in fractional coordinates (direct lattice) 
   0.47547100  0.55626000  0.38465300
   0.36907800  0.53906000  0.43641200
   0.38461900  0.51474100  0.55243500
   0.55736800  0.43311000  0.51215000
   0.61299700  0.52481700  0.56496600
   0.54179100  0.45744600  0.39613600
   0.53111600  0.64794100  0.43749600
   0.54669200  0.62364400  0.55351800
   0.45095700  0.41593600  0.56388300
   0.44028400  0.60643000  0.60524300
   0.41490100  0.35665000  0.52940300
   0.46117000  0.40042600  0.63910800
   0.60034800  0.36907000  0.51957800
   0.68182700  0.53600700  0.53118700
   0.62280400  0.50903400  0.64018900
   0.61080000  0.46880600  0.36278200
   0.50550800  0.39805500  0.36207700
   0.46538400  0.57201900  0.30946400
   0.58275500  0.68306700  0.58775000
   0.45052500  0.59044300  0.68036400
   0.39732000  0.67044900  0.59753500
   0.31566200  0.50359800  0.58596500
   0.33322800  0.47946500  0.40225200
   0.32629100  0.60324700  0.42912600
   0.48792300  0.71185500  0.43020800
   0.60015100  0.65882400  0.40403700
 
 position of ions in cartesian coordinates  (Angst):
   9.50942000 11.12520000  7.69306000
   7.38156000 10.78120000  8.72824000
   7.69238000 10.29482000 11.04870000
  11.14736000  8.66220000 10.24300000
  12.25994000 10.49634000 11.29932000
  10.83582000  9.14892000  7.92272000
  10.62232000 12.95882000  8.74992000
  10.93384000 12.47288000 11.07036000
   9.01914000  8.31872000 11.27766000
   8.80568000 12.12860000 12.10486000
   8.29802000  7.13300000 10.58806000
   9.22340000  8.00852000 12.78216000
  12.00696000  7.38140000 10.39156000
  13.63654000 10.72014000 10.62374000
  12.45608000 10.18068000 12.80378000
  12.21600000  9.37612000  7.25564000
  10.11016000  7.96110000  7.24154000
   9.30768000 11.44038000  6.18928000
  11.65510000 13.66134000 11.75500000
   9.01050000 11.80886000 13.60728000
   7.94640000 13.40898000 11.95070000
   6.31324000 10.07196000 11.71930000
   6.66456000  9.58930000  8.04504000
   6.52582000 12.06494000  8.58252000
   9.75846000 14.23710000  8.60416000
  12.00302000 13.17648000  8.08074000
 


--------------------------------------------------------------------------------------------------------


 k-point  1 :   0.0000 0.0000 0.0000  plane waves:  145165

 maximum and minimum number of plane-waves per node :     24209    24180

 maximum number of plane-waves:    145165
 maximum index in each direction: 
   IXMAX=   32   IYMAX=   32   IZMAX=   32
   IXMIN=  -32   IYMIN=  -32   IZMIN=  -32


 parallel 3D FFT for wavefunctions:
    minimum data exchange during FFTs selected (reduces bandwidth)
 parallel 3D FFT for charge:
    minimum data exchange during FFTs selected (reduces bandwidth)


 total amount of memory used by VASP MPI-rank0   131440. kBytes
=======================================================================

   base      :      30000. kBytes
   nonl-proj :      17624. kBytes
   fftplans  :      26957. kBytes
   grid      :      48673. kBytes
   one-center:         40. kBytes
   wavefun   :       8146. kBytes
 
     INWAV:  cpu time    0.0000: real time    0.0000
 Broyden mixing: mesh for mixing (old mesh)
   NGX = 65   NGY = 65   NGZ = 65
  (NGX  =196   NGY  =196   NGZ  =196)
  gives a total of 274625 points

 initial charge density was supplied:
 charge density of overlapping atoms calculated
 number of electron      56.0000000 magnetization 
 keeping initial charge density in first step


--------------------------------------------------------------------------------------------------------


 Maximum index for augmentation-charges          565 (set IRDMAX)


--------------------------------------------------------------------------------------------------------


 First call to EWALD:  gamma=   0.089
 Maximum number of real-space cells 3x 3x 3
 Maximum number of reciprocal cells 3x 3x 3

    FEWALD:  cpu time    0.0040: real time    0.0038


--------------------------------------- Iteration      1(   1)  ---------------------------------------


    POTLOK:  cpu time    1.7637: real time    1.7646
    SETDIJ:  cpu time    0.0070: real time    0.0076
     EDDAV:  cpu time   11.1133: real time   11.1092
       DOS:  cpu time    0.0010: real time    0.0004
    --------------------------------------------
      LOOP:  cpu time   12.8850: real time   12.8817

 eigenvalue-minimisations  :   116
 total energy-change (2. order) : 0.2042454E+03  (-0.1048018E+04)
 number of electron      56.0000000 magnetization 
 augmentation part       56.0000000 magnetization 

 Free energy of the ion-electron system (eV)
  ---------------------------------------------------
  alpha Z        PSCENC =         2.23981092
  Ewald energy   TEWEN  =      2629.98113996
  -Hartree energ DENC   =     -3441.42597175
  -exchange      EXHF   =         0.00000000
  -V(xc)+E(xc)   XCENC  =       -51.23333421
  PAW double counting   =       915.48941305     -755.22719771
  entropy T*S    EENTRO =        -0.44477221
  eigenvalues    EBANDS =      -335.09884815
  atomic energy  EATOM  =      1239.96520364
  Solvation  Ediel_sol  =         0.00000000
  ---------------------------------------------------
  free energy    TOTEN  =       204.24544353 eV

  energy without entropy =      204.69021574  energy(sigma->0) =      204.46782963


--------------------------------------------------------------------------------------------------------




--------------------------------------- Iteration      1(   2)  ---------------------------------------


     EDDAV:  cpu time   13.3250: real time   13.3215
       DOS:  cpu time    0.0010: real time    0.0002
    --------------------------------------------
      LOOP:  cpu time   13.3260: real time   13.3218

 eigenvalue-minimisations  :   144
 total energy-change (2. order) :-0.2308857E+03  (-0.2162139E+03)
 number of electron      56.0000000 magnetization 
 augmentation part       56.0000000 magnetization 

 Free energy of the ion-electron system (eV)
  ---------------------------------------------------
  alpha Z        PSCENC =         2.23981092
  Ewald energy   TEWEN  =      2629.98113996
  -Hartree energ DENC   =     -3441.42597175
  -exchange      EXHF   =         0.00000000
  -V(xc)+E(xc)   XCENC  =       -51.23333421
  PAW double counting   =       915.48941305     -755.22719771
  entropy T*S    EENTRO =        -0.00000000
  eigenvalues    EBANDS =      -566.42929135
  atomic energy  EATOM  =      1239.96520364
  Solvation  Ediel_sol  =         0.00000000
  ---------------------------------------------------
  free energy    TOTEN  =       -26.64022745 eV

  energy without entropy =      -26.64022745  energy(sigma->0) =      -26.64022745


--------------------------------------------------------------------------------------------------------




--------------------------------------- Iteration      1(   3)  ---------------------------------------


     EDDAV:  cpu time   10.0595: real time   10.1705
       DOS:  cpu time    0.0000: real time    0.0002
    --------------------------------------------
      LOOP:  cpu time   10.0595: real time   10.1707

 eigenvalue-minimisations  :   104
 total energy-change (2. order) :-0.7470259E+02  (-0.7451758E+02)
 number of electron      56.0000000 magnetization 
 augmentation part       56.0000000 magnetization 

 Free energy of the ion-electron system (eV)
  ---------------------------------------------------
  alpha Z        PSCENC =         2.23981092
  Ewald energy   TEWEN  =      2629.98113996
  -Hartree energ DENC   =     -3441.42597175
  -exchange      EXHF   =         0.00000000
  -V(xc)+E(xc)   XCENC  =       -51.23333421
  PAW double counting   =       915.48941305     -755.22719771
  entropy T*S    EENTRO =        -0.00000000
  eigenvalues    EBANDS =      -641.13188165
  atomic energy  EATOM  =      1239.96520364
  Solvation  Ediel_sol  =         0.00000000
  ---------------------------------------------------
  free energy    TOTEN  =      -101.34281775 eV

  energy without entropy =     -101.34281775  energy(sigma->0) =     -101.34281775


--------------------------------------------------------------------------------------------------------




--------------------------------------- Iteration      1(   4)  ---------------------------------------


     EDDAV:  cpu time   10.8234: real time   10.8244
       DOS:  cpu time    0.0000: real time    0.0003
    --------------------------------------------
      LOOP:  cpu time   10.8234: real time   10.8247

 eigenvalue-minimisations  :   112
 total energy-change (2. order) :-0.4352097E+01  (-0.4335282E+01)
 number of electron      56.0000000 magnetization 
 augmentation part       56.0000000 magnetization 

 Free energy of the ion-electron system (eV)
  ---------------------------------------------------
  alpha Z        PSCENC =         2.23981092
  Ewald energy   TEWEN  =      2629.98113996
  -Hartree energ DENC   =     -3441.42597175
  -exchange      EXHF   =         0.00000000
  -V(xc)+E(xc)   XCENC  =       -51.23333421
  PAW double counting   =       915.48941305     -755.22719771
  entropy T*S    EENTRO =        -0.00000000
  eigenvalues    EBANDS =      -645.48397879
  atomic energy  EATOM  =      1239.96520364
  Solvation  Ediel_sol  =         0.00000000
  ---------------------------------------------------
  free energy    TOTEN  =      -105.69491489 eV

  energy without entropy =     -105.69491489  energy(sigma->0) =     -105.69491489


--------------------------------------------------------------------------------------------------------




--------------------------------------- Iteration      1(   5)  ---------------------------------------


     EDDAV:  cpu time   12.6461: real time   12.6673
       DOS:  cpu time    0.0010: real time    0.0003
    CHARGE:  cpu time    0.4849: real time    0.4845
    MIXING:  cpu time    0.0450: real time    0.0450
    --------------------------------------------
      LOOP:  cpu time   13.1770: real time   13.1972

 eigenvalue-minimisations  :   136
 total energy-change (2. order) :-0.7529848E-01  (-0.7523877E-01)
 number of electron      56.0000026 magnetization 
 augmentation part       -3.9378507 magnetization 

 Broyden mixing:
  rms(total) = 0.14730E+01    rms(broyden)= 0.14729E+01
  rms(prec ) = 0.15690E+01
  weight for this iteration     100.00

 Free energy of the ion-electron system (eV)
  ---------------------------------------------------
  alpha Z        PSCENC =         2.23981092
  Ewald energy   TEWEN  =      2629.98113996
  -Hartree energ DENC   =     -3441.42597175
  -exchange      EXHF   =         0.00000000
  -V(xc)+E(xc)   XCENC  =       -51.23333421
  PAW double counting   =       915.48941305     -755.22719771
  entropy T*S    EENTRO =        -0.00000000
  eigenvalues    EBANDS =      -645.55927726
  atomic energy  EATOM  =      1239.96520364
  Solvation  Ediel_sol  =         0.00000000
  ---------------------------------------------------
  free energy    TOTEN  =      -105.77021337 eV

  energy without entropy =     -105.77021337  energy(sigma->0) =     -105.77021337


--------------------------------------------------------------------------------------------------------




--------------------------------------- Iteration      1(   6)  ---------------------------------------


    POTLOK:  cpu time    1.8567: real time    1.8698
    SETDIJ:  cpu time    0.0080: real time    0.0078
     EDDAV:  cpu time    9.6275: real time    9.6301
       DOS:  cpu time    0.0000: real time    0.0004
    CHARGE:  cpu time    0.4869: real time    0.4871
    MIXING:  cpu time    0.0470: real time    0.0469
    --------------------------------------------
      LOOP:  cpu time   12.0262: real time   12.0420

 eigenvalue-minimisations  :    96
 total energy-change (2. order) : 0.3179405E+01  (-0.1552487E+00)
 number of electron      56.0000025 magnetization 
 augmentation part       -3.9396431 magnetization 

 Broyden mixing:
  rms(total) = 0.85424E+00    rms(broyden)= 0.85424E+00
  rms(prec ) = 0.91297E+00
  weight for this iteration     100.00

 eigenvalues of (default mixing * dielectric matrix)
  average eigenvalue GAMMA=   2.3095
  2.3095

 Free energy of the ion-electron system (eV)
  ---------------------------------------------------
  alpha Z        PSCENC =         2.23981092
  Ewald energy   TEWEN  =      2629.98113996
  -Hartree energ DENC   =     -3472.59827485
  -exchange      EXHF   =         0.00000000
  -V(xc)+E(xc)   XCENC  =       -47.60553145
  PAW double counting   =      1795.42727866    -1635.99924925
  entropy T*S    EENTRO =        -0.00000000
  eigenvalues    EBANDS =      -614.00118591
  atomic energy  EATOM  =      1239.96520364
  Solvation  Ediel_sol  =         0.00000000
  ---------------------------------------------------
  free energy    TOTEN  =      -102.59080829 eV

  energy without entropy =     -102.59080829  energy(sigma->0) =     -102.59080829


--------------------------------------------------------------------------------------------------------




--------------------------------------- Iteration      1(   7)  ---------------------------------------


    POTLOK:  cpu time    1.6977: real time    1.6973
    SETDIJ:  cpu time    0.0080: real time    0.0077
     EDDAV:  cpu time   10.2324: real time   10.2292
       DOS:  cpu time    0.0010: real time    0.0004
    CHARGE:  cpu time    0.4789: real time    0.4909
    MIXING:  cpu time    0.0490: real time    0.0488
    --------------------------------------------
      LOOP:  cpu time   12.4671: real time   12.4742

 eigenvalue-minimisations  :   104
 total energy-change (2. order) : 0.1670054E+01  (-0.4075205E+00)
 number of electron      56.0000023 magnetization 
 augmentation part       -3.9403008 magnetization 

 Broyden mixing:
  rms(total) = 0.12234E+00    rms(broyden)= 0.12219E+00
  rms(prec ) = 0.15329E+00
  weight for this iteration     100.00

 eigenvalues of (default mixing * dielectric matrix)
  average eigenvalue GAMMA=   1.8438
  1.7208  1.9669

 Free energy of the ion-electron system (eV)
  ---------------------------------------------------
  alpha Z        PSCENC =         2.23981092
  Ewald energy   TEWEN  =      2629.98113996
  -Hartree energ DENC   =     -3528.24439627
  -exchange      EXHF   =         0.00000000
  -V(xc)+E(xc)   XCENC  =       -41.84080142
  PAW double counting   =      3721.09345557    -3562.77944614
  entropy T*S    EENTRO =        -0.00000000
  eigenvalues    EBANDS =      -561.33572039
  atomic energy  EATOM  =      1239.96520364
  Solvation  Ediel_sol  =         0.00000000
  ---------------------------------------------------
  free energy    TOTEN  =      -100.92075412 eV

  energy without entropy =     -100.92075412  energy(sigma->0) =     -100.92075412


--------------------------------------------------------------------------------------------------------




--------------------------------------- Iteration      1(   8)  ---------------------------------------


    POTLOK:  cpu time    1.7047: real time    1.7033
    SETDIJ:  cpu time    0.0070: real time    0.0076
     EDDAV:  cpu time   10.8743: real time   10.8703
       DOS:  cpu time    0.0010: real time    0.0004
    CHARGE:  cpu time    0.4869: real time    0.4869
    MIXING:  cpu time    0.0510: real time    0.0509
    --------------------------------------------
      LOOP:  cpu time   13.1250: real time   13.1194

 eigenvalue-minimisations  :   112
 total energy-change (2. order) : 0.5186275E-01  (-0.2702091E-01)
 number of electron      56.0000023 magnetization 
 augmentation part       -3.9348267 magnetization 

 Broyden mixing:
  rms(total) = 0.61006E-01    rms(broyden)= 0.60992E-01
  rms(prec ) = 0.80149E-01
  weight for this iteration     100.00

 eigenvalues of (default mixing * dielectric matrix)
  average eigenvalue GAMMA=   1.9721
  2.6350  1.6407  1.6407

 Free energy of the ion-electron system (eV)
  ---------------------------------------------------
  alpha Z        PSCENC =         2.23981092
  Ewald energy   TEWEN  =      2629.98113996
  -Hartree energ DENC   =     -3536.12431527
  -exchange      EXHF   =         0.00000000
  -V(xc)+E(xc)   XCENC  =       -41.87895427
  PAW double counting   =      3744.64297864    -3586.23693661
  entropy T*S    EENTRO =        -0.00000000
  eigenvalues    EBANDS =      -553.45781836
  atomic energy  EATOM  =      1239.96520364
  Solvation  Ediel_sol  =         0.00000000
  ---------------------------------------------------
  free energy    TOTEN  =      -100.86889137 eV

  energy without entropy =     -100.86889137  energy(sigma->0) =     -100.86889137


--------------------------------------------------------------------------------------------------------




--------------------------------------- Iteration      1(   9)  ---------------------------------------


    POTLOK:  cpu time    1.7167: real time    1.7161
    SETDIJ:  cpu time    0.0070: real time    0.0076
     EDDAV:  cpu time   10.8703: real time   10.8657
       DOS:  cpu time    0.0000: real time    0.0004
    CHARGE:  cpu time    0.4889: real time    0.4954
    MIXING:  cpu time    0.0550: real time    0.0551
    --------------------------------------------
      LOOP:  cpu time   13.1380: real time   13.1403

 eigenvalue-minimisations  :   112
 total energy-change (2. order) : 0.3501521E-01  (-0.6839975E-02)
 number of electron      56.0000023 magnetization 
 augmentation part       -3.9214364 magnetization 

 Broyden mixing:
  rms(total) = 0.33226E-01    rms(broyden)= 0.33225E-01
  rms(prec ) = 0.44963E-01
  weight for this iteration     100.00

 eigenvalues of (default mixing * dielectric matrix)
  average eigenvalue GAMMA=   1.7477
  2.4887  1.8381  1.8381  0.8260

 Free energy of the ion-electron system (eV)
  ---------------------------------------------------
  alpha Z        PSCENC =         2.23981092
  Ewald energy   TEWEN  =      2629.98113996
  -Hartree energ DENC   =     -3547.64542079
  -exchange      EXHF   =         0.00000000
  -V(xc)+E(xc)   XCENC  =       -41.19671004
  PAW double counting   =      3877.28272496    -3718.91297192
  entropy T*S    EENTRO =        -0.00000000
  eigenvalues    EBANDS =      -542.54765288
  atomic energy  EATOM  =      1239.96520364
  Solvation  Ediel_sol  =         0.00000000
  ---------------------------------------------------
  free energy    TOTEN  =      -100.83387616 eV

  energy without entropy =     -100.83387616  energy(sigma->0) =     -100.83387616


--------------------------------------------------------------------------------------------------------




--------------------------------------- Iteration      1(  10)  ---------------------------------------


    POTLOK:  cpu time    1.7167: real time    1.7161
    SETDIJ:  cpu time    0.0080: real time    0.0077
     EDDAV:  cpu time   10.8633: real time   10.8599
       DOS:  cpu time    0.0000: real time    0.0005
    CHARGE:  cpu time    0.4889: real time    0.4886
    MIXING:  cpu time    0.0570: real time    0.0575
    --------------------------------------------
      LOOP:  cpu time   13.1340: real time   13.1303

 eigenvalue-minimisations  :   112
 total energy-change (2. order) : 0.1081018E-05  (-0.2642226E-03)
 number of electron      56.0000023 magnetization 
 augmentation part       -3.9206479 magnetization 

 Broyden mixing:
  rms(total) = 0.15276E-01    rms(broyden)= 0.15275E-01
  rms(prec ) = 0.28518E-01
  weight for this iteration     100.00

 eigenvalues of (default mixing * dielectric matrix)
  average eigenvalue GAMMA=   1.9010
  2.7358  2.4636  1.0415  1.6320  1.6320

 Free energy of the ion-electron system (eV)
  ---------------------------------------------------
  alpha Z        PSCENC =         2.23981092
  Ewald energy   TEWEN  =      2629.98113996
  -Hartree energ DENC   =     -3549.90171793
  -exchange      EXHF   =         0.00000000
  -V(xc)+E(xc)   XCENC  =       -41.19319676
  PAW double counting   =      3800.39195253    -3641.97353763
  entropy T*S    EENTRO =        -0.00000000
  eigenvalues    EBANDS =      -540.34352980
  atomic energy  EATOM  =      1239.96520364
  Solvation  Ediel_sol  =         0.00000000
  ---------------------------------------------------
  free energy    TOTEN  =      -100.83387507 eV

  energy without entropy =     -100.83387507  energy(sigma->0) =     -100.83387507


--------------------------------------------------------------------------------------------------------




--------------------------------------- Iteration      1(  11)  ---------------------------------------


    POTLOK:  cpu time    1.7367: real time    1.7390
    SETDIJ:  cpu time    0.0080: real time    0.0077
     EDDAV:  cpu time   10.2474: real time   10.2444
       DOS:  cpu time    0.0010: real time    0.0003
    CHARGE:  cpu time    0.4819: real time    0.4819
    MIXING:  cpu time    0.0590: real time    0.0593
    --------------------------------------------
      LOOP:  cpu time   12.5341: real time   12.5326

 eigenvalue-minimisations  :   104
 total energy-change (2. order) : 0.2729808E-03  (-0.7003084E-03)
 number of electron      56.0000023 magnetization 
 augmentation part       -3.9193567 magnetization 

 Broyden mixing:
  rms(total) = 0.84373E-02    rms(broyden)= 0.84370E-02
  rms(prec ) = 0.14454E-01
  weight for this iteration     100.00

 eigenvalues of (default mixing * dielectric matrix)
  average eigenvalue GAMMA=   1.8609
  3.2552  2.5339  1.7345  1.7345  1.0483  0.8589

 Free energy of the ion-electron system (eV)
  ---------------------------------------------------
  alpha Z        PSCENC =         2.23981092
  Ewald energy   TEWEN  =      2629.98113996
  -Hartree energ DENC   =     -3556.95045842
  -exchange      EXHF   =         0.00000000
  -V(xc)+E(xc)   XCENC  =       -40.99139341
  PAW double counting   =      3755.70299015    -3597.24323173
  entropy T*S    EENTRO =        -0.00000000
  eigenvalues    EBANDS =      -533.53766320
  atomic energy  EATOM  =      1239.96520364
  Solvation  Ediel_sol  =         0.00000000
  ---------------------------------------------------
  free energy    TOTEN  =      -100.83360209 eV

  energy without entropy =     -100.83360209  energy(sigma->0) =     -100.83360209


--------------------------------------------------------------------------------------------------------




--------------------------------------- Iteration      1(  12)  ---------------------------------------


    POTLOK:  cpu time    1.7297: real time    1.7290
    SETDIJ:  cpu time    0.0080: real time    0.0077
     EDDAV:  cpu time   10.2804: real time   10.2771
       DOS:  cpu time    0.0000: real time    0.0003
    CHARGE:  cpu time    0.4869: real time    0.4866
    MIXING:  cpu time    0.0630: real time    0.0630
    --------------------------------------------
      LOOP:  cpu time   12.5681: real time   12.5638

 eigenvalue-minimisations  :   104
 total energy-change (2. order) :-0.3829275E-02  (-0.9354516E-04)
 number of electron      56.0000023 magnetization 
 augmentation part       -3.9187163 magnetization 

 Broyden mixing:
  rms(total) = 0.59572E-02    rms(broyden)= 0.59572E-02
  rms(prec ) = 0.10256E-01
  weight for this iteration     100.00

 eigenvalues of (default mixing * dielectric matrix)
  average eigenvalue GAMMA=   2.0396
  4.3716  2.4365  2.4365  1.5454  1.5454  0.9711  0.9711

 Free energy of the ion-electron system (eV)
  ---------------------------------------------------
  alpha Z        PSCENC =         2.23981092
  Ewald energy   TEWEN  =      2629.98113996
  -Hartree energ DENC   =     -3558.94820025
  -exchange      EXHF   =         0.00000000
  -V(xc)+E(xc)   XCENC  =       -40.95320598
  PAW double counting   =      3753.19321516    -3594.73362244
  entropy T*S    EENTRO =        -0.00000000
  eigenvalues    EBANDS =      -531.58177237
  atomic energy  EATOM  =      1239.96520364
  Solvation  Ediel_sol  =         0.00000000
  ---------------------------------------------------
  free energy    TOTEN  =      -100.83743137 eV

  energy without entropy =     -100.83743137  energy(sigma->0) =     -100.83743137


--------------------------------------------------------------------------------------------------------




--------------------------------------- Iteration      1(  13)  ---------------------------------------


    POTLOK:  cpu time    1.7297: real time    1.7294
    SETDIJ:  cpu time    0.0080: real time    0.0077
     EDDAV:  cpu time   10.8693: real time   10.8665
       DOS:  cpu time    0.0010: real time    0.0003
    CHARGE:  cpu time    0.4849: real time    0.4845
    MIXING:  cpu time    0.0680: real time    0.0679
    --------------------------------------------
      LOOP:  cpu time   13.1610: real time   13.1564

 eigenvalue-minimisations  :   112
 total energy-change (2. order) :-0.5260029E-02  (-0.1825190E-03)
 number of electron      56.0000023 magnetization 
 augmentation part       -3.9186234 magnetization 

 Broyden mixing:
  rms(total) = 0.35216E-02    rms(broyden)= 0.35215E-02
  rms(prec ) = 0.52950E-02
  weight for this iteration     100.00

 eigenvalues of (default mixing * dielectric matrix)
  average eigenvalue GAMMA=   2.1789
  5.6505  2.9330  2.3053  1.7773  1.7773  1.0897  0.9488  0.9488

 Free energy of the ion-electron system (eV)
  ---------------------------------------------------
  alpha Z        PSCENC =         2.23981092
  Ewald energy   TEWEN  =      2629.98113996
  -Hartree energ DENC   =     -3561.78531255
  -exchange      EXHF   =         0.00000000
  -V(xc)+E(xc)   XCENC  =       -40.90308442
  PAW double counting   =      3758.91361150    -3600.46142428
  entropy T*S    EENTRO =        -0.00000000
  eigenvalues    EBANDS =      -528.79263616
  atomic energy  EATOM  =      1239.96520364
  Solvation  Ediel_sol  =         0.00000000
  ---------------------------------------------------
  free energy    TOTEN  =      -100.84269140 eV

  energy without entropy =     -100.84269140  energy(sigma->0) =     -100.84269140


--------------------------------------------------------------------------------------------------------




--------------------------------------- Iteration      1(  14)  ---------------------------------------


    POTLOK:  cpu time    1.7257: real time    1.7250
    SETDIJ:  cpu time    0.0090: real time    0.0087
     EDDAV:  cpu time   10.8533: real time   10.8497
       DOS:  cpu time    0.0000: real time    0.0003
    CHARGE:  cpu time    0.4789: real time    0.4796
    MIXING:  cpu time    0.0730: real time    0.0731
    --------------------------------------------
      LOOP:  cpu time   13.1400: real time   13.1363

 eigenvalue-minimisations  :   112
 total energy-change (2. order) :-0.3490697E-02  (-0.2701923E-04)
 number of electron      56.0000023 magnetization 
 augmentation part       -3.9182075 magnetization 

 Broyden mixing:
  rms(total) = 0.17604E-02    rms(broyden)= 0.17604E-02
  rms(prec ) = 0.29318E-02
  weight for this iteration     100.00

 eigenvalues of (default mixing * dielectric matrix)
  average eigenvalue GAMMA=   2.2760
  6.5088  2.8214  2.8214  2.1322  1.6008  1.6008  1.0877  0.9553  0.9553

 Free energy of the ion-electron system (eV)
  ---------------------------------------------------
  alpha Z        PSCENC =         2.23981092
  Ewald energy   TEWEN  =      2629.98113996
  -Hartree energ DENC   =     -3562.53657746
  -exchange      EXHF   =         0.00000000
  -V(xc)+E(xc)   XCENC  =       -40.91386102
  PAW double counting   =      3757.63838415    -3599.18621097
  entropy T*S    EENTRO =        -0.00000000
  eigenvalues    EBANDS =      -528.03407131
  atomic energy  EATOM  =      1239.96520364
  Solvation  Ediel_sol  =         0.00000000
  ---------------------------------------------------
  free energy    TOTEN  =      -100.84618209 eV

  energy without entropy =     -100.84618209  energy(sigma->0) =     -100.84618209


--------------------------------------------------------------------------------------------------------




--------------------------------------- Iteration      1(  15)  ---------------------------------------


    POTLOK:  cpu time    1.7227: real time    1.7213
    SETDIJ:  cpu time    0.0070: real time    0.0077
     EDDAV:  cpu time   10.7694: real time   10.8191
       DOS:  cpu time    0.0000: real time    0.0003
    CHARGE:  cpu time    0.4829: real time    0.4827
    MIXING:  cpu time    0.0800: real time    0.0801
    --------------------------------------------
      LOOP:  cpu time   13.0620: real time   13.1112

 eigenvalue-minimisations  :   112
 total energy-change (2. order) :-0.4755950E-02  (-0.6036078E-04)
 number of electron      56.0000023 magnetization 
 augmentation part       -3.9178298 magnetization 

 Broyden mixing:
  rms(total) = 0.16533E-02    rms(broyden)= 0.16533E-02
  rms(prec ) = 0.20865E-02
  weight for this iteration     100.00

 eigenvalues of (default mixing * dielectric matrix)
  average eigenvalue GAMMA=   2.3034
  6.7689  3.7834  2.6284  1.9357  1.9357  1.8745  1.2155  0.9339  0.9791  0.9791

 Free energy of the ion-electron system (eV)
  ---------------------------------------------------
  alpha Z        PSCENC =         2.23981092
  Ewald energy   TEWEN  =      2629.98113996
  -Hartree energ DENC   =     -3562.82544095
  -exchange      EXHF   =         0.00000000
  -V(xc)+E(xc)   XCENC  =       -40.92353338
  PAW double counting   =      3761.41390484    -3602.96224966
  entropy T*S    EENTRO =        -0.00000000
  eigenvalues    EBANDS =      -527.73977342
  atomic energy  EATOM  =      1239.96520364
  Solvation  Ediel_sol  =         0.00000000
  ---------------------------------------------------
  free energy    TOTEN  =      -100.85093804 eV

  energy without entropy =     -100.85093804  energy(sigma->0) =     -100.85093804


--------------------------------------------------------------------------------------------------------




--------------------------------------- Iteration      1(  16)  ---------------------------------------


    POTLOK:  cpu time    1.7537: real time    1.7565
    SETDIJ:  cpu time    0.0080: real time    0.0077
     EDDAV:  cpu time   10.8703: real time   10.8674
       DOS:  cpu time    0.0000: real time    0.0003
    CHARGE:  cpu time    0.4819: real time    0.4811
    MIXING:  cpu time    0.0870: real time    0.0870
    --------------------------------------------
      LOOP:  cpu time   13.2010: real time   13.1999

 eigenvalue-minimisations  :   112
 total energy-change (2. order) :-0.1134903E-02  (-0.6484393E-05)
 number of electron      56.0000023 magnetization 
 augmentation part       -3.9179973 magnetization 

 Broyden mixing:
  rms(total) = 0.73570E-03    rms(broyden)= 0.73569E-03
  rms(prec ) = 0.10503E-02
  weight for this iteration     100.00

 eigenvalues of (default mixing * dielectric matrix)
  average eigenvalue GAMMA=   2.4502
  7.4780  4.7744  2.7440  2.6148  1.8503  1.8503  1.3667  1.3667  0.9635  0.9635
  0.9799

 Free energy of the ion-electron system (eV)
  ---------------------------------------------------
  alpha Z        PSCENC =         2.23981092
  Ewald energy   TEWEN  =      2629.98113996
  -Hartree energ DENC   =     -3562.91834972
  -exchange      EXHF   =         0.00000000
  -V(xc)+E(xc)   XCENC  =       -40.92194030
  PAW double counting   =      3761.11507302    -3602.66272872
  entropy T*S    EENTRO =        -0.00000000
  eigenvalues    EBANDS =      -527.65028175
  atomic energy  EATOM  =      1239.96520364
  Solvation  Ediel_sol  =         0.00000000
  ---------------------------------------------------
  free energy    TOTEN  =      -100.85207295 eV

  energy without entropy =     -100.85207295  energy(sigma->0) =     -100.85207295


--------------------------------------------------------------------------------------------------------




--------------------------------------- Iteration      1(  17)  ---------------------------------------


    POTLOK:  cpu time    1.7137: real time    1.7136
    SETDIJ:  cpu time    0.0080: real time    0.0078
     EDDAV:  cpu time   10.2054: real time   10.2174
       DOS:  cpu time    0.0010: real time    0.0003
    CHARGE:  cpu time    0.4789: real time    0.4898
    MIXING:  cpu time    0.0830: real time    0.1072
    --------------------------------------------
      LOOP:  cpu time   12.4901: real time   12.5361

 eigenvalue-minimisations  :   104
 total energy-change (2. order) :-0.1071879E-02  (-0.1000018E-04)
 number of electron      56.0000023 magnetization 
 augmentation part       -3.9182215 magnetization 

 Broyden mixing:
  rms(total) = 0.33951E-03    rms(broyden)= 0.33947E-03
  rms(prec ) = 0.46117E-03
  weight for this iteration     100.00

 eigenvalues of (default mixing * dielectric matrix)
  average eigenvalue GAMMA=   2.3930
  7.5947  5.0807  2.6714  2.6714  1.9425  1.9425  1.4467  1.4467  0.9977  0.9977
  0.9623  0.9623

 Free energy of the ion-electron system (eV)
  ---------------------------------------------------
  alpha Z        PSCENC =         2.23981092
  Ewald energy   TEWEN  =      2629.98113996
  -Hartree energ DENC   =     -3562.94068768
  -exchange      EXHF   =         0.00000000
  -V(xc)+E(xc)   XCENC  =       -40.92353450
  PAW double counting   =      3759.42731081    -3600.97332676
  entropy T*S    EENTRO =        -0.00000000
  eigenvalues    EBANDS =      -527.62906120
  atomic energy  EATOM  =      1239.96520364
  Solvation  Ediel_sol  =         0.00000000
  ---------------------------------------------------
  free energy    TOTEN  =      -100.85314483 eV

  energy without entropy =     -100.85314483  energy(sigma->0) =     -100.85314483


--------------------------------------------------------------------------------------------------------




--------------------------------------- Iteration      1(  18)  ---------------------------------------


    POTLOK:  cpu time    1.6897: real time    1.7163
    SETDIJ:  cpu time    0.0090: real time    0.0084
     EDDAV:  cpu time   11.4143: real time   11.4566
       DOS:  cpu time    0.0000: real time    0.0003
    CHARGE:  cpu time    0.4879: real time    0.4872
    MIXING:  cpu time    0.1080: real time    0.1089
    --------------------------------------------
      LOOP:  cpu time   13.7089: real time   13.7777

 eigenvalue-minimisations  :   120
 total energy-change (2. order) :-0.2051944E-03  (-0.5895148E-06)
 number of electron      56.0000023 magnetization 
 augmentation part       -3.9182333 magnetization 

 Broyden mixing:
  rms(total) = 0.20084E-03    rms(broyden)= 0.20081E-03
  rms(prec ) = 0.28819E-03
  weight for this iteration     100.00

 eigenvalues of (default mixing * dielectric matrix)
  average eigenvalue GAMMA=   2.4697
  8.1278  5.6401  3.1238  2.6487  2.2232  1.8302  1.8302  1.3848  1.3848  1.0008
  1.0008  0.9556  0.9556

 Free energy of the ion-electron system (eV)
  ---------------------------------------------------
  alpha Z        PSCENC =         2.23981092
  Ewald energy   TEWEN  =      2629.98113996
  -Hartree energ DENC   =     -3562.95475182
  -exchange      EXHF   =         0.00000000
  -V(xc)+E(xc)   XCENC  =       -40.92400178
  PAW double counting   =      3759.51503140    -3601.06156895
  entropy T*S    EENTRO =        -0.00000000
  eigenvalues    EBANDS =      -527.61421339
  atomic energy  EATOM  =      1239.96520364
  Solvation  Ediel_sol  =         0.00000000
  ---------------------------------------------------
  free energy    TOTEN  =      -100.85335002 eV

  energy without entropy =     -100.85335002  energy(sigma->0) =     -100.85335002


--------------------------------------------------------------------------------------------------------




--------------------------------------- Iteration      1(  19)  ---------------------------------------


    POTLOK:  cpu time    1.7217: real time    1.7202
    SETDIJ:  cpu time    0.0080: real time    0.0079
     EDDAV:  cpu time   10.2494: real time   10.2542
       DOS:  cpu time    0.0000: real time    0.0003
    CHARGE:  cpu time    0.4879: real time    0.4885
    MIXING:  cpu time    0.1230: real time    0.1227
    --------------------------------------------
      LOOP:  cpu time   12.5901: real time   12.5938

 eigenvalue-minimisations  :   104
 total energy-change (2. order) :-0.1905538E-03  (-0.7482149E-06)
 number of electron      56.0000023 magnetization 
 augmentation part       -3.9182526 magnetization 

 Broyden mixing:
  rms(total) = 0.16664E-03    rms(broyden)= 0.16663E-03
  rms(prec ) = 0.20501E-03
  weight for this iteration     100.00

 eigenvalues of (default mixing * dielectric matrix)
  average eigenvalue GAMMA=   2.4701
  8.3139  6.1088  3.3753  2.6482  2.1865  1.9382  1.9382  1.5135  1.5135  1.2039
  0.9921  0.9921  0.9285  0.9285

 Free energy of the ion-electron system (eV)
  ---------------------------------------------------
  alpha Z        PSCENC =         2.23981092
  Ewald energy   TEWEN  =      2629.98113996
  -Hartree energ DENC   =     -3562.97431322
  -exchange      EXHF   =         0.00000000
  -V(xc)+E(xc)   XCENC  =       -40.92285994
  PAW double counting   =      3759.22974555    -3600.77659801
  entropy T*S    EENTRO =        -0.00000000
  eigenvalues    EBANDS =      -527.59566947
  atomic energy  EATOM  =      1239.96520364
  Solvation  Ediel_sol  =         0.00000000
  ---------------------------------------------------
  free energy    TOTEN  =      -100.85354058 eV

  energy without entropy =     -100.85354058  energy(sigma->0) =     -100.85354058


--------------------------------------------------------------------------------------------------------




--------------------------------------- Iteration      1(  20)  ---------------------------------------


    POTLOK:  cpu time    1.7247: real time    1.7235
    SETDIJ:  cpu time    0.0070: real time    0.0076
     EDDAV:  cpu time    8.9426: real time    9.0239
       DOS:  cpu time    0.0010: real time    0.0004
    CHARGE:  cpu time    0.4869: real time    0.4871
    MIXING:  cpu time    0.1310: real time    0.1313
    --------------------------------------------
      LOOP:  cpu time   11.2933: real time   11.3738

 eigenvalue-minimisations  :    88
 total energy-change (2. order) :-0.4420792E-04  (-0.7357504E-07)
 number of electron      56.0000023 magnetization 
 augmentation part       -3.9182322 magnetization 

 Broyden mixing:
  rms(total) = 0.50658E-04    rms(broyden)= 0.50657E-04
  rms(prec ) = 0.79731E-04
  weight for this iteration     100.00

 eigenvalues of (default mixing * dielectric matrix)
  average eigenvalue GAMMA=   2.5121
  8.6016  6.3868  3.9758  2.9049  2.5317  1.8787  1.8787  1.6086  1.6086  1.2380
  1.2380  0.9837  0.9837  0.9672  0.8953

 Free energy of the ion-electron system (eV)
  ---------------------------------------------------
  alpha Z        PSCENC =         2.23981092
  Ewald energy   TEWEN  =      2629.98113996
  -Hartree energ DENC   =     -3562.98269666
  -exchange      EXHF   =         0.00000000
  -V(xc)+E(xc)   XCENC  =       -40.92336022
  PAW double counting   =      3759.20944054    -3600.75634870
  entropy T*S    EENTRO =        -0.00000000
  eigenvalues    EBANDS =      -527.58677426
  atomic energy  EATOM  =      1239.96520364
  Solvation  Ediel_sol  =         0.00000000
  ---------------------------------------------------
  free energy    TOTEN  =      -100.85358478 eV

  energy without entropy =     -100.85358478  energy(sigma->0) =     -100.85358478


--------------------------------------------------------------------------------------------------------




--------------------------------------- Iteration      1(  21)  ---------------------------------------


    POTLOK:  cpu time    1.7417: real time    1.7436
    SETDIJ:  cpu time    0.0070: real time    0.0077
     EDDAV:  cpu time    8.4247: real time    8.4214
       DOS:  cpu time    0.0000: real time    0.0005
    CHARGE:  cpu time    0.4969: real time    0.4962
    MIXING:  cpu time    0.1410: real time    0.1416
    --------------------------------------------
      LOOP:  cpu time   10.8114: real time   10.8111

 eigenvalue-minimisations  :    80
 total energy-change (2. order) :-0.2851821E-04  (-0.8676573E-07)
 number of electron      56.0000023 magnetization 
 augmentation part       -3.9182129 magnetization 

 Broyden mixing:
  rms(total) = 0.46893E-04    rms(broyden)= 0.46889E-04
  rms(prec ) = 0.61133E-04
  weight for this iteration     100.00

 eigenvalues of (default mixing * dielectric matrix)
  average eigenvalue GAMMA=   2.5113
  8.5562  6.6700  4.1608  2.9859  2.6392  2.0038  2.0038  1.9317  1.5773  1.5773
  1.2073  1.0048  1.0048  0.9739  0.9420  0.9420

 Free energy of the ion-electron system (eV)
  ---------------------------------------------------
  alpha Z        PSCENC =         2.23981092
  Ewald energy   TEWEN  =      2629.98113996
  -Hartree energ DENC   =     -3562.98691670
  -exchange      EXHF   =         0.00000000
  -V(xc)+E(xc)   XCENC  =       -40.92360839
  PAW double counting   =      3759.32282742    -3600.86978930
  entropy T*S    EENTRO =        -0.00000000
  eigenvalues    EBANDS =      -527.58228084
  atomic energy  EATOM  =      1239.96520364
  Solvation  Ediel_sol  =         0.00000000
  ---------------------------------------------------
  free energy    TOTEN  =      -100.85361330 eV

  energy without entropy =     -100.85361330  energy(sigma->0) =     -100.85361330


--------------------------------------------------------------------------------------------------------




--------------------------------------- Iteration      1(  22)  ---------------------------------------


    POTLOK:  cpu time    1.7137: real time    1.7132
    SETDIJ:  cpu time    0.0080: real time    0.0077
     EDDAV:  cpu time    9.0156: real time    9.0172
       DOS:  cpu time    0.0010: real time    0.0004
    CHARGE:  cpu time    0.4859: real time    0.4866
    MIXING:  cpu time    0.1540: real time    0.1533
    --------------------------------------------
      LOOP:  cpu time   11.3783: real time   11.3785

 eigenvalue-minimisations  :    88
 total energy-change (2. order) :-0.8538332E-05  (-0.2025431E-07)
 number of electron      56.0000023 magnetization 
 augmentation part       -3.9182214 magnetization 

 Broyden mixing:
  rms(total) = 0.19854E-04    rms(broyden)= 0.19853E-04
  rms(prec ) = 0.26664E-04
  weight for this iteration     100.00

 eigenvalues of (default mixing * dielectric matrix)
  average eigenvalue GAMMA=   2.5208
  8.7959  6.7515  4.6760  3.1917  2.5681  2.5681  1.8982  1.8982  1.6225  1.6225
  1.2117  1.2117  1.0040  0.9791  0.9791  0.9379  0.9379

 Free energy of the ion-electron system (eV)
  ---------------------------------------------------
  alpha Z        PSCENC =         2.23981092
  Ewald energy   TEWEN  =      2629.98113996
  -Hartree energ DENC   =     -3562.98659220
  -exchange      EXHF   =         0.00000000
  -V(xc)+E(xc)   XCENC  =       -40.92348927
  PAW double counting   =      3759.36325710    -3600.91010549
  entropy T*S    EENTRO =        -0.00000000
  eigenvalues    EBANDS =      -527.58284650
  atomic energy  EATOM  =      1239.96520364
  Solvation  Ediel_sol  =         0.00000000
  ---------------------------------------------------
  free energy    TOTEN  =      -100.85362184 eV

  energy without entropy =     -100.85362184  energy(sigma->0) =     -100.85362184


--------------------------------------------------------------------------------------------------------




--------------------------------------- Iteration      1(  23)  ---------------------------------------


    POTLOK:  cpu time    1.7157: real time    1.7156
    SETDIJ:  cpu time    0.0080: real time    0.0077
     EDDAV:  cpu time    8.9936: real time    9.0193
       DOS:  cpu time    0.0010: real time    0.0004
    CHARGE:  cpu time    0.4869: real time    0.4862
    MIXING:  cpu time    0.1660: real time    0.1660
    --------------------------------------------
      LOOP:  cpu time   11.3713: real time   11.3952

 eigenvalue-minimisations  :    88
 total energy-change (2. order) :-0.3194807E-05  (-0.6994801E-08)
 number of electron      56.0000023 magnetization 
 augmentation part       -3.9182259 magnetization 

 Broyden mixing:
  rms(total) = 0.16410E-04    rms(broyden)= 0.16410E-04
  rms(prec ) = 0.20158E-04
  weight for this iteration     100.00

 eigenvalues of (default mixing * dielectric matrix)
  average eigenvalue GAMMA=   2.5419
  8.8495  6.8695  4.9490  3.1072  3.1072  2.6067  1.9555  1.9555  1.9118  1.6067
  1.6067  0.9435  0.9435  1.0975  1.0975  1.1102  1.0181  1.0181

 Free energy of the ion-electron system (eV)
  ---------------------------------------------------
  alpha Z        PSCENC =         2.23981092
  Ewald energy   TEWEN  =      2629.98113996
  -Hartree energ DENC   =     -3562.98635321
  -exchange      EXHF   =         0.00000000
  -V(xc)+E(xc)   XCENC  =       -40.92359010
  PAW double counting   =      3759.30893588    -3600.85576126
  entropy T*S    EENTRO =        -0.00000000
  eigenvalues    EBANDS =      -527.58301085
  atomic energy  EATOM  =      1239.96520364
  Solvation  Ediel_sol  =         0.00000000
  ---------------------------------------------------
  free energy    TOTEN  =      -100.85362503 eV

  energy without entropy =     -100.85362503  energy(sigma->0) =     -100.85362503


--------------------------------------------------------------------------------------------------------




--------------------------------------- Iteration      1(  24)  ---------------------------------------


    POTLOK:  cpu time    1.7237: real time    1.7233
    SETDIJ:  cpu time    0.0080: real time    0.0076
     EDDAV:  cpu time    8.4347: real time    8.4321
       DOS:  cpu time    0.0000: real time    0.0005
    CHARGE:  cpu time    0.4879: real time    0.4871
    MIXING:  cpu time    0.1790: real time    0.1799
    --------------------------------------------
      LOOP:  cpu time   10.8344: real time   10.8306

 eigenvalue-minimisations  :    80
 total energy-change (2. order) :-0.2623239E-05  (-0.4211461E-08)
 number of electron      56.0000023 magnetization 
 augmentation part       -3.9182269 magnetization 

 Broyden mixing:
  rms(total) = 0.64623E-05    rms(broyden)= 0.64621E-05
  rms(prec ) = 0.81747E-05
  weight for this iteration     100.00

 eigenvalues of (default mixing * dielectric matrix)
  average eigenvalue GAMMA=   2.5520
  8.8426  7.1674  5.4570  3.9456  2.9171  2.5501  2.2897  1.8991  1.8991  1.6247
  1.6247  1.1809  1.1809  1.1368  0.9878  0.9878  0.9275  0.9275  0.9421

 Free energy of the ion-electron system (eV)
  ---------------------------------------------------
  alpha Z        PSCENC =         2.23981092
  Ewald energy   TEWEN  =      2629.98113996
  -Hartree energ DENC   =     -3562.98720532
  -exchange      EXHF   =         0.00000000
  -V(xc)+E(xc)   XCENC  =       -40.92353579
  PAW double counting   =      3759.27984678    -3600.82669463
  entropy T*S    EENTRO =        -0.00000000
  eigenvalues    EBANDS =      -527.58219322
  atomic energy  EATOM  =      1239.96520364
  Solvation  Ediel_sol  =         0.00000000
  ---------------------------------------------------
  free energy    TOTEN  =      -100.85362766 eV

  energy without entropy =     -100.85362766  energy(sigma->0) =     -100.85362766


--------------------------------------------------------------------------------------------------------




--------------------------------------- Iteration      1(  25)  ---------------------------------------


    POTLOK:  cpu time    1.7347: real time    1.7334
    SETDIJ:  cpu time    0.0090: real time    0.0087
     EDDAV:  cpu time    9.0526: real time    9.0493
       DOS:  cpu time    0.0000: real time    0.0003
    --------------------------------------------
      LOOP:  cpu time   10.7954: real time   10.7917

 eigenvalue-minimisations  :    88
 total energy-change (2. order) :-0.4090803E-06  (-0.7908376E-09)
 number of electron      56.0000023 magnetization 
 augmentation part       -3.9182269 magnetization 

 Free energy of the ion-electron system (eV)
  ---------------------------------------------------
  alpha Z        PSCENC =         2.23981092
  Ewald energy   TEWEN  =      2629.98113996
  -Hartree energ DENC   =     -3562.98736208
  -exchange      EXHF   =         0.00000000
  -V(xc)+E(xc)   XCENC  =       -40.92353194
  PAW double counting   =      3759.28933807    -3600.83619183
  entropy T*S    EENTRO =        -0.00000000
  eigenvalues    EBANDS =      -527.58203480
  atomic energy  EATOM  =      1239.96520364
  Solvation  Ediel_sol  =         0.00000000
  ---------------------------------------------------
  free energy    TOTEN  =      -100.85362807 eV

  energy without entropy =     -100.85362807  energy(sigma->0) =     -100.85362807


--------------------------------------------------------------------------------------------------------




 average (electrostatic) potential at core
  the test charge radii are     0.9892  1.1631  0.5201
  (the norm of the test charge is              1.0000)
       1 -93.4359       2 -93.4103       3 -93.4358       4 -93.4361       5 -93.4493
       6 -40.3928       7 -40.4339       8 -40.4267       9 -40.3928      10 -40.4338
      11 -41.0695      12 -41.0685      13 -40.6870      14 -40.6915      15 -40.6911
      16 -41.0690      17 -41.0705      18 -40.6878      19 -41.0565      20 -41.0598
      21 -41.0591      22 -40.6878      23 -40.6996      24 -40.6991      25 -41.0589
      26 -41.0599
 
 
 
 E-fermi :  -5.4144     XC(G=0):  -0.6094     alpha+bet : -0.3347


 k-point     1 :       0.0000    0.0000    0.0000
  band No.  band energies     occupation 
      1     -15.2651      2.00000
      2     -14.4301      2.00000
      3     -14.2557      2.00000
      4     -13.7420      2.00000
      5     -13.4100      2.00000
      6     -12.8038      2.00000
      7     -11.7671      2.00000
      8     -11.4687      2.00000
      9     -11.2818      2.00000
     10     -10.4338      2.00000
     11      -8.9578      2.00000
     12      -8.6323      2.00000
     13      -8.6250      2.00000
     14      -8.6249      2.00000
     15      -8.1807      2.00000
     16      -8.1760      2.00000
     17      -8.1638      2.00000
     18      -7.8617      2.00000
     19      -7.8560      2.00000
     20      -7.8436      2.00000
     21      -6.7838      2.00000
     22      -6.7574      2.00000
     23      -6.4714      2.00000
     24      -6.4584      2.00000
     25      -6.4410      2.00000
     26      -6.3715      2.00000
     27      -6.3711      2.00000
     28      -6.3566      2.00000
     29      -1.7336      0.00000
     30      -1.3418      0.00000
     31      -1.2979      0.00000
     32      -1.1965      0.00000
     33      -1.1704      0.00000
     34      -1.0929      0.00000
     35      -1.0498      0.00000
     36      -1.0332      0.00000
     37      -0.8271      0.00000
     38      -0.6210      0.00000
     39      -0.4657      0.00000
     40      -0.2840      0.00000
     41      -0.2503      0.00000
     42      -0.1511      0.00000


--------------------------------------------------------------------------------------------------------


 soft charge-density along one line, spin component           1
         0         1         2         3         4         5         6         7         8         9
 total charge-density along one line
 
 pseudopotential strength for first ion, spin component:           1
 19.618  27.378  -0.001   0.003   0.003  -0.001   0.006   0.005
 27.378  38.212  -0.001   0.004   0.004  -0.002   0.008   0.007
 -0.001  -0.001   4.360   0.000  -0.000   8.133   0.000  -0.000
  0.003   0.004   0.000   4.359   0.000   0.000   8.132   0.000
  0.003   0.004  -0.000   0.000   4.359  -0.000   0.000   8.132
 -0.001  -0.002   8.133   0.000  -0.000  15.182   0.001  -0.000
  0.006   0.008   0.000   8.132   0.000   0.001  15.179   0.001
  0.005   0.007  -0.000   0.000   8.132  -0.000   0.001  15.180
 total augmentation occupancy for first ion, spin component:           1
  5.530  -2.024   0.071  -0.343  -0.068  -0.022   0.102   0.021
 -2.024   0.807  -0.043   0.208   0.037   0.010  -0.045  -0.007
  0.071  -0.043   2.797  -0.106  -0.006  -0.603   0.037   0.003
 -0.343   0.208  -0.106   3.279   0.048   0.037  -0.772  -0.019
 -0.068   0.037  -0.006   0.048   2.820   0.003  -0.019  -0.607
 -0.022   0.010  -0.603   0.037   0.003   0.137  -0.010  -0.001
  0.102  -0.045   0.037  -0.772  -0.019  -0.010   0.185   0.006
  0.021  -0.007   0.003  -0.019  -0.607  -0.001   0.006   0.137


------------------------ aborting loop because EDIFF is reached ----------------------------------------


    CHARGE:  cpu time    0.4469: real time    0.4460
    FORLOC:  cpu time    0.1710: real time    0.1715
    FORNL :  cpu time    1.1218: real time    1.1209
    STRESS:  cpu time    8.4097: real time    8.4076
    FORCOR:  cpu time    1.7157: real time    1.7152
    FORHAR:  cpu time    0.5819: real time    0.5804
    MIXING:  cpu time    0.1920: real time    0.1924
    OFIELD:  cpu time    0.0000: real time    0.0000

  FORCE on cell =-STRESS in cart. coord.  units (eV):
  Direction    XX          YY          ZZ          XY          YZ          ZX
  --------------------------------------------------------------------------------------
  Alpha Z     2.23981     2.23981     2.23981
  Ewald     876.64706   876.62235   876.71007    -0.21850     0.02563    -0.50464
  Hartree  1188.53867  1186.84768  1187.60143    -0.48928    -0.20668     0.02640
  E(xc)    -178.68850  -178.72158  -178.67891    -0.03497    -0.03526    -0.02652
  Local   -2558.51110 -2556.84109 -2557.65887     0.65680     0.14441     0.47243
  n-local   256.24483   256.54347   256.28282     0.23709     0.21920     0.09684
  augment   -20.72528   -20.73446   -20.71851     0.00129    -0.00380    -0.00467
  Kinetic   432.06950   431.83477   432.01494    -0.09708    -0.10516    -0.01421
  Fock        0.00000     0.00000     0.00000     0.00000     0.00000     0.00000
  -------------------------------------------------------------------------------------
  Total      -2.18501    -2.20904    -2.20721     0.05535     0.03834     0.04563
  in kB      -0.43760    -0.44241    -0.44204     0.01109     0.00768     0.00914
  external pressure =       -0.44 kB  Pullay stress =        0.00 kB


 VOLUME and BASIS-vectors are now :
 -----------------------------------------------------------------------------
  energy-cutoff  :      400.00
[...]
    SETDIJ:  cpu time    0.0080: real time    0.0078
     EDDAV:  cpu time   11.4633: real time   11.5130
       DOS:  cpu time    0.0000: real time    0.0005
    CHARGE:  cpu time    0.4889: real time    0.4887
    MIXING:  cpu time    0.0480: real time    0.0478
    --------------------------------------------
      LOOP:  cpu time   13.7129: real time   13.7763

 eigenvalue-minimisations  :   120
 total energy-change (2. order) : 0.5761620E-05  (-0.1937488E-05)
 number of electron      55.9999988 magnetization 
 augmentation part       -3.9107433 magnetization 

 Broyden mixing:
  rms(total) = 0.11612E-02    rms(broyden)= 0.11611E-02
  rms(prec ) = 0.12478E-02
  weight for this iteration     100.00

 eigenvalues of (default mixing * dielectric matrix)
  average eigenvalue GAMMA=   1.5625
  1.0657  2.0593

 Free energy of the ion-electron system (eV)
  ---------------------------------------------------
  alpha Z        PSCENC =         2.23981092
  Ewald energy   TEWEN  =      2622.99442189
  -Hartree energ DENC   =     -3555.63918492
  -exchange      EXHF   =         0.00000000
  -V(xc)+E(xc)   XCENC  =       -40.56099796
  PAW double counting   =      3906.69579647    -3748.28153020
  entropy T*S    EENTRO =        -0.00000000
  eigenvalues    EBANDS =      -528.48367646
  atomic energy  EATOM  =      1239.96520364
  Solvation  Ediel_sol  =         0.00000000
  ---------------------------------------------------
  free energy    TOTEN  =      -101.07015663 eV

  energy without entropy =     -101.07015663  energy(sigma->0) =     -101.07015663


--------------------------------------------------------------------------------------------------------




--------------------------------------- Iteration     17(   4)  ---------------------------------------


    POTLOK:  cpu time    1.7207: real time    1.7201
    SETDIJ:  cpu time    0.0070: real time    0.0076
     EDDAV:  cpu time   10.9203: real time   10.9154
       DOS:  cpu time    0.0000: real time    0.0004
    CHARGE:  cpu time    0.4879: real time    0.4881
    MIXING:  cpu time    0.0510: real time    0.0504
    --------------------------------------------
      LOOP:  cpu time   13.1870: real time   13.1819

 eigenvalue-minimisations  :   112
 total energy-change (2. order) : 0.2096946E-05  (-0.7380459E-06)
 number of electron      55.9999988 magnetization 
 augmentation part       -3.9108317 magnetization 

 Broyden mixing:
  rms(total) = 0.29243E-03    rms(broyden)= 0.29240E-03
  rms(prec ) = 0.34575E-03
  weight for this iteration     100.00

 eigenvalues of (default mixing * dielectric matrix)
  average eigenvalue GAMMA=   1.5333
  2.4532  1.0733  1.0733

 Free energy of the ion-electron system (eV)
  ---------------------------------------------------
  alpha Z        PSCENC =         2.23981092
  Ewald energy   TEWEN  =      2622.99442189
  -Hartree energ DENC   =     -3555.64565651
  -exchange      EXHF   =         0.00000000
  -V(xc)+E(xc)   XCENC  =       -40.56010706
  PAW double counting   =      3906.45319373    -3748.03872950
  entropy T*S    EENTRO =        -0.00000000
  eigenvalues    EBANDS =      -528.47829164
  atomic energy  EATOM  =      1239.96520364
  Solvation  Ediel_sol  =         0.00000000
  ---------------------------------------------------
  free energy    TOTEN  =      -101.07015453 eV

  energy without entropy =     -101.07015453  energy(sigma->0) =     -101.07015453


--------------------------------------------------------------------------------------------------------




--------------------------------------- Iteration     17(   5)  ---------------------------------------


    POTLOK:  cpu time    1.7207: real time    1.7201
    SETDIJ:  cpu time    0.0070: real time    0.0076
     EDDAV:  cpu time    9.5905: real time    9.6563
       DOS:  cpu time    0.0000: real time    0.0004
    --------------------------------------------
      LOOP:  cpu time   11.3183: real time   11.3843

 eigenvalue-minimisations  :    96
 total energy-change (2. order) : 0.5366187E-06  (-0.8078872E-07)
 number of electron      55.9999988 magnetization 
 augmentation part       -3.9108317 magnetization 

 Free energy of the ion-electron system (eV)
  ---------------------------------------------------
  alpha Z        PSCENC =         2.23981092
  Ewald energy   TEWEN  =      2622.99442189
  -Hartree energ DENC   =     -3555.65014431
  -exchange      EXHF   =         0.00000000
  -V(xc)+E(xc)   XCENC  =       -40.56002707
  PAW double counting   =      3906.30338398    -3747.88892066
  entropy T*S    EENTRO =        -0.00000000
  eigenvalues    EBANDS =      -528.47388238
  atomic energy  EATOM  =      1239.96520364
  Solvation  Ediel_sol  =         0.00000000
  ---------------------------------------------------
  free energy    TOTEN  =      -101.07015399 eV

  energy without entropy =     -101.07015399  energy(sigma->0) =     -101.07015399


--------------------------------------------------------------------------------------------------------




 average (electrostatic) potential at core
  the test charge radii are     0.9892  1.1631  0.5201
  (the norm of the test charge is              1.0000)
       1 -93.4122       2 -93.2786       3 -93.4122       4 -93.4118       5 -93.3508
       6 -40.3868       7 -40.4353       8 -40.4578       9 -40.3866      10 -40.4355
      11 -40.9841      12 -40.9842      13 -40.8988      14 -40.8505      15 -40.8503
      16 -40.9843      17 -40.9847      18 -40.8985      19 -41.0163      20 -40.9868
      21 -40.9874      22 -40.8986      23 -40.8413      24 -40.8415      25 -40.9886
      26 -40.9867
 
 
 
 E-fermi :  -5.3507     XC(G=0):  -0.6082     alpha+bet : -0.3347


 k-point     1 :       0.0000    0.0000    0.0000
  band No.  band energies     occupation 
      1     -15.1733      2.00000
      2     -14.3162      2.00000
      3     -14.2063      2.00000
      4     -13.8929      2.00000
      5     -13.3264      2.00000
      6     -12.9312      2.00000
      7     -11.8251      2.00000
      8     -11.5768      2.00000
      9     -11.3942      2.00000
     10     -10.5570      2.00000
     11      -9.0291      2.00000
     12      -8.6333      2.00000
     13      -8.6237      2.00000
     14      -8.5478      2.00000
     15      -8.1704      2.00000
     16      -8.1388      2.00000
     17      -8.0392      2.00000
     18      -7.9625      2.00000
     19      -7.9139      2.00000
     20      -7.8248      2.00000
     21      -6.8738      2.00000
     22      -6.7697      2.00000
     23      -6.5439      2.00000
     24      -6.4787      2.00000
     25      -6.4212      2.00000
     26      -6.4050      2.00000
     27      -6.3502      2.00000
     28      -6.3115      2.00000
     29      -1.6811      0.00000
     30      -1.3758      0.00000
     31      -1.3451      0.00000
     32      -1.3316      0.00000
     33      -1.2618      0.00000
     34      -1.1103      0.00000
     35      -1.0672      0.00000
     36      -1.0315      0.00000
     37      -0.7566      0.00000
     38      -0.5463      0.00000
     39      -0.4311      0.00000
     40      -0.2214      0.00000
     41      -0.2140      0.00000
     42      -0.1047      0.00000


--------------------------------------------------------------------------------------------------------


 soft charge-density along one line, spin component           1
         0         1         2         3         4         5         6         7         8         9
 total charge-density along one line
 
 pseudopotential strength for first ion, spin component:           1
 19.620  27.381  -0.000   0.003   0.002  -0.001   0.006   0.005
 27.381  38.216  -0.001   0.004   0.003  -0.001   0.008   0.006
 -0.000  -0.001   4.362   0.000  -0.000   8.136   0.000  -0.000
  0.003   0.004   0.000   4.362   0.000   0.000   8.136   0.000
  0.002   0.003  -0.000   0.000   4.361  -0.000   0.000   8.135
 -0.001  -0.001   8.136   0.000  -0.000  15.187   0.000  -0.000
  0.006   0.008   0.000   8.136   0.000   0.000  15.187   0.001
  0.005   0.006  -0.000   0.000   8.135  -0.000   0.001  15.186
 total augmentation occupancy for first ion, spin component:           1
  5.753  -2.143   0.084  -0.478  -0.179  -0.026   0.148   0.058
 -2.143   0.863  -0.048   0.273   0.088   0.012  -0.066  -0.023
  0.084  -0.048   2.771  -0.150   0.007  -0.598   0.049  -0.001
 -0.478   0.273  -0.150   3.503   0.035   0.049  -0.837  -0.016
 -0.179   0.088   0.007   0.035   2.908  -0.001  -0.016  -0.634
 -0.026   0.012  -0.598   0.049  -0.001   0.136  -0.014   0.000
  0.148  -0.066   0.049  -0.837  -0.016  -0.014   0.203   0.005
  0.058  -0.023  -0.001  -0.016  -0.634   0.000   0.005   0.145


------------------------ aborting loop because EDIFF is reached ----------------------------------------


    CHARGE:  cpu time    0.4759: real time    0.4763
    FORLOC:  cpu time    0.1740: real time    0.1725
    FORNL :  cpu time    1.1208: real time    1.1209
    STRESS:  cpu time    8.4467: real time    8.4435
    FORCOR:  cpu time    1.7207: real time    1.7208
    FORHAR:  cpu time    0.5799: real time    0.5794
    MIXING:  cpu time    0.0510: real time    0.0513
    OFIELD:  cpu time    0.0000: real time    0.0000

  FORCE on cell =-STRESS in cart. coord.  units (eV):
  Direction    XX          YY          ZZ          XY          YZ          ZX
  --------------------------------------------------------------------------------------
  Alpha Z     2.23981     2.23981     2.23981
  Ewald     880.32529   869.17049   873.49698    -2.23664    -1.55200     3.08809
  Hartree  1190.96254  1180.05804  1184.64719    -2.64559    -1.94541     2.55076
  E(xc)    -179.01102  -179.10010  -179.01756    -0.02405    -0.03712    -0.01058
  Local   -2565.13248 -2542.55251 -2551.96386     4.76854     3.55551    -5.68696
  n-local   256.30388   256.58099   256.56675     0.29762     0.16568    -0.06581
  augment   -20.88469   -20.82474   -20.89824    -0.01059     0.01422     0.00819
  Kinetic   434.31054   433.39628   434.00318    -0.20179    -0.25852     0.11859
  Fock        0.00000     0.00000     0.00000     0.00000     0.00000     0.00000
  -------------------------------------------------------------------------------------
  Total      -0.88613    -1.03174    -0.92574    -0.05251    -0.05763     0.00226
  in kB      -0.17747    -0.20663    -0.18540    -0.01052    -0.01154     0.00045
  external pressure =       -0.19 kB  Pullay stress =        0.00 kB


 VOLUME and BASIS-vectors are now :
 -----------------------------------------------------------------------------
  energy-cutoff  :      400.00
  volume of cell :     8000.00
      direct lattice vectors                 reciprocal lattice vectors
    20.000000000  0.000000000  0.000000000     0.050000000  0.000000000  0.000000000
     0.000000000 20.000000000  0.000000000     0.000000000  0.050000000  0.000000000
     0.000000000  0.000000000 20.000000000     0.000000000  0.000000000  0.050000000

  length of vectors
    20.000000000 20.000000000 20.000000000     0.050000000  0.050000000  0.050000000


 FORCES acting on ions
    electron-ion (+dipol)            ewald-force                    non-local-force                 convergence-correction
 -----------------------------------------------------------------------------------------------
   0.100E+02 -.189E+02 0.880E+02   -.110E+02 0.192E+02 -.895E+02   0.102E+01 -.253E+00 0.149E+01   -.992E-04 -.833E-03 -.135E-02
   0.873E+02 -.553E+01 0.461E+02   -.888E+02 0.560E+01 -.469E+02   0.156E+01 -.745E-01 0.827E+00   0.250E-03 -.585E-03 -.109E-04
   0.798E+02 0.131E+02 -.410E+02   -.816E+02 -.132E+02 0.410E+02   0.182E+01 0.111E+00 0.160E-01   -.971E-03 -.124E-02 0.254E-03
   -.494E+02 0.756E+02 -.801E+01   0.508E+02 -.765E+02 0.857E+01   -.146E+01 0.936E+00 -.561E+00   -.268E-04 -.163E-02 -.410E-03
   -.861E+02 0.288E+01 -.461E+02   0.880E+02 -.367E+01 0.469E+02   -.191E+01 0.775E+00 -.843E+00   -.141E-03 -.230E-02 -.624E-03
   -.375E+02 0.543E+02 0.765E+02   0.378E+02 -.547E+02 -.770E+02   -.259E+00 0.393E+00 0.547E+00   0.115E-03 -.888E-03 -.862E-03
   -.297E+02 -.846E+02 0.446E+02   0.298E+02 0.852E+02 -.452E+02   -.143E+00 -.627E+00 0.646E+00   -.452E-03 -.141E-03 -.191E-02
   -.426E+02 -.719E+02 -.409E+02   0.431E+02 0.721E+02 0.412E+02   -.559E+00 -.262E+00 -.367E+00   -.601E-03 -.489E-03 -.444E-03
   0.293E+02 0.846E+02 -.467E+02   -.295E+02 -.852E+02 0.470E+02   0.213E+00 0.610E+00 -.324E+00   -.447E-03 -.115E-02 0.184E-03
   0.356E+02 -.550E+02 -.758E+02   -.361E+02 0.553E+02 0.764E+02   0.560E+00 -.306E+00 -.651E+00   -.174E-02 -.741E-03 0.503E-03
   0.199E+02 0.400E+02 0.575E+01   -.210E+02 -.420E+02 -.682E+01   0.114E+01 0.197E+01 0.107E+01   0.518E-04 -.806E-05 0.937E-04
   0.165E+01 0.218E+02 -.395E+02   -.139E+01 -.223E+02 0.419E+02   -.265E+00 0.550E+00 -.244E+01   -.140E-03 -.202E-03 -.110E-03
   -.268E+02 0.404E+02 -.446E+01   0.284E+02 -.429E+02 0.472E+01   -.159E+01 0.244E+01 -.255E+00   -.515E-04 -.912E-04 -.488E-04
   -.461E+02 -.390E+01 0.596E+01   0.487E+02 0.432E+01 -.720E+01   -.266E+01 -.415E+00 0.124E+01   0.270E-03 -.385E-03 -.322E-03
   -.207E+02 0.782E+01 -.413E+02   0.211E+02 -.842E+01 0.442E+02   -.436E+00 0.598E+00 -.286E+01   -.316E-04 -.522E-03 0.235E-03
   -.350E+02 0.511E+01 0.281E+02   0.372E+02 -.476E+01 -.292E+02   -.221E+01 -.337E+00 0.115E+01   -.132E-03 -.200E-03 -.132E-03
   0.789E+01 0.347E+02 0.278E+02   -.900E+01 -.367E+02 -.289E+02   0.111E+01 0.195E+01 0.112E+01   0.105E-03 0.146E-04 -.786E-05
   0.677E+01 -.943E+01 0.471E+02   -.718E+01 0.997E+01 -.500E+02   0.408E+00 -.546E+00 0.284E+01   0.392E-04 -.121E-03 -.104E-03
   -.217E+02 -.355E+02 -.206E+02   0.229E+02 0.374E+02 0.217E+02   -.115E+01 -.190E+01 -.109E+01   0.114E-03 0.322E-03 0.143E-03
   0.294E+01 -.317E+01 -.445E+02   -.267E+01 0.267E+01 0.469E+02   -.275E+00 0.491E+00 -.245E+01   -.323E-03 -.211E-03 0.161E-03
   0.240E+02 -.364E+02 -.108E+02   -.253E+02 0.385E+02 0.106E+02   0.136E+01 -.210E+01 0.192E+00   -.357E-03 -.263E-04 0.620E-04
   0.434E+02 0.747E+01 -.207E+02   -.460E+02 -.792E+01 0.219E+02   0.261E+01 0.459E+00 -.123E+01   -.344E-04 -.160E-03 0.365E-04
   0.322E+02 0.251E+02 0.237E+02   -.336E+02 -.273E+02 -.250E+02   0.141E+01 0.223E+01 0.131E+01   0.436E-04 -.291E-03 -.492E-04
   0.352E+02 -.290E+02 0.120E+02   -.368E+02 0.314E+02 -.123E+02   0.168E+01 -.240E+01 0.315E+00   -.142E-03 0.155E-03 -.409E-04
   0.122E+02 -.416E+02 0.110E+02   -.135E+02 0.437E+02 -.113E+02   0.134E+01 -.211E+01 0.229E+00   -.148E-03 0.696E-04 -.327E-03
   -.335E+02 -.197E+02 0.225E+02   0.357E+02 0.201E+02 -.236E+02   -.221E+01 -.393E+00 0.113E+01   -.237E-04 -.675E-04 -.409E-03
 -----------------------------------------------------------------------------------------------
   -.111E+01 -.176E+01 -.103E+01   -.497E-13 0.426E-13 0.711E-14   0.112E+01 0.177E+01 0.104E+01   -.487E-02 -.117E-01 -.548E-02
 
 
 POSITION                                       TOTAL-FORCE (eV/Angst)
 -----------------------------------------------------------------------------------
      9.47369     11.12409      7.68830         0.004237      0.000117     -0.005877
      7.39439     10.78370      8.73579        -0.007513      0.001939     -0.003563
      7.66840     10.29926     11.02198        -0.002068     -0.002945      0.006092
     11.17718      8.67129     10.26153        -0.004686     -0.007076     -0.004199
     12.28158     10.46605     11.30357         0.009808     -0.012667      0.002130
     10.83510      9.15682      7.93122        -0.003734      0.009179      0.013207
     10.61845     12.97202      8.71344        -0.007531     -0.013495     -0.006877
     10.97001     12.46839     11.08878         0.001404      0.003081      0.001521
      9.02379      8.32920     11.27587         0.006521      0.013739     -0.006044
      8.77170     12.12812     12.12384        -0.007234     -0.013373     -0.007671
      8.31859      7.10993     10.60945         0.005465      0.006738     -0.003321
      9.18937      7.99018     12.78732        -0.000530      0.006279      0.000625
     11.99387      7.41838     10.39364         0.007704      0.000591      0.004468
     13.62584     10.67679     10.67500        -0.002678      0.001158     -0.004206
     12.49947     10.16263     12.75509        -0.005055      0.000116      0.000599
     12.20466      9.36829      7.21953        -0.001034      0.006084      0.001811
     10.14356      7.94383      7.23950        -0.000544      0.004050      0.008254
      9.26293     11.40557      6.22860        -0.006037      0.001605     -0.003228
     11.69629     13.66652     11.77867         0.005930     -0.005612      0.001809
      8.94173     11.82188     13.64172        -0.003940     -0.001992     -0.000969
      7.92689     13.43124     12.00368         0.002218     -0.000103     -0.000332
      6.32613     10.06346     11.65202        -0.006803      0.001228     -0.003186
      6.67842      9.64766      8.06715         0.011007      0.000928      0.006256
      6.54255     12.00779      8.57731         0.006812      0.002407      0.004260
      9.78566     14.28064      8.57126         0.001063     -0.000599      0.001998
     11.98914     13.21427      8.01406        -0.002782     -0.001377     -0.003558
 -----------------------------------------------------------------------------------
    total drift:                                0.001641      0.002385     -0.001065


--------------------------------------------------------------------------------------------------------



  FREE ENERGIE OF THE ION-ELECTRON SYSTEM (eV)
  ---------------------------------------------------
  free  energy   TOTEN  =      -101.07015399 eV

  energy  without entropy=     -101.07015399  energy(sigma->0) =     -101.07015399
 
 d Force = 0.3738555E-03[ 0.156E-03, 0.592E-03]  d Energy = 0.3705229E-03 0.333E-05
 d Force = 0.6317391E+00[ 0.631E+00, 0.632E+00]  d Ewald  = 0.6317389E+00 0.229E-06


--------------------------------------------------------------------------------------------------------


    POTLOK:  cpu time    1.7277: real time    1.7272


--------------------------------------------------------------------------------------------------------


 Conjugate gradient step on ions:
 trial-energy change:   -0.000371  1 .order   -0.000374   -0.000592   -0.000156
  (g-gl).g = 0.341E-03      g.g   = 0.491E-03  gl.gl    = 0.238E-02
 g(Force)  = 0.491E-03   g(Stress)= 0.000E+00 ortho     = 0.634E-05
 gamma     =   0.14340
 trial     =   1.20425
 opt step  =   1.63428  (harmonic =   1.63428) maximal distance =0.00232171
 next E    =  -101.070185   (d E  =  -0.00040)


--------------------------------------------------------------------------------------------------------


  
 reached required accuracy - stopping structural energy minimisation
 writing wavefunctions
     LOOP+:  cpu time   77.5902: real time   78.1434
    4ORBIT:  cpu time    0.0000: real time    0.0000

 total amount of memory used by VASP MPI-rank0   131440. kBytes
=======================================================================

   base      :      30000. kBytes
   nonl-proj :      17624. kBytes
   fftplans  :      26957. kBytes
   grid      :      48673. kBytes
   one-center:         40. kBytes
   wavefun   :       8146. kBytes
 
  
  
 General timing and accounting informations for this job:
 ========================================================
  
                  Total CPU time used (sec):     2441.939
                            User time (sec):     2412.294
                          System time (sec):       29.644
                         Elapsed time (sec):     2446.518
  
                   Maximum memory used (kb):      186448.
                   Average memory used (kb):           0.
  
                          Minor page faults:      5823580
                          Major page faults:            9
                 Voluntary context switches:         3277
