 vasp.5.4.4.18Apr17-6-g9f103f2a35 (build Nov 06 2017 19:16:10) complex          
  
 executed on           IFC91_ompi date 2018.07.13  19:41:29
 running on   12 total cores
 distrk:  each k-point on   12 cores,    1 groups
 distr:  one band on NCORES_PER_BAND=   6 cores,    2 groups


--------------------------------------------------------------------------------------------------------


 INCAR:
 POTCAR:    PAW_PBE Si 05Jan2001                  
 POTCAR:    PAW_PBE Ge 05Jan2001                  
 POTCAR:    PAW_PBE H 15Jun2001                   
 POTCAR:    PAW_PBE Si 05Jan2001                  
   VRHFIN =Si: s2p2                                                             
   LEXCH  = PE                                                                  
   EATOM  =   103.0669 eV,    7.5752 Ry                                         
                                                                                
   TITEL  = PAW_PBE Si 05Jan2001                                                
   LULTRA =        F    use ultrasoft PP ?                                      
   IUNSCR =        1    unscreen: 0-lin 1-nonlin 2-no                           
   RPACOR =    1.500    partial core radius                                     
   POMASS =   28.085; ZVAL   =    4.000    mass and valenz                      
   RCORE  =    1.900    outmost cutoff radius                                   
   RWIGS  =    2.480; RWIGS  =    1.312    wigner-seitz radius (au A)           
   ENMAX  =  245.345; ENMIN  =  184.009 eV                                      
   ICORE  =        2    local potential                                         
   LCOR   =        T    correct aug charges                                     
   LPAW   =        T    paw PP                                                  
   EAUG   =  322.069                                                            
   DEXC   =    0.000                                                            
   RMAX   =    1.950    core radius for proj-oper                               
   RAUG   =    1.300    factor for augmentation sphere                          
   RDEP   =    1.993    radius for radial grids                                 
   RDEPT  =    1.837    core radius for aug-charge                              
                                                                                
   Atomic configuration                                                         
    6 entries                                                                   
     n  l   j            E        occ.                                          
     1  0  0.50     -1785.8828   2.0000                                         
     2  0  0.50      -139.4969   2.0000                                         
     2  1  1.50       -95.5546   6.0000                                         
     3  0  0.50       -10.8127   2.0000                                         
     3  1  0.50        -4.0811   2.0000                                         
     3  2  1.50        -4.0817   0.0000                                         
   Description                                                                  
     l       E           TYP  RCUT    TYP  RCUT                                 
     0    -10.8127223     23  1.900                                             
     0     -7.6451159     23  1.900                                             
     1     -4.0811372     23  1.900                                             
     1      2.4879257     23  1.900                                             
     2     -4.0817478      7  1.900                                             
  local pseudopotential read in
  partial core-charges read in
  partial kinetic energy density read in
  atomic valenz-charges read in
  non local Contribution for L=           0  read in
    real space projection operators read in
  non local Contribution for L=           0  read in
    real space projection operators read in
  non local Contribution for L=           1  read in
    real space projection operators read in
  non local Contribution for L=           1  read in
    real space projection operators read in
    PAW grid and wavefunctions read in
 
   number of l-projection  operators is LMAX  =           4
   number of lm-projection operators is LMMAX =           8
 
 POTCAR:    PAW_PBE Ge 05Jan2001                  
   VRHFIN =Ge: s2p2                                                             
   LEXCH  = PE                                                                  
   EATOM  =   104.9960 eV,    7.7170 Ry                                         
                                                                                
   TITEL  = PAW_PBE Ge 05Jan2001                                                
   LULTRA =        F    use ultrasoft PP ?                                      
   IUNSCR =        1    unscreen: 0-lin 1-nonlin 2-no                           
   RPACOR =    2.170    partial core radius                                     
   POMASS =   72.610; ZVAL   =    4.000    mass and valenz                      
   RCORE  =    2.300    outmost cutoff radius                                   
   RWIGS  =    2.300; RWIGS  =    1.217    wigner-seitz radius (au A)           
   ENMAX  =  173.807; ENMIN  =  130.355 eV                                      
   ICORE  =        3    local potential                                         
   LCOR   =        T    correct aug charges                                     
   LPAW   =        T    paw PP                                                  
   EAUG   =  385.843                                                            
   DEXC   =    0.000                                                            
   RMAX   =    2.342    core radius for proj-oper                               
   RAUG   =    1.300    factor for augmentation sphere                          
   RDEP   =    2.318    radius for radial grids                                 
   RDEPT  =    2.103    core radius for aug-charge                              
                                                                                
   Atomic configuration                                                         
   10 entries                                                                   
     n  l   j            E        occ.                                          
     1  0  0.50    -10959.8463   2.0000                                         
     2  0  0.50     -1371.6056   2.0000                                         
     2  1  1.50     -1198.4791   6.0000                                         
     3  0  0.50      -168.4733   2.0000                                         
     3  1  1.50      -115.6019   6.0000                                         
     3  2  2.50       -29.3106  10.0000                                         
     4  0  0.50       -11.7309   2.0000                                         
     4  1  0.50        -3.8952   2.0000                                         
     4  2  1.50        -4.0817   0.0000                                         
     4  3  2.50        -4.0817   0.0000                                         
   Description                                                                  
     l       E           TYP  RCUT    TYP  RCUT                                 
     0    -11.7309493     23  2.300                                             
     0     -7.4578696     23  2.300                                             
     1     -3.8952261     23  2.300                                             
     1      6.1178114     23  2.300                                             
     2     -4.0817478     23  2.300                                             
     3     -1.3605826      7  2.300                                             
  local pseudopotential read in
  partial core-charges read in
  partial kinetic energy density read in
  atomic valenz-charges read in
  non local Contribution for L=           0  read in
    real space projection operators read in
  non local Contribution for L=           0  read in
    real space projection operators read in
  non local Contribution for L=           1  read in
    real space projection operators read in
  non local Contribution for L=           1  read in
    real space projection operators read in
  non local Contribution for L=           2  read in
    real space projection operators read in
    PAW grid and wavefunctions read in
 
   number of l-projection  operators is LMAX  =           5
   number of lm-projection operators is LMMAX =          13
 
 POTCAR:    PAW_PBE H 15Jun2001                   
   VRHFIN =H: ultrasoft test                                                    
   LEXCH  = PE                                                                  
   EATOM  =    12.4884 eV,    0.9179 Ry                                         
                                                                                
   TITEL  = PAW_PBE H 15Jun2001                                                 
   LULTRA =        F    use ultrasoft PP ?                                      
   IUNSCR =        0    unscreen: 0-lin 1-nonlin 2-no                           
   RPACOR =    0.000    partial core radius                                     
   POMASS =    1.000; ZVAL   =    1.000    mass and valenz                      
   RCORE  =    1.100    outmost cutoff radius                                   
   RWIGS  =    0.700; RWIGS  =    0.370    wigner-seitz radius (au A)           
   ENMAX  =  250.000; ENMIN  =  200.000 eV                                      
   RCLOC  =    0.701    cutoff for local pot                                    
   LCOR   =        T    correct aug charges                                     
   LPAW   =        T    paw PP                                                  
   EAUG   =  400.000                                                            
   RMAX   =    1.123    core radius for proj-oper                               
   RAUG   =    1.200    factor for augmentation sphere                          
   RDEP   =    1.112    radius for radial grids                                 
   RDEPT  =    0.926    core radius for aug-charge                              
                                                                                
   Atomic configuration                                                         
    2 entries                                                                   
     n  l   j            E        occ.                                          
     1  0  0.50        -6.4927   1.0000                                         
     2  1  0.50        -3.4015   0.0000                                         
   Description                                                                  
     l       E           TYP  RCUT    TYP  RCUT                                 
     0     -6.4927494     23  1.100                                             
     0      6.8029130     23  1.100                                             
     1     -4.0817478     23  1.100                                             
  local pseudopotential read in
  atomic valenz-charges read in
  non local Contribution for L=           0  read in
    real space projection operators read in
  non local Contribution for L=           0  read in
    real space projection operators read in
  non local Contribution for L=           1  read in
    real space projection operators read in
    PAW grid and wavefunctions read in
 
   number of l-projection  operators is LMAX  =           3
   number of lm-projection operators is LMMAX =           5
 

 ----------------------------------------------------------------------------- 
|                                                                             |
|  ADVICE TO THIS USER RUNNING 'VASP/VAMP'   (HEAR YOUR MASTER'S VOICE ...):  |
|                                                                             |
|      You have a (more or less) 'large supercell' and for larger cells       |
|      it might be more efficient to use real space projection opertators     |
|      So try LREAL= Auto  in the INCAR   file.                               |
|      Mind:          For very  accurate calculation you might also keep the  |
|      reciprocal projection scheme          (i.e. LREAL=.FALSE.)             |
|                                                                             |
 ----------------------------------------------------------------------------- 

  PAW_PBE Si 05Jan2001                  :
 energy of atom  1       EATOM= -103.0669
 kinetic energy error for atom=    0.0012 (will be added to EATOM!!)
  PAW_PBE Ge 05Jan2001                  :
 energy of atom  2       EATOM= -104.9960
 kinetic energy error for atom=    0.0003 (will be added to EATOM!!)
  PAW_PBE H 15Jun2001                   :
 energy of atom  3       EATOM=  -12.4884
 kinetic energy error for atom=    0.0098 (will be added to EATOM!!)
 
 
 POSCAR: SiGeH16                                 
  positions in direct lattice
  No initial velocities read in
 exchange correlation table for  LEXCH =        8
   RHO(1)=    0.500       N(1)  =     2000
   RHO(2)=  100.500       N(2)  =     4000
 


--------------------------------------------------------------------------------------------------------


 ion  position               nearest neighbor table
   1  0.475  0.556  0.385-  18 1.55   4 2.39   2 2.39   3 2.39
   2  0.369  0.539  0.436-  23 1.55  24 1.55   5 2.39   1 2.39
   3  0.542  0.457  0.396-  17 1.55  16 1.55   6 2.39   1 2.39
   4  0.531  0.648  0.437-  25 1.55  26 1.55   7 2.39   1 2.39
   5  0.385  0.515  0.552-  22 1.55  10 2.39   9 2.39   2 2.39
   6  0.557  0.433  0.512-  13 1.55   3 2.39   8 2.39   9 2.39
   7  0.547  0.624  0.554-  19 1.55   4 2.39   8 2.39  10 2.39
   8  0.613  0.525  0.565-  15 1.55  14 1.55   7 2.39   6 2.39
   9  0.451  0.416  0.564-  12 1.55  11 1.55   5 2.39   6 2.39
  10  0.440  0.606  0.605-  20 1.55  21 1.55   5 2.39   7 2.39
  11  0.415  0.357  0.529-   9 1.55
  12  0.461  0.400  0.639-   9 1.55
  13  0.600  0.369  0.520-   6 1.55
  14  0.682  0.536  0.531-   8 1.55
  15  0.623  0.509  0.640-   8 1.55
  16  0.611  0.469  0.363-   3 1.55
  17  0.506  0.398  0.362-   3 1.55
  18  0.465  0.572  0.309-   1 1.55
  19  0.583  0.683  0.588-   7 1.55
  20  0.451  0.590  0.680-  10 1.55
  21  0.397  0.670  0.598-  10 1.55
  22  0.316  0.504  0.586-   5 1.55
  23  0.333  0.479  0.402-   2 1.55
  24  0.326  0.603  0.429-   2 1.55
  25  0.488  0.712  0.430-   4 1.55
  26  0.600  0.659  0.404-   4 1.55
 
  LATTYP: Found a simple cubic cell.
 ALAT       =    20.0000000000
  
  Lattice vectors:
  
 A1 = (  20.0000000000,   0.0000000000,   0.0000000000)
 A2 = (   0.0000000000,  20.0000000000,   0.0000000000)
 A3 = (   0.0000000000,   0.0000000000,  20.0000000000)


Analysis of symmetry for initial positions (statically):
=====================================================================
 Subroutine PRICEL returns:
 Original cell was already a primitive cell.
 

 Routine SETGRP: Setting up the symmetry group for a 
 simple cubic supercell.


 Subroutine GETGRP returns: Found  1 space group operations
 (whereof  1 operations were pure point group operations)
 out of a pool of 48 trial point group operations.


The static configuration has the point symmetry C_1 .


Analysis of symmetry for dynamics (positions and initial velocities):
=====================================================================
 Subroutine PRICEL returns:
 Original cell was already a primitive cell.
 

 Routine SETGRP: Setting up the symmetry group for a 
 simple cubic supercell.


 Subroutine GETGRP returns: Found  1 space group operations
 (whereof  1 operations were pure point group operations)
 out of a pool of 48 trial point group operations.


The dynamic configuration has the point symmetry C_1 .


 Subroutine INISYM returns: Found  1 space group operations
 (whereof  1 operations are pure point group operations),
 and found     1 'primitive' translations

 
 
 KPOINTS: Automatic mesh                          

Automatic generation of k-mesh.
Space group operators:
 irot       det(A)        alpha          n_x          n_y          n_z        tau_x        tau_y        tau_z
    1     1.000000     0.000000     1.000000     0.000000     0.000000     0.000000     0.000000     0.000000
 
 Subroutine IBZKPT returns following result:
 ===========================================
 
 Found      1 irreducible k-points:
 
 Following reciprocal coordinates:
            Coordinates               Weight
  0.000000  0.000000  0.000000      1.000000
 
 Following cartesian coordinates:
            Coordinates               Weight
  0.000000  0.000000  0.000000      1.000000
 


--------------------------------------------------------------------------------------------------------




 Dimension of arrays:
   k-points           NKPTS =      1   k-points in BZ     NKDIM =      1   number of bands    NBANDS=     42
   number of dos      NEDOS =    301   number of ions     NIONS =     26
   non local maximal  LDIM  =      5   non local SUM 2l+1 LMDIM =     13
   total plane-waves  NPLWV = 941192
   max r-space proj   IRMAX =      1   max aug-charges    IRDMAX=   6593
   dimension x,y,z NGX =    98 NGY =   98 NGZ =   98
   dimension x,y,z NGXF=   196 NGYF=  196 NGZF=  196
   support grid    NGXF=   196 NGYF=  196 NGZF=  196
   ions per type =               5   5  16
   NGX,Y,Z   is equivalent  to a cutoff of   8.15,  8.15,  8.15 a.u.
   NGXF,Y,Z  is equivalent  to a cutoff of  16.29, 16.29, 16.29 a.u.

 SYSTEM =  SiGe                                    
 POSCAR =  SiGeH16                                 

 Startparameter for this run:
   NWRITE =      2    write-flag & timer
   PREC   = normal    normal or accurate (medium, high low for compatibility)
   ISTART =      0    job   : 0-new  1-cont  2-samecut
   ICHARG =      2    charge: 1-file 2-atom 10-const
   ISPIN  =      1    spin polarized calculation?
   LNONCOLLINEAR =      F non collinear calculations
   LSORBIT =      F    spin-orbit coupling
   INIWAV =      1    electr: 0-lowe 1-rand  2-diag
   LASPH  =      F    aspherical Exc in radial PAW
   METAGGA=      F    non-selfconsistent MetaGGA calc.

 Electronic Relaxation 1
   ENCUT  =  400.0 eV  29.40 Ry    5.42 a.u.  32.61 32.61 32.61*2*pi/ulx,y,z
   ENINI  =  400.0     initial cutoff
   ENAUG  =  400.0 eV  augmentation charge cutoff
   NELM   =     60;   NELMIN=  2; NELMDL= -5     # of ELM steps 
   EDIFF  = 0.1E-05   stopping-criterion for ELM
   LREAL  =      F    real-space projection
   NLSPLINE    = F    spline interpolate recip. space projectors
   LCOMPAT=      F    compatible to vasp.4.4
   GGA_COMPAT  = T    GGA compatible to vasp.4.4-vasp.4.6
   LMAXPAW     = -100 max onsite density
   LMAXMIX     =    2 max onsite mixed and CHGCAR
   VOSKOWN=      0    Vosko Wilk Nusair interpolation
   ROPT   =    0.00000   0.00000   0.00000
 Ionic relaxation
   EDIFFG = -.2E-01   stopping-criterion for IOM
   NSW    =    200    number of steps for IOM
   NBLOCK =      1;   KBLOCK =    200    inner block; outer block 
   IBRION =      2    ionic relax: 0-MD 1-quasi-New 2-CG
   NFREE  =      1    steps in history (QN), initial steepest desc. (CG)
   ISIF   =      2    stress and relaxation
   IWAVPR =     11    prediction:  0-non 1-charg 2-wave 3-comb
   ISYM   =      2    0-nonsym 1-usesym 2-fastsym
   LCORR  =      T    Harris-Foulkes like correction to forces

   POTIM  = 0.5000    time-step for ionic-motion
   TEIN   =    0.0    initial temperature
   TEBEG  =    0.0;   TEEND  =   0.0 temperature during run
   SMASS  =  -3.00    Nose mass-parameter (am)
   estimated Nose-frequenzy (Omega)   =  0.10E-29 period in steps =****** mass=  -0.914E-26a.u.
   SCALEE = 1.0000    scale energy and forces
   NPACO  =    256;   APACO  = 16.0  distance and # of slots for P.C.
   PSTRESS=    0.0 pullay stress

  Mass of Ions in am
   POMASS =  28.09 72.61  1.00
  Ionic Valenz
   ZVAL   =   4.00  4.00  1.00
  Atomic Wigner-Seitz radii
   RWIGS  =  -1.00 -1.00 -1.00
  virtual crystal weights 
   VCA    =   1.00  1.00  1.00
   NELECT =      56.0000    total number of electrons
   NUPDOWN=      -1.0000    fix difference up-down

 DOS related values:
   EMIN   =  10.00;   EMAX   =-10.00  energy-range for DOS
   EFERMI =   0.00
   ISMEAR =     0;   SIGMA  =   0.20  broadening in eV -4-tet -1-fermi 0-gaus

 Electronic relaxation 2 (details)
   IALGO  =     38    algorithm
   LDIAG  =      T    sub-space diagonalisation (order eigenvalues)
   LSUBROT=      F    optimize rotation matrix (better conditioning)
   TURBO    =      0    0=normal 1=particle mesh
   IRESTART =      0    0=no restart 2=restart with 2 vectors
   NREBOOT  =      0    no. of reboots
   NMIN     =      0    reboot dimension
   EREF     =   0.00    reference energy to select bands
   IMIX   =      4    mixing-type and parameters
     AMIX     =   0.40;   BMIX     =  1.00
     AMIX_MAG =   1.60;   BMIX_MAG =  1.00
     AMIN     =   0.10
     WC   =   100.;   INIMIX=   1;  MIXPRE=   1;  MAXMIX= -45

 Intra band minimization:
   WEIMIN = 0.0010     energy-eigenvalue tresh-hold
   EBREAK =  0.60E-08  absolut break condition
   DEPER  =   0.30     relativ break condition  

   TIME   =   0.40     timestep for ELM

  volume/ion in A,a.u.               =     307.69      2076.41
  Fermi-wavevector in a.u.,A,eV,Ry     =   0.313166  0.591797  1.334361  0.098073
  Thomas-Fermi vector in A             =   1.193276
 
 Write flags
   LWAVE        =      T    write WAVECAR
   LDOWNSAMPLE  =      F    k-point downsampling of WAVECAR
   LCHARG       =      T    write CHGCAR
   LVTOT        =      F    write LOCPOT, total local potential
   LVHAR        =      F    write LOCPOT, Hartree potential only
   LELF         =      F    write electronic localiz. function (ELF)
   LORBIT       =      0    0 simple, 1 ext, 2 COOP (PROOUT), +10 PAW based schemes


 Dipole corrections
   LMONO  =      F    monopole corrections only (constant potential shift)
   LDIPOL =      F    correct potential (dipole corrections)
   IDIPOL =      0    1-x, 2-y, 3-z, 4-all directions 
   EPSILON=  1.0000000 bulk dielectric constant

 Exchange correlation treatment:
   GGA     =    --    GGA type
   LEXCH   =     8    internal setting for exchange type
   VOSKOWN=      0    Vosko Wilk Nusair interpolation
   LHFCALC =     F    Hartree Fock is set to
   LHFONE  =     F    Hartree Fock one center treatment
   AEXX    =    0.0000 exact exchange contribution

 Linear response parameters
   LEPSILON=     F    determine dielectric tensor
   LRPA    =     F    only Hartree local field effects (RPA)
   LNABLA  =     F    use nabla operator in PAW spheres
   LVEL    =     F    velocity operator in full k-point grid
   LINTERFAST=   F  fast interpolation
   KINTER  =     0    interpolate to denser k-point grid
   CSHIFT  =0.1000    complex shift for real part using Kramers Kronig
   OMEGAMAX=  -1.0    maximum frequency
   DEG_THRESHOLD= 0.2000000E-02 threshold for treating states as degnerate
   RTIME   =   -0.100 relaxation time in fs
  (WPLASMAI=    0.000 imaginary part of plasma frequency in eV, 0.658/RTIME)
   DFIELD  = 0.0000000 0.0000000 0.0000000 field for delta impulse in time
 
 Orbital magnetization related:
   ORBITALMAG=     F  switch on orbital magnetization
   LCHIMAG   =     F  perturbation theory with respect to B field
   DQ        =  0.001000  dq finite difference perturbation B field
   LLRAUG    =     F  two centre corrections for induced B field



--------------------------------------------------------------------------------------------------------


 conjugate gradient relaxation of ions
 charge density and potential will be updated during run
 non-spin polarized calculation
 Variant of blocked Davidson
 Davidson routine will perform the subspace rotation
 perform sub-space diagonalisation
    after iterative eigenvector-optimisation
 modified Broyden-mixing scheme, WC =      100.0
 initial mixing is a Kerker type mixing with AMIX =  0.4000 and BMIX =      1.0000
 Hartree-type preconditioning will be used
 using additional bands           14
 reciprocal scheme for non local part
 use partial core corrections
 calculate Harris-corrections to forces 
   (improved forces if not selfconsistent)
 use gradient corrections 
 use of overlap-Matrix (Vanderbilt PP)
 Gauss-broadening in eV      SIGMA  =   0.20


--------------------------------------------------------------------------------------------------------


  energy-cutoff  :      400.00
  volume of cell :     8000.00
      direct lattice vectors                 reciprocal lattice vectors
    20.000000000  0.000000000  0.000000000     0.050000000  0.000000000  0.000000000
     0.000000000 20.000000000  0.000000000     0.000000000  0.050000000  0.000000000
     0.000000000  0.000000000 20.000000000     0.000000000  0.000000000  0.050000000

  length of vectors
    20.000000000 20.000000000 20.000000000     0.050000000  0.050000000  0.050000000


 
 k-points in units of 2pi/SCALE and weight: Automatic mesh                          
   0.00000000  0.00000000  0.00000000       1.000
 
 k-points in reciprocal lattice and weights: Automatic mesh                          
   0.00000000  0.00000000  0.00000000       1.000
 
 position of ions in fractional coordinates (direct lattice) 
   0.47547100  0.55626000  0.38465300
   0.36907800  0.53906000  0.43641200
   0.54179100  0.45744600  0.39613600
   0.53111600  0.64794100  0.43749600
   0.38461900  0.51474100  0.55243500
   0.55736800  0.43311000  0.51215000
   0.54669200  0.62364400  0.55351800
   0.61299700  0.52481700  0.56496600
   0.45095700  0.41593600  0.56388300
   0.44028400  0.60643000  0.60524300
   0.41490100  0.35665000  0.52940300
   0.46117000  0.40042600  0.63910800
   0.60034800  0.36907000  0.51957800
   0.68182700  0.53600700  0.53118700
   0.62280400  0.50903400  0.64018900
   0.61080000  0.46880600  0.36278200
   0.50550800  0.39805500  0.36207700
   0.46538400  0.57201900  0.30946400
   0.58275500  0.68306700  0.58775000
   0.45052500  0.59044300  0.68036400
   0.39732000  0.67044900  0.59753500
   0.31566200  0.50359800  0.58596500
   0.33322800  0.47946500  0.40225200
   0.32629100  0.60324700  0.42912600
   0.48792300  0.71185500  0.43020800
   0.60015100  0.65882400  0.40403700
 
 position of ions in cartesian coordinates  (Angst):
   9.50942000 11.12520000  7.69306000
   7.38156000 10.78120000  8.72824000
  10.83582000  9.14892000  7.92272000
  10.62232000 12.95882000  8.74992000
   7.69238000 10.29482000 11.04870000
  11.14736000  8.66220000 10.24300000
  10.93384000 12.47288000 11.07036000
  12.25994000 10.49634000 11.29932000
   9.01914000  8.31872000 11.27766000
   8.80568000 12.12860000 12.10486000
   8.29802000  7.13300000 10.58806000
   9.22340000  8.00852000 12.78216000
  12.00696000  7.38140000 10.39156000
  13.63654000 10.72014000 10.62374000
  12.45608000 10.18068000 12.80378000
  12.21600000  9.37612000  7.25564000
  10.11016000  7.96110000  7.24154000
   9.30768000 11.44038000  6.18928000
  11.65510000 13.66134000 11.75500000
   9.01050000 11.80886000 13.60728000
   7.94640000 13.40898000 11.95070000
   6.31324000 10.07196000 11.71930000
   6.66456000  9.58930000  8.04504000
   6.52582000 12.06494000  8.58252000
   9.75846000 14.23710000  8.60416000
  12.00302000 13.17648000  8.08074000
 


--------------------------------------------------------------------------------------------------------


 k-point  1 :   0.0000 0.0000 0.0000  plane waves:  145165

 maximum and minimum number of plane-waves per node :     24209    24180

 maximum number of plane-waves:    145165
 maximum index in each direction: 
   IXMAX=   32   IYMAX=   32   IZMAX=   32
   IXMIN=  -32   IYMIN=  -32   IZMIN=  -32


 parallel 3D FFT for wavefunctions:
    minimum data exchange during FFTs selected (reduces bandwidth)
 parallel 3D FFT for charge:
    minimum data exchange during FFTs selected (reduces bandwidth)


 total amount of memory used by VASP MPI-rank0   131440. kBytes
=======================================================================

   base      :      30000. kBytes
   nonl-proj :      17624. kBytes
   fftplans  :      26957. kBytes
   grid      :      48673. kBytes
   one-center:         40. kBytes
   wavefun   :       8146. kBytes
 
     INWAV:  cpu time    0.0000: real time    0.0000
 Broyden mixing: mesh for mixing (old mesh)
   NGX = 65   NGY = 65   NGZ = 65
  (NGX  =196   NGY  =196   NGZ  =196)
  gives a total of 274625 points

 initial charge density was supplied:
 charge density of overlapping atoms calculated
 number of electron      56.0000000 magnetization 
 keeping initial charge density in first step


--------------------------------------------------------------------------------------------------------


 Maximum index for augmentation-charges          558 (set IRDMAX)


--------------------------------------------------------------------------------------------------------


 First call to EWALD:  gamma=   0.089
 Maximum number of real-space cells 3x 3x 3
 Maximum number of reciprocal cells 3x 3x 3

    FEWALD:  cpu time    0.0030: real time    0.0028


--------------------------------------- Iteration      1(   1)  ---------------------------------------


    POTLOK:  cpu time    1.7767: real time    1.7786
    SETDIJ:  cpu time    0.0080: real time    0.0075
     EDDAV:  cpu time   11.1073: real time   11.1041
       DOS:  cpu time    0.0000: real time    0.0005
    --------------------------------------------
      LOOP:  cpu time   12.8920: real time   12.8907

 eigenvalue-minimisations  :   116
 total energy-change (2. order) : 0.2042445E+03  (-0.1047769E+04)
 number of electron      56.0000000 magnetization 
 augmentation part       56.0000000 magnetization 

 Free energy of the ion-electron system (eV)
  ---------------------------------------------------
  alpha Z        PSCENC =         2.23981092
  Ewald energy   TEWEN  =      2629.98113996
  -Hartree energ DENC   =     -3441.37681794
  -exchange      EXHF   =         0.00000000
  -V(xc)+E(xc)   XCENC  =       -51.21650029
  PAW double counting   =       915.48941305     -755.22719771
  entropy T*S    EENTRO =        -0.42134444
  eigenvalues    EBANDS =      -335.18921597
  atomic energy  EATOM  =      1239.96520364
  Solvation  Ediel_sol  =         0.00000000
  ---------------------------------------------------
  free energy    TOTEN  =       204.24449122 eV

  energy without entropy =      204.66583566  energy(sigma->0) =      204.45516344


--------------------------------------------------------------------------------------------------------




--------------------------------------- Iteration      1(   2)  ---------------------------------------


     EDDAV:  cpu time   13.2720: real time   13.2687
       DOS:  cpu time    0.0000: real time    0.0004
    --------------------------------------------
      LOOP:  cpu time   13.2720: real time   13.2691

 eigenvalue-minimisations  :   144
 total energy-change (2. order) :-0.2317266E+03  (-0.2174475E+03)
 number of electron      56.0000000 magnetization 
 augmentation part       56.0000000 magnetization 

 Free energy of the ion-electron system (eV)
  ---------------------------------------------------
  alpha Z        PSCENC =         2.23981092
  Ewald energy   TEWEN  =      2629.98113996
  -Hartree energ DENC   =     -3441.37681794
  -exchange      EXHF   =         0.00000000
  -V(xc)+E(xc)   XCENC  =       -51.21650029
  PAW double counting   =       915.48941305     -755.22719771
  entropy T*S    EENTRO =        -0.00000000
  eigenvalues    EBANDS =      -567.33711067
  atomic energy  EATOM  =      1239.96520364
  Solvation  Ediel_sol  =         0.00000000
  ---------------------------------------------------
  free energy    TOTEN  =       -27.48205904 eV

  energy without entropy =      -27.48205904  energy(sigma->0) =      -27.48205904


--------------------------------------------------------------------------------------------------------




--------------------------------------- Iteration      1(   3)  ---------------------------------------


     EDDAV:  cpu time   10.7804: real time   10.9368
       DOS:  cpu time    0.0010: real time    0.0004
    --------------------------------------------
      LOOP:  cpu time   10.7814: real time   10.9372

 eigenvalue-minimisations  :   112
 total energy-change (2. order) :-0.7416936E+02  (-0.7400071E+02)
 number of electron      56.0000000 magnetization 
 augmentation part       56.0000000 magnetization 

 Free energy of the ion-electron system (eV)
  ---------------------------------------------------
  alpha Z        PSCENC =         2.23981092
  Ewald energy   TEWEN  =      2629.98113996
  -Hartree energ DENC   =     -3441.37681794
  -exchange      EXHF   =         0.00000000
  -V(xc)+E(xc)   XCENC  =       -51.21650029
  PAW double counting   =       915.48941305     -755.22719771
  entropy T*S    EENTRO =        -0.00000000
  eigenvalues    EBANDS =      -641.50646622
  atomic energy  EATOM  =      1239.96520364
  Solvation  Ediel_sol  =         0.00000000
  ---------------------------------------------------
  free energy    TOTEN  =      -101.65141459 eV

  energy without entropy =     -101.65141459  energy(sigma->0) =     -101.65141459


--------------------------------------------------------------------------------------------------------




--------------------------------------- Iteration      1(   4)  ---------------------------------------


     EDDAV:  cpu time   10.2374: real time   10.2342
       DOS:  cpu time    0.0000: real time    0.0003
    --------------------------------------------
      LOOP:  cpu time   10.2374: real time   10.2345

 eigenvalue-minimisations  :   104
 total energy-change (2. order) :-0.4180121E+01  (-0.4163793E+01)
 number of electron      56.0000000 magnetization 
 augmentation part       56.0000000 magnetization 

 Free energy of the ion-electron system (eV)
  ---------------------------------------------------
  alpha Z        PSCENC =         2.23981092
  Ewald energy   TEWEN  =      2629.98113996
  -Hartree energ DENC   =     -3441.37681794
  -exchange      EXHF   =         0.00000000
  -V(xc)+E(xc)   XCENC  =       -51.21650029
  PAW double counting   =       915.48941305     -755.22719771
  entropy T*S    EENTRO =        -0.00000000
  eigenvalues    EBANDS =      -645.68658714
  atomic energy  EATOM  =      1239.96520364
  Solvation  Ediel_sol  =         0.00000000
  ---------------------------------------------------
  free energy    TOTEN  =      -105.83153551 eV

  energy without entropy =     -105.83153551  energy(sigma->0) =     -105.83153551


--------------------------------------------------------------------------------------------------------




--------------------------------------- Iteration      1(   5)  ---------------------------------------


     EDDAV:  cpu time   12.0662: real time   12.0623
       DOS:  cpu time    0.0010: real time    0.0004
    CHARGE:  cpu time    0.4869: real time    0.4875
    MIXING:  cpu time    0.0460: real time    0.0454
    --------------------------------------------
      LOOP:  cpu time   12.6001: real time   12.5957

 eigenvalue-minimisations  :   128
 total energy-change (2. order) :-0.7255421E-01  (-0.7247928E-01)
 number of electron      56.0000026 magnetization 
 augmentation part       -3.9494796 magnetization 

 Broyden mixing:
  rms(total) = 0.14804E+01    rms(broyden)= 0.14803E+01
  rms(prec ) = 0.15766E+01
  weight for this iteration     100.00

 Free energy of the ion-electron system (eV)
  ---------------------------------------------------
  alpha Z        PSCENC =         2.23981092
  Ewald energy   TEWEN  =      2629.98113996
  -Hartree energ DENC   =     -3441.37681794
  -exchange      EXHF   =         0.00000000
  -V(xc)+E(xc)   XCENC  =       -51.21650029
  PAW double counting   =       915.48941305     -755.22719771
  entropy T*S    EENTRO =        -0.00000000
  eigenvalues    EBANDS =      -645.75914135
  atomic energy  EATOM  =      1239.96520364
  Solvation  Ediel_sol  =         0.00000000
  ---------------------------------------------------
  free energy    TOTEN  =      -105.90408972 eV

  energy without entropy =     -105.90408972  energy(sigma->0) =     -105.90408972


--------------------------------------------------------------------------------------------------------




--------------------------------------- Iteration      1(   6)  ---------------------------------------


    POTLOK:  cpu time    1.8507: real time    1.8543
    SETDIJ:  cpu time    0.0080: real time    0.0076
     EDDAV:  cpu time   10.2344: real time   10.2314
       DOS:  cpu time    0.0000: real time    0.0003
    CHARGE:  cpu time    0.4889: real time    0.4887
    MIXING:  cpu time    0.0450: real time    0.0453
    --------------------------------------------
      LOOP:  cpu time   12.6281: real time   12.6277

 eigenvalue-minimisations  :   104
 total energy-change (2. order) : 0.3198004E+01  (-0.1578441E+00)
 number of electron      56.0000025 magnetization 
 augmentation part       -3.9491883 magnetization 

 Broyden mixing:
  rms(total) = 0.85824E+00    rms(broyden)= 0.85824E+00
  rms(prec ) = 0.91698E+00
  weight for this iteration     100.00

 eigenvalues of (default mixing * dielectric matrix)
  average eigenvalue GAMMA=   2.3080
  2.3080

 Free energy of the ion-electron system (eV)
  ---------------------------------------------------
  alpha Z        PSCENC =         2.23981092
  Ewald energy   TEWEN  =      2629.98113996
  -Hartree energ DENC   =     -3472.55346584
  -exchange      EXHF   =         0.00000000
  -V(xc)+E(xc)   XCENC  =       -47.58737164
  PAW double counting   =      1800.23432044    -1640.79274658
  entropy T*S    EENTRO =        -0.00000000
  eigenvalues    EBANDS =      -614.19297672
  atomic energy  EATOM  =      1239.96520364
  Solvation  Ediel_sol  =         0.00000000
  ---------------------------------------------------
  free energy    TOTEN  =      -102.70608583 eV

  energy without entropy =     -102.70608583  energy(sigma->0) =     -102.70608583


--------------------------------------------------------------------------------------------------------




--------------------------------------- Iteration      1(   7)  ---------------------------------------


    POTLOK:  cpu time    1.7167: real time    1.7158
    SETDIJ:  cpu time    0.0080: real time    0.0076
     EDDAV:  cpu time   10.1605: real time   10.1615
       DOS:  cpu time    0.0010: real time    0.0004
    CHARGE:  cpu time    0.4809: real time    0.4814
    MIXING:  cpu time    0.0470: real time    0.0468
    --------------------------------------------
      LOOP:  cpu time   12.4131: real time   12.4135

 eigenvalue-minimisations  :   104
 total energy-change (2. order) : 0.1675730E+01  (-0.4091535E+00)
 number of electron      56.0000023 magnetization 
 augmentation part       -3.9465580 magnetization 

 Broyden mixing:
  rms(total) = 0.12214E+00    rms(broyden)= 0.12199E+00
  rms(prec ) = 0.15330E+00
  weight for this iteration     100.00

 eigenvalues of (default mixing * dielectric matrix)
  average eigenvalue GAMMA=   1.8289
  1.6803  1.9775

 Free energy of the ion-electron system (eV)
  ---------------------------------------------------
  alpha Z        PSCENC =         2.23981092
  Ewald energy   TEWEN  =      2629.98113996
  -Hartree energ DENC   =     -3528.16574485
  -exchange      EXHF   =         0.00000000
  -V(xc)+E(xc)   XCENC  =       -41.82167537
  PAW double counting   =      3738.06458674    -3579.72405810
  entropy T*S    EENTRO =        -0.00000000
  eigenvalues    EBANDS =      -561.56961838
  atomic energy  EATOM  =      1239.96520364
  Solvation  Ediel_sol  =         0.00000000
  ---------------------------------------------------
  free energy    TOTEN  =      -101.03035545 eV

  energy without entropy =     -101.03035545  energy(sigma->0) =     -101.03035545


--------------------------------------------------------------------------------------------------------




--------------------------------------- Iteration      1(   8)  ---------------------------------------


    POTLOK:  cpu time    1.7197: real time    1.7185
    SETDIJ:  cpu time    0.0070: real time    0.0077
     EDDAV:  cpu time   10.8094: real time   10.8136
       DOS:  cpu time    0.0000: real time    0.0004
    CHARGE:  cpu time    0.4839: real time    0.4839
    MIXING:  cpu time    0.0490: real time    0.0491
    --------------------------------------------
      LOOP:  cpu time   13.0690: real time   13.0733

 eigenvalue-minimisations  :   112
 total energy-change (2. order) : 0.5140891E-01  (-0.2690575E-01)
 number of electron      56.0000023 magnetization 
 augmentation part       -3.9426726 magnetization 

 Broyden mixing:
  rms(total) = 0.61583E-01    rms(broyden)= 0.61569E-01
  rms(prec ) = 0.81028E-01
  weight for this iteration     100.00

 eigenvalues of (default mixing * dielectric matrix)
  average eigenvalue GAMMA=   1.9672
  2.6467  1.6275  1.6275

 Free energy of the ion-electron system (eV)
  ---------------------------------------------------
  alpha Z        PSCENC =         2.23981092
  Ewald energy   TEWEN  =      2629.98113996
  -Hartree energ DENC   =     -3535.86728237
  -exchange      EXHF   =         0.00000000
  -V(xc)+E(xc)   XCENC  =       -41.86507196
  PAW double counting   =      3746.87788525    -3588.45200713
  entropy T*S    EENTRO =        -0.00000000
  eigenvalues    EBANDS =      -553.85862485
  atomic energy  EATOM  =      1239.96520364
  Solvation  Ediel_sol  =         0.00000000
  ---------------------------------------------------
  free energy    TOTEN  =      -100.97894655 eV

  energy without entropy =     -100.97894655  energy(sigma->0) =     -100.97894655


--------------------------------------------------------------------------------------------------------




--------------------------------------- Iteration      1(   9)  ---------------------------------------


    POTLOK:  cpu time    1.7267: real time    1.7258
    SETDIJ:  cpu time    0.0080: real time    0.0077
     EDDAV:  cpu time   10.8114: real time   10.8351
       DOS:  cpu time    0.0010: real time    0.0004
    CHARGE:  cpu time    0.4899: real time    0.4895
    MIXING:  cpu time    0.0520: real time    0.0518
    --------------------------------------------
      LOOP:  cpu time   13.0890: real time   13.1104

 eigenvalue-minimisations  :   112
 total energy-change (2. order) : 0.3657999E-01  (-0.7419572E-02)
 number of electron      56.0000023 magnetization 
 augmentation part       -3.9293442 magnetization 

 Broyden mixing:
  rms(total) = 0.33562E-01    rms(broyden)= 0.33561E-01
  rms(prec ) = 0.45042E-01
  weight for this iteration     100.00

 eigenvalues of (default mixing * dielectric matrix)
  average eigenvalue GAMMA=   1.7474
  2.4973  1.8272  1.8272  0.8380

 Free energy of the ion-electron system (eV)
  ---------------------------------------------------
  alpha Z        PSCENC =         2.23981092
  Ewald energy   TEWEN  =      2629.98113996
  -Hartree energ DENC   =     -3547.83501306
  -exchange      EXHF   =         0.00000000
  -V(xc)+E(xc)   XCENC  =       -41.16170071
  PAW double counting   =      3886.96130416    -3728.57481183
  entropy T*S    EENTRO =        -0.00000000
  eigenvalues    EBANDS =      -542.51829963
  atomic energy  EATOM  =      1239.96520364
  Solvation  Ediel_sol  =         0.00000000
  ---------------------------------------------------
  free energy    TOTEN  =      -100.94236655 eV

  energy without entropy =     -100.94236655  energy(sigma->0) =     -100.94236655


--------------------------------------------------------------------------------------------------------




--------------------------------------- Iteration      1(  10)  ---------------------------------------


    POTLOK:  cpu time    1.7307: real time    1.7300
    SETDIJ:  cpu time    0.0080: real time    0.0077
     EDDAV:  cpu time   10.8134: real time   10.8099
       DOS:  cpu time    0.0000: real time    0.0005
    CHARGE:  cpu time    0.4829: real time    0.4829
    MIXING:  cpu time    0.0540: real time    0.0544
    --------------------------------------------
      LOOP:  cpu time   13.0890: real time   13.0854

 eigenvalue-minimisations  :   112
 total energy-change (2. order) :-0.3669491E-03  (-0.3011470E-03)
 number of electron      56.0000023 magnetization 
 augmentation part       -3.9284883 magnetization 

 Broyden mixing:
  rms(total) = 0.15165E-01    rms(broyden)= 0.15165E-01
  rms(prec ) = 0.28508E-01
  weight for this iteration     100.00

 eigenvalues of (default mixing * dielectric matrix)
  average eigenvalue GAMMA=   1.8755
  2.7710  2.3025  1.0502  1.6268  1.6268

 Free energy of the ion-electron system (eV)
  ---------------------------------------------------
  alpha Z        PSCENC =         2.23981092
  Ewald energy   TEWEN  =      2629.98113996
  -Hartree energ DENC   =     -3549.89219081
  -exchange      EXHF   =         0.00000000
  -V(xc)+E(xc)   XCENC  =       -41.16441418
  PAW double counting   =      3811.47662215    -3653.04180475
  entropy T*S    EENTRO =        -0.00000000
  eigenvalues    EBANDS =      -540.50710043
  atomic energy  EATOM  =      1239.96520364
  Solvation  Ediel_sol  =         0.00000000
  ---------------------------------------------------
  free energy    TOTEN  =      -100.94273350 eV

  energy without entropy =     -100.94273350  energy(sigma->0) =     -100.94273350


--------------------------------------------------------------------------------------------------------




--------------------------------------- Iteration      1(  11)  ---------------------------------------


    POTLOK:  cpu time    1.7437: real time    1.7580
    SETDIJ:  cpu time    0.0080: real time    0.0076
     EDDAV:  cpu time   10.2064: real time   10.2134
       DOS:  cpu time    0.0010: real time    0.0004
    CHARGE:  cpu time    0.4879: real time    0.4886
    MIXING:  cpu time    0.0570: real time    0.0568
    --------------------------------------------
      LOOP:  cpu time   12.5041: real time   12.5247

 eigenvalue-minimisations  :   104
 total energy-change (2. order) : 0.2496125E-03  (-0.6804790E-03)
 number of electron      56.0000023 magnetization 
 augmentation part       -3.9272634 magnetization 

 Broyden mixing:
  rms(total) = 0.79726E-02    rms(broyden)= 0.79723E-02
  rms(prec ) = 0.14477E-01
  weight for this iteration     100.00

 eigenvalues of (default mixing * dielectric matrix)
  average eigenvalue GAMMA=   1.8695
  3.2586  2.5538  1.7329  1.7329  1.0554  0.8833

 Free energy of the ion-electron system (eV)
  ---------------------------------------------------
  alpha Z        PSCENC =         2.23981092
  Ewald energy   TEWEN  =      2629.98113996
  -Hartree energ DENC   =     -3556.73792038
  -exchange      EXHF   =         0.00000000
  -V(xc)+E(xc)   XCENC  =       -40.96828019
  PAW double counting   =      3772.16472291    -3613.68873313
  entropy T*S    EENTRO =        -0.00000000
  eigenvalues    EBANDS =      -533.89842762
  atomic energy  EATOM  =      1239.96520364
  Solvation  Ediel_sol  =         0.00000000
  ---------------------------------------------------
  free energy    TOTEN  =      -100.94248389 eV

  energy without entropy =     -100.94248389  energy(sigma->0) =     -100.94248389


--------------------------------------------------------------------------------------------------------




--------------------------------------- Iteration      1(  12)  ---------------------------------------


    POTLOK:  cpu time    1.6987: real time    1.7602
    SETDIJ:  cpu time    0.0080: real time    0.0076
     EDDAV:  cpu time    9.6325: real time    9.6298
       DOS:  cpu time    0.0000: real time    0.0003
    CHARGE:  cpu time    0.4869: real time    0.4873
    MIXING:  cpu time    0.0620: real time    0.0616
    --------------------------------------------
      LOOP:  cpu time   11.8882: real time   11.9469

 eigenvalue-minimisations  :    96
 total energy-change (2. order) :-0.4169212E-02  (-0.1102218E-03)
 number of electron      56.0000023 magnetization 
 augmentation part       -3.9266331 magnetization 

 Broyden mixing:
  rms(total) = 0.56059E-02    rms(broyden)= 0.56058E-02
  rms(prec ) = 0.98303E-02
  weight for this iteration     100.00

 eigenvalues of (default mixing * dielectric matrix)
  average eigenvalue GAMMA=   2.1011
  4.6759  2.5856  2.3811  1.5705  1.5705  0.9619  0.9619

 Free energy of the ion-electron system (eV)
  ---------------------------------------------------
  alpha Z        PSCENC =         2.23981092
  Ewald energy   TEWEN  =      2629.98113996
  -Hartree energ DENC   =     -3559.09893857
  -exchange      EXHF   =         0.00000000
  -V(xc)+E(xc)   XCENC  =       -40.92625267
  PAW double counting   =      3764.17031700    -3605.69145873
  entropy T*S    EENTRO =        -0.00000000
  eigenvalues    EBANDS =      -531.58647465
  atomic energy  EATOM  =      1239.96520364
  Solvation  Ediel_sol  =         0.00000000
  ---------------------------------------------------
  free energy    TOTEN  =      -100.94665310 eV

  energy without entropy =     -100.94665310  energy(sigma->0) =     -100.94665310


--------------------------------------------------------------------------------------------------------




--------------------------------------- Iteration      1(  13)  ---------------------------------------


    POTLOK:  cpu time    1.7517: real time    1.7511
    SETDIJ:  cpu time    0.0080: real time    0.0077
     EDDAV:  cpu time   10.8524: real time   10.8490
       DOS:  cpu time    0.0000: real time    0.0005
    CHARGE:  cpu time    0.4849: real time    0.4889
    MIXING:  cpu time    0.0650: real time    0.0652
    --------------------------------------------
      LOOP:  cpu time   13.1620: real time   13.1624

 eigenvalue-minimisations  :   112
 total energy-change (2. order) :-0.4828115E-02  (-0.1839790E-03)
 number of electron      56.0000023 magnetization 
 augmentation part       -3.9264074 magnetization 

 Broyden mixing:
  rms(total) = 0.34024E-02    rms(broyden)= 0.34023E-02
  rms(prec ) = 0.51100E-02
  weight for this iteration     100.00

 eigenvalues of (default mixing * dielectric matrix)
  average eigenvalue GAMMA=   2.1957
  5.6746  2.9122  2.3225  1.7948  1.7948  0.9590  0.9590  1.1489

 Free energy of the ion-electron system (eV)
  ---------------------------------------------------
  alpha Z        PSCENC =         2.23981092
  Ewald energy   TEWEN  =      2629.98113996
  -Hartree energ DENC   =     -3561.90027192
  -exchange      EXHF   =         0.00000000
  -V(xc)+E(xc)   XCENC  =       -40.87693160
  PAW double counting   =      3768.73988581    -3610.26939029
  entropy T*S    EENTRO =        -0.00000000
  eigenvalues    EBANDS =      -528.83092773
  atomic energy  EATOM  =      1239.96520364
  Solvation  Ediel_sol  =         0.00000000
  ---------------------------------------------------
  free energy    TOTEN  =      -100.95148122 eV

  energy without entropy =     -100.95148122  energy(sigma->0) =     -100.95148122


--------------------------------------------------------------------------------------------------------




--------------------------------------- Iteration      1(  14)  ---------------------------------------


    POTLOK:  cpu time    1.7397: real time    1.7391
    SETDIJ:  cpu time    0.0080: real time    0.0075
     EDDAV:  cpu time   10.7204: real time   10.7820
       DOS:  cpu time    0.0000: real time    0.0005
    CHARGE:  cpu time    0.4849: real time    0.4841
    MIXING:  cpu time    0.0720: real time    0.0721
    --------------------------------------------
      LOOP:  cpu time   13.0250: real time   13.0853

 eigenvalue-minimisations  :   112
 total energy-change (2. order) :-0.4164467E-02  (-0.3327714E-04)
 number of electron      56.0000023 magnetization 
 augmentation part       -3.9259471 magnetization 

 Broyden mixing:
  rms(total) = 0.15419E-02    rms(broyden)= 0.15419E-02
  rms(prec ) = 0.27052E-02
  weight for this iteration     100.00

 eigenvalues of (default mixing * dielectric matrix)
  average eigenvalue GAMMA=   2.2968
  6.5512  2.8169  2.8169  2.2662  1.6240  1.6240  1.0435  0.9644  0.9644

 Free energy of the ion-electron system (eV)
  ---------------------------------------------------
  alpha Z        PSCENC =         2.23981092
  Ewald energy   TEWEN  =      2629.98113996
  -Hartree energ DENC   =     -3562.57776069
  -exchange      EXHF   =         0.00000000
  -V(xc)+E(xc)   XCENC  =       -40.88999110
  PAW double counting   =      3768.15087298    -3609.68100804
  entropy T*S    EENTRO =        -0.00000000
  eigenvalues    EBANDS =      -528.14391335
  atomic energy  EATOM  =      1239.96520364
  Solvation  Ediel_sol  =         0.00000000
  ---------------------------------------------------
  free energy    TOTEN  =      -100.95564568 eV

  energy without entropy =     -100.95564568  energy(sigma->0) =     -100.95564568


--------------------------------------------------------------------------------------------------------




--------------------------------------- Iteration      1(  15)  ---------------------------------------


    POTLOK:  cpu time    1.7357: real time    1.7357
    SETDIJ:  cpu time    0.0080: real time    0.0076
     EDDAV:  cpu time   10.8224: real time   10.8194
       DOS:  cpu time    0.0010: real time    0.0006
    CHARGE:  cpu time    0.4839: real time    0.4842
    MIXING:  cpu time    0.0780: real time    0.0781
    --------------------------------------------
      LOOP:  cpu time   13.1290: real time   13.1255

 eigenvalue-minimisations  :   112
 total energy-change (2. order) :-0.4345217E-02  (-0.5258619E-04)
 number of electron      56.0000023 magnetization 
 augmentation part       -3.9257191 magnetization 

 Broyden mixing:
  rms(total) = 0.14948E-02    rms(broyden)= 0.14947E-02
  rms(prec ) = 0.19291E-02
  weight for this iteration     100.00

 eigenvalues of (default mixing * dielectric matrix)
  average eigenvalue GAMMA=   2.3070
  6.7399  3.8355  2.6145  2.0295  1.8702  1.8702  1.2199  0.9311  0.9794  0.9794

 Free energy of the ion-electron system (eV)
  ---------------------------------------------------
  alpha Z        PSCENC =         2.23981092
  Ewald energy   TEWEN  =      2629.98113996
  -Hartree energ DENC   =     -3562.79543528
  -exchange      EXHF   =         0.00000000
  -V(xc)+E(xc)   XCENC  =       -40.89934287
  PAW double counting   =      3771.86915874    -3613.39868223
  entropy T*S    EENTRO =        -0.00000000
  eigenvalues    EBANDS =      -527.92184377
  atomic energy  EATOM  =      1239.96520364
  Solvation  Ediel_sol  =         0.00000000
  ---------------------------------------------------
  free energy    TOTEN  =      -100.95999090 eV

  energy without entropy =     -100.95999090  energy(sigma->0) =     -100.95999090


--------------------------------------------------------------------------------------------------------




--------------------------------------- Iteration      1(  16)  ---------------------------------------


    POTLOK:  cpu time    1.8737: real time    1.8760
    SETDIJ:  cpu time    0.0080: real time    0.0076
     EDDAV:  cpu time   10.7534: real time   10.8026
       DOS:  cpu time    0.0010: real time    0.0007
    CHARGE:  cpu time    0.4859: real time    0.4858
    MIXING:  cpu time    0.0860: real time    0.0860
    --------------------------------------------
      LOOP:  cpu time   13.2080: real time   13.2587

 eigenvalue-minimisations  :   112
 total energy-change (2. order) :-0.9963136E-03  (-0.5333879E-05)
 number of electron      56.0000023 magnetization 
 augmentation part       -3.9258957 magnetization 

 Broyden mixing:
  rms(total) = 0.64572E-03    rms(broyden)= 0.64570E-03
  rms(prec ) = 0.96462E-03
  weight for this iteration     100.00

 eigenvalues of (default mixing * dielectric matrix)
  average eigenvalue GAMMA=   2.4108
  7.3538  4.6227  2.6244  2.6244  1.8128  1.8128  1.3834  1.3834  0.9618  0.9618
  0.9774

 Free energy of the ion-electron system (eV)
  ---------------------------------------------------
  alpha Z        PSCENC =         2.23981092
  Ewald energy   TEWEN  =      2629.98113996
  -Hartree energ DENC   =     -3562.91181270
  -exchange      EXHF   =         0.00000000
  -V(xc)+E(xc)   XCENC  =       -40.89614099
  PAW double counting   =      3772.14249415    -3613.67148575
  entropy T*S    EENTRO =        -0.00000000
  eigenvalues    EBANDS =      -527.81019644
  atomic energy  EATOM  =      1239.96520364
  Solvation  Ediel_sol  =         0.00000000
  ---------------------------------------------------
  free energy    TOTEN  =      -100.96098721 eV

  energy without entropy =     -100.96098721  energy(sigma->0) =     -100.96098721


--------------------------------------------------------------------------------------------------------




--------------------------------------- Iteration      1(  17)  ---------------------------------------


    POTLOK:  cpu time    1.7297: real time    1.7287
    SETDIJ:  cpu time    0.0070: real time    0.0076
     EDDAV:  cpu time   10.2314: real time   10.2275
       DOS:  cpu time    0.0000: real time    0.0007
    CHARGE:  cpu time    0.4909: real time    0.4902
    MIXING:  cpu time    0.0940: real time    0.0947
    --------------------------------------------
      LOOP:  cpu time   12.5531: real time   12.5495

 eigenvalue-minimisations  :   104
 total energy-change (2. order) :-0.1042065E-02  (-0.8732714E-05)
 number of electron      56.0000023 magnetization 
 augmentation part       -3.9261021 magnetization 

 Broyden mixing:
  rms(total) = 0.29560E-03    rms(broyden)= 0.29556E-03
  rms(prec ) = 0.44098E-03
  weight for this iteration     100.00

 eigenvalues of (default mixing * dielectric matrix)
  average eigenvalue GAMMA=   2.4149
  7.5968  5.0751  2.6968  2.6968  1.9515  1.9515  1.4946  1.4946  1.1394  0.9616
  0.9616  0.9582

 Free energy of the ion-electron system (eV)
  ---------------------------------------------------
  alpha Z        PSCENC =         2.23981092
  Ewald energy   TEWEN  =      2629.98113996
  -Hartree energ DENC   =     -3562.92768471
  -exchange      EXHF   =         0.00000000
  -V(xc)+E(xc)   XCENC  =       -40.89839957
  PAW double counting   =      3770.42672555    -3611.95461596
  entropy T*S    EENTRO =        -0.00000000
  eigenvalues    EBANDS =      -527.79420911
  atomic energy  EATOM  =      1239.96520364
  Solvation  Ediel_sol  =         0.00000000
  ---------------------------------------------------
  free energy    TOTEN  =      -100.96202928 eV

  energy without entropy =     -100.96202928  energy(sigma->0) =     -100.96202928


--------------------------------------------------------------------------------------------------------




--------------------------------------- Iteration      1(  18)  ---------------------------------------


    POTLOK:  cpu time    1.7317: real time    1.7308
    SETDIJ:  cpu time    0.0070: real time    0.0162
     EDDAV:  cpu time   10.2304: real time   10.2264
       DOS:  cpu time    0.0000: real time    0.0008
    CHARGE:  cpu time    0.4839: real time    0.4838
    MIXING:  cpu time    0.1050: real time    0.1052
    --------------------------------------------
      LOOP:  cpu time   12.5581: real time   12.5630

 eigenvalue-minimisations  :   104
 total energy-change (2. order) :-0.2816760E-03  (-0.9796449E-06)
 number of electron      56.0000023 magnetization 
 augmentation part       -3.9260867 magnetization 

 Broyden mixing:
  rms(total) = 0.17131E-03    rms(broyden)= 0.17128E-03
  rms(prec ) = 0.25071E-03
  weight for this iteration     100.00

 eigenvalues of (default mixing * dielectric matrix)
  average eigenvalue GAMMA=   2.4891
  8.1842  5.7621  3.1969  2.6214  2.3568  1.7791  1.7791  1.3823  1.3823  0.9968
  0.9968  0.9605  0.9605

 Free energy of the ion-electron system (eV)
  ---------------------------------------------------
  alpha Z        PSCENC =         2.23981092
  Ewald energy   TEWEN  =      2629.98113996
  -Hartree energ DENC   =     -3562.95996994
  -exchange      EXHF   =         0.00000000
  -V(xc)+E(xc)   XCENC  =       -40.89805464
  PAW double counting   =      3770.24524434    -3611.77361811
  entropy T*S    EENTRO =        -0.00000000
  eigenvalues    EBANDS =      -527.76206712
  atomic energy  EATOM  =      1239.96520364
  Solvation  Ediel_sol  =         0.00000000
  ---------------------------------------------------
  free energy    TOTEN  =      -100.96231096 eV

  energy without entropy =     -100.96231096  energy(sigma->0) =     -100.96231096


--------------------------------------------------------------------------------------------------------




--------------------------------------- Iteration      1(  19)  ---------------------------------------


    POTLOK:  cpu time    1.7397: real time    1.7394
    SETDIJ:  cpu time    0.0070: real time    0.0076
     EDDAV:  cpu time   10.2184: real time   10.2357
       DOS:  cpu time    0.0010: real time    0.0008
    CHARGE:  cpu time    0.4849: real time    0.4859
    MIXING:  cpu time    0.1190: real time    0.1180
    --------------------------------------------
      LOOP:  cpu time   12.5701: real time   12.5873

 eigenvalue-minimisations  :   104
 total energy-change (2. order) :-0.1427876E-03  (-0.4563437E-06)
 number of electron      56.0000023 magnetization 
 augmentation part       -3.9261062 magnetization 

 Broyden mixing:
  rms(total) = 0.15971E-03    rms(broyden)= 0.15970E-03
  rms(prec ) = 0.19940E-03
  weight for this iteration     100.00

 eigenvalues of (default mixing * dielectric matrix)
  average eigenvalue GAMMA=   2.4788
  8.3440  6.0706  3.3133  2.6981  2.1008  2.1008  1.7679  1.7679  1.3601  1.3601
  0.9866  0.9866  0.9230  0.9230

 Free energy of the ion-electron system (eV)
  ---------------------------------------------------
  alpha Z        PSCENC =         2.23981092
  Ewald energy   TEWEN  =      2629.98113996
  -Hartree energ DENC   =     -3562.97437681
  -exchange      EXHF   =         0.00000000
  -V(xc)+E(xc)   XCENC  =       -40.89712847
  PAW double counting   =      3770.17537291    -3611.70396488
  entropy T*S    EENTRO =        -0.00000000
  eigenvalues    EBANDS =      -527.74851100
  atomic energy  EATOM  =      1239.96520364
  Solvation  Ediel_sol  =         0.00000000
  ---------------------------------------------------
  free energy    TOTEN  =      -100.96245374 eV

  energy without entropy =     -100.96245374  energy(sigma->0) =     -100.96245374


--------------------------------------------------------------------------------------------------------




--------------------------------------- Iteration      1(  20)  ---------------------------------------


    POTLOK:  cpu time    1.7927: real time    1.9578
    SETDIJ:  cpu time    0.0080: real time    0.0077
     EDDAV:  cpu time    8.3937: real time    8.3910
       DOS:  cpu time    0.0010: real time    0.0008
    CHARGE:  cpu time    0.4869: real time    0.4875
    MIXING:  cpu time    0.1300: real time    0.1290
    --------------------------------------------
      LOOP:  cpu time   10.8124: real time   10.9739

 eigenvalue-minimisations  :    80
 total energy-change (2. order) :-0.5118703E-04  (-0.8868354E-07)
 number of electron      56.0000023 magnetization 
 augmentation part       -3.9260912 magnetization 

 Broyden mixing:
  rms(total) = 0.60206E-04    rms(broyden)= 0.60206E-04
  rms(prec ) = 0.84405E-04
  weight for this iteration     100.00

 eigenvalues of (default mixing * dielectric matrix)
  average eigenvalue GAMMA=   2.5190
  8.5946  6.4057  4.0287  2.8471  2.5801  1.8191  1.8191  1.8975  1.3884  1.3884
  1.1936  0.9804  0.9804  0.9709  0.8902

 Free energy of the ion-electron system (eV)
  ---------------------------------------------------
  alpha Z        PSCENC =         2.23981092
  Ewald energy   TEWEN  =      2629.98113996
  -Hartree energ DENC   =     -3562.97611379
  -exchange      EXHF   =         0.00000000
  -V(xc)+E(xc)   XCENC  =       -40.89811106
  PAW double counting   =      3770.04844067    -3611.57697524
  entropy T*S    EENTRO =        -0.00000000
  eigenvalues    EBANDS =      -527.74590003
  atomic energy  EATOM  =      1239.96520364
  Solvation  Ediel_sol  =         0.00000000
  ---------------------------------------------------
  free energy    TOTEN  =      -100.96250493 eV

  energy without entropy =     -100.96250493  energy(sigma->0) =     -100.96250493


--------------------------------------------------------------------------------------------------------




--------------------------------------- Iteration      1(  21)  ---------------------------------------


    POTLOK:  cpu time    1.8547: real time    1.8569
    SETDIJ:  cpu time    0.0080: real time    0.0076
     EDDAV:  cpu time    8.3697: real time    8.3779
       DOS:  cpu time    0.0000: real time    0.0003
    CHARGE:  cpu time    0.4659: real time    0.4880
    MIXING:  cpu time    0.1510: real time    0.1512
    --------------------------------------------
      LOOP:  cpu time   10.8494: real time   10.8819

 eigenvalue-minimisations  :    80
 total energy-change (2. order) :-0.2609184E-04  (-0.8588839E-07)
 number of electron      56.0000023 magnetization 
 augmentation part       -3.9260728 magnetization 

 Broyden mixing:
  rms(total) = 0.53717E-04    rms(broyden)= 0.53714E-04
  rms(prec ) = 0.67928E-04
  weight for this iteration     100.00

 eigenvalues of (default mixing * dielectric matrix)
  average eigenvalue GAMMA=   2.4965
  8.5286  6.6423  4.1096  2.8982  2.6326  2.0265  2.0265  1.7279  1.7279  1.5309
  1.1867  0.9878  0.9409  0.9409  1.0188  1.0188

 Free energy of the ion-electron system (eV)
  ---------------------------------------------------
  alpha Z        PSCENC =         2.23981092
  Ewald energy   TEWEN  =      2629.98113996
  -Hartree energ DENC   =     -3562.98426604
  -exchange      EXHF   =         0.00000000
  -V(xc)+E(xc)   XCENC  =       -40.89803852
  PAW double counting   =      3770.17746743    -3611.70611601
  entropy T*S    EENTRO =        -0.00000000
  eigenvalues    EBANDS =      -527.73773240
  atomic energy  EATOM  =      1239.96520364
  Solvation  Ediel_sol  =         0.00000000
  ---------------------------------------------------
  free energy    TOTEN  =      -100.96253102 eV

  energy without entropy =     -100.96253102  energy(sigma->0) =     -100.96253102


--------------------------------------------------------------------------------------------------------




--------------------------------------- Iteration      1(  22)  ---------------------------------------


    POTLOK:  cpu time    1.7297: real time    1.7288
    SETDIJ:  cpu time    0.0100: real time    0.0103
     EDDAV:  cpu time    8.9976: real time    9.0073
       DOS:  cpu time    0.0000: real time    0.0003
    CHARGE:  cpu time    0.4869: real time    0.4868
    MIXING:  cpu time    0.1540: real time    0.1544
    --------------------------------------------
      LOOP:  cpu time   11.3783: real time   11.3880

 eigenvalue-minimisations  :    88
 total energy-change (2. order) :-0.7474336E-05  (-0.1622569E-07)
 number of electron      56.0000023 magnetization 
 augmentation part       -3.9260817 magnetization 

 Broyden mixing:
  rms(total) = 0.21922E-04    rms(broyden)= 0.21922E-04
  rms(prec ) = 0.29368E-04
  weight for this iteration     100.00

 eigenvalues of (default mixing * dielectric matrix)
  average eigenvalue GAMMA=   2.5256
  8.8058  6.7604  4.6684  3.2206  2.5754  2.5754  1.8642  1.8642  1.6553  1.6553
  1.2241  1.2241  1.0030  0.9431  0.9431  0.9766  0.9766

 Free energy of the ion-electron system (eV)
  ---------------------------------------------------
  alpha Z        PSCENC =         2.23981092
  Ewald energy   TEWEN  =      2629.98113996
  -Hartree energ DENC   =     -3562.98360447
  -exchange      EXHF   =         0.00000000
  -V(xc)+E(xc)   XCENC  =       -40.89786578
  PAW double counting   =      3770.23660988    -3611.76519061
  entropy T*S    EENTRO =        -0.00000000
  eigenvalues    EBANDS =      -527.73864202
  atomic energy  EATOM  =      1239.96520364
  Solvation  Ediel_sol  =         0.00000000
  ---------------------------------------------------
  free energy    TOTEN  =      -100.96253850 eV

  energy without entropy =     -100.96253850  energy(sigma->0) =     -100.96253850


--------------------------------------------------------------------------------------------------------




--------------------------------------- Iteration      1(  23)  ---------------------------------------


    POTLOK:  cpu time    1.7257: real time    1.7250
    SETDIJ:  cpu time    0.0080: real time    0.0076
     EDDAV:  cpu time    8.3897: real time    8.3939
       DOS:  cpu time    0.0000: real time    0.0004
    CHARGE:  cpu time    0.4879: real time    0.4882
    MIXING:  cpu time    0.1670: real time    0.1663
    --------------------------------------------
      LOOP:  cpu time   10.7784: real time   10.7814

 eigenvalue-minimisations  :    80
 total energy-change (2. order) :-0.3966310E-05  (-0.1089696E-07)
 number of electron      56.0000023 magnetization 
 augmentation part       -3.9260908 magnetization 

 Broyden mixing:
  rms(total) = 0.16808E-04    rms(broyden)= 0.16807E-04
  rms(prec ) = 0.21087E-04
  weight for this iteration     100.00

 eigenvalues of (default mixing * dielectric matrix)
  average eigenvalue GAMMA=   2.4644
  8.8748  6.7728  4.7580  3.1535  2.5939  2.5939  1.9034  1.9034  1.6738  1.6738
  1.2868  1.2868  1.0141  1.0141  0.9967  0.9967  0.9627  0.9002

 Free energy of the ion-electron system (eV)
  ---------------------------------------------------
  alpha Z        PSCENC =         2.23981092
  Ewald energy   TEWEN  =      2629.98113996
  -Hartree energ DENC   =     -3562.98242729
  -exchange      EXHF   =         0.00000000
  -V(xc)+E(xc)   XCENC  =       -40.89798129
  PAW double counting   =      3770.20595817    -3611.73448113
  entropy T*S    EENTRO =        -0.00000000
  eigenvalues    EBANDS =      -527.73976543
  atomic energy  EATOM  =      1239.96520364
  Solvation  Ediel_sol  =         0.00000000
  ---------------------------------------------------
  free energy    TOTEN  =      -100.96254246 eV

  energy without entropy =     -100.96254246  energy(sigma->0) =     -100.96254246


--------------------------------------------------------------------------------------------------------




--------------------------------------- Iteration      1(  24)  ---------------------------------------


    POTLOK:  cpu time    1.7277: real time    1.7277
    SETDIJ:  cpu time    0.0080: real time    0.0077
     EDDAV:  cpu time    8.9966: real time    8.9984
       DOS:  cpu time    0.0010: real time    0.0006
    CHARGE:  cpu time    0.4919: real time    0.4917
    MIXING:  cpu time    0.1800: real time    0.1806
    --------------------------------------------
      LOOP:  cpu time   11.4053: real time   11.4066

 eigenvalue-minimisations  :    88
 total energy-change (2. order) :-0.1758592E-05  (-0.2241018E-08)
 number of electron      56.0000023 magnetization 
 augmentation part       -3.9260903 magnetization 

 Broyden mixing:
  rms(total) = 0.75093E-05    rms(broyden)= 0.75090E-05
  rms(prec ) = 0.10629E-04
  weight for this iteration     100.00

 eigenvalues of (default mixing * dielectric matrix)
  average eigenvalue GAMMA=   2.5674
  8.8851  7.1295  5.5359  3.8832  3.0142  2.5118  2.4295  1.8324  1.8324  1.6649
  1.6649  1.2359  1.2359  1.0856  0.9901  0.9901  0.9443  0.9443  0.9705

 Free energy of the ion-electron system (eV)
  ---------------------------------------------------
  alpha Z        PSCENC =         2.23981092
  Ewald energy   TEWEN  =      2629.98113996
  -Hartree energ DENC   =     -3562.98292242
  -exchange      EXHF   =         0.00000000
  -V(xc)+E(xc)   XCENC  =       -40.89800289
  PAW double counting   =      3770.15955388    -3611.68810378
  entropy T*S    EENTRO =        -0.00000000
  eigenvalues    EBANDS =      -527.73922353
  atomic energy  EATOM  =      1239.96520364
  Solvation  Ediel_sol  =         0.00000000
  ---------------------------------------------------
  free energy    TOTEN  =      -100.96254422 eV

  energy without entropy =     -100.96254422  energy(sigma->0) =     -100.96254422


--------------------------------------------------------------------------------------------------------




--------------------------------------- Iteration      1(  25)  ---------------------------------------


    POTLOK:  cpu time    1.7447: real time    1.7435
    SETDIJ:  cpu time    0.0080: real time    0.0080
     EDDAV:  cpu time    8.4237: real time    8.4210
       DOS:  cpu time    0.0000: real time    0.0005
    CHARGE:  cpu time    0.4869: real time    0.4867
    MIXING:  cpu time    0.1950: real time    0.1942
    --------------------------------------------
      LOOP:  cpu time   10.8583: real time   10.8539

 eigenvalue-minimisations  :    80
 total energy-change (2. order) :-0.1207100E-05  (-0.2175357E-08)
 number of electron      56.0000023 magnetization 
 augmentation part       -3.9260893 magnetization 

 Broyden mixing:
  rms(total) = 0.41971E-05    rms(broyden)= 0.41970E-05
  rms(prec ) = 0.53553E-05
  weight for this iteration     100.00

 eigenvalues of (default mixing * dielectric matrix)
  average eigenvalue GAMMA=   2.5521
  8.8929  7.2307  5.6415  4.0741  2.7929  2.5309  2.3174  2.3174  1.8631  1.8631
  1.6087  1.6087  1.2115  1.2115  1.0170  1.0170  0.9532  0.9532  0.9415  0.9948

 Free energy of the ion-electron system (eV)
  ---------------------------------------------------
  alpha Z        PSCENC =         2.23981092
  Ewald energy   TEWEN  =      2629.98113996
  -Hartree energ DENC   =     -3562.98406894
  -exchange      EXHF   =         0.00000000
  -V(xc)+E(xc)   XCENC  =       -40.89796228
  PAW double counting   =      3770.15993973    -3611.68850641
  entropy T*S    EENTRO =        -0.00000000
  eigenvalues    EBANDS =      -527.73810205
  atomic energy  EATOM  =      1239.96520364
  Solvation  Ediel_sol  =         0.00000000
  ---------------------------------------------------
  free energy    TOTEN  =      -100.96254543 eV

  energy without entropy =     -100.96254543  energy(sigma->0) =     -100.96254543


--------------------------------------------------------------------------------------------------------




--------------------------------------- Iteration      1(  26)  ---------------------------------------


    POTLOK:  cpu time    1.7487: real time    1.7486
    SETDIJ:  cpu time    0.0070: real time    0.0076
     EDDAV:  cpu time    7.8068: real time    7.8035
       DOS:  cpu time    0.0000: real time    0.0002
    --------------------------------------------
      LOOP:  cpu time    9.5625: real time    9.5599

 eigenvalue-minimisations  :    72
 total energy-change (2. order) :-0.4062667E-06  (-0.2962057E-09)
 number of electron      56.0000023 magnetization 
 augmentation part       -3.9260893 magnetization 

 Free energy of the ion-electron system (eV)
  ---------------------------------------------------
  alpha Z        PSCENC =         2.23981092
  Ewald energy   TEWEN  =      2629.98113996
  -Hartree energ DENC   =     -3562.98383279
  -exchange      EXHF   =         0.00000000
  -V(xc)+E(xc)   XCENC  =       -40.89799843
  PAW double counting   =      3770.16689259    -3611.69545542
  entropy T*S    EENTRO =        -0.00000000
  eigenvalues    EBANDS =      -527.73830629
  atomic energy  EATOM  =      1239.96520364
  Solvation  Ediel_sol  =         0.00000000
  ---------------------------------------------------
  free energy    TOTEN  =      -100.96254583 eV

  energy without entropy =     -100.96254583  energy(sigma->0) =     -100.96254583


--------------------------------------------------------------------------------------------------------




 average (electrostatic) potential at core
  the test charge radii are     0.9892  1.1631  0.5201
  (the norm of the test charge is              1.0000)
       1 -93.3562       2 -93.4245       3 -93.4637       4 -93.4636       5 -93.4332
       6 -40.4244       7 -40.4244       8 -40.4771       9 -40.4355      10 -40.4355
      11 -41.0570      12 -41.0659      13 -41.0545      14 -41.0484      15 -41.0570
      16 -40.6981      17 -40.6992      18 -40.7088      19 -41.0550      20 -41.0660
      21 -41.0571      22 -40.6865      23 -40.7059      24 -40.7060      25 -40.6981
      26 -40.6977
 
 
 
 E-fermi :  -5.3564     XC(G=0):  -0.6075     alpha+bet : -0.3347


 k-point     1 :       0.0000    0.0000    0.0000
  band No.  band energies     occupation 
      1     -15.3665      2.00000
      2     -14.4487      2.00000
      3     -14.1645      2.00000
      4     -13.8760      2.00000
      5     -12.9787      2.00000
      6     -12.9211      2.00000
      7     -11.7156      2.00000
      8     -11.6217      2.00000
      9     -11.3548      2.00000
     10     -10.4427      2.00000
     11      -8.9711      2.00000
     12      -8.6381      2.00000
     13      -8.6212      2.00000
     14      -8.6211      2.00000
     15      -8.1960      2.00000
     16      -8.1830      2.00000
     17      -8.1772      2.00000
     18      -7.8631      2.00000
     19      -7.8565      2.00000
     20      -7.8514      2.00000
     21      -6.7711      2.00000
     22      -6.7704      2.00000
     23      -6.4870      2.00000
     24      -6.4699      2.00000
     25      -6.4403      2.00000
     26      -6.3715      2.00000
     27      -6.3512      2.00000
     28      -6.3391      2.00000
     29      -1.7010      0.00000
     30      -1.3941      0.00000
     31      -1.3228      0.00000
     32      -1.1805      0.00000
     33      -1.1642      0.00000
     34      -1.0914      0.00000
     35      -1.0454      0.00000
     36      -1.0248      0.00000
     37      -0.9306      0.00000
     38      -0.5612      0.00000
     39      -0.3740      0.00000
     40      -0.3118      0.00000
     41      -0.2190      0.00000
     42      -0.2014      0.00000


--------------------------------------------------------------------------------------------------------


 soft charge-density along one line, spin component           1
         0         1         2         3         4         5         6         7         8         9
 total charge-density along one line
 
 pseudopotential strength for first ion, spin component:           1
 19.608  27.364  -0.000   0.002   0.000  -0.001   0.004   0.000
 27.364  38.192  -0.001   0.003   0.000  -0.001   0.005   0.000
 -0.000  -0.001   4.358  -0.000   0.000   8.129  -0.000   0.000
  0.002   0.003  -0.000   4.358   0.000  -0.000   8.129  -0.000
  0.000   0.000   0.000   0.000   4.358   0.000  -0.000   8.129
 -0.001  -0.001   8.129  -0.000   0.000  15.174  -0.000   0.000
  0.004   0.005  -0.000   8.129  -0.000  -0.000  15.174  -0.000
  0.000   0.000   0.000  -0.000   8.129   0.000  -0.000  15.174
 total augmentation occupancy for first ion, spin component:           1
  5.587  -2.052   0.069  -0.327  -0.043  -0.021   0.098   0.013
 -2.052   0.813  -0.042   0.199   0.027   0.009  -0.045  -0.006
  0.069  -0.042   2.873  -0.093  -0.013  -0.626   0.034   0.005
 -0.327   0.199  -0.093   3.299   0.062   0.034  -0.781  -0.022
 -0.043   0.027  -0.013   0.062   2.859   0.005  -0.022  -0.621
 -0.021   0.009  -0.626   0.034   0.005   0.142  -0.010  -0.001
  0.098  -0.045   0.034  -0.781  -0.022  -0.010   0.188   0.007
[...]
 next E    =  -101.240481   (d E  =  -0.00022)


--------------------------------------------------------------------------------------------------------


    WAVPRE:  cpu time    0.5779: real time    0.5814
    FEWALD:  cpu time    0.0010: real time    0.0009
    ORTHCH:  cpu time    0.9749: real time    0.9744
     LOOP+:  cpu time   79.3059: real time   79.3028


--------------------------------------- Iteration     17(   1)  ---------------------------------------


    POTLOK:  cpu time    1.7407: real time    1.7411
    SETDIJ:  cpu time    0.0070: real time    0.0076
     EDDAV:  cpu time    8.6617: real time    8.6599
       DOS:  cpu time    0.0010: real time    0.0003
    CHARGE:  cpu time    0.4879: real time    0.4876
    MIXING:  cpu time    0.0430: real time    0.0431
    --------------------------------------------
      LOOP:  cpu time   10.9413: real time   10.9397

 eigenvalue-minimisations  :    84
 total energy-change (2. order) :-0.3365730E-04  (-0.1822929E-03)
 number of electron      56.0000020 magnetization 
 augmentation part       -3.9153017 magnetization 

 Broyden mixing:
  rms(total) = 0.14292E-02    rms(broyden)= 0.14289E-02
  rms(prec ) = 0.14851E-02
  weight for this iteration     100.00

 Free energy of the ion-electron system (eV)
  ---------------------------------------------------
  alpha Z        PSCENC =         2.23981092
  Ewald energy   TEWEN  =      2617.22330072
  -Hartree energ DENC   =     -3550.29224289
  -exchange      EXHF   =         0.00000000
  -V(xc)+E(xc)   XCENC  =       -40.49412568
  PAW double counting   =      3948.24832175    -3789.81498097
  entropy T*S    EENTRO =        -0.00000000
  eigenvalues    EBANDS =      -528.31576052
  atomic energy  EATOM  =      1239.96520364
  Solvation  Ediel_sol  =         0.00000000
  ---------------------------------------------------
  free energy    TOTEN  =      -101.24047302 eV

  energy without entropy =     -101.24047302  energy(sigma->0) =     -101.24047302


--------------------------------------------------------------------------------------------------------




--------------------------------------- Iteration     17(   2)  ---------------------------------------


    POTLOK:  cpu time    1.7417: real time    1.7422
    SETDIJ:  cpu time    0.0080: real time    0.0077
     EDDAV:  cpu time   11.4393: real time   11.4348
       DOS:  cpu time    0.0000: real time    0.0003
    CHARGE:  cpu time    0.4849: real time    0.4900
    MIXING:  cpu time    0.0460: real time    0.0459
    --------------------------------------------
      LOOP:  cpu time   13.7199: real time   13.7208

 eigenvalue-minimisations  :   120
 total energy-change (2. order) :-0.7723464E-05  (-0.9042504E-05)
 number of electron      56.0000020 magnetization 
 augmentation part       -3.9153852 magnetization 

 Broyden mixing:
  rms(total) = 0.84839E-03    rms(broyden)= 0.84815E-03
  rms(prec ) = 0.90450E-03
  weight for this iteration     100.00

 eigenvalues of (default mixing * dielectric matrix)
  average eigenvalue GAMMA=   1.0401
  1.0401

 Free energy of the ion-electron system (eV)
  ---------------------------------------------------
  alpha Z        PSCENC =         2.23981092
  Ewald energy   TEWEN  =      2617.22330072
  -Hartree energ DENC   =     -3550.29212632
  -exchange      EXHF   =         0.00000000
  -V(xc)+E(xc)   XCENC  =       -40.49409311
  PAW double counting   =      3948.29235481    -3789.85898534
  entropy T*S    EENTRO =        -0.00000000
  eigenvalues    EBANDS =      -528.31594607
  atomic energy  EATOM  =      1239.96520364
  Solvation  Ediel_sol  =         0.00000000
  ---------------------------------------------------
  free energy    TOTEN  =      -101.24048075 eV

  energy without entropy =     -101.24048075  energy(sigma->0) =     -101.24048075


--------------------------------------------------------------------------------------------------------




--------------------------------------- Iteration     17(   3)  ---------------------------------------


    POTLOK:  cpu time    1.7417: real time    1.7418
    SETDIJ:  cpu time    0.0070: real time    0.0076
     EDDAV:  cpu time   10.2274: real time   10.2235
       DOS:  cpu time    0.0000: real time    0.0003
    --------------------------------------------
      LOOP:  cpu time   11.9762: real time   11.9731

 eigenvalue-minimisations  :   104
 total energy-change (2. order) : 0.3394684E-06  (-0.2857910E-06)
 number of electron      56.0000020 magnetization 
 augmentation part       -3.9153852 magnetization 

 Free energy of the ion-electron system (eV)
  ---------------------------------------------------
  alpha Z        PSCENC =         2.23981092
  Ewald energy   TEWEN  =      2617.22330072
  -Hartree energ DENC   =     -3550.29141040
  -exchange      EXHF   =         0.00000000
  -V(xc)+E(xc)   XCENC  =       -40.49430282
  PAW double counting   =      3948.27548491    -3789.84211505
  entropy T*S    EENTRO =        -0.00000000
  eigenvalues    EBANDS =      -528.31645233
  atomic energy  EATOM  =      1239.96520364
  Solvation  Ediel_sol  =         0.00000000
  ---------------------------------------------------
  free energy    TOTEN  =      -101.24048041 eV

  energy without entropy =     -101.24048041  energy(sigma->0) =     -101.24048041


--------------------------------------------------------------------------------------------------------




 average (electrostatic) potential at core
  the test charge radii are     0.9892  1.1631  0.5201
  (the norm of the test charge is              1.0000)
       1 -93.2614       2 -93.2816       3 -93.3509       4 -93.3508       5 -93.4130
       6 -40.4547       7 -40.4545       8 -40.4838       9 -40.4359      10 -40.4358
      11 -40.9828      12 -40.9795      13 -41.0149      14 -40.9833      15 -40.9811
      16 -40.8500      17 -40.8487      18 -40.8781      19 -41.0144      20 -40.9794
      21 -40.9829      22 -40.9033      23 -40.8436      24 -40.8441      25 -40.8495
      26 -40.8502
 
 
 
 E-fermi :  -5.3152     XC(G=0):  -0.6053     alpha+bet : -0.3347


 k-point     1 :       0.0000    0.0000    0.0000
  band No.  band energies     occupation 
      1     -15.1910      2.00000
      2     -14.2872      2.00000
      3     -14.1316      2.00000
      4     -13.9921      2.00000
      5     -13.0204      2.00000
      6     -12.9954      2.00000
      7     -11.7781      2.00000
      8     -11.6993      2.00000
      9     -11.4730      2.00000
     10     -10.5763      2.00000
     11      -9.0000      2.00000
     12      -8.6811      2.00000
     13      -8.6677      2.00000
     14      -8.4997      2.00000
     15      -8.2755      2.00000
     16      -8.1201      2.00000
     17      -8.0891      2.00000
     18      -7.9443      2.00000
     19      -7.8553      2.00000
     20      -7.8406      2.00000
     21      -6.8231      2.00000
     22      -6.8150      2.00000
     23      -6.5621      2.00000
     24      -6.5005      2.00000
     25      -6.3818      2.00000
     26      -6.3685      2.00000
     27      -6.3128      2.00000
     28      -6.2765      2.00000
     29      -1.6459      0.00000
     30      -1.4151      0.00000
     31      -1.3445      0.00000
     32      -1.3272      0.00000
     33      -1.3036      0.00000
     34      -1.1263      0.00000
     35      -1.0821      0.00000
     36      -1.0065      0.00000
     37      -0.9060      0.00000
     38      -0.4171      0.00000
     39      -0.3184      0.00000
     40      -0.3031      0.00000
     41      -0.1623      0.00000
     42      -0.1389      0.00000


--------------------------------------------------------------------------------------------------------


 soft charge-density along one line, spin component           1
         0         1         2         3         4         5         6         7         8         9
 total charge-density along one line
 
 pseudopotential strength for first ion, spin component:           1
 19.608  27.364  -0.001   0.003   0.000  -0.001   0.005   0.001
 27.364  38.192  -0.001   0.004   0.000  -0.001   0.007   0.001
 -0.001  -0.001   4.361  -0.000  -0.000   8.135  -0.000  -0.000
  0.003   0.004  -0.000   4.362   0.000  -0.000   8.136   0.000
  0.000   0.000  -0.000   0.000   4.361  -0.000   0.000   8.135
 -0.001  -0.001   8.135  -0.000  -0.000  15.185  -0.000  -0.000
  0.005   0.007  -0.000   8.136   0.000  -0.000  15.186   0.000
  0.001   0.001  -0.000   0.000   8.135  -0.000   0.000  15.185
 total augmentation occupancy for first ion, spin component:           1
  6.065  -2.314   0.091  -0.437  -0.066  -0.029   0.137   0.021
 -2.314   0.939  -0.053   0.254   0.039   0.013  -0.064  -0.010
  0.091  -0.053   3.066  -0.106  -0.018  -0.684   0.038   0.006
 -0.437   0.254  -0.106   3.553   0.082   0.038  -0.858  -0.029
 -0.066   0.039  -0.018   0.082   3.047   0.006  -0.029  -0.678
 -0.029   0.013  -0.684   0.038   0.006   0.159  -0.011  -0.002
  0.137  -0.064   0.038  -0.858  -0.029  -0.011   0.210   0.009
  0.021  -0.010   0.006  -0.029  -0.678  -0.002   0.009   0.157


------------------------ aborting loop because EDIFF is reached ----------------------------------------


    CHARGE:  cpu time    0.4779: real time    0.4763
    FORLOC:  cpu time    0.1710: real time    0.1713
    FORNL :  cpu time    1.1328: real time    1.1331
    STRESS:  cpu time    8.4037: real time    8.4014
    FORCOR:  cpu time    1.7277: real time    1.7266
    FORHAR:  cpu time    0.5829: real time    0.5833
    MIXING:  cpu time    0.0460: real time    0.0461
    OFIELD:  cpu time    0.0000: real time    0.0000

  FORCE on cell =-STRESS in cart. coord.  units (eV):
  Direction    XX          YY          ZZ          XY          YZ          ZX
  --------------------------------------------------------------------------------------
  Alpha Z     2.23981     2.23981     2.23981
  Ewald     874.70687   871.11667   871.39809     0.20559    -0.35009    -2.04326
  Hartree  1186.60955  1181.93899  1181.73933     0.39013    -0.25974    -2.53030
  E(xc)    -178.94985  -179.04964  -179.14948     0.01932     0.01866    -0.06408
  Local   -2554.85257 -2546.39787 -2546.47971    -0.63955     0.61895     4.72223
  n-local   255.38864   255.73017   255.93287    -0.05559    -0.03492     0.16714
  augment   -20.85362   -20.80443   -20.78154    -0.00942    -0.00298     0.03044
  Kinetic   434.63861   434.03806   434.28733     0.10373    -0.07517    -0.29855
  Fock        0.00000     0.00000     0.00000     0.00000     0.00000     0.00000
  -------------------------------------------------------------------------------------
  Total      -1.07256    -1.18824    -0.81331     0.01420    -0.08530    -0.01639
  in kB      -0.21480    -0.23797    -0.16288     0.00284    -0.01708    -0.00328
  external pressure =       -0.21 kB  Pullay stress =        0.00 kB


 VOLUME and BASIS-vectors are now :
 -----------------------------------------------------------------------------
  energy-cutoff  :      400.00
  volume of cell :     8000.00
      direct lattice vectors                 reciprocal lattice vectors
    20.000000000  0.000000000  0.000000000     0.050000000  0.000000000  0.000000000
     0.000000000 20.000000000  0.000000000     0.000000000  0.050000000  0.000000000
     0.000000000  0.000000000 20.000000000     0.000000000  0.000000000  0.050000000

  length of vectors
    20.000000000 20.000000000 20.000000000     0.050000000  0.050000000  0.050000000


 FORCES acting on ions
    electron-ion (+dipol)            ewald-force                    non-local-force                 convergence-correction
 -----------------------------------------------------------------------------------------------
   0.115E+02 -.184E+02 0.873E+02   -.116E+02 0.187E+02 -.886E+02   0.173E+00 -.271E+00 0.129E+01   -.154E-03 -.591E-04 0.203E-03
   0.876E+02 -.512E+01 0.462E+02   -.892E+02 0.519E+01 -.470E+02   0.160E+01 -.721E-01 0.758E+00   0.118E-02 -.183E-03 0.112E-02
   -.375E+02 0.543E+02 0.728E+02   0.380E+02 -.551E+02 -.748E+02   -.509E+00 0.759E+00 0.199E+01   -.661E-03 0.991E-03 0.420E-03
   -.298E+02 -.831E+02 0.431E+02   0.302E+02 0.846E+02 -.446E+02   -.377E+00 -.156E+01 0.148E+01   -.540E-03 -.114E-02 -.232E-04
   0.791E+02 0.136E+02 -.420E+02   -.810E+02 -.137E+02 0.419E+02   0.185E+01 0.764E-01 0.119E+00   -.874E-03 -.901E-04 0.132E-03
   -.517E+02 0.764E+02 -.111E+02   0.520E+02 -.770E+02 0.108E+02   -.359E+00 0.523E+00 0.349E+00   -.316E-03 -.255E-03 0.421E-03
   -.435E+02 -.700E+02 -.430E+02   0.438E+02 0.707E+02 0.429E+02   -.292E+00 -.657E+00 0.934E-01   -.326E-03 0.224E-04 0.479E-03
   -.865E+02 0.518E+01 -.462E+02   0.874E+02 -.524E+01 0.467E+02   -.913E+00 0.597E-01 -.510E+00   0.610E-03 -.900E-04 0.585E-03
   0.272E+02 0.838E+02 -.459E+02   -.277E+02 -.844E+02 0.464E+02   0.509E+00 0.629E+00 -.491E+00   -.670E-03 -.392E-03 0.196E-03
   0.350E+02 -.541E+02 -.757E+02   -.355E+02 0.544E+02 0.764E+02   0.562E+00 -.311E+00 -.695E+00   -.692E-03 0.195E-03 0.333E-03
   0.201E+02 0.396E+02 0.543E+01   -.212E+02 -.416E+02 -.647E+01   0.116E+01 0.196E+01 0.104E+01   0.121E-03 0.477E-03 0.416E-03
   0.958E+00 0.214E+02 -.392E+02   -.640E+00 -.220E+02 0.417E+02   -.322E+00 0.536E+00 -.244E+01   -.266E-03 -.605E-04 -.133E-03
   -.254E+02 0.385E+02 -.422E+01   0.267E+02 -.405E+02 0.444E+01   -.134E+01 0.206E+01 -.223E+00   -.156E-03 0.153E-04 -.165E-03
   -.438E+02 -.357E+01 0.504E+01   0.461E+02 0.392E+01 -.606E+01   -.227E+01 -.350E+00 0.103E+01   0.205E-03 -.780E-04 0.413E-03
   -.196E+02 0.743E+01 -.392E+02   0.200E+02 -.794E+01 0.416E+02   -.339E+00 0.512E+00 -.244E+01   0.455E-03 -.156E-04 0.199E-03
   -.367E+02 0.499E+01 0.289E+02   0.393E+02 -.458E+01 -.302E+02   -.261E+01 -.406E+00 0.133E+01   0.291E-03 0.427E-03 -.305E-03
   0.901E+01 0.357E+02 0.292E+02   -.104E+02 -.379E+02 -.305E+02   0.136E+01 0.225E+01 0.135E+01   -.501E-03 -.903E-04 -.264E-03
   0.700E+01 -.999E+01 0.475E+02   -.742E+01 0.106E+02 -.503E+02   0.425E+00 -.584E+00 0.280E+01   -.705E-04 -.740E-04 0.322E-03
   -.212E+02 -.358E+02 -.204E+02   0.224E+02 0.377E+02 0.215E+02   -.112E+01 -.191E+01 -.109E+01   -.155E-03 0.424E-04 -.157E-03
   0.234E+01 -.311E+01 -.444E+02   -.202E+01 0.262E+01 0.469E+02   -.319E+00 0.489E+00 -.245E+01   -.266E-03 0.755E-04 -.974E-04
   0.243E+02 -.361E+02 -.111E+02   -.257E+02 0.381E+02 0.109E+02   0.139E+01 -.208E+01 0.167E+00   0.177E-03 -.591E-03 0.191E-03
   0.434E+02 0.693E+01 -.206E+02   -.461E+02 -.734E+01 0.218E+02   0.262E+01 0.411E+00 -.122E+01   0.402E-03 0.133E-03 -.526E-03
   0.321E+02 0.250E+02 0.241E+02   -.335E+02 -.272E+02 -.254E+02   0.140E+01 0.222E+01 0.135E+01   0.311E-03 -.478E-03 -.369E-04
   0.351E+02 -.291E+02 0.124E+02   -.368E+02 0.315E+02 -.127E+02   0.166E+01 -.241E+01 0.340E+00   0.252E-03 0.482E-03 0.174E-03
   0.135E+02 -.432E+02 0.121E+02   -.151E+02 0.456E+02 -.124E+02   0.162E+01 -.245E+01 0.334E+00   -.511E-03 0.135E-03 -.199E-03
   -.353E+02 -.203E+02 0.234E+02   0.379E+02 0.208E+02 -.248E+02   -.261E+01 -.464E+00 0.132E+01   0.331E-03 -.229E-03 -.445E-03
 -----------------------------------------------------------------------------------------------
   -.295E+01 0.105E+01 -.560E+01   0.355E-13 0.124E-12 0.178E-13   0.295E+01 -.105E+01 0.560E+01   -.182E-02 -.830E-03 0.325E-02
 
 
 POSITION                                       TOTAL-FORCE (eV/Angst)
 -----------------------------------------------------------------------------------
      9.51338     11.11812      7.72656         0.002545      0.002598     -0.011377
      7.41351     10.78021      8.74176         0.000408     -0.001188      0.005731
     10.82555      9.17044      7.89978        -0.001904      0.000078     -0.003397
     10.61397     12.94767      8.71980        -0.001875      0.001010     -0.002948
      7.65579     10.29695     11.02988         0.017780      0.000550      0.001924
     11.16960      8.62874     10.21437        -0.006331      0.004331      0.001823
     10.95166     12.51719     11.05854        -0.005665     -0.005220     -0.000008
     12.32062     10.49638     11.31451        -0.012568     -0.000851      0.000790
      8.98179      8.30598     11.28296         0.003201      0.019186      0.000634
      8.76734     12.13398     12.11414         0.005364     -0.017391     -0.007066
      8.25793      7.08843     10.63236         0.002920      0.011349      0.003299
      9.18013      7.97546     12.79182        -0.003825     -0.003004      0.005110
     12.01904      7.32468     10.35386        -0.006503      0.007408     -0.005216
     13.72578     10.71355     10.67651        -0.003169     -0.001620      0.006634
     12.53140     10.18045     12.82472         0.009304     -0.000403      0.005069
     12.14756      9.37894      7.22476        -0.007581      0.004469      0.001443
     10.13517      8.02967      7.21391         0.002842      0.014012      0.005676
      9.29236     11.42168      6.27121        -0.002166      0.001809     -0.008489
     11.65975     13.72959     11.74427        -0.005716     -0.005085     -0.007803
      8.96428     11.83010     13.62877        -0.003611     -0.000071      0.005973
      7.90292     13.42678     12.00865         0.004110     -0.011547     -0.001301
      6.30765     10.08548     11.65603        -0.007731     -0.000616      0.000220
      6.70515      9.64883      8.05778         0.011121      0.003739      0.002654
      6.57252     12.01027      8.57028         0.011451     -0.003386      0.001248
      9.78982     14.18892      8.55121         0.004737     -0.014710      0.000023
     11.93471     13.17952      8.04990        -0.007139     -0.005447     -0.000649
 -----------------------------------------------------------------------------------
    total drift:                                0.000266      0.001101      0.000603


--------------------------------------------------------------------------------------------------------



  FREE ENERGIE OF THE ION-ELECTRON SYSTEM (eV)
  ---------------------------------------------------
  free  energy   TOTEN  =      -101.24048041 eV

  energy  without entropy=     -101.24048041  energy(sigma->0) =     -101.24048041
 
 d Force = 0.4122369E-04[ 0.101E-05, 0.814E-04]  d Energy = 0.4101318E-04 0.211E-06
 d Force =-0.1340650E+00[-0.134E+00,-0.134E+00]  d Ewald  =-0.1340650E+00-0.485E-08


--------------------------------------------------------------------------------------------------------


    POTLOK:  cpu time    1.7507: real time    1.7495


--------------------------------------------------------------------------------------------------------




--------------------------------------------------------------------------------------------------------


  
 reached required accuracy - stopping structural energy minimisation
 writing wavefunctions
     LOOP+:  cpu time   51.6821: real time   52.1098
    4ORBIT:  cpu time    0.0000: real time    0.0000

 total amount of memory used by VASP MPI-rank0   131440. kBytes
=======================================================================

   base      :      30000. kBytes
   nonl-proj :      17624. kBytes
   fftplans  :      26957. kBytes
   grid      :      48673. kBytes
   one-center:         40. kBytes
   wavefun   :       8146. kBytes
 
  
  
 General timing and accounting informations for this job:
 ========================================================
  
                  Total CPU time used (sec):     2380.004
                            User time (sec):     2350.674
                          System time (sec):       29.331
                         Elapsed time (sec):     2385.106
  
                   Maximum memory used (kb):      185172.
                   Average memory used (kb):           0.
  
                          Minor page faults:      5481553
                          Major page faults:           11
                 Voluntary context switches:         3107
