 vasp.5.4.4.18Apr17-6-g9f103f2a35 (build Nov 06 2017 19:16:10) complex          
  
 executed on           IFC91_ompi date 2018.07.10  16:36:37
 running on   12 total cores
 distrk:  each k-point on   12 cores,    1 groups
 distr:  one band on NCORES_PER_BAND=   6 cores,    2 groups


--------------------------------------------------------------------------------------------------------


 INCAR:
 POTCAR:    PAW_PBE Si 05Jan2001                  
 POTCAR:    PAW_PBE Ge 05Jan2001                  
 POTCAR:    PAW_PBE H 15Jun2001                   
 POTCAR:    PAW_PBE Si 05Jan2001                  
   VRHFIN =Si: s2p2                                                             
   LEXCH  = PE                                                                  
   EATOM  =   103.0669 eV,    7.5752 Ry                                         
                                                                                
   TITEL  = PAW_PBE Si 05Jan2001                                                
   LULTRA =        F    use ultrasoft PP ?                                      
   IUNSCR =        1    unscreen: 0-lin 1-nonlin 2-no                           
   RPACOR =    1.500    partial core radius                                     
   POMASS =   28.085; ZVAL   =    4.000    mass and valenz                      
   RCORE  =    1.900    outmost cutoff radius                                   
   RWIGS  =    2.480; RWIGS  =    1.312    wigner-seitz radius (au A)           
   ENMAX  =  245.345; ENMIN  =  184.009 eV                                      
   ICORE  =        2    local potential                                         
   LCOR   =        T    correct aug charges                                     
   LPAW   =        T    paw PP                                                  
   EAUG   =  322.069                                                            
   DEXC   =    0.000                                                            
   RMAX   =    1.950    core radius for proj-oper                               
   RAUG   =    1.300    factor for augmentation sphere                          
   RDEP   =    1.993    radius for radial grids                                 
   RDEPT  =    1.837    core radius for aug-charge                              
                                                                                
   Atomic configuration                                                         
    6 entries                                                                   
     n  l   j            E        occ.                                          
     1  0  0.50     -1785.8828   2.0000                                         
     2  0  0.50      -139.4969   2.0000                                         
     2  1  1.50       -95.5546   6.0000                                         
     3  0  0.50       -10.8127   2.0000                                         
     3  1  0.50        -4.0811   2.0000                                         
     3  2  1.50        -4.0817   0.0000                                         
   Description                                                                  
     l       E           TYP  RCUT    TYP  RCUT                                 
     0    -10.8127223     23  1.900                                             
     0     -7.6451159     23  1.900                                             
     1     -4.0811372     23  1.900                                             
     1      2.4879257     23  1.900                                             
     2     -4.0817478      7  1.900                                             
  local pseudopotential read in
  partial core-charges read in
  partial kinetic energy density read in
  atomic valenz-charges read in
  non local Contribution for L=           0  read in
    real space projection operators read in
  non local Contribution for L=           0  read in
    real space projection operators read in
  non local Contribution for L=           1  read in
    real space projection operators read in
  non local Contribution for L=           1  read in
    real space projection operators read in
    PAW grid and wavefunctions read in
 
   number of l-projection  operators is LMAX  =           4
   number of lm-projection operators is LMMAX =           8
 
 POTCAR:    PAW_PBE Ge 05Jan2001                  
   VRHFIN =Ge: s2p2                                                             
   LEXCH  = PE                                                                  
   EATOM  =   104.9960 eV,    7.7170 Ry                                         
                                                                                
   TITEL  = PAW_PBE Ge 05Jan2001                                                
   LULTRA =        F    use ultrasoft PP ?                                      
   IUNSCR =        1    unscreen: 0-lin 1-nonlin 2-no                           
   RPACOR =    2.170    partial core radius                                     
   POMASS =   72.610; ZVAL   =    4.000    mass and valenz                      
   RCORE  =    2.300    outmost cutoff radius                                   
   RWIGS  =    2.300; RWIGS  =    1.217    wigner-seitz radius (au A)           
   ENMAX  =  173.807; ENMIN  =  130.355 eV                                      
   ICORE  =        3    local potential                                         
   LCOR   =        T    correct aug charges                                     
   LPAW   =        T    paw PP                                                  
   EAUG   =  385.843                                                            
   DEXC   =    0.000                                                            
   RMAX   =    2.342    core radius for proj-oper                               
   RAUG   =    1.300    factor for augmentation sphere                          
   RDEP   =    2.318    radius for radial grids                                 
   RDEPT  =    2.103    core radius for aug-charge                              
                                                                                
   Atomic configuration                                                         
   10 entries                                                                   
     n  l   j            E        occ.                                          
     1  0  0.50    -10959.8463   2.0000                                         
     2  0  0.50     -1371.6056   2.0000                                         
     2  1  1.50     -1198.4791   6.0000                                         
     3  0  0.50      -168.4733   2.0000                                         
     3  1  1.50      -115.6019   6.0000                                         
     3  2  2.50       -29.3106  10.0000                                         
     4  0  0.50       -11.7309   2.0000                                         
     4  1  0.50        -3.8952   2.0000                                         
     4  2  1.50        -4.0817   0.0000                                         
     4  3  2.50        -4.0817   0.0000                                         
   Description                                                                  
     l       E           TYP  RCUT    TYP  RCUT                                 
     0    -11.7309493     23  2.300                                             
     0     -7.4578696     23  2.300                                             
     1     -3.8952261     23  2.300                                             
     1      6.1178114     23  2.300                                             
     2     -4.0817478     23  2.300                                             
     3     -1.3605826      7  2.300                                             
  local pseudopotential read in
  partial core-charges read in
  partial kinetic energy density read in
  atomic valenz-charges read in
  non local Contribution for L=           0  read in
    real space projection operators read in
  non local Contribution for L=           0  read in
    real space projection operators read in
  non local Contribution for L=           1  read in
    real space projection operators read in
  non local Contribution for L=           1  read in
    real space projection operators read in
  non local Contribution for L=           2  read in
    real space projection operators read in
    PAW grid and wavefunctions read in
 
   number of l-projection  operators is LMAX  =           5
   number of lm-projection operators is LMMAX =          13
 
 POTCAR:    PAW_PBE H 15Jun2001                   
   VRHFIN =H: ultrasoft test                                                    
   LEXCH  = PE                                                                  
   EATOM  =    12.4884 eV,    0.9179 Ry                                         
                                                                                
   TITEL  = PAW_PBE H 15Jun2001                                                 
   LULTRA =        F    use ultrasoft PP ?                                      
   IUNSCR =        0    unscreen: 0-lin 1-nonlin 2-no                           
   RPACOR =    0.000    partial core radius                                     
   POMASS =    1.000; ZVAL   =    1.000    mass and valenz                      
   RCORE  =    1.100    outmost cutoff radius                                   
   RWIGS  =    0.700; RWIGS  =    0.370    wigner-seitz radius (au A)           
   ENMAX  =  250.000; ENMIN  =  200.000 eV                                      
   RCLOC  =    0.701    cutoff for local pot                                    
   LCOR   =        T    correct aug charges                                     
   LPAW   =        T    paw PP                                                  
   EAUG   =  400.000                                                            
   RMAX   =    1.123    core radius for proj-oper                               
   RAUG   =    1.200    factor for augmentation sphere                          
   RDEP   =    1.112    radius for radial grids                                 
   RDEPT  =    0.926    core radius for aug-charge                              
                                                                                
   Atomic configuration                                                         
    2 entries                                                                   
     n  l   j            E        occ.                                          
     1  0  0.50        -6.4927   1.0000                                         
     2  1  0.50        -3.4015   0.0000                                         
   Description                                                                  
     l       E           TYP  RCUT    TYP  RCUT                                 
     0     -6.4927494     23  1.100                                             
     0      6.8029130     23  1.100                                             
     1     -4.0817478     23  1.100                                             
  local pseudopotential read in
  atomic valenz-charges read in
  non local Contribution for L=           0  read in
    real space projection operators read in
  non local Contribution for L=           0  read in
    real space projection operators read in
  non local Contribution for L=           1  read in
    real space projection operators read in
    PAW grid and wavefunctions read in
 
   number of l-projection  operators is LMAX  =           3
   number of lm-projection operators is LMMAX =           5
 

 ----------------------------------------------------------------------------- 
|                                                                             |
|  ADVICE TO THIS USER RUNNING 'VASP/VAMP'   (HEAR YOUR MASTER'S VOICE ...):  |
|                                                                             |
|      You have a (more or less) 'large supercell' and for larger cells       |
|      it might be more efficient to use real space projection opertators     |
|      So try LREAL= Auto  in the INCAR   file.                               |
|      Mind:          For very  accurate calculation you might also keep the  |
|      reciprocal projection scheme          (i.e. LREAL=.FALSE.)             |
|                                                                             |
 ----------------------------------------------------------------------------- 

  PAW_PBE Si 05Jan2001                  :
 energy of atom  1       EATOM= -103.0669
 kinetic energy error for atom=    0.0012 (will be added to EATOM!!)
  PAW_PBE Ge 05Jan2001                  :
 energy of atom  2       EATOM= -104.9960
 kinetic energy error for atom=    0.0003 (will be added to EATOM!!)
  PAW_PBE H 15Jun2001                   :
 energy of atom  3       EATOM=  -12.4884
 kinetic energy error for atom=    0.0098 (will be added to EATOM!!)
 
 
 POSCAR: SiGeH16                                 
  positions in direct lattice
  No initial velocities read in
 exchange correlation table for  LEXCH =        8
   RHO(1)=    0.500       N(1)  =     2000
   RHO(2)=  100.500       N(2)  =     4000
 


--------------------------------------------------------------------------------------------------------


 ion  position               nearest neighbor table
   1  0.475  0.556  0.385-  18 1.55   6 2.39   2 2.39   5 2.39
   2  0.369  0.539  0.436-  23 1.55  24 1.55   7 2.39   1 2.39
   3  0.557  0.433  0.512-  13 1.55   5 2.39   9 2.39  10 2.39
   4  0.440  0.606  0.605-  20 1.55  21 1.55   7 2.39   8 2.39
   5  0.542  0.457  0.396-  17 1.55  16 1.55   3 2.39   1 2.39
   6  0.531  0.648  0.437-  25 1.55  26 1.55   8 2.39   1 2.39
   7  0.385  0.515  0.552-  22 1.55   4 2.39  10 2.39   2 2.39
   8  0.547  0.624  0.554-  19 1.55   6 2.39   9 2.39   4 2.39
   9  0.613  0.525  0.565-  15 1.55  14 1.55   8 2.39   3 2.39
  10  0.451  0.416  0.564-  12 1.55  11 1.55   7 2.39   3 2.39
  11  0.415  0.357  0.529-  10 1.55
  12  0.461  0.400  0.639-  10 1.55
  13  0.600  0.369  0.520-   3 1.55
  14  0.682  0.536  0.531-   9 1.55
  15  0.623  0.509  0.640-   9 1.55
  16  0.611  0.469  0.363-   5 1.55
  17  0.506  0.398  0.362-   5 1.55
  18  0.465  0.572  0.309-   1 1.55
  19  0.583  0.683  0.588-   8 1.55
  20  0.451  0.590  0.680-   4 1.55
  21  0.397  0.670  0.598-   4 1.55
  22  0.316  0.504  0.586-   7 1.55
  23  0.333  0.479  0.402-   2 1.55
  24  0.326  0.603  0.429-   2 1.55
  25  0.488  0.712  0.430-   6 1.55
  26  0.600  0.659  0.404-   6 1.55
 
  LATTYP: Found a simple cubic cell.
 ALAT       =    20.0000000000
  
  Lattice vectors:
  
 A1 = (  20.0000000000,   0.0000000000,   0.0000000000)
 A2 = (   0.0000000000,  20.0000000000,   0.0000000000)
 A3 = (   0.0000000000,   0.0000000000,  20.0000000000)


Analysis of symmetry for initial positions (statically):
=====================================================================
 Subroutine PRICEL returns:
 Original cell was already a primitive cell.
 

 Routine SETGRP: Setting up the symmetry group for a 
 simple cubic supercell.


 Subroutine GETGRP returns: Found  1 space group operations
 (whereof  1 operations were pure point group operations)
 out of a pool of 48 trial point group operations.


The static configuration has the point symmetry C_1 .


Analysis of symmetry for dynamics (positions and initial velocities):
=====================================================================
 Subroutine PRICEL returns:
 Original cell was already a primitive cell.
 

 Routine SETGRP: Setting up the symmetry group for a 
 simple cubic supercell.


 Subroutine GETGRP returns: Found  1 space group operations
 (whereof  1 operations were pure point group operations)
 out of a pool of 48 trial point group operations.


The dynamic configuration has the point symmetry C_1 .


 Subroutine INISYM returns: Found  1 space group operations
 (whereof  1 operations are pure point group operations),
 and found     1 'primitive' translations

 
 
 KPOINTS: Automatic mesh                          

Automatic generation of k-mesh.
Space group operators:
 irot       det(A)        alpha          n_x          n_y          n_z        tau_x        tau_y        tau_z
    1     1.000000     0.000000     1.000000     0.000000     0.000000     0.000000     0.000000     0.000000
 
 Subroutine IBZKPT returns following result:
 ===========================================
 
 Found      1 irreducible k-points:
 
 Following reciprocal coordinates:
            Coordinates               Weight
  0.000000  0.000000  0.000000      1.000000
 
 Following cartesian coordinates:
            Coordinates               Weight
  0.000000  0.000000  0.000000      1.000000
 


--------------------------------------------------------------------------------------------------------




 Dimension of arrays:
   k-points           NKPTS =      1   k-points in BZ     NKDIM =      1   number of bands    NBANDS=     42
   number of dos      NEDOS =    301   number of ions     NIONS =     26
   non local maximal  LDIM  =      5   non local SUM 2l+1 LMDIM =     13
   total plane-waves  NPLWV = 941192
   max r-space proj   IRMAX =      1   max aug-charges    IRDMAX=   6593
   dimension x,y,z NGX =    98 NGY =   98 NGZ =   98
   dimension x,y,z NGXF=   196 NGYF=  196 NGZF=  196
   support grid    NGXF=   196 NGYF=  196 NGZF=  196
   ions per type =               4   6  16
   NGX,Y,Z   is equivalent  to a cutoff of   8.15,  8.15,  8.15 a.u.
   NGXF,Y,Z  is equivalent  to a cutoff of  16.29, 16.29, 16.29 a.u.

 SYSTEM =  SiGe                                    
 POSCAR =  SiGeH16                                 

 Startparameter for this run:
   NWRITE =      2    write-flag & timer
   PREC   = normal    normal or accurate (medium, high low for compatibility)
   ISTART =      0    job   : 0-new  1-cont  2-samecut
   ICHARG =      2    charge: 1-file 2-atom 10-const
   ISPIN  =      1    spin polarized calculation?
   LNONCOLLINEAR =      F non collinear calculations
   LSORBIT =      F    spin-orbit coupling
   INIWAV =      1    electr: 0-lowe 1-rand  2-diag
   LASPH  =      F    aspherical Exc in radial PAW
   METAGGA=      F    non-selfconsistent MetaGGA calc.

 Electronic Relaxation 1
   ENCUT  =  400.0 eV  29.40 Ry    5.42 a.u.  32.61 32.61 32.61*2*pi/ulx,y,z
   ENINI  =  400.0     initial cutoff
   ENAUG  =  400.0 eV  augmentation charge cutoff
   NELM   =     60;   NELMIN=  2; NELMDL= -5     # of ELM steps 
   EDIFF  = 0.1E-05   stopping-criterion for ELM
   LREAL  =      F    real-space projection
   NLSPLINE    = F    spline interpolate recip. space projectors
   LCOMPAT=      F    compatible to vasp.4.4
   GGA_COMPAT  = T    GGA compatible to vasp.4.4-vasp.4.6
   LMAXPAW     = -100 max onsite density
   LMAXMIX     =    2 max onsite mixed and CHGCAR
   VOSKOWN=      0    Vosko Wilk Nusair interpolation
   ROPT   =    0.00000   0.00000   0.00000
 Ionic relaxation
   EDIFFG = -.2E-01   stopping-criterion for IOM
   NSW    =    200    number of steps for IOM
   NBLOCK =      1;   KBLOCK =    200    inner block; outer block 
   IBRION =      2    ionic relax: 0-MD 1-quasi-New 2-CG
   NFREE  =      1    steps in history (QN), initial steepest desc. (CG)
   ISIF   =      2    stress and relaxation
   IWAVPR =     11    prediction:  0-non 1-charg 2-wave 3-comb
   ISYM   =      2    0-nonsym 1-usesym 2-fastsym
   LCORR  =      T    Harris-Foulkes like correction to forces

   POTIM  = 0.5000    time-step for ionic-motion
   TEIN   =    0.0    initial temperature
   TEBEG  =    0.0;   TEEND  =   0.0 temperature during run
   SMASS  =  -3.00    Nose mass-parameter (am)
   estimated Nose-frequenzy (Omega)   =  0.10E-29 period in steps =****** mass=  -0.914E-26a.u.
   SCALEE = 1.0000    scale energy and forces
   NPACO  =    256;   APACO  = 16.0  distance and # of slots for P.C.
   PSTRESS=    0.0 pullay stress

  Mass of Ions in am
   POMASS =  28.09 72.61  1.00
  Ionic Valenz
   ZVAL   =   4.00  4.00  1.00
  Atomic Wigner-Seitz radii
   RWIGS  =  -1.00 -1.00 -1.00
  virtual crystal weights 
   VCA    =   1.00  1.00  1.00
   NELECT =      56.0000    total number of electrons
   NUPDOWN=      -1.0000    fix difference up-down

 DOS related values:
   EMIN   =  10.00;   EMAX   =-10.00  energy-range for DOS
   EFERMI =   0.00
   ISMEAR =     0;   SIGMA  =   0.20  broadening in eV -4-tet -1-fermi 0-gaus

 Electronic relaxation 2 (details)
   IALGO  =     38    algorithm
   LDIAG  =      T    sub-space diagonalisation (order eigenvalues)
   LSUBROT=      F    optimize rotation matrix (better conditioning)
   TURBO    =      0    0=normal 1=particle mesh
   IRESTART =      0    0=no restart 2=restart with 2 vectors
   NREBOOT  =      0    no. of reboots
   NMIN     =      0    reboot dimension
   EREF     =   0.00    reference energy to select bands
   IMIX   =      4    mixing-type and parameters
     AMIX     =   0.40;   BMIX     =  1.00
     AMIX_MAG =   1.60;   BMIX_MAG =  1.00
     AMIN     =   0.10
     WC   =   100.;   INIMIX=   1;  MIXPRE=   1;  MAXMIX= -45

 Intra band minimization:
   WEIMIN = 0.0010     energy-eigenvalue tresh-hold
   EBREAK =  0.60E-08  absolut break condition
   DEPER  =   0.30     relativ break condition  

   TIME   =   0.40     timestep for ELM

  volume/ion in A,a.u.               =     307.69      2076.41
  Fermi-wavevector in a.u.,A,eV,Ry     =   0.313166  0.591797  1.334361  0.098073
  Thomas-Fermi vector in A             =   1.193276
 
 Write flags
   LWAVE        =      T    write WAVECAR
   LDOWNSAMPLE  =      F    k-point downsampling of WAVECAR
   LCHARG       =      T    write CHGCAR
   LVTOT        =      F    write LOCPOT, total local potential
   LVHAR        =      F    write LOCPOT, Hartree potential only
   LELF         =      F    write electronic localiz. function (ELF)
   LORBIT       =      0    0 simple, 1 ext, 2 COOP (PROOUT), +10 PAW based schemes


 Dipole corrections
   LMONO  =      F    monopole corrections only (constant potential shift)
   LDIPOL =      F    correct potential (dipole corrections)
   IDIPOL =      0    1-x, 2-y, 3-z, 4-all directions 
   EPSILON=  1.0000000 bulk dielectric constant

 Exchange correlation treatment:
   GGA     =    --    GGA type
   LEXCH   =     8    internal setting for exchange type
   VOSKOWN=      0    Vosko Wilk Nusair interpolation
   LHFCALC =     F    Hartree Fock is set to
   LHFONE  =     F    Hartree Fock one center treatment
   AEXX    =    0.0000 exact exchange contribution

 Linear response parameters
   LEPSILON=     F    determine dielectric tensor
   LRPA    =     F    only Hartree local field effects (RPA)
   LNABLA  =     F    use nabla operator in PAW spheres
   LVEL    =     F    velocity operator in full k-point grid
   LINTERFAST=   F  fast interpolation
   KINTER  =     0    interpolate to denser k-point grid
   CSHIFT  =0.1000    complex shift for real part using Kramers Kronig
   OMEGAMAX=  -1.0    maximum frequency
   DEG_THRESHOLD= 0.2000000E-02 threshold for treating states as degnerate
   RTIME   =   -0.100 relaxation time in fs
  (WPLASMAI=    0.000 imaginary part of plasma frequency in eV, 0.658/RTIME)
   DFIELD  = 0.0000000 0.0000000 0.0000000 field for delta impulse in time
 
 Orbital magnetization related:
   ORBITALMAG=     F  switch on orbital magnetization
   LCHIMAG   =     F  perturbation theory with respect to B field
   DQ        =  0.001000  dq finite difference perturbation B field
   LLRAUG    =     F  two centre corrections for induced B field



--------------------------------------------------------------------------------------------------------


 conjugate gradient relaxation of ions
 charge density and potential will be updated during run
 non-spin polarized calculation
 Variant of blocked Davidson
 Davidson routine will perform the subspace rotation
 perform sub-space diagonalisation
    after iterative eigenvector-optimisation
 modified Broyden-mixing scheme, WC =      100.0
 initial mixing is a Kerker type mixing with AMIX =  0.4000 and BMIX =      1.0000
 Hartree-type preconditioning will be used
 using additional bands           14
 reciprocal scheme for non local part
 use partial core corrections
 calculate Harris-corrections to forces 
   (improved forces if not selfconsistent)
 use gradient corrections 
 use of overlap-Matrix (Vanderbilt PP)
 Gauss-broadening in eV      SIGMA  =   0.20


--------------------------------------------------------------------------------------------------------


  energy-cutoff  :      400.00
  volume of cell :     8000.00
      direct lattice vectors                 reciprocal lattice vectors
    20.000000000  0.000000000  0.000000000     0.050000000  0.000000000  0.000000000
     0.000000000 20.000000000  0.000000000     0.000000000  0.050000000  0.000000000
     0.000000000  0.000000000 20.000000000     0.000000000  0.000000000  0.050000000

  length of vectors
    20.000000000 20.000000000 20.000000000     0.050000000  0.050000000  0.050000000


 
 k-points in units of 2pi/SCALE and weight: Automatic mesh                          
   0.00000000  0.00000000  0.00000000       1.000
 
 k-points in reciprocal lattice and weights: Automatic mesh                          
   0.00000000  0.00000000  0.00000000       1.000
 
 position of ions in fractional coordinates (direct lattice) 
   0.47547100  0.55626000  0.38465300
   0.36907800  0.53906000  0.43641200
   0.55736800  0.43311000  0.51215000
   0.44028400  0.60643000  0.60524300
   0.54179100  0.45744600  0.39613600
   0.53111600  0.64794100  0.43749600
   0.38461900  0.51474100  0.55243500
   0.54669200  0.62364400  0.55351800
   0.61299700  0.52481700  0.56496600
   0.45095700  0.41593600  0.56388300
   0.41490100  0.35665000  0.52940300
   0.46117000  0.40042600  0.63910800
   0.60034800  0.36907000  0.51957800
   0.68182700  0.53600700  0.53118700
   0.62280400  0.50903400  0.64018900
   0.61080000  0.46880600  0.36278200
   0.50550800  0.39805500  0.36207700
   0.46538400  0.57201900  0.30946400
   0.58275500  0.68306700  0.58775000
   0.45052500  0.59044300  0.68036400
   0.39732000  0.67044900  0.59753500
   0.31566200  0.50359800  0.58596500
   0.33322800  0.47946500  0.40225200
   0.32629100  0.60324700  0.42912600
   0.48792300  0.71185500  0.43020800
   0.60015100  0.65882400  0.40403700
 
 position of ions in cartesian coordinates  (Angst):
   9.50942000 11.12520000  7.69306000
   7.38156000 10.78120000  8.72824000
  11.14736000  8.66220000 10.24300000
   8.80568000 12.12860000 12.10486000
  10.83582000  9.14892000  7.92272000
  10.62232000 12.95882000  8.74992000
   7.69238000 10.29482000 11.04870000
  10.93384000 12.47288000 11.07036000
  12.25994000 10.49634000 11.29932000
   9.01914000  8.31872000 11.27766000
   8.29802000  7.13300000 10.58806000
   9.22340000  8.00852000 12.78216000
  12.00696000  7.38140000 10.39156000
  13.63654000 10.72014000 10.62374000
  12.45608000 10.18068000 12.80378000
  12.21600000  9.37612000  7.25564000
  10.11016000  7.96110000  7.24154000
   9.30768000 11.44038000  6.18928000
  11.65510000 13.66134000 11.75500000
   9.01050000 11.80886000 13.60728000
   7.94640000 13.40898000 11.95070000
   6.31324000 10.07196000 11.71930000
   6.66456000  9.58930000  8.04504000
   6.52582000 12.06494000  8.58252000
   9.75846000 14.23710000  8.60416000
  12.00302000 13.17648000  8.08074000
 


--------------------------------------------------------------------------------------------------------


 k-point  1 :   0.0000 0.0000 0.0000  plane waves:  145165

 maximum and minimum number of plane-waves per node :     24209    24180

 maximum number of plane-waves:    145165
 maximum index in each direction: 
   IXMAX=   32   IYMAX=   32   IZMAX=   32
   IXMIN=  -32   IYMIN=  -32   IZMIN=  -32


 parallel 3D FFT for wavefunctions:
    minimum data exchange during FFTs selected (reduces bandwidth)
 parallel 3D FFT for charge:
    minimum data exchange during FFTs selected (reduces bandwidth)


 total amount of memory used by VASP MPI-rank0   131440. kBytes
=======================================================================

   base      :      30000. kBytes
   nonl-proj :      17624. kBytes
   fftplans  :      26957. kBytes
   grid      :      48673. kBytes
   one-center:         40. kBytes
   wavefun   :       8146. kBytes
 
     INWAV:  cpu time    0.0000: real time    0.0000
 Broyden mixing: mesh for mixing (old mesh)
   NGX = 65   NGY = 65   NGZ = 65
  (NGX  =196   NGY  =196   NGZ  =196)
  gives a total of 274625 points

 initial charge density was supplied:
 charge density of overlapping atoms calculated
 number of electron      56.0000000 magnetization 
 keeping initial charge density in first step


--------------------------------------------------------------------------------------------------------


 Maximum index for augmentation-charges          565 (set IRDMAX)


--------------------------------------------------------------------------------------------------------


 First call to EWALD:  gamma=   0.089
 Maximum number of real-space cells 3x 3x 3
 Maximum number of reciprocal cells 3x 3x 3

    FEWALD:  cpu time    0.0030: real time    0.0027


--------------------------------------- Iteration      1(   1)  ---------------------------------------


    POTLOK:  cpu time    1.7657: real time    1.7684
    SETDIJ:  cpu time    0.0130: real time    0.0126
     EDDAV:  cpu time   11.4563: real time   11.4615
       DOS:  cpu time    0.0000: real time    0.0004
    --------------------------------------------
      LOOP:  cpu time   13.2350: real time   13.2429

 eigenvalue-minimisations  :   116
 total energy-change (2. order) : 0.2070229E+03  (-0.1047069E+04)
 number of electron      56.0000000 magnetization 
 augmentation part       56.0000000 magnetization 

 Free energy of the ion-electron system (eV)
  ---------------------------------------------------
  alpha Z        PSCENC =         2.51538199
  Ewald energy   TEWEN  =      2629.98113996
  -Hartree energ DENC   =     -3440.36169801
  -exchange      EXHF   =         0.00000000
  -V(xc)+E(xc)   XCENC  =       -49.25904579
  PAW double counting   =       915.51080863     -758.35430496
  entropy T*S    EENTRO =        -0.43766126
  eigenvalues    EBANDS =      -334.46681896
  atomic energy  EATOM  =      1241.89512738
  Solvation  Ediel_sol  =         0.00000000
  ---------------------------------------------------
  free energy    TOTEN  =       207.02292897 eV

  energy without entropy =      207.46059024  energy(sigma->0) =      207.24175961


--------------------------------------------------------------------------------------------------------




--------------------------------------- Iteration      1(   2)  ---------------------------------------


     EDDAV:  cpu time   13.7299: real time   13.7307
       DOS:  cpu time    0.0000: real time    0.0003
    --------------------------------------------
      LOOP:  cpu time   13.7299: real time   13.7310

 eigenvalue-minimisations  :   144
 total energy-change (2. order) :-0.2321699E+03  (-0.2171475E+03)
 number of electron      56.0000000 magnetization 
 augmentation part       56.0000000 magnetization 

 Free energy of the ion-electron system (eV)
  ---------------------------------------------------
  alpha Z        PSCENC =         2.51538199
  Ewald energy   TEWEN  =      2629.98113996
  -Hartree energ DENC   =     -3440.36169801
  -exchange      EXHF   =         0.00000000
  -V(xc)+E(xc)   XCENC  =       -49.25904579
  PAW double counting   =       915.51080863     -758.35430496
  entropy T*S    EENTRO =        -0.00000000
  eigenvalues    EBANDS =      -567.07434617
  atomic energy  EATOM  =      1241.89512738
  Solvation  Ediel_sol  =         0.00000000
  ---------------------------------------------------
  free energy    TOTEN  =       -25.14693697 eV

  energy without entropy =      -25.14693697  energy(sigma->0) =      -25.14693697


--------------------------------------------------------------------------------------------------------




--------------------------------------- Iteration      1(   3)  ---------------------------------------


     EDDAV:  cpu time   11.1863: real time   11.1872
       DOS:  cpu time    0.0000: real time    0.0002
    --------------------------------------------
      LOOP:  cpu time   11.1863: real time   11.1874

 eigenvalue-minimisations  :   112
 total energy-change (2. order) :-0.7509553E+02  (-0.7492671E+02)
 number of electron      56.0000000 magnetization 
 augmentation part       56.0000000 magnetization 

 Free energy of the ion-electron system (eV)
  ---------------------------------------------------
  alpha Z        PSCENC =         2.51538199
  Ewald energy   TEWEN  =      2629.98113996
  -Hartree energ DENC   =     -3440.36169801
  -exchange      EXHF   =         0.00000000
  -V(xc)+E(xc)   XCENC  =       -49.25904579
  PAW double counting   =       915.51080863     -758.35430496
  entropy T*S    EENTRO =        -0.00000000
  eigenvalues    EBANDS =      -642.16987889
  atomic energy  EATOM  =      1241.89512738
  Solvation  Ediel_sol  =         0.00000000
  ---------------------------------------------------
  free energy    TOTEN  =      -100.24246969 eV

  energy without entropy =     -100.24246969  energy(sigma->0) =     -100.24246969


--------------------------------------------------------------------------------------------------------




--------------------------------------- Iteration      1(   4)  ---------------------------------------


     EDDAV:  cpu time   10.5364: real time   10.5364
       DOS:  cpu time    0.0000: real time    0.0002
    --------------------------------------------
      LOOP:  cpu time   10.5364: real time   10.5366

 eigenvalue-minimisations  :   104
 total energy-change (2. order) :-0.4309302E+01  (-0.4293357E+01)
 number of electron      56.0000000 magnetization 
 augmentation part       56.0000000 magnetization 

 Free energy of the ion-electron system (eV)
  ---------------------------------------------------
  alpha Z        PSCENC =         2.51538199
  Ewald energy   TEWEN  =      2629.98113996
  -Hartree energ DENC   =     -3440.36169801
  -exchange      EXHF   =         0.00000000
  -V(xc)+E(xc)   XCENC  =       -49.25904579
  PAW double counting   =       915.51080863     -758.35430496
  entropy T*S    EENTRO =        -0.00000000
  eigenvalues    EBANDS =      -646.47918094
  atomic energy  EATOM  =      1241.89512738
  Solvation  Ediel_sol  =         0.00000000
  ---------------------------------------------------
  free energy    TOTEN  =      -104.55177174 eV

  energy without entropy =     -104.55177174  energy(sigma->0) =     -104.55177174


--------------------------------------------------------------------------------------------------------




--------------------------------------- Iteration      1(   5)  ---------------------------------------


     EDDAV:  cpu time   13.0750: real time   13.0747
       DOS:  cpu time    0.0000: real time    0.0003
    CHARGE:  cpu time    0.4869: real time    0.4880
    MIXING:  cpu time    0.0430: real time    0.0435
    --------------------------------------------
      LOOP:  cpu time   13.6049: real time   13.6065

 eigenvalue-minimisations  :   136
 total energy-change (2. order) :-0.7092200E-01  (-0.7085643E-01)
 number of electron      56.0000020 magnetization 
 augmentation part       -4.3460996 magnetization 

 Broyden mixing:
  rms(total) = 0.14505E+01    rms(broyden)= 0.14504E+01
  rms(prec ) = 0.15466E+01
  weight for this iteration     100.00

 Free energy of the ion-electron system (eV)
  ---------------------------------------------------
  alpha Z        PSCENC =         2.51538199
  Ewald energy   TEWEN  =      2629.98113996
  -Hartree energ DENC   =     -3440.36169801
  -exchange      EXHF   =         0.00000000
  -V(xc)+E(xc)   XCENC  =       -49.25904579
  PAW double counting   =       915.51080863     -758.35430496
  entropy T*S    EENTRO =        -0.00000000
  eigenvalues    EBANDS =      -646.55010294
  atomic energy  EATOM  =      1241.89512738
  Solvation  Ediel_sol  =         0.00000000
  ---------------------------------------------------
  free energy    TOTEN  =      -104.62269374 eV

  energy without entropy =     -104.62269374  energy(sigma->0) =     -104.62269374


--------------------------------------------------------------------------------------------------------




--------------------------------------- Iteration      1(   6)  ---------------------------------------


    POTLOK:  cpu time    1.7137: real time    1.7178
    SETDIJ:  cpu time    0.0080: real time    0.0078
     EDDAV:  cpu time    9.9285: real time    9.9295
       DOS:  cpu time    0.0010: real time    0.0004
    CHARGE:  cpu time    0.5049: real time    0.5048
    MIXING:  cpu time    0.0490: real time    0.0494
    --------------------------------------------
      LOOP:  cpu time   12.2051: real time   12.2096

 eigenvalue-minimisations  :    96
 total energy-change (2. order) : 0.3158994E+01  (-0.1571030E+00)
 number of electron      56.0000019 magnetization 
 augmentation part       -4.3467442 magnetization 

 Broyden mixing:
  rms(total) = 0.83839E+00    rms(broyden)= 0.83839E+00
  rms(prec ) = 0.89726E+00
  weight for this iteration     100.00

 eigenvalues of (default mixing * dielectric matrix)
  average eigenvalue GAMMA=   2.2989
  2.2989

 Free energy of the ion-electron system (eV)
  ---------------------------------------------------
  alpha Z        PSCENC =         2.51538199
  Ewald energy   TEWEN  =      2629.98113996
  -Hartree energ DENC   =     -3471.29180955
  -exchange      EXHF   =         0.00000000
  -V(xc)+E(xc)   XCENC  =       -45.63303503
  PAW double counting   =      1752.73018047    -1596.45344801
  entropy T*S    EENTRO =        -0.00000000
  eigenvalues    EBANDS =      -615.20723708
  atomic energy  EATOM  =      1241.89512738
  Solvation  Ediel_sol  =         0.00000000
  ---------------------------------------------------
  free energy    TOTEN  =      -101.46369986 eV

  energy without entropy =     -101.46369986  energy(sigma->0) =     -101.46369986


--------------------------------------------------------------------------------------------------------




--------------------------------------- Iteration      1(   7)  ---------------------------------------


    POTLOK:  cpu time    1.7077: real time    1.7077
    SETDIJ:  cpu time    0.0070: real time    0.0076
     EDDAV:  cpu time   11.1953: real time   11.1978
       DOS:  cpu time    0.0010: real time    0.0005
    CHARGE:  cpu time    0.4869: real time    0.4873
    MIXING:  cpu time    0.0470: real time    0.0475
    --------------------------------------------
      LOOP:  cpu time   13.4460: real time   13.4485

 eigenvalue-minimisations  :   112
 total energy-change (2. order) : 0.1652040E+01  (-0.3983260E+00)
 number of electron      56.0000017 magnetization 
 augmentation part       -4.3456922 magnetization 

 Broyden mixing:
  rms(total) = 0.12138E+00    rms(broyden)= 0.12123E+00
  rms(prec ) = 0.15263E+00
  weight for this iteration     100.00

 eigenvalues of (default mixing * dielectric matrix)
  average eigenvalue GAMMA=   1.8464
  1.7406  1.9523

 Free energy of the ion-electron system (eV)
  ---------------------------------------------------
  alpha Z        PSCENC =         2.51538199
  Ewald energy   TEWEN  =      2629.98113996
  -Hartree energ DENC   =     -3526.21246982
  -exchange      EXHF   =         0.00000000
  -V(xc)+E(xc)   XCENC  =       -39.90523049
  PAW double counting   =      3547.91063168    -3392.80228840
  entropy T*S    EENTRO =        -0.00000000
  eigenvalues    EBANDS =      -563.19395195
  atomic energy  EATOM  =      1241.89512738
  Solvation  Ediel_sol  =         0.00000000
  ---------------------------------------------------
  free energy    TOTEN  =       -99.81165964 eV

  energy without entropy =      -99.81165964  energy(sigma->0) =      -99.81165964


--------------------------------------------------------------------------------------------------------




--------------------------------------- Iteration      1(   8)  ---------------------------------------


    POTLOK:  cpu time    1.7117: real time    1.7105
    SETDIJ:  cpu time    0.0080: real time    0.0077
     EDDAV:  cpu time   11.2123: real time   11.2230
       DOS:  cpu time    0.0000: real time    0.0004
    CHARGE:  cpu time    0.4849: real time    0.4848
    MIXING:  cpu time    0.0490: real time    0.0492
    --------------------------------------------
      LOOP:  cpu time   13.4650: real time   13.4756

 eigenvalue-minimisations  :   112
 total energy-change (2. order) : 0.5415694E-01  (-0.2731157E-01)
 number of electron      56.0000017 magnetization 
 augmentation part       -4.3391935 magnetization 

 Broyden mixing:
  rms(total) = 0.60292E-01    rms(broyden)= 0.60278E-01
  rms(prec ) = 0.79471E-01
  weight for this iteration     100.00

 eigenvalues of (default mixing * dielectric matrix)
  average eigenvalue GAMMA=   1.9717
  2.6426  1.6362  1.6362

 Free energy of the ion-electron system (eV)
  ---------------------------------------------------
  alpha Z        PSCENC =         2.51538199
  Ewald energy   TEWEN  =      2629.98113996
  -Hartree energ DENC   =     -3534.48174196
  -exchange      EXHF   =         0.00000000
  -V(xc)+E(xc)   XCENC  =       -39.90551633
  PAW double counting   =      3578.64277659    -3423.45251070
  entropy T*S    EENTRO =        -0.00000000
  eigenvalues    EBANDS =      -554.95215962
  atomic energy  EATOM  =      1241.89512738
  Solvation  Ediel_sol  =         0.00000000
  ---------------------------------------------------
  free energy    TOTEN  =       -99.75750270 eV

  energy without entropy =      -99.75750270  energy(sigma->0) =      -99.75750270


--------------------------------------------------------------------------------------------------------




--------------------------------------- Iteration      1(   9)  ---------------------------------------


    POTLOK:  cpu time    1.7227: real time    1.7227
    SETDIJ:  cpu time    0.0080: real time    0.0078
     EDDAV:  cpu time   11.8002: real time   11.8174
       DOS:  cpu time    0.0000: real time    0.0004
    CHARGE:  cpu time    0.4899: real time    0.4892
    MIXING:  cpu time    0.0520: real time    0.0525
    --------------------------------------------
      LOOP:  cpu time   14.0729: real time   14.0900

 eigenvalue-minimisations  :   120
 total energy-change (2. order) : 0.3518393E-01  (-0.6904381E-02)
 number of electron      56.0000017 magnetization 
 augmentation part       -4.3244214 magnetization 

 Broyden mixing:
  rms(total) = 0.32413E-01    rms(broyden)= 0.32412E-01
  rms(prec ) = 0.44231E-01
  weight for this iteration     100.00

 eigenvalues of (default mixing * dielectric matrix)
  average eigenvalue GAMMA=   1.7515
  2.5002  1.8353  1.8353  0.8351

 Free energy of the ion-electron system (eV)
  ---------------------------------------------------
  alpha Z        PSCENC =         2.51538199
  Ewald energy   TEWEN  =      2629.98113996
  -Hartree energ DENC   =     -3546.05450605
  -exchange      EXHF   =         0.00000000
  -V(xc)+E(xc)   XCENC  =       -39.21280547
  PAW double counting   =      3710.84784293    -3555.70228852
  entropy T*S    EENTRO =        -0.00000000
  eigenvalues    EBANDS =      -543.99221099
  atomic energy  EATOM  =      1241.89512738
  Solvation  Ediel_sol  =         0.00000000
  ---------------------------------------------------
  free energy    TOTEN  =       -99.72231876 eV

  energy without entropy =      -99.72231876  energy(sigma->0) =      -99.72231876


--------------------------------------------------------------------------------------------------------




--------------------------------------- Iteration      1(  10)  ---------------------------------------


    POTLOK:  cpu time    1.7187: real time    1.7190
    SETDIJ:  cpu time    0.0080: real time    0.0078
     EDDAV:  cpu time   11.1923: real time   11.1924
       DOS:  cpu time    0.0000: real time    0.0003
    CHARGE:  cpu time    0.4909: real time    0.4912
    MIXING:  cpu time    0.0550: real time    0.0550
    --------------------------------------------
      LOOP:  cpu time   13.4650: real time   13.4658

 eigenvalue-minimisations  :   112
 total energy-change (2. order) :-0.8242075E-04  (-0.2635077E-03)
 number of electron      56.0000017 magnetization 
 augmentation part       -4.3236270 magnetization 

 Broyden mixing:
  rms(total) = 0.14618E-01    rms(broyden)= 0.14618E-01
  rms(prec ) = 0.27973E-01
  weight for this iteration     100.00

 eigenvalues of (default mixing * dielectric matrix)
  average eigenvalue GAMMA=   1.8882
  2.8316  2.2899  1.0695  1.6249  1.6249

 Free energy of the ion-electron system (eV)
  ---------------------------------------------------
  alpha Z        PSCENC =         2.51538199
  Ewald energy   TEWEN  =      2629.98113996
  -Hartree energ DENC   =     -3548.30473825
  -exchange      EXHF   =         0.00000000
  -V(xc)+E(xc)   XCENC  =       -39.20904214
  PAW double counting   =      3641.01061219    -3485.81548127
  entropy T*S    EENTRO =        -0.00000000
  eigenvalues    EBANDS =      -541.79540105
  atomic energy  EATOM  =      1241.89512738
  Solvation  Ediel_sol  =         0.00000000
  ---------------------------------------------------
  free energy    TOTEN  =       -99.72240119 eV

  energy without entropy =      -99.72240119  energy(sigma->0) =      -99.72240119


--------------------------------------------------------------------------------------------------------




--------------------------------------- Iteration      1(  11)  ---------------------------------------


    POTLOK:  cpu time    1.8107: real time    1.8142
    SETDIJ:  cpu time    0.0080: real time    0.0078
     EDDAV:  cpu time   10.4894: real time   10.5560
       DOS:  cpu time    0.0000: real time    0.0004
    CHARGE:  cpu time    0.4929: real time    0.4928
    MIXING:  cpu time    0.0580: real time    0.0576
    --------------------------------------------
      LOOP:  cpu time   12.8590: real time   12.9289

 eigenvalue-minimisations  :   104
 total energy-change (2. order) : 0.1618892E-03  (-0.6673514E-03)
 number of electron      56.0000017 magnetization 
 augmentation part       -4.3222167 magnetization 

 Broyden mixing:
  rms(total) = 0.81023E-02    rms(broyden)= 0.81020E-02
  rms(prec ) = 0.14363E-01
  weight for this iteration     100.00

 eigenvalues of (default mixing * dielectric matrix)
  average eigenvalue GAMMA=   1.8727
  3.2561  2.5718  1.7357  1.7357  1.0458  0.8910

 Free energy of the ion-electron system (eV)
  ---------------------------------------------------
  alpha Z        PSCENC =         2.51538199
  Ewald energy   TEWEN  =      2629.98113996
  -Hartree energ DENC   =     -3555.17031898
  -exchange      EXHF   =         0.00000000
  -V(xc)+E(xc)   XCENC  =       -39.00751242
  PAW double counting   =      3605.72214442    -3450.48879398
  entropy T*S    EENTRO =        -0.00000000
  eigenvalues    EBANDS =      -535.16940767
  atomic energy  EATOM  =      1241.89512738
  Solvation  Ediel_sol  =         0.00000000
  ---------------------------------------------------
  free energy    TOTEN  =       -99.72223930 eV

  energy without entropy =      -99.72223930  energy(sigma->0) =      -99.72223930


--------------------------------------------------------------------------------------------------------




--------------------------------------- Iteration      1(  12)  ---------------------------------------


    POTLOK:  cpu time    1.7307: real time    1.7304
    SETDIJ:  cpu time    0.0080: real time    0.0077
     EDDAV:  cpu time   10.5474: real time   10.5534
       DOS:  cpu time    0.0010: real time    0.0005
    CHARGE:  cpu time    0.4859: real time    0.4857
    MIXING:  cpu time    0.0610: real time    0.0616
    --------------------------------------------
      LOOP:  cpu time   12.8340: real time   12.8393

 eigenvalue-minimisations  :   104
 total energy-change (2. order) :-0.4410579E-02  (-0.1068704E-03)
 number of electron      56.0000017 magnetization 
 augmentation part       -4.3215203 magnetization 

 Broyden mixing:
  rms(total) = 0.57355E-02    rms(broyden)= 0.57355E-02
  rms(prec ) = 0.97879E-02
  weight for this iteration     100.00

 eigenvalues of (default mixing * dielectric matrix)
  average eigenvalue GAMMA=   2.0719
  4.5060  2.4631  2.4631  1.5527  1.5527  0.9827  0.9827

 Free energy of the ion-electron system (eV)
  ---------------------------------------------------
  alpha Z        PSCENC =         2.51538199
  Ewald energy   TEWEN  =      2629.98113996
  -Hartree energ DENC   =     -3557.44561830
  -exchange      EXHF   =         0.00000000
  -V(xc)+E(xc)   XCENC  =       -38.97137372
  PAW double counting   =      3598.37491727    -3443.13914309
  entropy T*S    EENTRO =        -0.00000000
  eigenvalues    EBANDS =      -532.93708137
  atomic energy  EATOM  =      1241.89512738
  Solvation  Ediel_sol  =         0.00000000
  ---------------------------------------------------
  free energy    TOTEN  =       -99.72664988 eV

  energy without entropy =      -99.72664988  energy(sigma->0) =      -99.72664988


--------------------------------------------------------------------------------------------------------




--------------------------------------- Iteration      1(  13)  ---------------------------------------


    POTLOK:  cpu time    1.7337: real time    1.7324
    SETDIJ:  cpu time    0.0070: real time    0.0077
     EDDAV:  cpu time   11.1023: real time   11.1706
       DOS:  cpu time    0.0000: real time    0.0005
    CHARGE:  cpu time    0.4889: real time    0.4888
    MIXING:  cpu time    0.0650: real time    0.0649
    --------------------------------------------
      LOOP:  cpu time   13.3970: real time   13.4649

 eigenvalue-minimisations  :   112
 total energy-change (2. order) :-0.4761671E-02  (-0.1689443E-03)
 number of electron      56.0000017 magnetization 
 augmentation part       -4.3213135 magnetization 

 Broyden mixing:
  rms(total) = 0.33710E-02    rms(broyden)= 0.33708E-02
  rms(prec ) = 0.51124E-02
  weight for this iteration     100.00

 eigenvalues of (default mixing * dielectric matrix)
  average eigenvalue GAMMA=   2.1903
  5.6325  2.9333  2.2875  1.8001  1.8001  0.9717  0.9717  1.1258

 Free energy of the ion-electron system (eV)
  ---------------------------------------------------
  alpha Z        PSCENC =         2.51538199
  Ewald energy   TEWEN  =      2629.98113996
  -Hartree energ DENC   =     -3560.14130602
  -exchange      EXHF   =         0.00000000
  -V(xc)+E(xc)   XCENC  =       -38.92118908
  PAW double counting   =      3604.41015262    -3449.18249193
  entropy T*S    EENTRO =        -0.00000000
  eigenvalues    EBANDS =      -530.28822646
  atomic energy  EATOM  =      1241.89512738
  Solvation  Ediel_sol  =         0.00000000
  ---------------------------------------------------
  free energy    TOTEN  =       -99.73141155 eV

  energy without entropy =      -99.73141155  energy(sigma->0) =      -99.73141155


--------------------------------------------------------------------------------------------------------




--------------------------------------- Iteration      1(  14)  ---------------------------------------


    POTLOK:  cpu time    1.7297: real time    1.7301
    SETDIJ:  cpu time    0.0080: real time    0.0077
     EDDAV:  cpu time   11.1623: real time   11.1752
       DOS:  cpu time    0.0010: real time    0.0005
    CHARGE:  cpu time    0.4869: real time    0.4876
    MIXING:  cpu time    0.0720: real time    0.0717
    --------------------------------------------
      LOOP:  cpu time   13.4600: real time   13.4728

 eigenvalue-minimisations  :   112
 total energy-change (2. order) :-0.3858321E-02  (-0.2961374E-04)
 number of electron      56.0000017 magnetization 
 augmentation part       -4.3208471 magnetization 

 Broyden mixing:
  rms(total) = 0.15702E-02    rms(broyden)= 0.15701E-02
  rms(prec ) = 0.27463E-02
  weight for this iteration     100.00

 eigenvalues of (default mixing * dielectric matrix)
  average eigenvalue GAMMA=   2.2817
  6.5354  2.8139  2.8139  2.0880  1.6180  1.6180  1.1236  0.9621  0.9621

 Free energy of the ion-electron system (eV)
  ---------------------------------------------------
  alpha Z        PSCENC =         2.51538199
  Ewald energy   TEWEN  =      2629.98113996
  -Hartree energ DENC   =     -3560.83576473
  -exchange      EXHF   =         0.00000000
  -V(xc)+E(xc)   XCENC  =       -38.93451052
  PAW double counting   =      3603.58087437    -3448.35312910
  entropy T*S    EENTRO =        -0.00000000
  eigenvalues    EBANDS =      -529.58438922
  atomic energy  EATOM  =      1241.89512738
  Solvation  Ediel_sol  =         0.00000000
  ---------------------------------------------------
  free energy    TOTEN  =       -99.73526987 eV

  energy without entropy =      -99.73526987  energy(sigma->0) =      -99.73526987


--------------------------------------------------------------------------------------------------------




--------------------------------------- Iteration      1(  15)  ---------------------------------------


    POTLOK:  cpu time    1.7247: real time    1.7242
    SETDIJ:  cpu time    0.0080: real time    0.0078
     EDDAV:  cpu time   11.1993: real time   11.1963
       DOS:  cpu time    0.0010: real time    0.0005
    CHARGE:  cpu time    0.4859: real time    0.4861
    MIXING:  cpu time    0.0780: real time    0.0774
    --------------------------------------------
      LOOP:  cpu time   13.4969: real time   13.4922

 eigenvalue-minimisations  :   112
 total energy-change (2. order) :-0.4325178E-02  (-0.5025063E-04)
 number of electron      56.0000017 magnetization 
 augmentation part       -4.3205715 magnetization 

 Broyden mixing:
  rms(total) = 0.13672E-02    rms(broyden)= 0.13672E-02
  rms(prec ) = 0.18367E-02
  weight for this iteration     100.00

 eigenvalues of (default mixing * dielectric matrix)
  average eigenvalue GAMMA=   2.3136
  6.7427  3.8130  2.6005  1.9864  1.9864  1.8245  1.2468  0.9462  0.9946  0.9946

 Free energy of the ion-electron system (eV)
  ---------------------------------------------------
  alpha Z        PSCENC =         2.51538199
  Ewald energy   TEWEN  =      2629.98113996
  -Hartree energ DENC   =     -3561.09014967
  -exchange      EXHF   =         0.00000000
  -V(xc)+E(xc)   XCENC  =       -38.94178110
  PAW double counting   =      3606.98137560    -3451.75409348
  entropy T*S    EENTRO =        -0.00000000
  eigenvalues    EBANDS =      -529.32659572
  atomic energy  EATOM  =      1241.89512738
  Solvation  Ediel_sol  =         0.00000000
  ---------------------------------------------------
  free energy    TOTEN  =       -99.73959505 eV

  energy without entropy =      -99.73959505  energy(sigma->0) =      -99.73959505


--------------------------------------------------------------------------------------------------------




--------------------------------------- Iteration      1(  16)  ---------------------------------------


    POTLOK:  cpu time    1.7037: real time    1.7218
    SETDIJ:  cpu time    0.0080: real time    0.0077
     EDDAV:  cpu time   11.0933: real time   11.1458
       DOS:  cpu time    0.0010: real time    0.0003
    CHARGE:  cpu time    0.4879: real time    0.4881
    MIXING:  cpu time    0.0850: real time    0.0855
    --------------------------------------------
      LOOP:  cpu time   13.3790: real time   13.4492

 eigenvalue-minimisations  :   112
 total energy-change (2. order) :-0.1236490E-02  (-0.7344560E-05)
 number of electron      56.0000017 magnetization 
 augmentation part       -4.3207695 magnetization 

 Broyden mixing:
  rms(total) = 0.59424E-03    rms(broyden)= 0.59423E-03
  rms(prec ) = 0.92297E-03
  weight for this iteration     100.00

 eigenvalues of (default mixing * dielectric matrix)
  average eigenvalue GAMMA=   2.4333
  7.4220  4.7385  2.6434  2.6434  1.8265  1.8265  1.3709  1.3709  0.9710  0.9710
  0.9823

 Free energy of the ion-electron system (eV)
  ---------------------------------------------------
  alpha Z        PSCENC =         2.51538199
  Ewald energy   TEWEN  =      2629.98113996
  -Hartree energ DENC   =     -3561.18971887
  -exchange      EXHF   =         0.00000000
  -V(xc)+E(xc)   XCENC  =       -38.94072843
  PAW double counting   =      3606.60081063    -3451.37273375
  entropy T*S    EENTRO =        -0.00000000
  eigenvalues    EBANDS =      -529.23011044
  atomic energy  EATOM  =      1241.89512738
  Solvation  Ediel_sol  =         0.00000000
  ---------------------------------------------------
  free energy    TOTEN  =       -99.74083153 eV

  energy without entropy =      -99.74083153  energy(sigma->0) =      -99.74083153


--------------------------------------------------------------------------------------------------------




--------------------------------------- Iteration      1(  17)  ---------------------------------------


    POTLOK:  cpu time    1.7137: real time    1.7138
    SETDIJ:  cpu time    0.0080: real time    0.0078
     EDDAV:  cpu time   11.1773: real time   11.1739
       DOS:  cpu time    0.0000: real time    0.0003
    CHARGE:  cpu time    0.4879: real time    0.4867
    MIXING:  cpu time    0.0980: real time    0.0980
    --------------------------------------------
      LOOP:  cpu time   13.4849: real time   13.4805

 eigenvalue-minimisations  :   112
 total energy-change (2. order) :-0.9927104E-03  (-0.8295907E-05)
 number of electron      56.0000017 magnetization 
 augmentation part       -4.3209443 magnetization 

 Broyden mixing:
  rms(total) = 0.33442E-03    rms(broyden)= 0.33440E-03
  rms(prec ) = 0.46256E-03
  weight for this iteration     100.00

 eigenvalues of (default mixing * dielectric matrix)
  average eigenvalue GAMMA=   2.4353
  7.6111  5.1127  2.6614  2.6614  2.0289  2.0289  1.5268  1.5268  1.1365  0.9791
  0.9791  0.9706

 Free energy of the ion-electron system (eV)
  ---------------------------------------------------
  alpha Z        PSCENC =         2.51538199
  Ewald energy   TEWEN  =      2629.98113996
  -Hartree energ DENC   =     -3561.20353480
  -exchange      EXHF   =         0.00000000
  -V(xc)+E(xc)   XCENC  =       -38.94320242
  PAW double counting   =      3605.24240825    -3450.01301321
  entropy T*S    EENTRO =        -0.00000000
  eigenvalues    EBANDS =      -529.21613139
  atomic energy  EATOM  =      1241.89512738
  Solvation  Ediel_sol  =         0.00000000
  ---------------------------------------------------
  free energy    TOTEN  =       -99.74182425 eV

  energy without entropy =      -99.74182425  energy(sigma->0) =      -99.74182425


--------------------------------------------------------------------------------------------------------




--------------------------------------- Iteration      1(  18)  ---------------------------------------


    POTLOK:  cpu time    1.7187: real time    1.7182
    SETDIJ:  cpu time    0.0070: real time    0.0082
     EDDAV:  cpu time   10.4774: real time   10.5490
       DOS:  cpu time    0.0010: real time    0.0004
    CHARGE:  cpu time    0.4859: real time    0.4862
    MIXING:  cpu time    0.1070: real time    0.1075
    --------------------------------------------
      LOOP:  cpu time   12.7971: real time   12.8695

 eigenvalue-minimisations  :   104
 total energy-change (2. order) :-0.2913764E-03  (-0.9932828E-06)
 number of electron      56.0000017 magnetization 
 augmentation part       -4.3209260 magnetization 

 Broyden mixing:
  rms(total) = 0.17999E-03    rms(broyden)= 0.17997E-03
  rms(prec ) = 0.25193E-03
  weight for this iteration     100.00

 eigenvalues of (default mixing * dielectric matrix)
  average eigenvalue GAMMA=   2.4959
  8.1538  5.8166  3.2073  2.6354  2.3902  1.7939  1.7939  1.3746  1.3746  0.9947
  0.9947  0.9585  0.9585

 Free energy of the ion-electron system (eV)
  ---------------------------------------------------
  alpha Z        PSCENC =         2.51538199
  Ewald energy   TEWEN  =      2629.98113996
  -Hartree energ DENC   =     -3561.23534414
  -exchange      EXHF   =         0.00000000
  -V(xc)+E(xc)   XCENC  =       -38.94290622
  PAW double counting   =      3605.29682404    -3450.06799838
  entropy T*S    EENTRO =        -0.00000000
  eigenvalues    EBANDS =      -529.18434025
  atomic energy  EATOM  =      1241.89512738
  Solvation  Ediel_sol  =         0.00000000
  ---------------------------------------------------
  free energy    TOTEN  =       -99.74211562 eV

  energy without entropy =      -99.74211562  energy(sigma->0) =      -99.74211562


--------------------------------------------------------------------------------------------------------




--------------------------------------- Iteration      1(  19)  ---------------------------------------


    POTLOK:  cpu time    1.7287: real time    1.7280
    SETDIJ:  cpu time    0.0080: real time    0.0077
     EDDAV:  cpu time   10.5694: real time   10.5658
       DOS:  cpu time    0.0000: real time    0.0003
    CHARGE:  cpu time    0.4939: real time    0.4932
    MIXING:  cpu time    0.1200: real time    0.1194
    --------------------------------------------
      LOOP:  cpu time   12.9200: real time   12.9144

 eigenvalue-minimisations  :   104
 total energy-change (2. order) :-0.1321853E-03  (-0.4722181E-06)
 number of electron      56.0000017 magnetization 
 augmentation part       -4.3209626 magnetization 

 Broyden mixing:
  rms(total) = 0.17583E-03    rms(broyden)= 0.17582E-03
  rms(prec ) = 0.21026E-03
  weight for this iteration     100.00

 eigenvalues of (default mixing * dielectric matrix)
  average eigenvalue GAMMA=   2.4810
  8.3412  6.0202  3.2881  2.6774  2.1249  2.1249  1.7637  1.7637  1.4957  1.2823
  0.9983  0.9983  0.9276  0.9276

 Free energy of the ion-electron system (eV)
  ---------------------------------------------------
  alpha Z        PSCENC =         2.51538199
  Ewald energy   TEWEN  =      2629.98113996
  -Hartree energ DENC   =     -3561.24760264
  -exchange      EXHF   =         0.00000000
  -V(xc)+E(xc)   XCENC  =       -38.94182889
  PAW double counting   =      3605.17095609    -3449.94227369
  entropy T*S    EENTRO =        -0.00000000
  eigenvalues    EBANDS =      -529.17314801
  atomic energy  EATOM  =      1241.89512738
  Solvation  Ediel_sol  =         0.00000000
  ---------------------------------------------------
  free energy    TOTEN  =       -99.74224781 eV

  energy without entropy =      -99.74224781  energy(sigma->0) =      -99.74224781


--------------------------------------------------------------------------------------------------------




--------------------------------------- Iteration      1(  20)  ---------------------------------------


    POTLOK:  cpu time    1.7237: real time    1.7246
    SETDIJ:  cpu time    0.0080: real time    0.0077
     EDDAV:  cpu time    9.2936: real time    9.3009
       DOS:  cpu time    0.0000: real time    0.0004
    CHARGE:  cpu time    0.4859: real time    0.4858
    MIXING:  cpu time    0.1290: real time    0.1292
    --------------------------------------------
      LOOP:  cpu time   11.6402: real time   11.6486

 eigenvalue-minimisations  :    88
 total energy-change (2. order) :-0.4405563E-04  (-0.6815235E-07)
 number of electron      56.0000017 magnetization 
 augmentation part       -4.3209545 magnetization 

 Broyden mixing:
  rms(total) = 0.53679E-04    rms(broyden)= 0.53679E-04
  rms(prec ) = 0.79625E-04
  weight for this iteration     100.00

 eigenvalues of (default mixing * dielectric matrix)
  average eigenvalue GAMMA=   2.5279
  8.6560  6.3976  4.0572  2.8771  2.5317  1.8548  1.8548  1.7599  1.5445  1.2593
  1.2593  0.9922  0.9922  0.9696  0.9119

 Free energy of the ion-electron system (eV)
  ---------------------------------------------------
  alpha Z        PSCENC =         2.51538199
  Ewald energy   TEWEN  =      2629.98113996
  -Hartree energ DENC   =     -3561.24827876
  -exchange      EXHF   =         0.00000000
  -V(xc)+E(xc)   XCENC  =       -38.94278633
  PAW double counting   =      3605.00965514    -3449.78087376
  entropy T*S    EENTRO =        -0.00000000
  eigenvalues    EBANDS =      -529.17165748
  atomic energy  EATOM  =      1241.89512738
  Solvation  Ediel_sol  =         0.00000000
  ---------------------------------------------------
  free energy    TOTEN  =       -99.74229186 eV

  energy without entropy =      -99.74229186  energy(sigma->0) =      -99.74229186


--------------------------------------------------------------------------------------------------------




--------------------------------------- Iteration      1(  21)  ---------------------------------------


    POTLOK:  cpu time    1.6947: real time    1.7483
    SETDIJ:  cpu time    0.0070: real time    0.0078
     EDDAV:  cpu time    8.6747: real time    8.7096
       DOS:  cpu time    0.0010: real time    0.0007
    CHARGE:  cpu time    0.4849: real time    0.4853
    MIXING:  cpu time    0.1410: real time    0.1407
    --------------------------------------------
      LOOP:  cpu time   11.0033: real time   11.0924

 eigenvalue-minimisations  :    80
 total energy-change (2. order) :-0.2619014E-04  (-0.8366935E-07)
 number of electron      56.0000017 magnetization 
 augmentation part       -4.3209370 magnetization 

 Broyden mixing:
  rms(total) = 0.47038E-04    rms(broyden)= 0.47036E-04
  rms(prec ) = 0.59832E-04
  weight for this iteration     100.00

 eigenvalues of (default mixing * dielectric matrix)
  average eigenvalue GAMMA=   2.4907
  8.5397  6.6091  4.0219  2.8447  2.6100  2.0104  2.0104  1.7486  1.7486  1.5530
  1.1236  1.1236  0.9434  0.9434  1.0103  1.0103

 Free energy of the ion-electron system (eV)
  ---------------------------------------------------
  alpha Z        PSCENC =         2.51538199
  Ewald energy   TEWEN  =      2629.98113996
  -Hartree energ DENC   =     -3561.25620774
  -exchange      EXHF   =         0.00000000
  -V(xc)+E(xc)   XCENC  =       -38.94278009
  PAW double counting   =      3605.10708206    -3449.87843951
  entropy T*S    EENTRO =        -0.00000000
  eigenvalues    EBANDS =      -529.16362211
  atomic energy  EATOM  =      1241.89512738
  Solvation  Ediel_sol  =         0.00000000
  ---------------------------------------------------
  free energy    TOTEN  =       -99.74231805 eV

  energy without entropy =      -99.74231805  energy(sigma->0) =      -99.74231805


--------------------------------------------------------------------------------------------------------




--------------------------------------- Iteration      1(  22)  ---------------------------------------


    POTLOK:  cpu time    1.7147: real time    1.7163
    SETDIJ:  cpu time    0.0080: real time    0.0077
     EDDAV:  cpu time    9.3046: real time    9.3009
       DOS:  cpu time    0.0000: real time    0.0006
    CHARGE:  cpu time    0.4869: real time    0.4870
    MIXING:  cpu time    0.1540: real time    0.1537
    --------------------------------------------
      LOOP:  cpu time   11.6682: real time   11.6662

 eigenvalue-minimisations  :    88
 total energy-change (2. order) :-0.6883580E-05  (-0.1329652E-07)
 number of electron      56.0000017 magnetization 
 augmentation part       -4.3209431 magnetization 

 Broyden mixing:
  rms(total) = 0.17733E-04    rms(broyden)= 0.17733E-04
  rms(prec ) = 0.26730E-04
  weight for this iteration     100.00

 eigenvalues of (default mixing * dielectric matrix)
  average eigenvalue GAMMA=   2.5408
  8.7797  6.8060  4.7186  3.2923  2.5956  2.5956  1.8977  1.8977  1.6518  1.6518
  1.2298  1.2298  0.9849  0.9849  1.0023  0.9377  0.9377

 Free energy of the ion-electron system (eV)
  ---------------------------------------------------
  alpha Z        PSCENC =         2.51538199
  Ewald energy   TEWEN  =      2629.98113996
  -Hartree energ DENC   =     -3561.25630673
  -exchange      EXHF   =         0.00000000
  -V(xc)+E(xc)   XCENC  =       -38.94262203
  PAW double counting   =      3605.15818695    -3449.92949418
  entropy T*S    EENTRO =        -0.00000000
  eigenvalues    EBANDS =      -529.16373828
  atomic energy  EATOM  =      1241.89512738
  Solvation  Ediel_sol  =         0.00000000
  ---------------------------------------------------
  free energy    TOTEN  =       -99.74232494 eV

  energy without entropy =      -99.74232494  energy(sigma->0) =      -99.74232494


--------------------------------------------------------------------------------------------------------




--------------------------------------- Iteration      1(  23)  ---------------------------------------


    POTLOK:  cpu time    1.7187: real time    1.7180
    SETDIJ:  cpu time    0.0080: real time    0.0078
     EDDAV:  cpu time    8.5927: real time    8.6617
       DOS:  cpu time    0.0010: real time    0.0006
    CHARGE:  cpu time    0.4869: real time    0.4861
    MIXING:  cpu time    0.1650: real time    0.1651
    --------------------------------------------
      LOOP:  cpu time   10.9723: real time   11.0394

 eigenvalue-minimisations  :    80
 total energy-change (2. order) :-0.4654056E-05  (-0.1385123E-07)
 number of electron      56.0000017 magnetization 
 augmentation part       -4.3209496 magnetization 

 Broyden mixing:
  rms(total) = 0.11821E-04    rms(broyden)= 0.11821E-04
  rms(prec ) = 0.15996E-04
  weight for this iteration     100.00

 eigenvalues of (default mixing * dielectric matrix)
  average eigenvalue GAMMA=   2.5267
  8.8417  6.8784  4.8946  3.3142  2.6518  2.6518  1.9450  1.9450  1.7155  1.7155
  1.5810  1.1995  1.1995  0.9319  0.9889  0.9889  1.0186  1.0186

 Free energy of the ion-electron system (eV)
  ---------------------------------------------------
  alpha Z        PSCENC =         2.51538199
  Ewald energy   TEWEN  =      2629.98113996
  -Hartree energ DENC   =     -3561.25544128
  -exchange      EXHF   =         0.00000000
  -V(xc)+E(xc)   XCENC  =       -38.94273860
  PAW double counting   =      3605.13365876    -3449.90491136
  entropy T*S    EENTRO =        -0.00000000
  eigenvalues    EBANDS =      -529.16454644
  atomic energy  EATOM  =      1241.89512738
  Solvation  Ediel_sol  =         0.00000000
  ---------------------------------------------------
  free energy    TOTEN  =       -99.74232959 eV

  energy without entropy =      -99.74232959  energy(sigma->0) =      -99.74232959


--------------------------------------------------------------------------------------------------------




--------------------------------------- Iteration      1(  24)  ---------------------------------------


    POTLOK:  cpu time    1.7177: real time    1.7310
    SETDIJ:  cpu time    0.0080: real time    0.0078
     EDDAV:  cpu time    9.3086: real time    9.3129
       DOS:  cpu time    0.0010: real time    0.0007
    CHARGE:  cpu time    0.4849: real time    0.4851
    MIXING:  cpu time    0.1780: real time    0.1784
    --------------------------------------------
      LOOP:  cpu time   11.6982: real time   11.7159

 eigenvalue-minimisations  :    88
 total energy-change (2. order) :-0.2011021E-05  (-0.3273421E-08)
 number of electron      56.0000017 magnetization 
 augmentation part       -4.3209503 magnetization 

 Broyden mixing:
  rms(total) = 0.39884E-05    rms(broyden)= 0.39879E-05
  rms(prec ) = 0.68029E-05
  weight for this iteration     100.00

 eigenvalues of (default mixing * dielectric matrix)
  average eigenvalue GAMMA=   2.5840
  8.8669  7.1944  5.5743  3.9411  3.0065  2.5124  2.4604  1.8658  1.8658  1.6773
  1.6773  1.2543  1.2543  1.0832  0.9936  0.9936  0.9475  0.9475  0.9791

 Free energy of the ion-electron system (eV)
  ---------------------------------------------------
  alpha Z        PSCENC =         2.51538199
  Ewald energy   TEWEN  =      2629.98113996
  -Hartree energ DENC   =     -3561.25617274
  -exchange      EXHF   =         0.00000000
  -V(xc)+E(xc)   XCENC  =       -38.94271706
  PAW double counting   =      3605.11069832    -3449.88197591
  entropy T*S    EENTRO =        -0.00000000
  eigenvalues    EBANDS =      -529.16381353
  atomic energy  EATOM  =      1241.89512738
  Solvation  Ediel_sol  =         0.00000000
  ---------------------------------------------------
  free energy    TOTEN  =       -99.74233160 eV

  energy without entropy =      -99.74233160  energy(sigma->0) =      -99.74233160


--------------------------------------------------------------------------------------------------------




--------------------------------------- Iteration      1(  25)  ---------------------------------------


    POTLOK:  cpu time    1.7377: real time    1.7363
    SETDIJ:  cpu time    0.0080: real time    0.0082
     EDDAV:  cpu time    9.2906: real time    9.2883
       DOS:  cpu time    0.0010: real time    0.0006
    --------------------------------------------
      LOOP:  cpu time   11.0373: real time   11.0334

 eigenvalue-minimisations  :    88
 total energy-change (2. order) :-0.7514750E-06  (-0.1316105E-08)
 number of electron      56.0000017 magnetization 
 augmentation part       -4.3209503 magnetization 

 Free energy of the ion-electron system (eV)
  ---------------------------------------------------
  alpha Z        PSCENC =         2.51538199
  Ewald energy   TEWEN  =      2629.98113996
  -Hartree energ DENC   =     -3561.25680879
  -exchange      EXHF   =         0.00000000
  -V(xc)+E(xc)   XCENC  =       -38.94268473
  PAW double counting   =      3605.10789223    -3449.87917796
  entropy T*S    EENTRO =        -0.00000000
  eigenvalues    EBANDS =      -529.16320243
  atomic energy  EATOM  =      1241.89512738
  Solvation  Ediel_sol  =         0.00000000
  ---------------------------------------------------
  free energy    TOTEN  =       -99.74233235 eV

  energy without entropy =      -99.74233235  energy(sigma->0) =      -99.74233235


--------------------------------------------------------------------------------------------------------




 average (electrostatic) potential at core
  the test charge radii are     0.9892  1.1631  0.5201
  (the norm of the test charge is              1.0000)
       1 -93.4318       2 -93.4565       3 -93.4714       4 -93.4960       5 -40.3878
       6 -40.4345       7 -40.3825       8 -40.4229       9 -40.4289      10 -40.4352
      11 -41.0610      12 -41.0603      13 -40.6744      14 -41.0612      15 -41.0557
      16 -41.0710      17 -41.0664      18 -40.6843      19 -41.0530      20 -40.6891
      21 -40.6850      22 -41.0661      23 -40.6968      24 -40.6922      25 -41.0553
      26 -41.0657
 
 
 
 E-fermi :  -5.3826     XC(G=0):  -0.6100     alpha+bet : -0.3306


 k-point     1 :       0.0000    0.0000    0.0000
  band No.  band energies     occupation 
      1     -15.3551      2.00000
      2     -14.5488      2.00000
      3     -14.2222      2.00000
      4     -14.1115      2.00000
      5     -13.2438      2.00000
      6     -12.9344      2.00000
      7     -11.8491      2.00000
      8     -11.5425      2.00000
      9     -11.4038      2.00000
     10     -10.5106      2.00000
     11      -8.9731      2.00000
     12      -8.6386      2.00000
     13      -8.6317      2.00000
     14      -8.6216      2.00000
     15      -8.1931      2.00000
     16      -8.1768      2.00000
     17      -8.1663      2.00000
     18      -7.8599      2.00000
     19      -7.8513      2.00000
     20      -7.8490      2.00000
     21      -6.7663      2.00000
     22      -6.7530      2.00000
     23      -6.4587      2.00000
     24      -6.4418      2.00000
     25      -6.4379      2.00000
     26      -6.3551      2.00000
     27      -6.3444      2.00000
     28      -6.3413      2.00000
     29      -1.6713      0.00000
     30      -1.3165      0.00000
     31      -1.2465      0.00000
     32      -1.1910      0.00000
     33      -1.1355      0.00000
     34      -1.1224      0.00000
     35      -1.0384      0.00000
     36      -0.9025      0.00000
     37      -0.8388      0.00000
     38      -0.6633      0.00000
     39      -0.3403      0.00000
     40      -0.3169      0.00000
     41      -0.1631      0.00000
     42      -0.1481      0.00000


--------------------------------------------------------------------------------------------------------


 soft charge-density along one line, spin component           1
         0         1         2         3         4         5         6         7         8         9
 total charge-density along one line
 
 pseudopotential strength for first ion, spin component:           1
 19.618  27.377  -0.001   0.003   0.003  -0.001   0.006   0.005
 27.377  38.211  -0.001   0.004   0.004  -0.002   0.008   0.007
 -0.001  -0.001   4.360   0.000  -0.000   8.133   0.000  -0.000
  0.003   0.004   0.000   4.359   0.000   0.000   8.132   0.000
  0.003   0.004  -0.000   0.000   4.359  -0.000   0.000   8.132
 -0.001  -0.002   8.133   0.000  -0.000  15.182   0.001  -0.000
  0.006   0.008   0.000   8.132   0.000   0.001  15.179   0.001
  0.005   0.007  -0.000   0.000   8.132  -0.000   0.001  15.180
 total augmentation occupancy for first ion, spin component:           1
  5.533  -2.026   0.071  -0.341  -0.068  -0.021   0.102   0.021
 -2.026   0.809  -0.042   0.207   0.036   0.010  -0.045  -0.007
  0.071  -0.042   2.798  -0.106  -0.006  -0.604   0.037   0.003
 -0.341   0.207  -0.106   3.281   0.046   0.037  -0.773  -0.018
 -0.068   0.036  -0.006   0.046   2.823   0.003  -0.018  -0.608
 -0.021   0.010  -0.604   0.037   0.003   0.138  -0.010  -0.001
  0.102  -0.045   0.037  -0.773  -0.018  -0.010   0.185   0.006
  0.021  -0.007   0.003  -0.018  -0.608  -0.001   0.006   0.138


------------------------ aborting loop because EDIFF is reached ----------------------------------------


    CHARGE:  cpu time    0.4869: real time    0.4870
    FORLOC:  cpu time    0.1700: real time    0.1699
    FORNL :  cpu time    1.1528: real time    1.1522
    STRESS:  cpu time    8.5237: real time    8.5879
    FORCOR:  cpu time    1.7147: real time    1.7136
    FORHAR:  cpu time    0.5799: real time    0.5805
    MIXING:  cpu time    0.1900: real time    0.1907
    OFIELD:  cpu time    0.0000: real time    0.0000

  FORCE on cell =-STRESS in cart. coord.  units (eV):
  Direction    XX          YY          ZZ          XY          YZ          ZX
  --------------------------------------------------------------------------------------
  Alpha Z     2.51538     2.51538     2.51538
  Ewald     876.64706   876.62235   876.71007    -0.21850     0.02563    -0.50464
  Hartree  1187.08379  1186.71860  1187.45465    -0.64152     0.16844    -0.31662
  E(xc)    -180.33894  -180.17238  -180.24204    -0.11410    -0.03395     0.06340
  Local   -2546.93204 -2546.45299 -2547.27305     0.79184    -0.21168     0.86598
  n-local   239.58150   238.72661   239.01313     0.63483     0.16773    -0.36055
  augment   -13.86588   -13.86043   -13.86106    -0.00896    -0.00495     0.00169
  Kinetic   434.80262   435.20416   435.05430    -0.34349    -0.06986     0.18549
  Fock        0.00000     0.00000     0.00000     0.00000     0.00000     0.00000
  -------------------------------------------------------------------------------------
  Total      -0.50651    -0.69869    -0.62862     0.10011     0.04136    -0.06526
  in kB      -0.10144    -0.13993    -0.12590     0.02005     0.00828    -0.01307
  external pressure =       -0.12 kB  Pullay stress =        0.00 kB


 VOLUME and BASIS-vectors are now :
 -----------------------------------------------------------------------------
  energy-cutoff  :      400.00
[...]
    SETDIJ:  cpu time    0.0080: real time    0.0079
     EDDAV:  cpu time   11.7852: real time   11.7812
       DOS:  cpu time    0.0000: real time    0.0004
    CHARGE:  cpu time    0.4849: real time    0.4845
    MIXING:  cpu time    0.0460: real time    0.0468
    --------------------------------------------
      LOOP:  cpu time   14.0599: real time   14.0549

 eigenvalue-minimisations  :   120
 total energy-change (2. order) : 0.5817343E-05  (-0.2273268E-05)
 number of electron      56.0000003 magnetization 
 augmentation part       -4.3097545 magnetization 

 Broyden mixing:
  rms(total) = 0.10693E-02    rms(broyden)= 0.10693E-02
  rms(prec ) = 0.11478E-02
  weight for this iteration     100.00

 eigenvalues of (default mixing * dielectric matrix)
  average eigenvalue GAMMA=   1.5222
  1.1030  1.9413

 Free energy of the ion-electron system (eV)
  ---------------------------------------------------
  alpha Z        PSCENC =         2.51538199
  Ewald energy   TEWEN  =      2597.13620732
  -Hartree energ DENC   =     -3528.93656246
  -exchange      EXHF   =         0.00000000
  -V(xc)+E(xc)   XCENC  =       -38.85151429
  PAW double counting   =      3657.22078121    -3501.97388590
  entropy T*S    EENTRO =        -0.00000000
  eigenvalues    EBANDS =      -528.95656841
  atomic energy  EATOM  =      1241.89512738
  Solvation  Ediel_sol  =         0.00000000
  ---------------------------------------------------
  free energy    TOTEN  =       -99.95103316 eV

  energy without entropy =      -99.95103316  energy(sigma->0) =      -99.95103316


--------------------------------------------------------------------------------------------------------




--------------------------------------- Iteration     16(   4)  ---------------------------------------


    POTLOK:  cpu time    1.7447: real time    1.7465
    SETDIJ:  cpu time    0.0080: real time    0.0080
     EDDAV:  cpu time   11.2413: real time   11.2423
       DOS:  cpu time    0.0010: real time    0.0004
    CHARGE:  cpu time    0.4879: real time    0.4886
    MIXING:  cpu time    0.0500: real time    0.0495
    --------------------------------------------
      LOOP:  cpu time   13.5319: real time   13.5353

 eigenvalue-minimisations  :   112
 total energy-change (2. order) : 0.1181138E-05  (-0.6929674E-06)
 number of electron      56.0000003 magnetization 
 augmentation part       -4.3098228 magnetization 

 Broyden mixing:
  rms(total) = 0.29462E-03    rms(broyden)= 0.29459E-03
  rms(prec ) = 0.33326E-03
  weight for this iteration     100.00

 eigenvalues of (default mixing * dielectric matrix)
  average eigenvalue GAMMA=   1.5147
  2.3974  1.0734  1.0734

 Free energy of the ion-electron system (eV)
  ---------------------------------------------------
  alpha Z        PSCENC =         2.51538199
  Ewald energy   TEWEN  =      2597.13620732
  -Hartree energ DENC   =     -3528.94735367
  -exchange      EXHF   =         0.00000000
  -V(xc)+E(xc)   XCENC  =       -38.85037430
  PAW double counting   =      3657.21265659    -3501.96571024
  entropy T*S    EENTRO =        -0.00000000
  eigenvalues    EBANDS =      -528.94696706
  atomic energy  EATOM  =      1241.89512738
  Solvation  Ediel_sol  =         0.00000000
  ---------------------------------------------------
  free energy    TOTEN  =       -99.95103198 eV

  energy without entropy =      -99.95103198  energy(sigma->0) =      -99.95103198


--------------------------------------------------------------------------------------------------------




--------------------------------------- Iteration     16(   5)  ---------------------------------------


    POTLOK:  cpu time    1.7297: real time    1.7291
    SETDIJ:  cpu time    0.0080: real time    0.0082
     EDDAV:  cpu time    9.3226: real time    9.3197
       DOS:  cpu time    0.0000: real time    0.0004
    --------------------------------------------
      LOOP:  cpu time   11.0603: real time   11.0573

 eigenvalue-minimisations  :    88
 total energy-change (2. order) : 0.2096044E-06  (-0.1028355E-06)
 number of electron      56.0000003 magnetization 
 augmentation part       -4.3098228 magnetization 

 Free energy of the ion-electron system (eV)
  ---------------------------------------------------
  alpha Z        PSCENC =         2.51538199
  Ewald energy   TEWEN  =      2597.13620732
  -Hartree energ DENC   =     -3528.95249775
  -exchange      EXHF   =         0.00000000
  -V(xc)+E(xc)   XCENC  =       -38.85021231
  PAW double counting   =      3657.16654965    -3501.91959612
  entropy T*S    EENTRO =        -0.00000000
  eigenvalues    EBANDS =      -528.94199195
  atomic energy  EATOM  =      1241.89512738
  Solvation  Ediel_sol  =         0.00000000
  ---------------------------------------------------
  free energy    TOTEN  =       -99.95103177 eV

  energy without entropy =      -99.95103177  energy(sigma->0) =      -99.95103177


--------------------------------------------------------------------------------------------------------




 average (electrostatic) potential at core
  the test charge radii are     0.9892  1.1631  0.5201
  (the norm of the test charge is              1.0000)
       1 -93.4211       2 -93.3539       3 -93.4999       4 -93.4227       5 -40.3955
       6 -40.4371       7 -40.4048       8 -40.4588       9 -40.4407      10 -40.4379
      11 -40.9853      12 -40.9850      13 -40.9197      14 -40.9891      15 -40.9884
      16 -40.9871      17 -40.9885      18 -40.9060      19 -41.0162      20 -40.8583
      21 -40.8621      22 -41.0069      23 -40.8511      24 -40.8548      25 -40.9863
      26 -40.9827
 
 
 
 E-fermi :  -5.3652     XC(G=0):  -0.6122     alpha+bet : -0.3306


 k-point     1 :       0.0000    0.0000    0.0000
  band No.  band energies     occupation 
      1     -15.2200      2.00000
      2     -14.3619      2.00000
      3     -14.1829      2.00000
      4     -14.1109      2.00000
      5     -13.2177      2.00000
      6     -13.0199      2.00000
      7     -11.8987      2.00000
      8     -11.6272      2.00000
      9     -11.5045      2.00000
     10     -10.6387      2.00000
     11      -8.9830      2.00000
     12      -8.6607      2.00000
     13      -8.5882      2.00000
     14      -8.5208      2.00000
     15      -8.2384      2.00000
     16      -8.1084      2.00000
     17      -8.0428      2.00000
     18      -7.9576      2.00000
     19      -7.8818      2.00000
     20      -7.7729      2.00000
     21      -6.8245      2.00000
     22      -6.7750      2.00000
     23      -6.4864      2.00000
     24      -6.4321      2.00000
     25      -6.3921      2.00000
     26      -6.3688      2.00000
     27      -6.3369      2.00000
     28      -6.3181      2.00000
     29      -1.6288      0.00000
     30      -1.4133      0.00000
     31      -1.3405      0.00000
     32      -1.2907      0.00000
     33      -1.2190      0.00000
     34      -1.1836      0.00000
     35      -1.0842      0.00000
     36      -0.9217      0.00000
     37      -0.8249      0.00000
     38      -0.6476      0.00000
     39      -0.3055      0.00000
     40      -0.2724      0.00000
     41      -0.1627      0.00000
     42      -0.0995      0.00000


--------------------------------------------------------------------------------------------------------


 soft charge-density along one line, spin component           1
         0         1         2         3         4         5         6         7         8         9
 total charge-density along one line
 
 pseudopotential strength for first ion, spin component:           1
 19.621  27.382  -0.001   0.003   0.003  -0.001   0.006   0.005
 27.382  38.217  -0.001   0.004   0.004  -0.002   0.008   0.007
 -0.001  -0.001   4.362   0.000  -0.000   8.136   0.000  -0.000
  0.003   0.004   0.000   4.362   0.000   0.000   8.136   0.000
  0.003   0.004  -0.000   0.000   4.361  -0.000   0.000   8.136
 -0.001  -0.002   8.136   0.000  -0.000  15.188   0.000  -0.000
  0.006   0.008   0.000   8.136   0.000   0.000  15.187   0.001
  0.005   0.007  -0.000   0.000   8.136  -0.000   0.001  15.186
 total augmentation occupancy for first ion, spin component:           1
  5.747  -2.141   0.092  -0.480  -0.178  -0.029   0.148   0.058
 -2.141   0.862  -0.052   0.274   0.087   0.013  -0.066  -0.023
  0.092  -0.052   2.768  -0.152   0.008  -0.598   0.049  -0.001
 -0.480   0.274  -0.152   3.503   0.012   0.049  -0.838  -0.008
 -0.178   0.087   0.008   0.012   2.904  -0.001  -0.009  -0.632
 -0.029   0.013  -0.598   0.049  -0.001   0.136  -0.014  -0.000
  0.148  -0.066   0.049  -0.838  -0.009  -0.014   0.204   0.003
  0.058  -0.023  -0.001  -0.008  -0.632  -0.000   0.003   0.144


------------------------ aborting loop because EDIFF is reached ----------------------------------------


    CHARGE:  cpu time    0.4849: real time    0.4845
    FORLOC:  cpu time    0.1710: real time    0.1708
    FORNL :  cpu time    1.1498: real time    1.1491
    STRESS:  cpu time    8.9356: real time    8.9324
    FORCOR:  cpu time    1.7157: real time    1.7149
    FORHAR:  cpu time    0.5829: real time    0.5829
    MIXING:  cpu time    0.0510: real time    0.0515
    OFIELD:  cpu time    0.0000: real time    0.0000

  FORCE on cell =-STRESS in cart. coord.  units (eV):
  Direction    XX          YY          ZZ          XY          YZ          ZX
  --------------------------------------------------------------------------------------
  Alpha Z     2.51538     2.51538     2.51538
  Ewald     864.33206   865.08193   867.72056    -3.72111     1.38914     1.26921
  Hartree  1173.82727  1176.76733  1178.37667    -4.91213     0.74879     2.04863
  E(xc)    -180.27120  -180.11420  -180.18373    -0.13715    -0.03138     0.06218
  Local   -2521.05971 -2524.58723 -2528.91605     8.85128    -2.09834    -3.26587
  n-local   238.51459   237.78959   237.99105     0.48703     0.05002    -0.37709
  augment   -14.00299   -14.03068   -14.01317     0.05500     0.01739    -0.00463
  Kinetic   435.19201   435.53187   435.60815    -0.64874    -0.10555     0.25874
  Fock        0.00000     0.00000     0.00000     0.00000     0.00000     0.00000
  -------------------------------------------------------------------------------------
  Total      -0.95258    -1.04601    -0.90112    -0.02582    -0.02994    -0.00882
  in kB      -0.19077    -0.20949    -0.18047    -0.00517    -0.00600    -0.00177
  external pressure =       -0.19 kB  Pullay stress =        0.00 kB


 VOLUME and BASIS-vectors are now :
 -----------------------------------------------------------------------------
  energy-cutoff  :      400.00
  volume of cell :     8000.00
      direct lattice vectors                 reciprocal lattice vectors
    20.000000000  0.000000000  0.000000000     0.050000000  0.000000000  0.000000000
     0.000000000 20.000000000  0.000000000     0.000000000  0.050000000  0.000000000
     0.000000000  0.000000000 20.000000000     0.000000000  0.000000000  0.050000000

  length of vectors
    20.000000000 20.000000000 20.000000000     0.050000000  0.050000000  0.050000000


 FORCES acting on ions
    electron-ion (+dipol)            ewald-force                    non-local-force                 convergence-correction
 -----------------------------------------------------------------------------------------------
   0.932E+01 -.182E+02 0.871E+02   -.104E+02 0.185E+02 -.886E+02   0.109E+01 -.305E+00 0.151E+01   -.102E-02 0.516E-03 -.157E-02
   0.869E+02 -.479E+01 0.436E+02   -.884E+02 0.501E+01 -.452E+02   0.156E+01 -.221E+00 0.159E+01   -.296E-03 0.662E-03 -.860E-03
   -.502E+02 0.737E+02 -.859E+01   0.512E+02 -.753E+02 0.878E+01   -.969E+00 0.152E+01 -.191E+00   -.287E-03 -.631E-03 -.523E-03
   0.353E+02 -.519E+02 -.729E+02   -.362E+02 0.532E+02 0.748E+02   0.878E+00 -.134E+01 -.187E+01   -.129E-02 0.457E-03 -.146E-03
   -.368E+02 0.536E+02 0.752E+02   0.371E+02 -.540E+02 -.758E+02   -.303E+00 0.421E+00 0.562E+00   -.469E-03 0.358E-03 -.108E-02
   -.294E+02 -.837E+02 0.441E+02   0.296E+02 0.843E+02 -.448E+02   -.182E+00 -.631E+00 0.653E+00   -.716E-03 0.451E-03 -.150E-02
   0.810E+02 0.144E+02 -.402E+02   -.816E+02 -.141E+02 0.404E+02   0.602E+00 -.280E+00 -.154E+00   -.943E-03 0.156E-03 -.386E-03
   -.443E+02 -.699E+02 -.400E+02   0.442E+02 0.705E+02 0.405E+02   0.318E-01 -.541E+00 -.515E+00   -.695E-03 0.748E-03 -.377E-03
   -.867E+02 0.369E+01 -.464E+02   0.876E+02 -.403E+01 0.467E+02   -.822E+00 0.339E+00 -.336E+00   0.171E-03 -.247E-03 -.238E-03
   0.300E+02 0.824E+02 -.461E+02   -.300E+02 -.833E+02 0.464E+02   -.322E-01 0.879E+00 -.329E+00   -.946E-03 -.457E-03 0.134E-03
   0.205E+02 0.393E+02 0.565E+01   -.217E+02 -.412E+02 -.670E+01   0.120E+01 0.193E+01 0.106E+01   -.166E-03 -.631E-04 -.112E-05
   0.152E+01 0.215E+02 -.392E+02   -.125E+01 -.221E+02 0.416E+02   -.272E+00 0.542E+00 -.244E+01   -.191E-03 -.126E-03 0.110E-03
   -.269E+02 0.399E+02 -.412E+01   0.285E+02 -.423E+02 0.435E+01   -.162E+01 0.242E+01 -.236E+00   -.398E-04 -.804E-04 -.705E-04
   -.439E+02 -.412E+01 0.540E+01   0.462E+02 0.451E+01 -.646E+01   -.225E+01 -.394E+00 0.105E+01   0.199E-03 -.827E-05 -.166E-03
   -.202E+02 0.738E+01 -.392E+02   0.206E+02 -.789E+01 0.416E+02   -.392E+00 0.500E+00 -.243E+01   0.192E-04 -.870E-04 0.172E-03
   -.351E+02 0.494E+01 0.278E+02   0.373E+02 -.459E+01 -.289E+02   -.221E+01 -.345E+00 0.114E+01   -.602E-04 0.617E-04 -.223E-03
   0.797E+01 0.344E+02 0.280E+02   -.908E+01 -.363E+02 -.291E+02   0.111E+01 0.193E+01 0.115E+01   -.101E-03 0.116E-03 -.138E-03
   0.610E+01 -.949E+01 0.471E+02   -.645E+01 0.100E+02 -.499E+02   0.354E+00 -.559E+00 0.284E+01   -.115E-03 0.347E-04 0.120E-03
   -.220E+02 -.354E+02 -.202E+02   0.232E+02 0.373E+02 0.213E+02   -.118E+01 -.189E+01 -.106E+01   -.467E-04 0.249E-03 0.205E-04
   0.263E+01 -.268E+01 -.462E+02   -.230E+01 0.208E+01 0.491E+02   -.342E+00 0.605E+00 -.288E+01   -.217E-03 0.229E-04 0.307E-03
   0.253E+02 -.376E+02 -.108E+02   -.270E+02 0.400E+02 0.106E+02   0.165E+01 -.246E+01 0.229E+00   -.300E-03 0.193E-03 -.915E-04
   0.414E+02 0.712E+01 -.199E+02   -.436E+02 -.750E+01 0.209E+02   0.220E+01 0.392E+00 -.104E+01   -.150E-03 0.346E-04 -.256E-04
   0.320E+02 0.252E+02 0.231E+02   -.334E+02 -.274E+02 -.244E+02   0.142E+01 0.226E+01 0.128E+01   -.110E-03 0.126E-04 -.209E-03
   0.350E+02 -.287E+02 0.120E+02   -.367E+02 0.311E+02 -.123E+02   0.169E+01 -.241E+01 0.319E+00   -.540E-04 0.167E-03 -.154E-03
   0.121E+02 -.414E+02 0.115E+02   -.134E+02 0.435E+02 -.118E+02   0.133E+01 -.211E+01 0.273E+00   -.153E-03 -.180E-04 -.217E-03
   -.338E+02 -.195E+02 0.220E+02   0.360E+02 0.199E+02 -.231E+02   -.224E+01 -.380E+00 0.109E+01   -.853E-04 0.979E-04 -.306E-03
 -----------------------------------------------------------------------------------------------
   -.227E+01 0.112E+00 -.123E+01   0.426E-13 0.888E-13 0.426E-13   0.228E+01 -.114E+00 0.124E+01   -.806E-02 0.262E-02 -.742E-02
 
 
 POSITION                                       TOTAL-FORCE (eV/Angst)
 -----------------------------------------------------------------------------------
      9.47445     11.12390      7.67634         0.006775      0.009567      0.015344
      7.38407     10.79745      8.70115         0.002564     -0.004836     -0.009409
     11.17540      8.62344     10.24568        -0.016408      0.003985      0.003752
      8.78402     12.15745     12.13604        -0.000668     -0.004297      0.012935
     10.82635      9.14753      7.92572        -0.005014      0.011446      0.007600
     10.60118     12.97541      8.71921        -0.003652     -0.015873     -0.002092
      7.68146     10.32593     11.04040         0.001977     -0.006267      0.003385
     10.92452     12.49958     11.10593        -0.007209      0.004148     -0.012024
     12.28418     10.46591     11.31677        -0.005602     -0.005777     -0.002511
      9.03653      8.29033     11.28536         0.006161      0.006747     -0.002215
      8.29173      7.09165     10.62434         0.004965      0.006974      0.004353
      9.20650      7.95490     12.79742        -0.001121      0.000469     -0.005934
     12.00880      7.38055     10.36622         0.004245      0.002127     -0.004165
     13.67722     10.70897     10.66441         0.007904      0.001457     -0.001322
     12.52587     10.15432     12.82375         0.002283     -0.007013      0.003434
     12.19940      9.36419      7.22276         0.004175      0.007008     -0.003426
     10.13591      7.94660      7.21227        -0.004517     -0.000381      0.005010
      9.29156     11.41122      6.21390        -0.003331     -0.005053     -0.005591
     11.67235     13.69518     11.77811        -0.001302     -0.005585      0.002252
      8.95714     11.85034     13.59219        -0.005668      0.000764     -0.003020
      7.95321     13.39877     12.01890         0.002596     -0.000560      0.002127
      6.28770     10.07897     11.70239         0.003118      0.005482     -0.007290
      6.66803      9.65059      8.05360         0.004243      0.004870      0.005168
      6.53111     12.01960      8.54031         0.006535     -0.000162     -0.001466
      9.77453     14.28574      8.54973         0.002841     -0.010034     -0.002039
     11.98620     13.20948      8.04543        -0.005891      0.000794     -0.002855
 -----------------------------------------------------------------------------------
    total drift:                                0.000482      0.000639      0.000073


--------------------------------------------------------------------------------------------------------



  FREE ENERGIE OF THE ION-ELECTRON SYSTEM (eV)
  ---------------------------------------------------
  free  energy   TOTEN  =       -99.95103177 eV

  energy  without entropy=      -99.95103177  energy(sigma->0) =      -99.95103177
 
 d Force = 0.2322880E-03[ 0.486E-04, 0.416E-03]  d Energy = 0.2305414E-03 0.175E-05
 d Force = 0.6199850E+00[ 0.620E+00, 0.620E+00]  d Ewald  = 0.6199850E+00-0.165E-08


--------------------------------------------------------------------------------------------------------


    POTLOK:  cpu time    1.7437: real time    1.7424


--------------------------------------------------------------------------------------------------------


 Conjugate gradient step on ions:
 trial-energy change:   -0.000231  1 .order   -0.000232   -0.000416   -0.000049
  (g-gl).g = 0.449E-03      g.g   = 0.367E-03  gl.gl    = 0.135E-02
 g(Force)  = 0.367E-03   g(Stress)= 0.000E+00 ortho     =-0.518E-04
 gamma     =   0.33297
 trial     =   1.18954
 opt step  =   1.34689  (harmonic =   1.34689) maximal distance =0.00254359
 next E    =   -99.951037   (d E  =  -0.00024)


--------------------------------------------------------------------------------------------------------


  
 reached required accuracy - stopping structural energy minimisation
 writing wavefunctions
     LOOP+:  cpu time   79.5489: real time   79.9952
    4ORBIT:  cpu time    0.0000: real time    0.0000

 total amount of memory used by VASP MPI-rank0   131440. kBytes
=======================================================================

   base      :      30000. kBytes
   nonl-proj :      17624. kBytes
   fftplans  :      26957. kBytes
   grid      :      48673. kBytes
   one-center:         40. kBytes
   wavefun   :       8146. kBytes
 
  
  
 General timing and accounting informations for this job:
 ========================================================
  
                  Total CPU time used (sec):     2482.877
                            User time (sec):     2452.674
                          System time (sec):       30.203
                         Elapsed time (sec):     2487.994
  
                   Maximum memory used (kb):      184488.
                   Average memory used (kb):           0.
  
                          Minor page faults:      5696576
                          Major page faults:           10
                 Voluntary context switches:         2781
