 vasp.5.4.4.18Apr17-6-g9f103f2a35 (build Nov 06 2017 19:16:10) complex          
  
 executed on           IFC91_ompi date 2018.07.09  08:24:27
 running on   12 total cores
 distrk:  each k-point on   12 cores,    1 groups
 distr:  one band on NCORES_PER_BAND=   6 cores,    2 groups


--------------------------------------------------------------------------------------------------------


 INCAR:
 POTCAR:    PAW_PBE Si 05Jan2001                  
 POTCAR:    PAW_PBE Ge 05Jan2001                  
 POTCAR:    PAW_PBE H 15Jun2001                   
 POTCAR:    PAW_PBE Si 05Jan2001                  
   VRHFIN =Si: s2p2                                                             
   LEXCH  = PE                                                                  
   EATOM  =   103.0669 eV,    7.5752 Ry                                         
                                                                                
   TITEL  = PAW_PBE Si 05Jan2001                                                
   LULTRA =        F    use ultrasoft PP ?                                      
   IUNSCR =        1    unscreen: 0-lin 1-nonlin 2-no                           
   RPACOR =    1.500    partial core radius                                     
   POMASS =   28.085; ZVAL   =    4.000    mass and valenz                      
   RCORE  =    1.900    outmost cutoff radius                                   
   RWIGS  =    2.480; RWIGS  =    1.312    wigner-seitz radius (au A)           
   ENMAX  =  245.345; ENMIN  =  184.009 eV                                      
   ICORE  =        2    local potential                                         
   LCOR   =        T    correct aug charges                                     
   LPAW   =        T    paw PP                                                  
   EAUG   =  322.069                                                            
   DEXC   =    0.000                                                            
   RMAX   =    1.950    core radius for proj-oper                               
   RAUG   =    1.300    factor for augmentation sphere                          
   RDEP   =    1.993    radius for radial grids                                 
   RDEPT  =    1.837    core radius for aug-charge                              
                                                                                
   Atomic configuration                                                         
    6 entries                                                                   
     n  l   j            E        occ.                                          
     1  0  0.50     -1785.8828   2.0000                                         
     2  0  0.50      -139.4969   2.0000                                         
     2  1  1.50       -95.5546   6.0000                                         
     3  0  0.50       -10.8127   2.0000                                         
     3  1  0.50        -4.0811   2.0000                                         
     3  2  1.50        -4.0817   0.0000                                         
   Description                                                                  
     l       E           TYP  RCUT    TYP  RCUT                                 
     0    -10.8127223     23  1.900                                             
     0     -7.6451159     23  1.900                                             
     1     -4.0811372     23  1.900                                             
     1      2.4879257     23  1.900                                             
     2     -4.0817478      7  1.900                                             
  local pseudopotential read in
  partial core-charges read in
  partial kinetic energy density read in
  atomic valenz-charges read in
  non local Contribution for L=           0  read in
    real space projection operators read in
  non local Contribution for L=           0  read in
    real space projection operators read in
  non local Contribution for L=           1  read in
    real space projection operators read in
  non local Contribution for L=           1  read in
    real space projection operators read in
    PAW grid and wavefunctions read in
 
   number of l-projection  operators is LMAX  =           4
   number of lm-projection operators is LMMAX =           8
 
 POTCAR:    PAW_PBE Ge 05Jan2001                  
   VRHFIN =Ge: s2p2                                                             
   LEXCH  = PE                                                                  
   EATOM  =   104.9960 eV,    7.7170 Ry                                         
                                                                                
   TITEL  = PAW_PBE Ge 05Jan2001                                                
   LULTRA =        F    use ultrasoft PP ?                                      
   IUNSCR =        1    unscreen: 0-lin 1-nonlin 2-no                           
   RPACOR =    2.170    partial core radius                                     
   POMASS =   72.610; ZVAL   =    4.000    mass and valenz                      
   RCORE  =    2.300    outmost cutoff radius                                   
   RWIGS  =    2.300; RWIGS  =    1.217    wigner-seitz radius (au A)           
   ENMAX  =  173.807; ENMIN  =  130.355 eV                                      
   ICORE  =        3    local potential                                         
   LCOR   =        T    correct aug charges                                     
   LPAW   =        T    paw PP                                                  
   EAUG   =  385.843                                                            
   DEXC   =    0.000                                                            
   RMAX   =    2.342    core radius for proj-oper                               
   RAUG   =    1.300    factor for augmentation sphere                          
   RDEP   =    2.318    radius for radial grids                                 
   RDEPT  =    2.103    core radius for aug-charge                              
                                                                                
   Atomic configuration                                                         
   10 entries                                                                   
     n  l   j            E        occ.                                          
     1  0  0.50    -10959.8463   2.0000                                         
     2  0  0.50     -1371.6056   2.0000                                         
     2  1  1.50     -1198.4791   6.0000                                         
     3  0  0.50      -168.4733   2.0000                                         
     3  1  1.50      -115.6019   6.0000                                         
     3  2  2.50       -29.3106  10.0000                                         
     4  0  0.50       -11.7309   2.0000                                         
     4  1  0.50        -3.8952   2.0000                                         
     4  2  1.50        -4.0817   0.0000                                         
     4  3  2.50        -4.0817   0.0000                                         
   Description                                                                  
     l       E           TYP  RCUT    TYP  RCUT                                 
     0    -11.7309493     23  2.300                                             
     0     -7.4578696     23  2.300                                             
     1     -3.8952261     23  2.300                                             
     1      6.1178114     23  2.300                                             
     2     -4.0817478     23  2.300                                             
     3     -1.3605826      7  2.300                                             
  local pseudopotential read in
  partial core-charges read in
  partial kinetic energy density read in
  atomic valenz-charges read in
  non local Contribution for L=           0  read in
    real space projection operators read in
  non local Contribution for L=           0  read in
    real space projection operators read in
  non local Contribution for L=           1  read in
    real space projection operators read in
  non local Contribution for L=           1  read in
    real space projection operators read in
  non local Contribution for L=           2  read in
    real space projection operators read in
    PAW grid and wavefunctions read in
 
   number of l-projection  operators is LMAX  =           5
   number of lm-projection operators is LMMAX =          13
 
 POTCAR:    PAW_PBE H 15Jun2001                   
   VRHFIN =H: ultrasoft test                                                    
   LEXCH  = PE                                                                  
   EATOM  =    12.4884 eV,    0.9179 Ry                                         
                                                                                
   TITEL  = PAW_PBE H 15Jun2001                                                 
   LULTRA =        F    use ultrasoft PP ?                                      
   IUNSCR =        0    unscreen: 0-lin 1-nonlin 2-no                           
   RPACOR =    0.000    partial core radius                                     
   POMASS =    1.000; ZVAL   =    1.000    mass and valenz                      
   RCORE  =    1.100    outmost cutoff radius                                   
   RWIGS  =    0.700; RWIGS  =    0.370    wigner-seitz radius (au A)           
   ENMAX  =  250.000; ENMIN  =  200.000 eV                                      
   RCLOC  =    0.701    cutoff for local pot                                    
   LCOR   =        T    correct aug charges                                     
   LPAW   =        T    paw PP                                                  
   EAUG   =  400.000                                                            
   RMAX   =    1.123    core radius for proj-oper                               
   RAUG   =    1.200    factor for augmentation sphere                          
   RDEP   =    1.112    radius for radial grids                                 
   RDEPT  =    0.926    core radius for aug-charge                              
                                                                                
   Atomic configuration                                                         
    2 entries                                                                   
     n  l   j            E        occ.                                          
     1  0  0.50        -6.4927   1.0000                                         
     2  1  0.50        -3.4015   0.0000                                         
   Description                                                                  
     l       E           TYP  RCUT    TYP  RCUT                                 
     0     -6.4927494     23  1.100                                             
     0      6.8029130     23  1.100                                             
     1     -4.0817478     23  1.100                                             
  local pseudopotential read in
  atomic valenz-charges read in
  non local Contribution for L=           0  read in
    real space projection operators read in
  non local Contribution for L=           0  read in
    real space projection operators read in
  non local Contribution for L=           1  read in
    real space projection operators read in
    PAW grid and wavefunctions read in
 
   number of l-projection  operators is LMAX  =           3
   number of lm-projection operators is LMMAX =           5
 

 ----------------------------------------------------------------------------- 
|                                                                             |
|  ADVICE TO THIS USER RUNNING 'VASP/VAMP'   (HEAR YOUR MASTER'S VOICE ...):  |
|                                                                             |
|      You have a (more or less) 'large supercell' and for larger cells       |
|      it might be more efficient to use real space projection opertators     |
|      So try LREAL= Auto  in the INCAR   file.                               |
|      Mind:          For very  accurate calculation you might also keep the  |
|      reciprocal projection scheme          (i.e. LREAL=.FALSE.)             |
|                                                                             |
 ----------------------------------------------------------------------------- 

  PAW_PBE Si 05Jan2001                  :
 energy of atom  1       EATOM= -103.0669
 kinetic energy error for atom=    0.0012 (will be added to EATOM!!)
  PAW_PBE Ge 05Jan2001                  :
 energy of atom  2       EATOM= -104.9960
 kinetic energy error for atom=    0.0003 (will be added to EATOM!!)
  PAW_PBE H 15Jun2001                   :
 energy of atom  3       EATOM=  -12.4884
 kinetic energy error for atom=    0.0098 (will be added to EATOM!!)
 
 
 POSCAR: SiGeH16                                 
  positions in direct lattice
  No initial velocities read in
 exchange correlation table for  LEXCH =        8
   RHO(1)=    0.500       N(1)  =     2000
   RHO(2)=  100.500       N(2)  =     4000
 


--------------------------------------------------------------------------------------------------------


 ion  position               nearest neighbor table
   1  0.475  0.556  0.385-  18 1.55   6 2.39   2 2.39   5 2.39
   2  0.369  0.539  0.436-  23 1.55  24 1.55   7 2.39   1 2.39
   3  0.557  0.433  0.512-  13 1.55   5 2.39   8 2.39   9 2.39
   4  0.547  0.624  0.554-  19 1.55   6 2.39   8 2.39  10 2.39
   5  0.542  0.457  0.396-  17 1.55  16 1.55   3 2.39   1 2.39
   6  0.531  0.648  0.437-  25 1.55  26 1.55   4 2.39   1 2.39
   7  0.385  0.515  0.552-  22 1.55  10 2.39   9 2.39   2 2.39
   8  0.613  0.525  0.565-  15 1.55  14 1.55   4 2.39   3 2.39
   9  0.451  0.416  0.564-  12 1.55  11 1.55   7 2.39   3 2.39
  10  0.440  0.606  0.605-  20 1.55  21 1.55   7 2.39   4 2.39
  11  0.415  0.357  0.529-   9 1.55
  12  0.461  0.400  0.639-   9 1.55
  13  0.600  0.369  0.520-   3 1.55
  14  0.682  0.536  0.531-   8 1.55
  15  0.623  0.509  0.640-   8 1.55
  16  0.611  0.469  0.363-   5 1.55
  17  0.506  0.398  0.362-   5 1.55
  18  0.465  0.572  0.309-   1 1.55
  19  0.583  0.683  0.588-   4 1.55
  20  0.451  0.590  0.680-  10 1.55
  21  0.397  0.670  0.598-  10 1.55
  22  0.316  0.504  0.586-   7 1.55
  23  0.333  0.479  0.402-   2 1.55
  24  0.326  0.603  0.429-   2 1.55
  25  0.488  0.712  0.430-   6 1.55
  26  0.600  0.659  0.404-   6 1.55
 
  LATTYP: Found a simple cubic cell.
 ALAT       =    20.0000000000
  
  Lattice vectors:
  
 A1 = (  20.0000000000,   0.0000000000,   0.0000000000)
 A2 = (   0.0000000000,  20.0000000000,   0.0000000000)
 A3 = (   0.0000000000,   0.0000000000,  20.0000000000)


Analysis of symmetry for initial positions (statically):
=====================================================================
 Subroutine PRICEL returns:
 Original cell was already a primitive cell.
 

 Routine SETGRP: Setting up the symmetry group for a 
 simple cubic supercell.


 Subroutine GETGRP returns: Found  1 space group operations
 (whereof  1 operations were pure point group operations)
 out of a pool of 48 trial point group operations.


The static configuration has the point symmetry C_1 .


Analysis of symmetry for dynamics (positions and initial velocities):
=====================================================================
 Subroutine PRICEL returns:
 Original cell was already a primitive cell.
 

 Routine SETGRP: Setting up the symmetry group for a 
 simple cubic supercell.


 Subroutine GETGRP returns: Found  1 space group operations
 (whereof  1 operations were pure point group operations)
 out of a pool of 48 trial point group operations.


The dynamic configuration has the point symmetry C_1 .


 Subroutine INISYM returns: Found  1 space group operations
 (whereof  1 operations are pure point group operations),
 and found     1 'primitive' translations

 
 
 KPOINTS: Automatic mesh                          

Automatic generation of k-mesh.
Space group operators:
 irot       det(A)        alpha          n_x          n_y          n_z        tau_x        tau_y        tau_z
    1     1.000000     0.000000     1.000000     0.000000     0.000000     0.000000     0.000000     0.000000
 
 Subroutine IBZKPT returns following result:
 ===========================================
 
 Found      1 irreducible k-points:
 
 Following reciprocal coordinates:
            Coordinates               Weight
  0.000000  0.000000  0.000000      1.000000
 
 Following cartesian coordinates:
            Coordinates               Weight
  0.000000  0.000000  0.000000      1.000000
 


--------------------------------------------------------------------------------------------------------




 Dimension of arrays:
   k-points           NKPTS =      1   k-points in BZ     NKDIM =      1   number of bands    NBANDS=     42
   number of dos      NEDOS =    301   number of ions     NIONS =     26
   non local maximal  LDIM  =      5   non local SUM 2l+1 LMDIM =     13
   total plane-waves  NPLWV = 941192
   max r-space proj   IRMAX =      1   max aug-charges    IRDMAX=   6593
   dimension x,y,z NGX =    98 NGY =   98 NGZ =   98
   dimension x,y,z NGXF=   196 NGYF=  196 NGZF=  196
   support grid    NGXF=   196 NGYF=  196 NGZF=  196
   ions per type =               4   6  16
   NGX,Y,Z   is equivalent  to a cutoff of   8.15,  8.15,  8.15 a.u.
   NGXF,Y,Z  is equivalent  to a cutoff of  16.29, 16.29, 16.29 a.u.

 SYSTEM =  SiGe                                    
 POSCAR =  SiGeH16                                 

 Startparameter for this run:
   NWRITE =      2    write-flag & timer
   PREC   = normal    normal or accurate (medium, high low for compatibility)
   ISTART =      0    job   : 0-new  1-cont  2-samecut
   ICHARG =      2    charge: 1-file 2-atom 10-const
   ISPIN  =      1    spin polarized calculation?
   LNONCOLLINEAR =      F non collinear calculations
   LSORBIT =      F    spin-orbit coupling
   INIWAV =      1    electr: 0-lowe 1-rand  2-diag
   LASPH  =      F    aspherical Exc in radial PAW
   METAGGA=      F    non-selfconsistent MetaGGA calc.

 Electronic Relaxation 1
   ENCUT  =  400.0 eV  29.40 Ry    5.42 a.u.  32.61 32.61 32.61*2*pi/ulx,y,z
   ENINI  =  400.0     initial cutoff
   ENAUG  =  400.0 eV  augmentation charge cutoff
   NELM   =     60;   NELMIN=  2; NELMDL= -5     # of ELM steps 
   EDIFF  = 0.1E-05   stopping-criterion for ELM
   LREAL  =      F    real-space projection
   NLSPLINE    = F    spline interpolate recip. space projectors
   LCOMPAT=      F    compatible to vasp.4.4
   GGA_COMPAT  = T    GGA compatible to vasp.4.4-vasp.4.6
   LMAXPAW     = -100 max onsite density
   LMAXMIX     =    2 max onsite mixed and CHGCAR
   VOSKOWN=      0    Vosko Wilk Nusair interpolation
   ROPT   =    0.00000   0.00000   0.00000
 Ionic relaxation
   EDIFFG = -.2E-01   stopping-criterion for IOM
   NSW    =    200    number of steps for IOM
   NBLOCK =      1;   KBLOCK =    200    inner block; outer block 
   IBRION =      2    ionic relax: 0-MD 1-quasi-New 2-CG
   NFREE  =      1    steps in history (QN), initial steepest desc. (CG)
   ISIF   =      2    stress and relaxation
   IWAVPR =     11    prediction:  0-non 1-charg 2-wave 3-comb
   ISYM   =      2    0-nonsym 1-usesym 2-fastsym
   LCORR  =      T    Harris-Foulkes like correction to forces

   POTIM  = 0.5000    time-step for ionic-motion
   TEIN   =    0.0    initial temperature
   TEBEG  =    0.0;   TEEND  =   0.0 temperature during run
   SMASS  =  -3.00    Nose mass-parameter (am)
   estimated Nose-frequenzy (Omega)   =  0.10E-29 period in steps =****** mass=  -0.914E-26a.u.
   SCALEE = 1.0000    scale energy and forces
   NPACO  =    256;   APACO  = 16.0  distance and # of slots for P.C.
   PSTRESS=    0.0 pullay stress

  Mass of Ions in am
   POMASS =  28.09 72.61  1.00
  Ionic Valenz
   ZVAL   =   4.00  4.00  1.00
  Atomic Wigner-Seitz radii
   RWIGS  =  -1.00 -1.00 -1.00
  virtual crystal weights 
   VCA    =   1.00  1.00  1.00
   NELECT =      56.0000    total number of electrons
   NUPDOWN=      -1.0000    fix difference up-down

 DOS related values:
   EMIN   =  10.00;   EMAX   =-10.00  energy-range for DOS
   EFERMI =   0.00
   ISMEAR =     0;   SIGMA  =   0.20  broadening in eV -4-tet -1-fermi 0-gaus

 Electronic relaxation 2 (details)
   IALGO  =     38    algorithm
   LDIAG  =      T    sub-space diagonalisation (order eigenvalues)
   LSUBROT=      F    optimize rotation matrix (better conditioning)
   TURBO    =      0    0=normal 1=particle mesh
   IRESTART =      0    0=no restart 2=restart with 2 vectors
   NREBOOT  =      0    no. of reboots
   NMIN     =      0    reboot dimension
   EREF     =   0.00    reference energy to select bands
   IMIX   =      4    mixing-type and parameters
     AMIX     =   0.40;   BMIX     =  1.00
     AMIX_MAG =   1.60;   BMIX_MAG =  1.00
     AMIN     =   0.10
     WC   =   100.;   INIMIX=   1;  MIXPRE=   1;  MAXMIX= -45

 Intra band minimization:
   WEIMIN = 0.0010     energy-eigenvalue tresh-hold
   EBREAK =  0.60E-08  absolut break condition
   DEPER  =   0.30     relativ break condition  

   TIME   =   0.40     timestep for ELM

  volume/ion in A,a.u.               =     307.69      2076.41
  Fermi-wavevector in a.u.,A,eV,Ry     =   0.313166  0.591797  1.334361  0.098073
  Thomas-Fermi vector in A             =   1.193276
 
 Write flags
   LWAVE        =      T    write WAVECAR
   LDOWNSAMPLE  =      F    k-point downsampling of WAVECAR
   LCHARG       =      T    write CHGCAR
   LVTOT        =      F    write LOCPOT, total local potential
   LVHAR        =      F    write LOCPOT, Hartree potential only
   LELF         =      F    write electronic localiz. function (ELF)
   LORBIT       =      0    0 simple, 1 ext, 2 COOP (PROOUT), +10 PAW based schemes


 Dipole corrections
   LMONO  =      F    monopole corrections only (constant potential shift)
   LDIPOL =      F    correct potential (dipole corrections)
   IDIPOL =      0    1-x, 2-y, 3-z, 4-all directions 
   EPSILON=  1.0000000 bulk dielectric constant

 Exchange correlation treatment:
   GGA     =    --    GGA type
   LEXCH   =     8    internal setting for exchange type
   VOSKOWN=      0    Vosko Wilk Nusair interpolation
   LHFCALC =     F    Hartree Fock is set to
   LHFONE  =     F    Hartree Fock one center treatment
   AEXX    =    0.0000 exact exchange contribution

 Linear response parameters
   LEPSILON=     F    determine dielectric tensor
   LRPA    =     F    only Hartree local field effects (RPA)
   LNABLA  =     F    use nabla operator in PAW spheres
   LVEL    =     F    velocity operator in full k-point grid
   LINTERFAST=   F  fast interpolation
   KINTER  =     0    interpolate to denser k-point grid
   CSHIFT  =0.1000    complex shift for real part using Kramers Kronig
   OMEGAMAX=  -1.0    maximum frequency
   DEG_THRESHOLD= 0.2000000E-02 threshold for treating states as degnerate
   RTIME   =   -0.100 relaxation time in fs
  (WPLASMAI=    0.000 imaginary part of plasma frequency in eV, 0.658/RTIME)
   DFIELD  = 0.0000000 0.0000000 0.0000000 field for delta impulse in time
 
 Orbital magnetization related:
   ORBITALMAG=     F  switch on orbital magnetization
   LCHIMAG   =     F  perturbation theory with respect to B field
   DQ        =  0.001000  dq finite difference perturbation B field
   LLRAUG    =     F  two centre corrections for induced B field



--------------------------------------------------------------------------------------------------------


 conjugate gradient relaxation of ions
 charge density and potential will be updated during run
 non-spin polarized calculation
 Variant of blocked Davidson
 Davidson routine will perform the subspace rotation
 perform sub-space diagonalisation
    after iterative eigenvector-optimisation
 modified Broyden-mixing scheme, WC =      100.0
 initial mixing is a Kerker type mixing with AMIX =  0.4000 and BMIX =      1.0000
 Hartree-type preconditioning will be used
 using additional bands           14
 reciprocal scheme for non local part
 use partial core corrections
 calculate Harris-corrections to forces 
   (improved forces if not selfconsistent)
 use gradient corrections 
 use of overlap-Matrix (Vanderbilt PP)
 Gauss-broadening in eV      SIGMA  =   0.20


--------------------------------------------------------------------------------------------------------


  energy-cutoff  :      400.00
  volume of cell :     8000.00
      direct lattice vectors                 reciprocal lattice vectors
    20.000000000  0.000000000  0.000000000     0.050000000  0.000000000  0.000000000
     0.000000000 20.000000000  0.000000000     0.000000000  0.050000000  0.000000000
     0.000000000  0.000000000 20.000000000     0.000000000  0.000000000  0.050000000

  length of vectors
    20.000000000 20.000000000 20.000000000     0.050000000  0.050000000  0.050000000


 
 k-points in units of 2pi/SCALE and weight: Automatic mesh                          
   0.00000000  0.00000000  0.00000000       1.000
 
 k-points in reciprocal lattice and weights: Automatic mesh                          
   0.00000000  0.00000000  0.00000000       1.000
 
 position of ions in fractional coordinates (direct lattice) 
   0.47547100  0.55626000  0.38465300
   0.36907800  0.53906000  0.43641200
   0.55736800  0.43311000  0.51215000
   0.54669200  0.62364400  0.55351800
   0.54179100  0.45744600  0.39613600
   0.53111600  0.64794100  0.43749600
   0.38461900  0.51474100  0.55243500
   0.61299700  0.52481700  0.56496600
   0.45095700  0.41593600  0.56388300
   0.44028400  0.60643000  0.60524300
   0.41490100  0.35665000  0.52940300
   0.46117000  0.40042600  0.63910800
   0.60034800  0.36907000  0.51957800
   0.68182700  0.53600700  0.53118700
   0.62280400  0.50903400  0.64018900
   0.61080000  0.46880600  0.36278200
   0.50550800  0.39805500  0.36207700
   0.46538400  0.57201900  0.30946400
   0.58275500  0.68306700  0.58775000
   0.45052500  0.59044300  0.68036400
   0.39732000  0.67044900  0.59753500
   0.31566200  0.50359800  0.58596500
   0.33322800  0.47946500  0.40225200
   0.32629100  0.60324700  0.42912600
   0.48792300  0.71185500  0.43020800
   0.60015100  0.65882400  0.40403700
 
 position of ions in cartesian coordinates  (Angst):
   9.50942000 11.12520000  7.69306000
   7.38156000 10.78120000  8.72824000
  11.14736000  8.66220000 10.24300000
  10.93384000 12.47288000 11.07036000
  10.83582000  9.14892000  7.92272000
  10.62232000 12.95882000  8.74992000
   7.69238000 10.29482000 11.04870000
  12.25994000 10.49634000 11.29932000
   9.01914000  8.31872000 11.27766000
   8.80568000 12.12860000 12.10486000
   8.29802000  7.13300000 10.58806000
   9.22340000  8.00852000 12.78216000
  12.00696000  7.38140000 10.39156000
  13.63654000 10.72014000 10.62374000
  12.45608000 10.18068000 12.80378000
  12.21600000  9.37612000  7.25564000
  10.11016000  7.96110000  7.24154000
   9.30768000 11.44038000  6.18928000
  11.65510000 13.66134000 11.75500000
   9.01050000 11.80886000 13.60728000
   7.94640000 13.40898000 11.95070000
   6.31324000 10.07196000 11.71930000
   6.66456000  9.58930000  8.04504000
   6.52582000 12.06494000  8.58252000
   9.75846000 14.23710000  8.60416000
  12.00302000 13.17648000  8.08074000
 


--------------------------------------------------------------------------------------------------------


 k-point  1 :   0.0000 0.0000 0.0000  plane waves:  145165

 maximum and minimum number of plane-waves per node :     24209    24180

 maximum number of plane-waves:    145165
 maximum index in each direction: 
   IXMAX=   32   IYMAX=   32   IZMAX=   32
   IXMIN=  -32   IYMIN=  -32   IZMIN=  -32


 parallel 3D FFT for wavefunctions:
    minimum data exchange during FFTs selected (reduces bandwidth)
 parallel 3D FFT for charge:
    minimum data exchange during FFTs selected (reduces bandwidth)


 total amount of memory used by VASP MPI-rank0   131440. kBytes
=======================================================================

   base      :      30000. kBytes
   nonl-proj :      17624. kBytes
   fftplans  :      26957. kBytes
   grid      :      48673. kBytes
   one-center:         40. kBytes
   wavefun   :       8146. kBytes
 
     INWAV:  cpu time    0.0000: real time    0.0000
 Broyden mixing: mesh for mixing (old mesh)
   NGX = 65   NGY = 65   NGZ = 65
  (NGX  =196   NGY  =196   NGZ  =196)
  gives a total of 274625 points

 initial charge density was supplied:
 charge density of overlapping atoms calculated
 number of electron      56.0000000 magnetization 
 keeping initial charge density in first step


--------------------------------------------------------------------------------------------------------


 Maximum index for augmentation-charges          565 (set IRDMAX)


--------------------------------------------------------------------------------------------------------


 First call to EWALD:  gamma=   0.089
 Maximum number of real-space cells 3x 3x 3
 Maximum number of reciprocal cells 3x 3x 3

    FEWALD:  cpu time    0.0030: real time    0.0028


--------------------------------------- Iteration      1(   1)  ---------------------------------------


    POTLOK:  cpu time    1.7557: real time    1.7585
    SETDIJ:  cpu time    0.0080: real time    0.0075
     EDDAV:  cpu time   11.3683: real time   11.3669
       DOS:  cpu time    0.0000: real time    0.0003
    --------------------------------------------
      LOOP:  cpu time   13.1320: real time   13.1332

 eigenvalue-minimisations  :   116
 total energy-change (2. order) : 0.2066333E+03  (-0.1047460E+04)
 number of electron      56.0000000 magnetization 
 augmentation part       56.0000000 magnetization 

 Free energy of the ion-electron system (eV)
  ---------------------------------------------------
  alpha Z        PSCENC =         2.51538199
  Ewald energy   TEWEN  =      2629.98113996
  -Hartree energ DENC   =     -3440.41102288
  -exchange      EXHF   =         0.00000000
  -V(xc)+E(xc)   XCENC  =       -49.27804362
  PAW double counting   =       915.51080863     -758.35430496
  entropy T*S    EENTRO =        -0.43526985
  eigenvalues    EBANDS =      -334.79055261
  atomic energy  EATOM  =      1241.89512738
  Solvation  Ediel_sol  =         0.00000000
  ---------------------------------------------------
  free energy    TOTEN  =       206.63326403 eV

  energy without entropy =      207.06853388  energy(sigma->0) =      206.85089896


--------------------------------------------------------------------------------------------------------




--------------------------------------- Iteration      1(   2)  ---------------------------------------


     EDDAV:  cpu time   12.9250: real time   12.9637
       DOS:  cpu time    0.0000: real time    0.0002
    --------------------------------------------
      LOOP:  cpu time   12.9250: real time   12.9640

 eigenvalue-minimisations  :   136
 total energy-change (2. order) :-0.2298513E+03  (-0.2151609E+03)
 number of electron      56.0000000 magnetization 
 augmentation part       56.0000000 magnetization 

 Free energy of the ion-electron system (eV)
  ---------------------------------------------------
  alpha Z        PSCENC =         2.51538199
  Ewald energy   TEWEN  =      2629.98113996
  -Hartree energ DENC   =     -3440.41102288
  -exchange      EXHF   =         0.00000000
  -V(xc)+E(xc)   XCENC  =       -49.27804362
  PAW double counting   =       915.51080863     -758.35430496
  entropy T*S    EENTRO =        -0.00000000
  eigenvalues    EBANDS =      -565.07715988
  atomic energy  EATOM  =      1241.89512738
  Solvation  Ediel_sol  =         0.00000000
  ---------------------------------------------------
  free energy    TOTEN  =       -23.21807339 eV

  energy without entropy =      -23.21807339  energy(sigma->0) =      -23.21807339


--------------------------------------------------------------------------------------------------------




--------------------------------------- Iteration      1(   3)  ---------------------------------------


     EDDAV:  cpu time   11.2263: real time   11.3148
       DOS:  cpu time    0.0000: real time    0.0002
    --------------------------------------------
      LOOP:  cpu time   11.2263: real time   11.3150

 eigenvalue-minimisations  :   112
 total energy-change (2. order) :-0.7670359E+02  (-0.7652077E+02)
 number of electron      56.0000000 magnetization 
 augmentation part       56.0000000 magnetization 

 Free energy of the ion-electron system (eV)
  ---------------------------------------------------
  alpha Z        PSCENC =         2.51538199
  Ewald energy   TEWEN  =      2629.98113996
  -Hartree energ DENC   =     -3440.41102288
  -exchange      EXHF   =         0.00000000
  -V(xc)+E(xc)   XCENC  =       -49.27804362
  PAW double counting   =       915.51080863     -758.35430496
  entropy T*S    EENTRO =        -0.00000000
  eigenvalues    EBANDS =      -641.78075114
  atomic energy  EATOM  =      1241.89512738
  Solvation  Ediel_sol  =         0.00000000
  ---------------------------------------------------
  free energy    TOTEN  =       -99.92166465 eV

  energy without entropy =      -99.92166465  energy(sigma->0) =      -99.92166465


--------------------------------------------------------------------------------------------------------




--------------------------------------- Iteration      1(   4)  ---------------------------------------


     EDDAV:  cpu time   10.4264: real time   10.4256
       DOS:  cpu time    0.0010: real time    0.0002
    --------------------------------------------
      LOOP:  cpu time   10.4274: real time   10.4258

 eigenvalue-minimisations  :   104
 total energy-change (2. order) :-0.4489819E+01  (-0.4472795E+01)
 number of electron      56.0000000 magnetization 
 augmentation part       56.0000000 magnetization 

 Free energy of the ion-electron system (eV)
  ---------------------------------------------------
  alpha Z        PSCENC =         2.51538199
  Ewald energy   TEWEN  =      2629.98113996
  -Hartree energ DENC   =     -3440.41102288
  -exchange      EXHF   =         0.00000000
  -V(xc)+E(xc)   XCENC  =       -49.27804362
  PAW double counting   =       915.51080863     -758.35430496
  entropy T*S    EENTRO =        -0.00000000
  eigenvalues    EBANDS =      -646.27057050
  atomic energy  EATOM  =      1241.89512738
  Solvation  Ediel_sol  =         0.00000000
  ---------------------------------------------------
  free energy    TOTEN  =      -104.41148401 eV

  energy without entropy =     -104.41148401  energy(sigma->0) =     -104.41148401


--------------------------------------------------------------------------------------------------------




--------------------------------------- Iteration      1(   5)  ---------------------------------------


     EDDAV:  cpu time   12.3201: real time   12.3184
       DOS:  cpu time    0.0000: real time    0.0004
    CHARGE:  cpu time    0.4869: real time    0.4870
    MIXING:  cpu time    0.0430: real time    0.0425
    --------------------------------------------
      LOOP:  cpu time   12.8500: real time   12.8483

 eigenvalue-minimisations  :   128
 total energy-change (2. order) :-0.7070006E-01  (-0.7056067E-01)
 number of electron      56.0000020 magnetization 
 augmentation part       -4.3384630 magnetization 

 Broyden mixing:
  rms(total) = 0.14418E+01    rms(broyden)= 0.14417E+01
  rms(prec ) = 0.15376E+01
  weight for this iteration     100.00

 Free energy of the ion-electron system (eV)
  ---------------------------------------------------
  alpha Z        PSCENC =         2.51538199
  Ewald energy   TEWEN  =      2629.98113996
  -Hartree energ DENC   =     -3440.41102288
  -exchange      EXHF   =         0.00000000
  -V(xc)+E(xc)   XCENC  =       -49.27804362
  PAW double counting   =       915.51080863     -758.35430496
  entropy T*S    EENTRO =        -0.00000000
  eigenvalues    EBANDS =      -646.34127056
  atomic energy  EATOM  =      1241.89512738
  Solvation  Ediel_sol  =         0.00000000
  ---------------------------------------------------
  free energy    TOTEN  =      -104.48218407 eV

  energy without entropy =     -104.48218407  energy(sigma->0) =     -104.48218407


--------------------------------------------------------------------------------------------------------




--------------------------------------- Iteration      1(   6)  ---------------------------------------


    POTLOK:  cpu time    1.6907: real time    1.6918
    SETDIJ:  cpu time    0.0070: real time    0.0078
     EDDAV:  cpu time   10.4654: real time   10.4639
       DOS:  cpu time    0.0010: real time    0.0004
    CHARGE:  cpu time    0.4819: real time    0.4819
    MIXING:  cpu time    0.0460: real time    0.0467
    --------------------------------------------
      LOOP:  cpu time   12.6921: real time   12.6925

 eigenvalue-minimisations  :   104
 total energy-change (2. order) : 0.3134955E+01  (-0.1537977E+00)
 number of electron      56.0000019 magnetization 
 augmentation part       -4.3397811 magnetization 

 Broyden mixing:
  rms(total) = 0.83593E+00    rms(broyden)= 0.83593E+00
  rms(prec ) = 0.89470E+00
  weight for this iteration     100.00

 eigenvalues of (default mixing * dielectric matrix)
  average eigenvalue GAMMA=   2.3081
  2.3081

 Free energy of the ion-electron system (eV)
  ---------------------------------------------------
  alpha Z        PSCENC =         2.51538199
  Ewald energy   TEWEN  =      2629.98113996
  -Hartree energ DENC   =     -3471.30991174
  -exchange      EXHF   =         0.00000000
  -V(xc)+E(xc)   XCENC  =       -45.65984755
  PAW double counting   =      1747.84856483    -1591.58391515
  entropy T*S    EENTRO =        -0.00000000
  eigenvalues    EBANDS =      -615.03376892
  atomic energy  EATOM  =      1241.89512738
  Solvation  Ediel_sol  =         0.00000000
  ---------------------------------------------------
  free energy    TOTEN  =      -101.34722920 eV

  energy without entropy =     -101.34722920  energy(sigma->0) =     -101.34722920


--------------------------------------------------------------------------------------------------------




--------------------------------------- Iteration      1(   7)  ---------------------------------------


    POTLOK:  cpu time    1.6957: real time    1.6948
    SETDIJ:  cpu time    0.0080: real time    0.0081
     EDDAV:  cpu time   10.4444: real time   10.4429
       DOS:  cpu time    0.0010: real time    0.0004
    CHARGE:  cpu time    0.4709: real time    0.4713
    MIXING:  cpu time    0.0480: real time    0.0483
    --------------------------------------------
      LOOP:  cpu time   12.6681: real time   12.6659

 eigenvalue-minimisations  :   104
 total energy-change (2. order) : 0.1649049E+01  (-0.3993888E+00)
 number of electron      56.0000017 magnetization 
 augmentation part       -4.3402079 magnetization 

 Broyden mixing:
  rms(total) = 0.12196E+00    rms(broyden)= 0.12181E+00
  rms(prec ) = 0.15297E+00
  weight for this iteration     100.00

 eigenvalues of (default mixing * dielectric matrix)
  average eigenvalue GAMMA=   1.8504
  1.7950  1.9057

 Free energy of the ion-electron system (eV)
  ---------------------------------------------------
  alpha Z        PSCENC =         2.51538199
  Ewald energy   TEWEN  =      2629.98113996
  -Hartree energ DENC   =     -3526.40792031
  -exchange      EXHF   =         0.00000000
  -V(xc)+E(xc)   XCENC  =       -39.91439053
  PAW double counting   =      3546.93008508    -3391.85142774
  entropy T*S    EENTRO =        -0.00000000
  eigenvalues    EBANDS =      -562.84617612
  atomic energy  EATOM  =      1241.89512738
  Solvation  Ediel_sol  =         0.00000000
  ---------------------------------------------------
  free energy    TOTEN  =       -99.69818029 eV

  energy without entropy =      -99.69818029  energy(sigma->0) =      -99.69818029


--------------------------------------------------------------------------------------------------------




--------------------------------------- Iteration      1(   8)  ---------------------------------------


    POTLOK:  cpu time    1.7007: real time    1.7012
    SETDIJ:  cpu time    0.0080: real time    0.0078
     EDDAV:  cpu time   11.0783: real time   11.0763
       DOS:  cpu time    0.0010: real time    0.0004
    CHARGE:  cpu time    0.4789: real time    0.4795
    MIXING:  cpu time    0.0520: real time    0.0513
    --------------------------------------------
      LOOP:  cpu time   13.3190: real time   13.3164

 eigenvalue-minimisations  :   112
 total energy-change (2. order) : 0.5345378E-01  (-0.2656351E-01)
 number of electron      56.0000017 magnetization 
 augmentation part       -4.3328548 magnetization 

 Broyden mixing:
  rms(total) = 0.60223E-01    rms(broyden)= 0.60210E-01
  rms(prec ) = 0.79358E-01
  weight for this iteration     100.00

 eigenvalues of (default mixing * dielectric matrix)
  average eigenvalue GAMMA=   1.9835
  2.6667  1.6419  1.6419

 Free energy of the ion-electron system (eV)
  ---------------------------------------------------
  alpha Z        PSCENC =         2.51538199
  Ewald energy   TEWEN  =      2629.98113996
  -Hartree energ DENC   =     -3534.43809467
  -exchange      EXHF   =         0.00000000
  -V(xc)+E(xc)   XCENC  =       -39.94495942
  PAW double counting   =      3574.18881750    -3419.01640844
  entropy T*S    EENTRO =        -0.00000000
  eigenvalues    EBANDS =      -554.82573082
  atomic energy  EATOM  =      1241.89512738
  Solvation  Ediel_sol  =         0.00000000
  ---------------------------------------------------
  free energy    TOTEN  =       -99.64472651 eV

  energy without entropy =      -99.64472651  energy(sigma->0) =      -99.64472651


--------------------------------------------------------------------------------------------------------




--------------------------------------- Iteration      1(   9)  ---------------------------------------


    POTLOK:  cpu time    1.7197: real time    1.7223
    SETDIJ:  cpu time    0.0080: real time    0.0078
     EDDAV:  cpu time   11.6832: real time   11.6810
       DOS:  cpu time    0.0000: real time    0.0003
    CHARGE:  cpu time    0.4819: real time    0.4818
    MIXING:  cpu time    0.0520: real time    0.0519
    --------------------------------------------
      LOOP:  cpu time   13.9449: real time   13.9451

 eigenvalue-minimisations  :   120
 total energy-change (2. order) : 0.3579786E-01  (-0.6734752E-02)
 number of electron      56.0000017 magnetization 
 augmentation part       -4.3184449 magnetization 

 Broyden mixing:
  rms(total) = 0.33426E-01    rms(broyden)= 0.33425E-01
  rms(prec ) = 0.45022E-01
  weight for this iteration     100.00

 eigenvalues of (default mixing * dielectric matrix)
  average eigenvalue GAMMA=   1.7532
  2.5061  1.8363  1.8363  0.8342

 Free energy of the ion-electron system (eV)
  ---------------------------------------------------
  alpha Z        PSCENC =         2.51538199
  Ewald energy   TEWEN  =      2629.98113996
  -Hartree energ DENC   =     -3546.14437267
  -exchange      EXHF   =         0.00000000
  -V(xc)+E(xc)   XCENC  =       -39.22978995
  PAW double counting   =      3708.58729803    -3553.46213432
  entropy T*S    EENTRO =        -0.00000000
  eigenvalues    EBANDS =      -543.75157908
  atomic energy  EATOM  =      1241.89512738
  Solvation  Ediel_sol  =         0.00000000
  ---------------------------------------------------
  free energy    TOTEN  =       -99.60892865 eV

  energy without entropy =      -99.60892865  energy(sigma->0) =      -99.60892865


--------------------------------------------------------------------------------------------------------




--------------------------------------- Iteration      1(  10)  ---------------------------------------


    POTLOK:  cpu time    1.7097: real time    1.7103
    SETDIJ:  cpu time    0.0080: real time    0.0078
     EDDAV:  cpu time   11.0383: real time   11.0365
       DOS:  cpu time    0.0010: real time    0.0005
    CHARGE:  cpu time    0.4839: real time    0.4843
    MIXING:  cpu time    0.0550: real time    0.0549
    --------------------------------------------
      LOOP:  cpu time   13.2960: real time   13.2944

 eigenvalue-minimisations  :   112
 total energy-change (2. order) :-0.4036488E-03  (-0.2676068E-03)
 number of electron      56.0000017 magnetization 
 augmentation part       -4.3177336 magnetization 

 Broyden mixing:
  rms(total) = 0.14222E-01    rms(broyden)= 0.14221E-01
  rms(prec ) = 0.27652E-01
  weight for this iteration     100.00

 eigenvalues of (default mixing * dielectric matrix)
  average eigenvalue GAMMA=   1.9210
  2.8564  2.4565  1.0389  1.6265  1.6265

 Free energy of the ion-electron system (eV)
  ---------------------------------------------------
  alpha Z        PSCENC =         2.51538199
  Ewald energy   TEWEN  =      2629.98113996
  -Hartree energ DENC   =     -3548.31702161
  -exchange      EXHF   =         0.00000000
  -V(xc)+E(xc)   XCENC  =       -39.24362086
  PAW double counting   =      3630.31267876    -3475.13310918
  entropy T*S    EENTRO =        -0.00000000
  eigenvalues    EBANDS =      -541.61990875
  atomic energy  EATOM  =      1241.89512738
  Solvation  Ediel_sol  =         0.00000000
  ---------------------------------------------------
  free energy    TOTEN  =       -99.60933230 eV

  energy without entropy =      -99.60933230  energy(sigma->0) =      -99.60933230


--------------------------------------------------------------------------------------------------------




--------------------------------------- Iteration      1(  11)  ---------------------------------------


    POTLOK:  cpu time    1.7227: real time    1.7251
    SETDIJ:  cpu time    0.0080: real time    0.0078
     EDDAV:  cpu time   10.4654: real time   10.4641
       DOS:  cpu time    0.0000: real time    0.0003
    CHARGE:  cpu time    0.4799: real time    0.4801
    MIXING:  cpu time    0.0590: real time    0.0590
    --------------------------------------------
      LOOP:  cpu time   12.7361: real time   12.7364

 eigenvalue-minimisations  :   104
 total energy-change (2. order) : 0.2300508E-03  (-0.6867602E-03)
 number of electron      56.0000017 magnetization 
 augmentation part       -4.3162555 magnetization 

 Broyden mixing:
  rms(total) = 0.87259E-02    rms(broyden)= 0.87257E-02
  rms(prec ) = 0.14424E-01
  weight for this iteration     100.00

 eigenvalues of (default mixing * dielectric matrix)
  average eigenvalue GAMMA=   1.8714
  3.2792  2.5503  1.7383  1.7383  1.0490  0.8735

 Free energy of the ion-electron system (eV)
  ---------------------------------------------------
  alpha Z        PSCENC =         2.51538199
  Ewald energy   TEWEN  =      2629.98113996
  -Hartree energ DENC   =     -3555.37813179
  -exchange      EXHF   =         0.00000000
  -V(xc)+E(xc)   XCENC  =       -39.03751986
  PAW double counting   =      3591.02215234    -3435.80300216
  entropy T*S    EENTRO =        -0.00000000
  eigenvalues    EBANDS =      -534.80425011
  atomic energy  EATOM  =      1241.89512738
  Solvation  Ediel_sol  =         0.00000000
  ---------------------------------------------------
  free energy    TOTEN  =       -99.60910225 eV

  energy without entropy =      -99.60910225  energy(sigma->0) =      -99.60910225


--------------------------------------------------------------------------------------------------------




--------------------------------------- Iteration      1(  12)  ---------------------------------------


    POTLOK:  cpu time    1.7287: real time    1.7280
    SETDIJ:  cpu time    0.0080: real time    0.0080
     EDDAV:  cpu time   11.0773: real time   11.0755
       DOS:  cpu time    0.0000: real time    0.0003
    CHARGE:  cpu time    0.4859: real time    0.4858
    MIXING:  cpu time    0.0590: real time    0.0594
    --------------------------------------------
      LOOP:  cpu time   13.3580: real time   13.3569

 eigenvalue-minimisations  :   112
 total energy-change (2. order) :-0.4182048E-02  (-0.9876015E-04)
 number of electron      56.0000017 magnetization 
 augmentation part       -4.3154414 magnetization 

 Broyden mixing:
  rms(total) = 0.59843E-02    rms(broyden)= 0.59843E-02
  rms(prec ) = 0.10035E-01
  weight for this iteration     100.00

 eigenvalues of (default mixing * dielectric matrix)
  average eigenvalue GAMMA=   2.0483
  4.3929  2.4553  2.4553  1.5355  1.5355  0.9818  0.9818

 Free energy of the ion-electron system (eV)
  ---------------------------------------------------
  alpha Z        PSCENC =         2.51538199
  Ewald energy   TEWEN  =      2629.98113996
  -Hartree energ DENC   =     -3557.36889140
  -exchange      EXHF   =         0.00000000
  -V(xc)+E(xc)   XCENC  =       -39.00341687
  PAW double counting   =      3590.43632507    -3435.21875282
  entropy T*S    EENTRO =        -0.00000000
  eigenvalues    EBANDS =      -532.85019761
  atomic energy  EATOM  =      1241.89512738
  Solvation  Ediel_sol  =         0.00000000
  ---------------------------------------------------
  free energy    TOTEN  =       -99.61328430 eV

  energy without entropy =      -99.61328430  energy(sigma->0) =      -99.61328430


--------------------------------------------------------------------------------------------------------




--------------------------------------- Iteration      1(  13)  ---------------------------------------


    POTLOK:  cpu time    1.7267: real time    1.7254
    SETDIJ:  cpu time    0.0080: real time    0.0139
     EDDAV:  cpu time   11.0743: real time   11.0729
       DOS:  cpu time    0.0000: real time    0.0003
    CHARGE:  cpu time    0.4869: real time    0.4872
    MIXING:  cpu time    0.0640: real time    0.0641
    --------------------------------------------
      LOOP:  cpu time   13.3600: real time   13.3638

 eigenvalue-minimisations  :   112
 total energy-change (2. order) :-0.5072055E-02  (-0.1677940E-03)
 number of electron      56.0000017 magnetization 
 augmentation part       -4.3153199 magnetization 

 Broyden mixing:
  rms(total) = 0.35246E-02    rms(broyden)= 0.35245E-02
  rms(prec ) = 0.52805E-02
  weight for this iteration     100.00

 eigenvalues of (default mixing * dielectric matrix)
  average eigenvalue GAMMA=   2.1751
  5.6021  2.9510  2.2721  1.7799  1.7799  1.1027  0.9566  0.9566

 Free energy of the ion-electron system (eV)
  ---------------------------------------------------
  alpha Z        PSCENC =         2.51538199
  Ewald energy   TEWEN  =      2629.98113996
  -Hartree energ DENC   =     -3560.06362742
  -exchange      EXHF   =         0.00000000
  -V(xc)+E(xc)   XCENC  =       -38.95165732
  PAW double counting   =      3598.14835095    -3442.93928155
  entropy T*S    EENTRO =        -0.00000000
  eigenvalues    EBANDS =      -530.20379035
  atomic energy  EATOM  =      1241.89512738
  Solvation  Ediel_sol  =         0.00000000
  ---------------------------------------------------
  free energy    TOTEN  =       -99.61835635 eV

  energy without entropy =      -99.61835635  energy(sigma->0) =      -99.61835635


--------------------------------------------------------------------------------------------------------




--------------------------------------- Iteration      1(  14)  ---------------------------------------


    POTLOK:  cpu time    1.7317: real time    1.7342
    SETDIJ:  cpu time    0.0080: real time    0.0081
     EDDAV:  cpu time   11.0613: real time   11.0595
       DOS:  cpu time    0.0000: real time    0.0003
    CHARGE:  cpu time    0.4869: real time    0.4871
    MIXING:  cpu time    0.0700: real time    0.0699
    --------------------------------------------
      LOOP:  cpu time   13.3580: real time   13.3591

 eigenvalue-minimisations  :   112
 total energy-change (2. order) :-0.3381087E-02  (-0.2567910E-04)
 number of electron      56.0000017 magnetization 
 augmentation part       -4.3149251 magnetization 

 Broyden mixing:
  rms(total) = 0.17816E-02    rms(broyden)= 0.17816E-02
  rms(prec ) = 0.29386E-02
  weight for this iteration     100.00

 eigenvalues of (default mixing * dielectric matrix)
  average eigenvalue GAMMA=   2.2767
  6.5188  2.8140  2.8140  2.1077  1.5899  1.5899  1.1403  0.9576  0.9576

 Free energy of the ion-electron system (eV)
  ---------------------------------------------------
  alpha Z        PSCENC =         2.51538199
  Ewald energy   TEWEN  =      2629.98113996
  -Hartree energ DENC   =     -3560.77870490
  -exchange      EXHF   =         0.00000000
  -V(xc)+E(xc)   XCENC  =       -38.96483795
  PAW double counting   =      3595.99343036    -3440.78328795
  entropy T*S    EENTRO =        -0.00000000
  eigenvalues    EBANDS =      -529.47998633
  atomic energy  EATOM  =      1241.89512738
  Solvation  Ediel_sol  =         0.00000000
  ---------------------------------------------------
  free energy    TOTEN  =       -99.62173744 eV

  energy without entropy =      -99.62173744  energy(sigma->0) =      -99.62173744


--------------------------------------------------------------------------------------------------------




--------------------------------------- Iteration      1(  15)  ---------------------------------------


    POTLOK:  cpu time    1.7167: real time    1.7169
    SETDIJ:  cpu time    0.0080: real time    0.0080
     EDDAV:  cpu time   10.9153: real time   10.9137
       DOS:  cpu time    0.0000: real time    0.0003
    CHARGE:  cpu time    0.4839: real time    0.4850
    MIXING:  cpu time    0.0780: real time    0.0775
    --------------------------------------------
      LOOP:  cpu time   13.2020: real time   13.2014

 eigenvalue-minimisations  :   110
 total energy-change (2. order) :-0.4663035E-02  (-0.5749878E-04)
 number of electron      56.0000017 magnetization 
 augmentation part       -4.3145443 magnetization 

 Broyden mixing:
  rms(total) = 0.14922E-02    rms(broyden)= 0.14921E-02
  rms(prec ) = 0.19503E-02
  weight for this iteration     100.00

 eigenvalues of (default mixing * dielectric matrix)
  average eigenvalue GAMMA=   2.3084
  6.7686  3.7951  2.6117  1.9833  1.9833  1.7861  1.2213  0.9458  0.9946  0.9946

 Free energy of the ion-electron system (eV)
  ---------------------------------------------------
  alpha Z        PSCENC =         2.51538199
  Ewald energy   TEWEN  =      2629.98113996
  -Hartree energ DENC   =     -3561.08093493
  -exchange      EXHF   =         0.00000000
  -V(xc)+E(xc)   XCENC  =       -38.97306231
  PAW double counting   =      3599.06311821    -3443.85380965
  entropy T*S    EENTRO =        -0.00000000
  eigenvalues    EBANDS =      -529.17336112
  atomic energy  EATOM  =      1241.89512738
  Solvation  Ediel_sol  =         0.00000000
  ---------------------------------------------------
  free energy    TOTEN  =       -99.62640048 eV

  energy without entropy =      -99.62640048  energy(sigma->0) =      -99.62640048


--------------------------------------------------------------------------------------------------------




--------------------------------------- Iteration      1(  16)  ---------------------------------------


    POTLOK:  cpu time    1.8417: real time    1.8426
    SETDIJ:  cpu time    0.0080: real time    0.0078
     EDDAV:  cpu time   11.0553: real time   11.0538
       DOS:  cpu time    0.0000: real time    0.0004
    CHARGE:  cpu time    0.4849: real time    0.4847
    MIXING:  cpu time    0.0850: real time    0.0854
    --------------------------------------------
      LOOP:  cpu time   13.4750: real time   13.4748

 eigenvalue-minimisations  :   112
 total energy-change (2. order) :-0.1205388E-02  (-0.7030986E-05)
 number of electron      56.0000017 magnetization 
 augmentation part       -4.3147180 magnetization 

 Broyden mixing:
  rms(total) = 0.66843E-03    rms(broyden)= 0.66842E-03
  rms(prec ) = 0.99644E-03
  weight for this iteration     100.00

 eigenvalues of (default mixing * dielectric matrix)
  average eigenvalue GAMMA=   2.4535
  7.4735  4.7901  2.7729  2.5909  1.8569  1.8569  1.3585  1.3585  0.9700  0.9700
  0.9898

 Free energy of the ion-electron system (eV)
  ---------------------------------------------------
  alpha Z        PSCENC =         2.51538199
  Ewald energy   TEWEN  =      2629.98113996
  -Hartree energ DENC   =     -3561.16733626
  -exchange      EXHF   =         0.00000000
  -V(xc)+E(xc)   XCENC  =       -38.97234139
  PAW double counting   =      3598.70833500    -3443.49844681
  entropy T*S    EENTRO =        -0.00000000
  eigenvalues    EBANDS =      -529.08946573
  atomic energy  EATOM  =      1241.89512738
  Solvation  Ediel_sol  =         0.00000000
  ---------------------------------------------------
  free energy    TOTEN  =       -99.62760586 eV

  energy without entropy =      -99.62760586  energy(sigma->0) =      -99.62760586


--------------------------------------------------------------------------------------------------------




--------------------------------------- Iteration      1(  17)  ---------------------------------------


    POTLOK:  cpu time    1.7107: real time    1.7109
    SETDIJ:  cpu time    0.0080: real time    0.0078
     EDDAV:  cpu time   11.0643: real time   11.0707
       DOS:  cpu time    0.0000: real time    0.0005
    CHARGE:  cpu time    0.4839: real time    0.4832
    MIXING:  cpu time    0.0970: real time    0.0968
    --------------------------------------------
      LOOP:  cpu time   13.3640: real time   13.3698

 eigenvalue-minimisations  :   112
 total energy-change (2. order) :-0.1060895E-02  (-0.9834881E-05)
 number of electron      56.0000017 magnetization 
 augmentation part       -4.3149369 magnetization 

 Broyden mixing:
  rms(total) = 0.34726E-03    rms(broyden)= 0.34723E-03
  rms(prec ) = 0.46431E-03
  weight for this iteration     100.00

 eigenvalues of (default mixing * dielectric matrix)
  average eigenvalue GAMMA=   2.4139
  7.6291  5.1356  2.6659  2.6659  1.9813  1.9813  1.4511  1.4511  1.0218  1.0218
  0.9811  0.9811

 Free energy of the ion-electron system (eV)
  ---------------------------------------------------
  alpha Z        PSCENC =         2.51538199
  Ewald energy   TEWEN  =      2629.98113996
  -Hartree energ DENC   =     -3561.18647600
  -exchange      EXHF   =         0.00000000
  -V(xc)+E(xc)   XCENC  =       -38.97394429
  PAW double counting   =      3597.32437791    -3442.11276583
  entropy T*S    EENTRO =        -0.00000000
  eigenvalues    EBANDS =      -529.07150788
  atomic energy  EATOM  =      1241.89512738
  Solvation  Ediel_sol  =         0.00000000
  ---------------------------------------------------
  free energy    TOTEN  =       -99.62866676 eV

  energy without entropy =      -99.62866676  energy(sigma->0) =      -99.62866676


--------------------------------------------------------------------------------------------------------




--------------------------------------- Iteration      1(  18)  ---------------------------------------


    POTLOK:  cpu time    1.7127: real time    1.7124
    SETDIJ:  cpu time    0.0080: real time    0.0083
     EDDAV:  cpu time   10.4534: real time   10.4532
       DOS:  cpu time    0.0000: real time    0.0004
    CHARGE:  cpu time    0.4849: real time    0.4847
    MIXING:  cpu time    0.1060: real time    0.1062
    --------------------------------------------
      LOOP:  cpu time   12.7651: real time   12.7651

 eigenvalue-minimisations  :   104
 total energy-change (2. order) :-0.2235781E-03  (-0.6603158E-06)
 number of electron      56.0000017 magnetization 
 augmentation part       -4.3149365 magnetization 

 Broyden mixing:
  rms(total) = 0.19223E-03    rms(broyden)= 0.19220E-03
  rms(prec ) = 0.27346E-03
  weight for this iteration     100.00

 eigenvalues of (default mixing * dielectric matrix)
  average eigenvalue GAMMA=   2.4981
  8.1478  5.7924  3.1661  2.6691  2.4171  1.8247  1.8247  1.3758  1.3758  0.9951
  0.9951  0.9457  0.9457

 Free energy of the ion-electron system (eV)
  ---------------------------------------------------
  alpha Z        PSCENC =         2.51538199
  Ewald energy   TEWEN  =      2629.98113996
  -Hartree energ DENC   =     -3561.20307410
  -exchange      EXHF   =         0.00000000
  -V(xc)+E(xc)   XCENC  =       -38.97437964
  PAW double counting   =      3597.55038643    -3442.33933239
  entropy T*S    EENTRO =        -0.00000000
  eigenvalues    EBANDS =      -529.05413997
  atomic energy  EATOM  =      1241.89512738
  Solvation  Ediel_sol  =         0.00000000
  ---------------------------------------------------
  free energy    TOTEN  =       -99.62889034 eV

  energy without entropy =      -99.62889034  energy(sigma->0) =      -99.62889034


--------------------------------------------------------------------------------------------------------




--------------------------------------- Iteration      1(  19)  ---------------------------------------


    POTLOK:  cpu time    1.7437: real time    1.7450
    SETDIJ:  cpu time    0.0080: real time    0.0077
     EDDAV:  cpu time   10.2704: real time   10.2688
       DOS:  cpu time    0.0000: real time    0.0004
    CHARGE:  cpu time    0.4829: real time    0.4831
    MIXING:  cpu time    0.1180: real time    0.1175
    --------------------------------------------
      LOOP:  cpu time   12.6231: real time   12.6226

 eigenvalue-minimisations  :   102
 total energy-change (2. order) :-0.1759140E-03  (-0.6979448E-06)
 number of electron      56.0000017 magnetization 
 augmentation part       -4.3149638 magnetization 

 Broyden mixing:
  rms(total) = 0.18722E-03    rms(broyden)= 0.18722E-03
  rms(prec ) = 0.22009E-03
  weight for this iteration     100.00

 eigenvalues of (default mixing * dielectric matrix)
  average eigenvalue GAMMA=   2.4804
  8.3667  6.0879  3.4135  2.6472  2.0612  2.0612  1.7013  1.7013  1.4966  1.3309
  1.0007  1.0007  0.9285  0.9285

 Free energy of the ion-electron system (eV)
  ---------------------------------------------------
  alpha Z        PSCENC =         2.51538199
  Ewald energy   TEWEN  =      2629.98113996
  -Hartree energ DENC   =     -3561.22270913
  -exchange      EXHF   =         0.00000000
  -V(xc)+E(xc)   XCENC  =       -38.97315452
  PAW double counting   =      3597.36352429    -3442.15280789
  entropy T*S    EENTRO =        -0.00000000
  eigenvalues    EBANDS =      -529.03556833
  atomic energy  EATOM  =      1241.89512738
  Solvation  Ediel_sol  =         0.00000000
  ---------------------------------------------------
  free energy    TOTEN  =       -99.62906625 eV

  energy without entropy =      -99.62906625  energy(sigma->0) =      -99.62906625


--------------------------------------------------------------------------------------------------------




--------------------------------------- Iteration      1(  20)  ---------------------------------------


    POTLOK:  cpu time    1.7207: real time    1.7199
    SETDIJ:  cpu time    0.0080: real time    0.0080
     EDDAV:  cpu time    9.2206: real time    9.2210
       DOS:  cpu time    0.0000: real time    0.0004
    CHARGE:  cpu time    0.4819: real time    0.4816
    MIXING:  cpu time    0.1290: real time    0.1293
    --------------------------------------------
      LOOP:  cpu time   11.5602: real time   11.5602

 eigenvalue-minimisations  :    88
 total energy-change (2. order) :-0.3733976E-04  (-0.6090111E-07)
 number of electron      56.0000017 magnetization 
 augmentation part       -4.3149445 magnetization 

 Broyden mixing:
  rms(total) = 0.49605E-04    rms(broyden)= 0.49605E-04
  rms(prec ) = 0.76864E-04
  weight for this iteration     100.00

 eigenvalues of (default mixing * dielectric matrix)
  average eigenvalue GAMMA=   2.5343
  8.6578  6.4185  4.0827  2.9628  2.5092  1.8951  1.8951  1.7688  1.4011  1.2740
  1.2740  0.9969  0.9969  0.9774  0.9039

 Free energy of the ion-electron system (eV)
  ---------------------------------------------------
  alpha Z        PSCENC =         2.51538199
  Ewald energy   TEWEN  =      2629.98113996
  -Hartree energ DENC   =     -3561.22809930
  -exchange      EXHF   =         0.00000000
  -V(xc)+E(xc)   XCENC  =       -38.97391719
  PAW double counting   =      3597.20280778    -3441.99199794
  entropy T*S    EENTRO =        -0.00000000
  eigenvalues    EBANDS =      -529.02954628
  atomic energy  EATOM  =      1241.89512738
  Solvation  Ediel_sol  =         0.00000000
  ---------------------------------------------------
  free energy    TOTEN  =       -99.62910359 eV

  energy without entropy =      -99.62910359  energy(sigma->0) =      -99.62910359


--------------------------------------------------------------------------------------------------------




--------------------------------------- Iteration      1(  21)  ---------------------------------------


    POTLOK:  cpu time    1.8617: real time    1.8632
    SETDIJ:  cpu time    0.0080: real time    0.0079
     EDDAV:  cpu time    9.0736: real time    9.0922
       DOS:  cpu time    0.0000: real time    0.0004
    CHARGE:  cpu time    0.4869: real time    0.4865
    MIXING:  cpu time    0.1410: real time    0.1406
    --------------------------------------------
      LOOP:  cpu time   11.5712: real time   11.5907

 eigenvalue-minimisations  :    86
 total energy-change (2. order) :-0.2716786E-04  (-0.8700218E-07)
 number of electron      56.0000017 magnetization 
 augmentation part       -4.3149255 magnetization 

 Broyden mixing:
  rms(total) = 0.51097E-04    rms(broyden)= 0.51094E-04
  rms(prec ) = 0.63842E-04
  weight for this iteration     100.00

 eigenvalues of (default mixing * dielectric matrix)
  average eigenvalue GAMMA=   2.5062
  8.5606  6.6686  4.1507  2.9478  2.6144  2.0364  2.0364  1.7684  1.6047  1.6047
  1.1865  1.0212  1.0212  0.9975  0.9397  0.9397

 Free energy of the ion-electron system (eV)
  ---------------------------------------------------
  alpha Z        PSCENC =         2.51538199
  Ewald energy   TEWEN  =      2629.98113996
  -Hartree energ DENC   =     -3561.23265904
  -exchange      EXHF   =         0.00000000
  -V(xc)+E(xc)   XCENC  =       -38.97411739
  PAW double counting   =      3597.30651007    -3442.09579934
  entropy T*S    EENTRO =        -0.00000000
  eigenvalues    EBANDS =      -529.02471440
  atomic energy  EATOM  =      1241.89512738
  Solvation  Ediel_sol  =         0.00000000
  ---------------------------------------------------
  free energy    TOTEN  =       -99.62913076 eV

  energy without entropy =      -99.62913076  energy(sigma->0) =      -99.62913076


--------------------------------------------------------------------------------------------------------




--------------------------------------- Iteration      1(  22)  ---------------------------------------


    POTLOK:  cpu time    1.7127: real time    1.7125
    SETDIJ:  cpu time    0.0080: real time    0.0079
     EDDAV:  cpu time    9.1966: real time    9.2324
       DOS:  cpu time    0.0000: real time    0.0004
    CHARGE:  cpu time    0.4879: real time    0.4865
    MIXING:  cpu time    0.1510: real time    0.1516
    --------------------------------------------
      LOOP:  cpu time   11.5562: real time   11.5914

 eigenvalue-minimisations  :    88
 total energy-change (2. order) :-0.6854286E-05  (-0.1527192E-07)
 number of electron      56.0000017 magnetization 
 augmentation part       -4.3149351 magnetization 

 Broyden mixing:
  rms(total) = 0.16881E-04    rms(broyden)= 0.16880E-04
  rms(prec ) = 0.24870E-04
  weight for this iteration     100.00

 eigenvalues of (default mixing * dielectric matrix)
  average eigenvalue GAMMA=   2.5376
  8.7967  6.7812  4.7496  3.2551  2.6529  2.5339  1.9319  1.9319  1.6201  1.6201
  1.1992  1.1992  1.0162  0.9870  0.9870  0.9385  0.9385

 Free energy of the ion-electron system (eV)
  ---------------------------------------------------
  alpha Z        PSCENC =         2.51538199
  Ewald energy   TEWEN  =      2629.98113996
  -Hartree energ DENC   =     -3561.23245390
  -exchange      EXHF   =         0.00000000
  -V(xc)+E(xc)   XCENC  =       -38.97392097
  PAW double counting   =      3597.34755720    -3442.13676717
  entropy T*S    EENTRO =        -0.00000000
  eigenvalues    EBANDS =      -529.02520211
  atomic energy  EATOM  =      1241.89512738
  Solvation  Ediel_sol  =         0.00000000
  ---------------------------------------------------
  free energy    TOTEN  =       -99.62913761 eV

  energy without entropy =      -99.62913761  energy(sigma->0) =      -99.62913761


--------------------------------------------------------------------------------------------------------




--------------------------------------- Iteration      1(  23)  ---------------------------------------


    POTLOK:  cpu time    1.7137: real time    1.7122
    SETDIJ:  cpu time    0.0070: real time    0.0079
     EDDAV:  cpu time    9.0586: real time    9.0553
       DOS:  cpu time    0.0000: real time    0.0004
    CHARGE:  cpu time    0.4889: real time    0.4893
    MIXING:  cpu time    0.1660: real time    0.1652
    --------------------------------------------
      LOOP:  cpu time   11.4343: real time   11.4302

 eigenvalue-minimisations  :    86
 total energy-change (2. order) :-0.3880212E-05  (-0.1020713E-07)
 number of electron      56.0000017 magnetization 
 augmentation part       -4.3149425 magnetization 

 Broyden mixing:
  rms(total) = 0.12233E-04    rms(broyden)= 0.12233E-04
  rms(prec ) = 0.16356E-04
  weight for this iteration     100.00

 eigenvalues of (default mixing * dielectric matrix)
  average eigenvalue GAMMA=   2.5269
  8.8524  6.8784  4.9214  3.1974  2.9433  2.5717  2.0294  2.0294  1.6728  1.6728
  1.3338  1.3338  0.9305  0.9864  0.9864  1.0523  1.0457  1.0457

 Free energy of the ion-electron system (eV)
  ---------------------------------------------------
  alpha Z        PSCENC =         2.51538199
  Ewald energy   TEWEN  =      2629.98113996
  -Hartree energ DENC   =     -3561.23212512
  -exchange      EXHF   =         0.00000000
  -V(xc)+E(xc)   XCENC  =       -38.97400092
  PAW double counting   =      3597.31127107    -3442.10044083
  entropy T*S    EENTRO =        -0.00000000
  eigenvalues    EBANDS =      -529.02549502
  atomic energy  EATOM  =      1241.89512738
  Solvation  Ediel_sol  =         0.00000000
  ---------------------------------------------------
  free energy    TOTEN  =       -99.62914149 eV

  energy without entropy =      -99.62914149  energy(sigma->0) =      -99.62914149


--------------------------------------------------------------------------------------------------------




--------------------------------------- Iteration      1(  24)  ---------------------------------------


    POTLOK:  cpu time    1.7177: real time    1.7177
    SETDIJ:  cpu time    0.0080: real time    0.0079
     EDDAV:  cpu time    9.2046: real time    9.2404
       DOS:  cpu time    0.0000: real time    0.0003
    CHARGE:  cpu time    0.4799: real time    0.4804
    MIXING:  cpu time    0.1790: real time    0.1787
    --------------------------------------------
      LOOP:  cpu time   11.5892: real time   11.6255

 eigenvalue-minimisations  :    88
 total energy-change (2. order) :-0.2006641E-05  (-0.3043759E-08)
 number of electron      56.0000017 magnetization 
 augmentation part       -4.3149418 magnetization 

 Broyden mixing:
  rms(total) = 0.49399E-05    rms(broyden)= 0.49396E-05
  rms(prec ) = 0.71797E-05
  weight for this iteration     100.00

 eigenvalues of (default mixing * dielectric matrix)
  average eigenvalue GAMMA=   2.5697
  8.8512  7.1748  5.5254  3.9330  2.9559  2.5098  2.3505  1.9399  1.9399  1.6308
  1.6308  1.1997  1.1997  1.1332  1.0012  1.0012  0.9503  0.9503  0.9470

 Free energy of the ion-electron system (eV)
  ---------------------------------------------------
  alpha Z        PSCENC =         2.51538199
  Ewald energy   TEWEN  =      2629.98113996
  -Hartree energ DENC   =     -3561.23284525
  -exchange      EXHF   =         0.00000000
  -V(xc)+E(xc)   XCENC  =       -38.97399606
  PAW double counting   =      3597.28792724    -3442.07712001
  entropy T*S    EENTRO =        -0.00000000
  eigenvalues    EBANDS =      -529.02475876
  atomic energy  EATOM  =      1241.89512738
  Solvation  Ediel_sol  =         0.00000000
  ---------------------------------------------------
  free energy    TOTEN  =       -99.62914350 eV

  energy without entropy =      -99.62914350  energy(sigma->0) =      -99.62914350


--------------------------------------------------------------------------------------------------------




--------------------------------------- Iteration      1(  25)  ---------------------------------------


    POTLOK:  cpu time    1.7367: real time    1.7378
    SETDIJ:  cpu time    0.0080: real time    0.0079
     EDDAV:  cpu time    9.2286: real time    9.2298
       DOS:  cpu time    0.0000: real time    0.0003
    --------------------------------------------
      LOOP:  cpu time   10.9733: real time   10.9758

 eigenvalue-minimisations  :    88
 total energy-change (2. order) :-0.6236473E-06  (-0.1037748E-08)
 number of electron      56.0000017 magnetization 
 augmentation part       -4.3149418 magnetization 

 Free energy of the ion-electron system (eV)
  ---------------------------------------------------
  alpha Z        PSCENC =         2.51538199
  Ewald energy   TEWEN  =      2629.98113996
  -Hartree energ DENC   =     -3561.23332355
  -exchange      EXHF   =         0.00000000
  -V(xc)+E(xc)   XCENC  =       -38.97396893
  PAW double counting   =      3597.29214233    -3442.08134568
  entropy T*S    EENTRO =        -0.00000000
  eigenvalues    EBANDS =      -529.02429763
  atomic energy  EATOM  =      1241.89512738
  Solvation  Ediel_sol  =         0.00000000
  ---------------------------------------------------
  free energy    TOTEN  =       -99.62914412 eV

  energy without entropy =      -99.62914412  energy(sigma->0) =      -99.62914412


--------------------------------------------------------------------------------------------------------




 average (electrostatic) potential at core
  the test charge radii are     0.9892  1.1631  0.5201
  (the norm of the test charge is              1.0000)
       1 -93.4347       2 -93.4486       3 -93.4740       4 -93.4740       5 -40.3862
       6 -40.3862       7 -40.4253       8 -40.3804       9 -40.4272      10 -40.4272
      11 -41.0541      12 -41.0583      13 -40.6754      14 -41.0642      15 -41.0631
      16 -41.0693      17 -41.0640      18 -40.6859      19 -40.6758      20 -41.0584
      21 -41.0541      22 -41.0552      23 -40.6908      24 -40.6910      25 -41.0628
      26 -41.0689
 
 
 
 E-fermi :  -5.4108     XC(G=0):  -0.6103     alpha+bet : -0.3306


 k-point     1 :       0.0000    0.0000    0.0000
  band No.  band energies     occupation 
      1     -15.3209      2.00000
      2     -14.4634      2.00000
      3     -14.2559      2.00000
      4     -14.0780      2.00000
      5     -13.4069      2.00000
      6     -13.0603      2.00000
      7     -11.7766      2.00000
      8     -11.4748      2.00000
      9     -11.3770      2.00000
     10     -10.4810      2.00000
     11      -8.9604      2.00000
     12      -8.6365      2.00000
     13      -8.6340      2.00000
     14      -8.6244      2.00000
     15      -8.1791      2.00000
     16      -8.1618      2.00000
     17      -8.1600      2.00000
     18      -7.8557      2.00000
     19      -7.8511      2.00000
     20      -7.8449      2.00000
     21      -6.7683      2.00000
     22      -6.7552      2.00000
     23      -6.4517      2.00000
     24      -6.4492      2.00000
     25      -6.4331      2.00000
     26      -6.3565      2.00000
     27      -6.3543      2.00000
     28      -6.3413      2.00000
     29      -1.7029      0.00000
     30      -1.2883      0.00000
     31      -1.1965      0.00000
     32      -1.1644      0.00000
     33      -1.1543      0.00000
     34      -1.1283      0.00000
     35      -1.0388      0.00000
     36      -0.9545      0.00000
     37      -0.8797      0.00000
     38      -0.6567      0.00000
     39      -0.3766      0.00000
     40      -0.2686      0.00000
     41      -0.2382      0.00000
     42      -0.1112      0.00000


--------------------------------------------------------------------------------------------------------


 soft charge-density along one line, spin component           1
         0         1         2         3         4         5         6         7         8         9
 total charge-density along one line
 
 pseudopotential strength for first ion, spin component:           1
 19.618  27.378  -0.001   0.003   0.003  -0.001   0.006   0.005
 27.378  38.211  -0.001   0.004   0.004  -0.001   0.008   0.007
 -0.001  -0.001   4.360   0.000  -0.000   8.133   0.000  -0.000
  0.003   0.004   0.000   4.359   0.000   0.000   8.132   0.000
  0.003   0.004  -0.000   0.000   4.359  -0.000   0.000   8.132
 -0.001  -0.001   8.133   0.000  -0.000  15.182   0.001  -0.000
  0.006   0.008   0.000   8.132   0.000   0.001  15.179   0.001
  0.005   0.007  -0.000   0.000   8.132  -0.000   0.001  15.180
 total augmentation occupancy for first ion, spin component:           1
  5.529  -2.024   0.071  -0.343  -0.068  -0.021   0.102   0.022
 -2.024   0.807  -0.043   0.207   0.036   0.009  -0.045  -0.007
  0.071  -0.043   2.795  -0.108  -0.007  -0.603   0.037   0.003
 -0.343   0.207  -0.108   3.279   0.045   0.037  -0.772  -0.018
 -0.068   0.036  -0.007   0.045   2.822   0.003  -0.018  -0.608
 -0.021   0.009  -0.603   0.037   0.003   0.137  -0.010  -0.001
  0.102  -0.045   0.037  -0.772  -0.018  -0.010   0.185   0.006
  0.022  -0.007   0.003  -0.018  -0.608  -0.001   0.006   0.137


------------------------ aborting loop because EDIFF is reached ----------------------------------------


    CHARGE:  cpu time    0.4829: real time    0.4828
    FORLOC:  cpu time    0.1720: real time    0.1716
    FORNL :  cpu time    1.1388: real time    1.1379
    STRESS:  cpu time    8.6057: real time    8.6026
    FORCOR:  cpu time    1.7117: real time    1.7112
    FORHAR:  cpu time    0.5799: real time    0.5803
    MIXING:  cpu time    0.1910: real time    0.1904
    OFIELD:  cpu time    0.0000: real time    0.0000

  FORCE on cell =-STRESS in cart. coord.  units (eV):
  Direction    XX          YY          ZZ          XY          YZ          ZX
  --------------------------------------------------------------------------------------
  Alpha Z     2.51538     2.51538     2.51538
  Ewald     876.64706   876.62235   876.71007    -0.21850     0.02563    -0.50464
  Hartree  1187.15837  1186.92907  1187.14595    -0.31616     0.02513     0.02888
  E(xc)    -180.28585  -180.12295  -180.25683    -0.02370     0.03457     0.06472
  Local   -2547.14808 -2546.78356 -2547.13763     0.51433    -0.03547     0.54010
  n-local   239.98724   239.11685   239.79227     0.14001    -0.17939    -0.40596
  augment   -13.94012   -13.93301   -13.94136    -0.00091     0.00228     0.00192
  Kinetic   434.62187   435.01241   434.64951    -0.06896     0.09591     0.20913
  Fock        0.00000     0.00000     0.00000     0.00000     0.00000     0.00000
  -------------------------------------------------------------------------------------
  Total      -0.44414    -0.64345    -0.52265     0.02611    -0.03133    -0.06587
  in kB      -0.08895    -0.12887    -0.10467     0.00523    -0.00628    -0.01319
  external pressure =       -0.11 kB  Pullay stress =        0.00 kB


 VOLUME and BASIS-vectors are now :
 -----------------------------------------------------------------------------
  energy-cutoff  :      400.00
[...]
    SETDIJ:  cpu time    0.0090: real time    0.0084
     EDDAV:  cpu time   11.7212: real time   11.7251
       DOS:  cpu time    0.0000: real time    0.0005
    CHARGE:  cpu time    0.4899: real time    0.4902
    MIXING:  cpu time    0.0460: real time    0.0461
    --------------------------------------------
      LOOP:  cpu time   13.9949: real time   13.9988

 eigenvalue-minimisations  :   120
 total energy-change (2. order) :-0.1223441E-04  (-0.2427562E-04)
 number of electron      55.9999988 magnetization 
 augmentation part       -4.3057397 magnetization 

 Broyden mixing:
  rms(total) = 0.16291E-02    rms(broyden)= 0.16287E-02
  rms(prec ) = 0.17599E-02
  weight for this iteration     100.00

 eigenvalues of (default mixing * dielectric matrix)
  average eigenvalue GAMMA=   1.1550
  1.1550

 Free energy of the ion-electron system (eV)
  ---------------------------------------------------
  alpha Z        PSCENC =         2.51538199
  Ewald energy   TEWEN  =      2602.40608564
  -Hartree energ DENC   =     -3533.92549874
  -exchange      EXHF   =         0.00000000
  -V(xc)+E(xc)   XCENC  =       -38.91966684
  PAW double counting   =      3634.62526407    -3479.39646610
  entropy T*S    EENTRO =        -0.00000000
  eigenvalues    EBANDS =      -528.99666845
  atomic energy  EATOM  =      1241.89512738
  Solvation  Ediel_sol  =         0.00000000
  ---------------------------------------------------
  free energy    TOTEN  =       -99.79644105 eV

  energy without entropy =      -99.79644105  energy(sigma->0) =      -99.79644105


--------------------------------------------------------------------------------------------------------




--------------------------------------- Iteration     17(   3)  ---------------------------------------


    POTLOK:  cpu time    1.7187: real time    1.7180
    SETDIJ:  cpu time    0.0070: real time    0.0079
     EDDAV:  cpu time   11.7142: real time   11.7173
       DOS:  cpu time    0.0000: real time    0.0004
    CHARGE:  cpu time    0.4919: real time    0.4915
    MIXING:  cpu time    0.0460: real time    0.0462
    --------------------------------------------
      LOOP:  cpu time   13.9769: real time   13.9813

 eigenvalue-minimisations  :   120
 total energy-change (2. order) : 0.3685429E-05  (-0.1370738E-05)
 number of electron      55.9999988 magnetization 
 augmentation part       -4.3058286 magnetization 

 Broyden mixing:
  rms(total) = 0.81891E-03    rms(broyden)= 0.81888E-03
  rms(prec ) = 0.87930E-03
  weight for this iteration     100.00

 eigenvalues of (default mixing * dielectric matrix)
  average eigenvalue GAMMA=   1.5499
  1.0580  2.0418

 Free energy of the ion-electron system (eV)
  ---------------------------------------------------
  alpha Z        PSCENC =         2.51538199
  Ewald energy   TEWEN  =      2602.40608564
  -Hartree energ DENC   =     -3533.91701806
  -exchange      EXHF   =         0.00000000
  -V(xc)+E(xc)   XCENC  =       -38.91916020
  PAW double counting   =      3634.25906110    -3479.02975243
  entropy T*S    EENTRO =        -0.00000000
  eigenvalues    EBANDS =      -529.00616278
  atomic energy  EATOM  =      1241.89512738
  Solvation  Ediel_sol  =         0.00000000
  ---------------------------------------------------
  free energy    TOTEN  =       -99.79643736 eV

  energy without entropy =      -99.79643736  energy(sigma->0) =      -99.79643736


--------------------------------------------------------------------------------------------------------




--------------------------------------- Iteration     17(   4)  ---------------------------------------


    POTLOK:  cpu time    1.7267: real time    1.7271
    SETDIJ:  cpu time    0.0080: real time    0.0078
     EDDAV:  cpu time   11.0783: real time   11.0811
       DOS:  cpu time    0.0000: real time    0.0005
    --------------------------------------------
      LOOP:  cpu time   12.8131: real time   12.8164

 eigenvalue-minimisations  :   112
 total energy-change (2. order) :-0.3896257E-06  (-0.4792599E-06)
 number of electron      55.9999988 magnetization 
 augmentation part       -4.3058286 magnetization 

 Free energy of the ion-electron system (eV)
  ---------------------------------------------------
  alpha Z        PSCENC =         2.51538199
  Ewald energy   TEWEN  =      2602.40608564
  -Hartree energ DENC   =     -3533.91320754
  -exchange      EXHF   =         0.00000000
  -V(xc)+E(xc)   XCENC  =       -38.91887139
  PAW double counting   =      3633.94101948    -3478.71142595
  entropy T*S    EENTRO =        -0.00000000
  eigenvalues    EBANDS =      -529.01054736
  atomic energy  EATOM  =      1241.89512738
  Solvation  Ediel_sol  =         0.00000000
  ---------------------------------------------------
  free energy    TOTEN  =       -99.79643775 eV

  energy without entropy =      -99.79643775  energy(sigma->0) =      -99.79643775


--------------------------------------------------------------------------------------------------------




 average (electrostatic) potential at core
  the test charge radii are     0.9892  1.1631  0.5201
  (the norm of the test charge is              1.0000)
       1 -93.4204       2 -93.3524       3 -93.5000       4 -93.5000       5 -40.3922
       6 -40.3921       7 -40.4598       8 -40.3961       9 -40.4379      10 -40.4379
      11 -40.9891      12 -40.9875      13 -40.9184      14 -40.9912      15 -40.9896
      16 -40.9856      17 -40.9873      18 -40.9038      19 -40.9184      20 -40.9879
      21 -40.9895      22 -41.0169      23 -40.8543      24 -40.8547      25 -40.9878
      26 -40.9851
 
 
 
 E-fermi :  -5.3603     XC(G=0):  -0.6147     alpha+bet : -0.3306


 k-point     1 :       0.0000    0.0000    0.0000
  band No.  band energies     occupation 
      1     -15.2142      2.00000
      2     -14.3319      2.00000
      3     -14.2171      2.00000
      4     -14.0992      2.00000
      5     -13.3359      2.00000
      6     -13.1254      2.00000
      7     -11.8364      2.00000
      8     -11.5697      2.00000
      9     -11.4857      2.00000
     10     -10.5988      2.00000
     11      -9.0160      2.00000
     12      -8.6297      2.00000
     13      -8.5399      2.00000
     14      -8.5213      2.00000
     15      -8.1717      2.00000
     16      -8.0481      2.00000
     17      -8.0467      2.00000
     18      -7.9409      2.00000
     19      -7.9381      2.00000
     20      -7.8042      2.00000
     21      -6.8316      2.00000
     22      -6.7793      2.00000
     23      -6.4765      2.00000
     24      -6.4584      2.00000
     25      -6.4265      2.00000
     26      -6.3891      2.00000
     27      -6.3503      2.00000
     28      -6.3225      2.00000
     29      -1.6559      0.00000
     30      -1.3530      0.00000
     31      -1.3333      0.00000
     32      -1.2328      0.00000
     33      -1.2219      0.00000
     34      -1.2167      0.00000
     35      -1.0736      0.00000
     36      -1.0066      0.00000
     37      -0.8674      0.00000
     38      -0.6324      0.00000
     39      -0.3463      0.00000
     40      -0.2494      0.00000
     41      -0.1895      0.00000
     42      -0.0952      0.00000


--------------------------------------------------------------------------------------------------------


 soft charge-density along one line, spin component           1
         0         1         2         3         4         5         6         7         8         9
 total charge-density along one line
 
 pseudopotential strength for first ion, spin component:           1
 19.621  27.382  -0.001   0.003   0.003  -0.001   0.006   0.005
 27.382  38.217  -0.001   0.004   0.004  -0.001   0.008   0.007
 -0.001  -0.001   4.362   0.000  -0.000   8.136   0.000  -0.000
  0.003   0.004   0.000   4.362   0.000   0.000   8.136   0.000
  0.003   0.004  -0.000   0.000   4.361  -0.000   0.000   8.136
 -0.001  -0.001   8.136   0.000  -0.000  15.188   0.000  -0.000
  0.006   0.008   0.000   8.136   0.000   0.000  15.187   0.001
  0.005   0.007  -0.000   0.000   8.136  -0.000   0.001  15.186
 total augmentation occupancy for first ion, spin component:           1
  5.747  -2.140   0.096  -0.485  -0.173  -0.030   0.150   0.057
 -2.140   0.860  -0.055   0.276   0.083   0.013  -0.067  -0.023
  0.096  -0.055   2.770  -0.165   0.008  -0.598   0.054  -0.001
 -0.485   0.276  -0.165   3.496   0.008   0.054  -0.835  -0.007
 -0.173   0.083   0.008   0.008   2.908  -0.001  -0.007  -0.633
 -0.030   0.013  -0.598   0.054  -0.001   0.136  -0.015   0.000
  0.150  -0.067   0.054  -0.835  -0.007  -0.015   0.203   0.003
  0.057  -0.023  -0.001  -0.007  -0.633   0.000   0.003   0.145


------------------------ aborting loop because EDIFF is reached ----------------------------------------


    CHARGE:  cpu time    0.4859: real time    0.4861
    FORLOC:  cpu time    0.1720: real time    0.1721
    FORNL :  cpu time    1.1488: real time    1.1487
    STRESS:  cpu time    8.2787: real time    8.2809
    FORCOR:  cpu time    1.7127: real time    1.7135
    FORHAR:  cpu time    0.5809: real time    0.5803
    MIXING:  cpu time    0.0480: real time    0.0483
    OFIELD:  cpu time    0.0000: real time    0.0000

  FORCE on cell =-STRESS in cart. coord.  units (eV):
  Direction    XX          YY          ZZ          XY          YZ          ZX
  --------------------------------------------------------------------------------------
  Alpha Z     2.51538     2.51538     2.51538
  Ewald     867.44060   868.46415   866.49967    -1.08500     0.37800     3.47429
  Hartree  1176.92435  1180.20813  1176.78640    -1.34786     0.77016     4.09443
  E(xc)    -180.19149  -180.04995  -180.20042    -0.02395     0.03882     0.07100
  Local   -2527.51929 -2531.65746 -2526.14211     2.43182    -1.17997    -7.60445
  n-local   239.07981   238.36368   238.83449     0.13563    -0.13460    -0.42937
  augment   -14.06331   -14.08515   -14.02991     0.00410    -0.01300    -0.01273
  Kinetic   434.83464   435.26022   434.86401    -0.12357     0.11916     0.44963
  Fock        0.00000     0.00000     0.00000     0.00000     0.00000     0.00000
  -------------------------------------------------------------------------------------
  Total      -0.97930    -0.98099    -0.87249    -0.00883    -0.02143     0.04280
  in kB      -0.19613    -0.19647    -0.17474    -0.00177    -0.00429     0.00857
  external pressure =       -0.19 kB  Pullay stress =        0.00 kB


 VOLUME and BASIS-vectors are now :
 -----------------------------------------------------------------------------
  energy-cutoff  :      400.00
  volume of cell :     8000.00
      direct lattice vectors                 reciprocal lattice vectors
    20.000000000  0.000000000  0.000000000     0.050000000  0.000000000  0.000000000
     0.000000000 20.000000000  0.000000000     0.000000000  0.050000000  0.000000000
     0.000000000  0.000000000 20.000000000     0.000000000  0.000000000  0.050000000

  length of vectors
    20.000000000 20.000000000 20.000000000     0.050000000  0.050000000  0.050000000


 FORCES acting on ions
    electron-ion (+dipol)            ewald-force                    non-local-force                 convergence-correction
 -----------------------------------------------------------------------------------------------
   0.975E+01 -.184E+02 0.871E+02   -.108E+02 0.187E+02 -.886E+02   0.107E+01 -.275E+00 0.154E+01   0.247E-04 0.541E-03 -.244E-02
   0.871E+02 -.460E+01 0.437E+02   -.886E+02 0.485E+01 -.453E+02   0.153E+01 -.246E+00 0.153E+01   -.810E-05 0.410E-03 -.184E-02
   -.500E+02 0.740E+02 -.906E+01   0.510E+02 -.755E+02 0.920E+01   -.988E+00 0.154E+01 -.150E+00   0.226E-03 -.574E-03 -.143E-02
   -.421E+02 -.685E+02 -.400E+02   0.429E+02 0.699E+02 0.408E+02   -.820E+00 -.144E+01 -.797E+00   0.129E-03 0.114E-02 -.105E-02
   -.367E+02 0.543E+02 0.758E+02   0.370E+02 -.547E+02 -.763E+02   -.292E+00 0.390E+00 0.526E+00   -.218E-03 0.696E-03 -.180E-02
   -.289E+02 -.841E+02 0.458E+02   0.292E+02 0.847E+02 -.461E+02   -.238E+00 -.602E+00 0.311E+00   -.185E-03 0.965E-04 -.193E-02
   0.811E+02 0.135E+02 -.412E+02   -.818E+02 -.136E+02 0.412E+02   0.746E+00 0.295E-01 0.574E-01   -.123E-02 0.261E-04 -.424E-03
   -.876E+02 0.523E+01 -.468E+02   0.883E+02 -.527E+01 0.471E+02   -.651E+00 0.371E-01 -.337E+00   0.348E-04 0.162E-03 -.715E-03
   0.302E+02 0.827E+02 -.460E+02   -.302E+02 -.835E+02 0.464E+02   -.290E-01 0.839E+00 -.342E+00   -.441E-03 -.304E-03 -.229E-03
   0.378E+02 -.527E+02 -.753E+02   -.378E+02 0.533E+02 0.760E+02   0.524E-01 -.621E+00 -.658E+00   -.471E-03 0.329E-03 -.728E-04
   0.201E+02 0.395E+02 0.558E+01   -.213E+02 -.414E+02 -.663E+01   0.118E+01 0.195E+01 0.105E+01   -.173E-03 0.106E-04 -.227E-03
   0.148E+01 0.213E+02 -.393E+02   -.121E+01 -.219E+02 0.417E+02   -.277E+00 0.524E+00 -.244E+01   -.490E-04 -.373E-04 0.914E-04
   -.273E+02 0.397E+02 -.439E+01   0.290E+02 -.421E+02 0.465E+01   -.166E+01 0.240E+01 -.254E+00   -.323E-05 -.144E-03 -.189E-03
   -.443E+02 -.365E+01 0.530E+01   0.465E+02 0.401E+01 -.634E+01   -.226E+01 -.351E+00 0.104E+01   0.865E-04 0.673E-04 -.286E-03
   -.203E+02 0.745E+01 -.394E+02   0.207E+02 -.796E+01 0.419E+02   -.389E+00 0.505E+00 -.243E+01   0.407E-04 -.127E-04 0.899E-04
   -.351E+02 0.497E+01 0.279E+02   0.373E+02 -.462E+01 -.290E+02   -.221E+01 -.350E+00 0.113E+01   -.231E-03 0.544E-04 -.175E-03
   0.793E+01 0.344E+02 0.280E+02   -.904E+01 -.363E+02 -.292E+02   0.110E+01 0.193E+01 0.115E+01   0.318E-04 0.263E-03 -.237E-03
   0.588E+01 -.998E+01 0.471E+02   -.622E+01 0.106E+02 -.499E+02   0.332E+00 -.597E+00 0.284E+01   0.246E-04 -.135E-04 0.838E-04
   -.230E+02 -.370E+02 -.211E+02   0.244E+02 0.393E+02 0.224E+02   -.140E+01 -.224E+01 -.126E+01   -.234E-04 0.204E-03 -.108E-03
   0.285E+01 -.296E+01 -.444E+02   -.258E+01 0.245E+01 0.468E+02   -.276E+00 0.506E+00 -.245E+01   -.514E-04 -.156E-05 0.107E-03
   0.244E+02 -.360E+02 -.109E+02   -.257E+02 0.381E+02 0.107E+02   0.140E+01 -.208E+01 0.181E+00   -.177E-03 0.667E-04 -.217E-03
   0.412E+02 0.671E+01 -.201E+02   -.434E+02 -.706E+01 0.212E+02   0.220E+01 0.357E+00 -.108E+01   -.258E-03 -.183E-04 0.280E-04
   0.319E+02 0.249E+02 0.235E+02   -.333E+02 -.272E+02 -.248E+02   0.141E+01 0.224E+01 0.132E+01   -.112E-03 -.721E-04 -.363E-03
   0.349E+02 -.288E+02 0.118E+02   -.366E+02 0.312E+02 -.121E+02   0.167E+01 -.242E+01 0.305E+00   -.125E-03 0.202E-03 -.308E-03
   0.122E+02 -.416E+02 0.115E+02   -.135E+02 0.437E+02 -.118E+02   0.133E+01 -.211E+01 0.276E+00   0.512E-04 -.138E-03 -.327E-03
   -.337E+02 -.197E+02 0.226E+02   0.359E+02 0.201E+02 -.237E+02   -.221E+01 -.387E+00 0.112E+01   -.230E-03 0.306E-05 -.190E-03
 -----------------------------------------------------------------------------------------------
   -.336E+00 0.454E+00 -.217E+01   0.782E-13 -.355E-14 0.746E-13   0.339E+00 -.456E+00 0.219E+01   -.334E-02 0.296E-02 -.142E-01
 
 
 POSITION                                       TOTAL-FORCE (eV/Angst)
 -----------------------------------------------------------------------------------
      9.47598     11.12389      7.69021         0.008154     -0.000338      0.003887
      7.37617     10.78873      8.69238        -0.005062      0.002858     -0.014314
     11.16853      8.63511     10.24733        -0.009965     -0.001327     -0.009829
     10.95206     12.49781     11.08599        -0.010272      0.004285     -0.008571
     10.82435      9.14440      7.92425        -0.003148      0.005635      0.000910
     10.61045     12.96100      8.75288        -0.002397     -0.005748     -0.001640
      7.66313     10.29798     11.02666         0.005326      0.000175      0.000491
     12.26384     10.49535     11.30480         0.000550     -0.000618      0.003125
      9.03136      8.27609     11.28116         0.003672     -0.002530      0.002345
      8.81339     12.16700     12.12605         0.003525      0.001496      0.003551
      8.30314      7.06462     10.62475         0.009233      0.004021      0.003457
      9.20406      7.95146     12.79490        -0.002197     -0.002562     -0.001350
     12.01893      7.40536     10.37817         0.006804      0.000507      0.002637
     13.66475     10.71405     10.65843        -0.003161      0.000675     -0.003911
     12.50279     10.18154     12.81190        -0.003197     -0.001448      0.005141
     12.19861      9.36431      7.22286        -0.008043      0.004101      0.003130
     10.13477      7.94300      7.20968         0.000316      0.007680      0.009446
      9.30404     11.43105      6.23071        -0.004406      0.000821     -0.005065
     11.66888     13.64671     11.73310         0.006851     -0.000550      0.002161
      8.98547     11.85308     13.64213        -0.002229      0.002383      0.000044
      7.94527     13.45631     12.01256         0.009801     -0.004110      0.002371
      6.27443     10.07290     11.70459        -0.004840      0.000532     -0.004727
      6.66160      9.65211      8.02554         0.005174      0.002383      0.000465
      6.52911     12.01595      8.53877         0.005344     -0.001506      0.000005
      9.78054     14.26940      8.58304         0.001530     -0.010681      0.005318
     11.98377     13.19878      8.05549        -0.007360     -0.006134      0.000921
 -----------------------------------------------------------------------------------
    total drift:                               -0.000195      0.000632     -0.000842


--------------------------------------------------------------------------------------------------------



  FREE ENERGIE OF THE ION-ELECTRON SYSTEM (eV)
  ---------------------------------------------------
  free  energy   TOTEN  =       -99.79643775 eV

  energy  without entropy=      -99.79643775  energy(sigma->0) =      -99.79643775
 
 d Force = 0.1935659E-03[ 0.804E-04, 0.307E-03]  d Energy = 0.1949841E-03-0.142E-05
 d Force = 0.6683968E+00[ 0.668E+00, 0.668E+00]  d Ewald  = 0.6683969E+00-0.419E-07


--------------------------------------------------------------------------------------------------------


    POTLOK:  cpu time    1.7317: real time    1.7321


--------------------------------------------------------------------------------------------------------


 Conjugate gradient step on ions:
 trial-energy change:   -0.000195  1 .order   -0.000194   -0.000307   -0.000080
  (g-gl).g = 0.285E-03      g.g   = 0.279E-03  gl.gl    = 0.883E-03
 g(Force)  = 0.279E-03   g(Stress)= 0.000E+00 ortho     =-0.340E-04
 gamma     =   0.32239
 trial     =   1.14458
 opt step  =   1.55083  (harmonic =   1.55083) maximal distance =0.00264071
 next E    =   -99.796451   (d E  =  -0.00021)


--------------------------------------------------------------------------------------------------------


  
 reached required accuracy - stopping structural energy minimisation
 writing wavefunctions
     LOOP+:  cpu time   66.8008: real time   67.2427
    4ORBIT:  cpu time    0.0000: real time    0.0000

 total amount of memory used by VASP MPI-rank0   131440. kBytes
=======================================================================

   base      :      30000. kBytes
   nonl-proj :      17624. kBytes
   fftplans  :      26957. kBytes
   grid      :      48673. kBytes
   one-center:         40. kBytes
   wavefun   :       8146. kBytes
 
  
  
 General timing and accounting informations for this job:
 ========================================================
  
                  Total CPU time used (sec):     2396.097
                            User time (sec):     2367.395
                          System time (sec):       28.702
                         Elapsed time (sec):     2400.152
  
                   Maximum memory used (kb):      186496.
                   Average memory used (kb):           0.
  
                          Minor page faults:      5569652
                          Major page faults:            5
                 Voluntary context switches:         4963
