 vasp.5.4.4.18Apr17-6-g9f103f2a35 (build Nov 06 2017 19:16:10) complex          
  
 executed on           IFC91_ompi date 2018.07.09  18:49:30
 running on   12 total cores
 distrk:  each k-point on   12 cores,    1 groups
 distr:  one band on NCORES_PER_BAND=   6 cores,    2 groups


--------------------------------------------------------------------------------------------------------


 INCAR:
 POTCAR:    PAW_PBE Si 05Jan2001                  
 POTCAR:    PAW_PBE Ge 05Jan2001                  
 POTCAR:    PAW_PBE H 15Jun2001                   
 POTCAR:    PAW_PBE Si 05Jan2001                  
   VRHFIN =Si: s2p2                                                             
   LEXCH  = PE                                                                  
   EATOM  =   103.0669 eV,    7.5752 Ry                                         
                                                                                
   TITEL  = PAW_PBE Si 05Jan2001                                                
   LULTRA =        F    use ultrasoft PP ?                                      
   IUNSCR =        1    unscreen: 0-lin 1-nonlin 2-no                           
   RPACOR =    1.500    partial core radius                                     
   POMASS =   28.085; ZVAL   =    4.000    mass and valenz                      
   RCORE  =    1.900    outmost cutoff radius                                   
   RWIGS  =    2.480; RWIGS  =    1.312    wigner-seitz radius (au A)           
   ENMAX  =  245.345; ENMIN  =  184.009 eV                                      
   ICORE  =        2    local potential                                         
   LCOR   =        T    correct aug charges                                     
   LPAW   =        T    paw PP                                                  
   EAUG   =  322.069                                                            
   DEXC   =    0.000                                                            
   RMAX   =    1.950    core radius for proj-oper                               
   RAUG   =    1.300    factor for augmentation sphere                          
   RDEP   =    1.993    radius for radial grids                                 
   RDEPT  =    1.837    core radius for aug-charge                              
                                                                                
   Atomic configuration                                                         
    6 entries                                                                   
     n  l   j            E        occ.                                          
     1  0  0.50     -1785.8828   2.0000                                         
     2  0  0.50      -139.4969   2.0000                                         
     2  1  1.50       -95.5546   6.0000                                         
     3  0  0.50       -10.8127   2.0000                                         
     3  1  0.50        -4.0811   2.0000                                         
     3  2  1.50        -4.0817   0.0000                                         
   Description                                                                  
     l       E           TYP  RCUT    TYP  RCUT                                 
     0    -10.8127223     23  1.900                                             
     0     -7.6451159     23  1.900                                             
     1     -4.0811372     23  1.900                                             
     1      2.4879257     23  1.900                                             
     2     -4.0817478      7  1.900                                             
  local pseudopotential read in
  partial core-charges read in
  partial kinetic energy density read in
  atomic valenz-charges read in
  non local Contribution for L=           0  read in
    real space projection operators read in
  non local Contribution for L=           0  read in
    real space projection operators read in
  non local Contribution for L=           1  read in
    real space projection operators read in
  non local Contribution for L=           1  read in
    real space projection operators read in
    PAW grid and wavefunctions read in
 
   number of l-projection  operators is LMAX  =           4
   number of lm-projection operators is LMMAX =           8
 
 POTCAR:    PAW_PBE Ge 05Jan2001                  
   VRHFIN =Ge: s2p2                                                             
   LEXCH  = PE                                                                  
   EATOM  =   104.9960 eV,    7.7170 Ry                                         
                                                                                
   TITEL  = PAW_PBE Ge 05Jan2001                                                
   LULTRA =        F    use ultrasoft PP ?                                      
   IUNSCR =        1    unscreen: 0-lin 1-nonlin 2-no                           
   RPACOR =    2.170    partial core radius                                     
   POMASS =   72.610; ZVAL   =    4.000    mass and valenz                      
   RCORE  =    2.300    outmost cutoff radius                                   
   RWIGS  =    2.300; RWIGS  =    1.217    wigner-seitz radius (au A)           
   ENMAX  =  173.807; ENMIN  =  130.355 eV                                      
   ICORE  =        3    local potential                                         
   LCOR   =        T    correct aug charges                                     
   LPAW   =        T    paw PP                                                  
   EAUG   =  385.843                                                            
   DEXC   =    0.000                                                            
   RMAX   =    2.342    core radius for proj-oper                               
   RAUG   =    1.300    factor for augmentation sphere                          
   RDEP   =    2.318    radius for radial grids                                 
   RDEPT  =    2.103    core radius for aug-charge                              
                                                                                
   Atomic configuration                                                         
   10 entries                                                                   
     n  l   j            E        occ.                                          
     1  0  0.50    -10959.8463   2.0000                                         
     2  0  0.50     -1371.6056   2.0000                                         
     2  1  1.50     -1198.4791   6.0000                                         
     3  0  0.50      -168.4733   2.0000                                         
     3  1  1.50      -115.6019   6.0000                                         
     3  2  2.50       -29.3106  10.0000                                         
     4  0  0.50       -11.7309   2.0000                                         
     4  1  0.50        -3.8952   2.0000                                         
     4  2  1.50        -4.0817   0.0000                                         
     4  3  2.50        -4.0817   0.0000                                         
   Description                                                                  
     l       E           TYP  RCUT    TYP  RCUT                                 
     0    -11.7309493     23  2.300                                             
     0     -7.4578696     23  2.300                                             
     1     -3.8952261     23  2.300                                             
     1      6.1178114     23  2.300                                             
     2     -4.0817478     23  2.300                                             
     3     -1.3605826      7  2.300                                             
  local pseudopotential read in
  partial core-charges read in
  partial kinetic energy density read in
  atomic valenz-charges read in
  non local Contribution for L=           0  read in
    real space projection operators read in
  non local Contribution for L=           0  read in
    real space projection operators read in
  non local Contribution for L=           1  read in
    real space projection operators read in
  non local Contribution for L=           1  read in
    real space projection operators read in
  non local Contribution for L=           2  read in
    real space projection operators read in
    PAW grid and wavefunctions read in
 
   number of l-projection  operators is LMAX  =           5
   number of lm-projection operators is LMMAX =          13
 
 POTCAR:    PAW_PBE H 15Jun2001                   
   VRHFIN =H: ultrasoft test                                                    
   LEXCH  = PE                                                                  
   EATOM  =    12.4884 eV,    0.9179 Ry                                         
                                                                                
   TITEL  = PAW_PBE H 15Jun2001                                                 
   LULTRA =        F    use ultrasoft PP ?                                      
   IUNSCR =        0    unscreen: 0-lin 1-nonlin 2-no                           
   RPACOR =    0.000    partial core radius                                     
   POMASS =    1.000; ZVAL   =    1.000    mass and valenz                      
   RCORE  =    1.100    outmost cutoff radius                                   
   RWIGS  =    0.700; RWIGS  =    0.370    wigner-seitz radius (au A)           
   ENMAX  =  250.000; ENMIN  =  200.000 eV                                      
   RCLOC  =    0.701    cutoff for local pot                                    
   LCOR   =        T    correct aug charges                                     
   LPAW   =        T    paw PP                                                  
   EAUG   =  400.000                                                            
   RMAX   =    1.123    core radius for proj-oper                               
   RAUG   =    1.200    factor for augmentation sphere                          
   RDEP   =    1.112    radius for radial grids                                 
   RDEPT  =    0.926    core radius for aug-charge                              
                                                                                
   Atomic configuration                                                         
    2 entries                                                                   
     n  l   j            E        occ.                                          
     1  0  0.50        -6.4927   1.0000                                         
     2  1  0.50        -3.4015   0.0000                                         
   Description                                                                  
     l       E           TYP  RCUT    TYP  RCUT                                 
     0     -6.4927494     23  1.100                                             
     0      6.8029130     23  1.100                                             
     1     -4.0817478     23  1.100                                             
  local pseudopotential read in
  atomic valenz-charges read in
  non local Contribution for L=           0  read in
    real space projection operators read in
  non local Contribution for L=           0  read in
    real space projection operators read in
  non local Contribution for L=           1  read in
    real space projection operators read in
    PAW grid and wavefunctions read in
 
   number of l-projection  operators is LMAX  =           3
   number of lm-projection operators is LMMAX =           5
 

 ----------------------------------------------------------------------------- 
|                                                                             |
|  ADVICE TO THIS USER RUNNING 'VASP/VAMP'   (HEAR YOUR MASTER'S VOICE ...):  |
|                                                                             |
|      You have a (more or less) 'large supercell' and for larger cells       |
|      it might be more efficient to use real space projection opertators     |
|      So try LREAL= Auto  in the INCAR   file.                               |
|      Mind:          For very  accurate calculation you might also keep the  |
|      reciprocal projection scheme          (i.e. LREAL=.FALSE.)             |
|                                                                             |
 ----------------------------------------------------------------------------- 

  PAW_PBE Si 05Jan2001                  :
 energy of atom  1       EATOM= -103.0669
 kinetic energy error for atom=    0.0012 (will be added to EATOM!!)
  PAW_PBE Ge 05Jan2001                  :
 energy of atom  2       EATOM= -104.9960
 kinetic energy error for atom=    0.0003 (will be added to EATOM!!)
  PAW_PBE H 15Jun2001                   :
 energy of atom  3       EATOM=  -12.4884
 kinetic energy error for atom=    0.0098 (will be added to EATOM!!)
 
 
 POSCAR: SiGeH16                                 
  positions in direct lattice
  No initial velocities read in
 exchange correlation table for  LEXCH =        8
   RHO(1)=    0.500       N(1)  =     2000
   RHO(2)=  100.500       N(2)  =     4000
 


--------------------------------------------------------------------------------------------------------


 ion  position               nearest neighbor table
   1  0.475  0.556  0.385-  18 1.55   6 2.39   2 2.39   5 2.39
   2  0.369  0.539  0.436-  23 1.55  24 1.55   7 2.39   1 2.39
   3  0.557  0.433  0.512-  13 1.55   5 2.39   4 2.39   9 2.39
   4  0.613  0.525  0.565-  15 1.55  14 1.55   8 2.39   3 2.39
   5  0.542  0.457  0.396-  17 1.55  16 1.55   3 2.39   1 2.39
   6  0.531  0.648  0.437-  25 1.55  26 1.55   8 2.39   1 2.39
   7  0.385  0.515  0.552-  22 1.55  10 2.39   9 2.39   2 2.39
   8  0.547  0.624  0.554-  19 1.55   6 2.39   4 2.39  10 2.39
   9  0.451  0.416  0.564-  12 1.55  11 1.55   7 2.39   3 2.39
  10  0.440  0.606  0.605-  20 1.55  21 1.55   7 2.39   8 2.39
  11  0.415  0.357  0.529-   9 1.55
  12  0.461  0.400  0.639-   9 1.55
  13  0.600  0.369  0.520-   3 1.55
  14  0.682  0.536  0.531-   4 1.55
  15  0.623  0.509  0.640-   4 1.55
  16  0.611  0.469  0.363-   5 1.55
  17  0.506  0.398  0.362-   5 1.55
  18  0.465  0.572  0.309-   1 1.55
  19  0.583  0.683  0.588-   8 1.55
  20  0.451  0.590  0.680-  10 1.55
  21  0.397  0.670  0.598-  10 1.55
  22  0.316  0.504  0.586-   7 1.55
  23  0.333  0.479  0.402-   2 1.55
  24  0.326  0.603  0.429-   2 1.55
  25  0.488  0.712  0.430-   6 1.55
  26  0.600  0.659  0.404-   6 1.55
 
  LATTYP: Found a simple cubic cell.
 ALAT       =    20.0000000000
  
  Lattice vectors:
  
 A1 = (  20.0000000000,   0.0000000000,   0.0000000000)
 A2 = (   0.0000000000,  20.0000000000,   0.0000000000)
 A3 = (   0.0000000000,   0.0000000000,  20.0000000000)


Analysis of symmetry for initial positions (statically):
=====================================================================
 Subroutine PRICEL returns:
 Original cell was already a primitive cell.
 

 Routine SETGRP: Setting up the symmetry group for a 
 simple cubic supercell.


 Subroutine GETGRP returns: Found  1 space group operations
 (whereof  1 operations were pure point group operations)
 out of a pool of 48 trial point group operations.


The static configuration has the point symmetry C_1 .


Analysis of symmetry for dynamics (positions and initial velocities):
=====================================================================
 Subroutine PRICEL returns:
 Original cell was already a primitive cell.
 

 Routine SETGRP: Setting up the symmetry group for a 
 simple cubic supercell.


 Subroutine GETGRP returns: Found  1 space group operations
 (whereof  1 operations were pure point group operations)
 out of a pool of 48 trial point group operations.


The dynamic configuration has the point symmetry C_1 .


 Subroutine INISYM returns: Found  1 space group operations
 (whereof  1 operations are pure point group operations),
 and found     1 'primitive' translations

 
 
 KPOINTS: Automatic mesh                          

Automatic generation of k-mesh.
Space group operators:
 irot       det(A)        alpha          n_x          n_y          n_z        tau_x        tau_y        tau_z
    1     1.000000     0.000000     1.000000     0.000000     0.000000     0.000000     0.000000     0.000000
 
 Subroutine IBZKPT returns following result:
 ===========================================
 
 Found      1 irreducible k-points:
 
 Following reciprocal coordinates:
            Coordinates               Weight
  0.000000  0.000000  0.000000      1.000000
 
 Following cartesian coordinates:
            Coordinates               Weight
  0.000000  0.000000  0.000000      1.000000
 


--------------------------------------------------------------------------------------------------------




 Dimension of arrays:
   k-points           NKPTS =      1   k-points in BZ     NKDIM =      1   number of bands    NBANDS=     42
   number of dos      NEDOS =    301   number of ions     NIONS =     26
   non local maximal  LDIM  =      5   non local SUM 2l+1 LMDIM =     13
   total plane-waves  NPLWV = 941192
   max r-space proj   IRMAX =      1   max aug-charges    IRDMAX=   6593
   dimension x,y,z NGX =    98 NGY =   98 NGZ =   98
   dimension x,y,z NGXF=   196 NGYF=  196 NGZF=  196
   support grid    NGXF=   196 NGYF=  196 NGZF=  196
   ions per type =               4   6  16
   NGX,Y,Z   is equivalent  to a cutoff of   8.15,  8.15,  8.15 a.u.
   NGXF,Y,Z  is equivalent  to a cutoff of  16.29, 16.29, 16.29 a.u.

 SYSTEM =  SiGe                                    
 POSCAR =  SiGeH16                                 

 Startparameter for this run:
   NWRITE =      2    write-flag & timer
   PREC   = normal    normal or accurate (medium, high low for compatibility)
   ISTART =      0    job   : 0-new  1-cont  2-samecut
   ICHARG =      2    charge: 1-file 2-atom 10-const
   ISPIN  =      1    spin polarized calculation?
   LNONCOLLINEAR =      F non collinear calculations
   LSORBIT =      F    spin-orbit coupling
   INIWAV =      1    electr: 0-lowe 1-rand  2-diag
   LASPH  =      F    aspherical Exc in radial PAW
   METAGGA=      F    non-selfconsistent MetaGGA calc.

 Electronic Relaxation 1
   ENCUT  =  400.0 eV  29.40 Ry    5.42 a.u.  32.61 32.61 32.61*2*pi/ulx,y,z
   ENINI  =  400.0     initial cutoff
   ENAUG  =  400.0 eV  augmentation charge cutoff
   NELM   =     60;   NELMIN=  2; NELMDL= -5     # of ELM steps 
   EDIFF  = 0.1E-05   stopping-criterion for ELM
   LREAL  =      F    real-space projection
   NLSPLINE    = F    spline interpolate recip. space projectors
   LCOMPAT=      F    compatible to vasp.4.4
   GGA_COMPAT  = T    GGA compatible to vasp.4.4-vasp.4.6
   LMAXPAW     = -100 max onsite density
   LMAXMIX     =    2 max onsite mixed and CHGCAR
   VOSKOWN=      0    Vosko Wilk Nusair interpolation
   ROPT   =    0.00000   0.00000   0.00000
 Ionic relaxation
   EDIFFG = -.2E-01   stopping-criterion for IOM
   NSW    =    200    number of steps for IOM
   NBLOCK =      1;   KBLOCK =    200    inner block; outer block 
   IBRION =      2    ionic relax: 0-MD 1-quasi-New 2-CG
   NFREE  =      1    steps in history (QN), initial steepest desc. (CG)
   ISIF   =      2    stress and relaxation
   IWAVPR =     11    prediction:  0-non 1-charg 2-wave 3-comb
   ISYM   =      2    0-nonsym 1-usesym 2-fastsym
   LCORR  =      T    Harris-Foulkes like correction to forces

   POTIM  = 0.5000    time-step for ionic-motion
   TEIN   =    0.0    initial temperature
   TEBEG  =    0.0;   TEEND  =   0.0 temperature during run
   SMASS  =  -3.00    Nose mass-parameter (am)
   estimated Nose-frequenzy (Omega)   =  0.10E-29 period in steps =****** mass=  -0.914E-26a.u.
   SCALEE = 1.0000    scale energy and forces
   NPACO  =    256;   APACO  = 16.0  distance and # of slots for P.C.
   PSTRESS=    0.0 pullay stress

  Mass of Ions in am
   POMASS =  28.09 72.61  1.00
  Ionic Valenz
   ZVAL   =   4.00  4.00  1.00
  Atomic Wigner-Seitz radii
   RWIGS  =  -1.00 -1.00 -1.00
  virtual crystal weights 
   VCA    =   1.00  1.00  1.00
   NELECT =      56.0000    total number of electrons
   NUPDOWN=      -1.0000    fix difference up-down

 DOS related values:
   EMIN   =  10.00;   EMAX   =-10.00  energy-range for DOS
   EFERMI =   0.00
   ISMEAR =     0;   SIGMA  =   0.20  broadening in eV -4-tet -1-fermi 0-gaus

 Electronic relaxation 2 (details)
   IALGO  =     38    algorithm
   LDIAG  =      T    sub-space diagonalisation (order eigenvalues)
   LSUBROT=      F    optimize rotation matrix (better conditioning)
   TURBO    =      0    0=normal 1=particle mesh
   IRESTART =      0    0=no restart 2=restart with 2 vectors
   NREBOOT  =      0    no. of reboots
   NMIN     =      0    reboot dimension
   EREF     =   0.00    reference energy to select bands
   IMIX   =      4    mixing-type and parameters
     AMIX     =   0.40;   BMIX     =  1.00
     AMIX_MAG =   1.60;   BMIX_MAG =  1.00
     AMIN     =   0.10
     WC   =   100.;   INIMIX=   1;  MIXPRE=   1;  MAXMIX= -45

 Intra band minimization:
   WEIMIN = 0.0010     energy-eigenvalue tresh-hold
   EBREAK =  0.60E-08  absolut break condition
   DEPER  =   0.30     relativ break condition  

   TIME   =   0.40     timestep for ELM

  volume/ion in A,a.u.               =     307.69      2076.41
  Fermi-wavevector in a.u.,A,eV,Ry     =   0.313166  0.591797  1.334361  0.098073
  Thomas-Fermi vector in A             =   1.193276
 
 Write flags
   LWAVE        =      T    write WAVECAR
   LDOWNSAMPLE  =      F    k-point downsampling of WAVECAR
   LCHARG       =      T    write CHGCAR
   LVTOT        =      F    write LOCPOT, total local potential
   LVHAR        =      F    write LOCPOT, Hartree potential only
   LELF         =      F    write electronic localiz. function (ELF)
   LORBIT       =      0    0 simple, 1 ext, 2 COOP (PROOUT), +10 PAW based schemes


 Dipole corrections
   LMONO  =      F    monopole corrections only (constant potential shift)
   LDIPOL =      F    correct potential (dipole corrections)
   IDIPOL =      0    1-x, 2-y, 3-z, 4-all directions 
   EPSILON=  1.0000000 bulk dielectric constant

 Exchange correlation treatment:
   GGA     =    --    GGA type
   LEXCH   =     8    internal setting for exchange type
   VOSKOWN=      0    Vosko Wilk Nusair interpolation
   LHFCALC =     F    Hartree Fock is set to
   LHFONE  =     F    Hartree Fock one center treatment
   AEXX    =    0.0000 exact exchange contribution

 Linear response parameters
   LEPSILON=     F    determine dielectric tensor
   LRPA    =     F    only Hartree local field effects (RPA)
   LNABLA  =     F    use nabla operator in PAW spheres
   LVEL    =     F    velocity operator in full k-point grid
   LINTERFAST=   F  fast interpolation
   KINTER  =     0    interpolate to denser k-point grid
   CSHIFT  =0.1000    complex shift for real part using Kramers Kronig
   OMEGAMAX=  -1.0    maximum frequency
   DEG_THRESHOLD= 0.2000000E-02 threshold for treating states as degnerate
   RTIME   =   -0.100 relaxation time in fs
  (WPLASMAI=    0.000 imaginary part of plasma frequency in eV, 0.658/RTIME)
   DFIELD  = 0.0000000 0.0000000 0.0000000 field for delta impulse in time
 
 Orbital magnetization related:
   ORBITALMAG=     F  switch on orbital magnetization
   LCHIMAG   =     F  perturbation theory with respect to B field
   DQ        =  0.001000  dq finite difference perturbation B field
   LLRAUG    =     F  two centre corrections for induced B field



--------------------------------------------------------------------------------------------------------


 conjugate gradient relaxation of ions
 charge density and potential will be updated during run
 non-spin polarized calculation
 Variant of blocked Davidson
 Davidson routine will perform the subspace rotation
 perform sub-space diagonalisation
    after iterative eigenvector-optimisation
 modified Broyden-mixing scheme, WC =      100.0
 initial mixing is a Kerker type mixing with AMIX =  0.4000 and BMIX =      1.0000
 Hartree-type preconditioning will be used
 using additional bands           14
 reciprocal scheme for non local part
 use partial core corrections
 calculate Harris-corrections to forces 
   (improved forces if not selfconsistent)
 use gradient corrections 
 use of overlap-Matrix (Vanderbilt PP)
 Gauss-broadening in eV      SIGMA  =   0.20


--------------------------------------------------------------------------------------------------------


  energy-cutoff  :      400.00
  volume of cell :     8000.00
      direct lattice vectors                 reciprocal lattice vectors
    20.000000000  0.000000000  0.000000000     0.050000000  0.000000000  0.000000000
     0.000000000 20.000000000  0.000000000     0.000000000  0.050000000  0.000000000
     0.000000000  0.000000000 20.000000000     0.000000000  0.000000000  0.050000000

  length of vectors
    20.000000000 20.000000000 20.000000000     0.050000000  0.050000000  0.050000000


 
 k-points in units of 2pi/SCALE and weight: Automatic mesh                          
   0.00000000  0.00000000  0.00000000       1.000
 
 k-points in reciprocal lattice and weights: Automatic mesh                          
   0.00000000  0.00000000  0.00000000       1.000
 
 position of ions in fractional coordinates (direct lattice) 
   0.47547100  0.55626000  0.38465300
   0.36907800  0.53906000  0.43641200
   0.55736800  0.43311000  0.51215000
   0.61299700  0.52481700  0.56496600
   0.54179100  0.45744600  0.39613600
   0.53111600  0.64794100  0.43749600
   0.38461900  0.51474100  0.55243500
   0.54669200  0.62364400  0.55351800
   0.45095700  0.41593600  0.56388300
   0.44028400  0.60643000  0.60524300
   0.41490100  0.35665000  0.52940300
   0.46117000  0.40042600  0.63910800
   0.60034800  0.36907000  0.51957800
   0.68182700  0.53600700  0.53118700
   0.62280400  0.50903400  0.64018900
   0.61080000  0.46880600  0.36278200
   0.50550800  0.39805500  0.36207700
   0.46538400  0.57201900  0.30946400
   0.58275500  0.68306700  0.58775000
   0.45052500  0.59044300  0.68036400
   0.39732000  0.67044900  0.59753500
   0.31566200  0.50359800  0.58596500
   0.33322800  0.47946500  0.40225200
   0.32629100  0.60324700  0.42912600
   0.48792300  0.71185500  0.43020800
   0.60015100  0.65882400  0.40403700
 
 position of ions in cartesian coordinates  (Angst):
   9.50942000 11.12520000  7.69306000
   7.38156000 10.78120000  8.72824000
  11.14736000  8.66220000 10.24300000
  12.25994000 10.49634000 11.29932000
  10.83582000  9.14892000  7.92272000
  10.62232000 12.95882000  8.74992000
   7.69238000 10.29482000 11.04870000
  10.93384000 12.47288000 11.07036000
   9.01914000  8.31872000 11.27766000
   8.80568000 12.12860000 12.10486000
   8.29802000  7.13300000 10.58806000
   9.22340000  8.00852000 12.78216000
  12.00696000  7.38140000 10.39156000
  13.63654000 10.72014000 10.62374000
  12.45608000 10.18068000 12.80378000
  12.21600000  9.37612000  7.25564000
  10.11016000  7.96110000  7.24154000
   9.30768000 11.44038000  6.18928000
  11.65510000 13.66134000 11.75500000
   9.01050000 11.80886000 13.60728000
   7.94640000 13.40898000 11.95070000
   6.31324000 10.07196000 11.71930000
   6.66456000  9.58930000  8.04504000
   6.52582000 12.06494000  8.58252000
   9.75846000 14.23710000  8.60416000
  12.00302000 13.17648000  8.08074000
 


--------------------------------------------------------------------------------------------------------


 k-point  1 :   0.0000 0.0000 0.0000  plane waves:  145165

 maximum and minimum number of plane-waves per node :     24209    24180

 maximum number of plane-waves:    145165
 maximum index in each direction: 
   IXMAX=   32   IYMAX=   32   IZMAX=   32
   IXMIN=  -32   IYMIN=  -32   IZMIN=  -32


 parallel 3D FFT for wavefunctions:
    minimum data exchange during FFTs selected (reduces bandwidth)
 parallel 3D FFT for charge:
    minimum data exchange during FFTs selected (reduces bandwidth)


 total amount of memory used by VASP MPI-rank0   131440. kBytes
=======================================================================

   base      :      30000. kBytes
   nonl-proj :      17624. kBytes
   fftplans  :      26957. kBytes
   grid      :      48673. kBytes
   one-center:         40. kBytes
   wavefun   :       8146. kBytes
 
     INWAV:  cpu time    0.0000: real time    0.0000
 Broyden mixing: mesh for mixing (old mesh)
   NGX = 65   NGY = 65   NGZ = 65
  (NGX  =196   NGY  =196   NGZ  =196)
  gives a total of 274625 points

 initial charge density was supplied:
 charge density of overlapping atoms calculated
 number of electron      56.0000000 magnetization 
 keeping initial charge density in first step


--------------------------------------------------------------------------------------------------------


 Maximum index for augmentation-charges          565 (set IRDMAX)


--------------------------------------------------------------------------------------------------------


 First call to EWALD:  gamma=   0.089
 Maximum number of real-space cells 3x 3x 3
 Maximum number of reciprocal cells 3x 3x 3

    FEWALD:  cpu time    0.0030: real time    0.0033


--------------------------------------- Iteration      1(   1)  ---------------------------------------


    POTLOK:  cpu time    1.7567: real time    1.7587
    SETDIJ:  cpu time    0.0080: real time    0.0123
     EDDAV:  cpu time   11.4423: real time   11.4792
       DOS:  cpu time    0.0010: real time    0.0004
    --------------------------------------------
      LOOP:  cpu time   13.2080: real time   13.2506

 eigenvalue-minimisations  :   116
 total energy-change (2. order) : 0.2070335E+03  (-0.1047293E+04)
 number of electron      56.0000000 magnetization 
 augmentation part       56.0000000 magnetization 

 Free energy of the ion-electron system (eV)
  ---------------------------------------------------
  alpha Z        PSCENC =         2.51538199
  Ewald energy   TEWEN  =      2629.98113996
  -Hartree energ DENC   =     -3440.36219892
  -exchange      EXHF   =         0.00000000
  -V(xc)+E(xc)   XCENC  =       -49.26081566
  PAW double counting   =       915.51080863     -758.35430496
  entropy T*S    EENTRO =        -0.44793172
  eigenvalues    EBANDS =      -334.44372570
  atomic energy  EATOM  =      1241.89512738
  Solvation  Ediel_sol  =         0.00000000
  ---------------------------------------------------
  free energy    TOTEN  =       207.03348099 eV

  energy without entropy =      207.48141271  energy(sigma->0) =      207.25744685


--------------------------------------------------------------------------------------------------------




--------------------------------------- Iteration      1(   2)  ---------------------------------------


     EDDAV:  cpu time   13.7069: real time   13.7046
       DOS:  cpu time    0.0010: real time    0.0004
    --------------------------------------------
      LOOP:  cpu time   13.7079: real time   13.7050

 eigenvalue-minimisations  :   144
 total energy-change (2. order) :-0.2320881E+03  (-0.2168211E+03)
 number of electron      56.0000000 magnetization 
 augmentation part       56.0000000 magnetization 

 Free energy of the ion-electron system (eV)
  ---------------------------------------------------
  alpha Z        PSCENC =         2.51538199
  Ewald energy   TEWEN  =      2629.98113996
  -Hartree energ DENC   =     -3440.36219892
  -exchange      EXHF   =         0.00000000
  -V(xc)+E(xc)   XCENC  =       -49.26081566
  PAW double counting   =       915.51080863     -758.35430496
  entropy T*S    EENTRO =        -0.00000000
  eigenvalues    EBANDS =      -566.97972337
  atomic energy  EATOM  =      1241.89512738
  Solvation  Ediel_sol  =         0.00000000
  ---------------------------------------------------
  free energy    TOTEN  =       -25.05458497 eV

  energy without entropy =      -25.05458497  energy(sigma->0) =      -25.05458497


--------------------------------------------------------------------------------------------------------




--------------------------------------- Iteration      1(   3)  ---------------------------------------


     EDDAV:  cpu time   10.5594: real time   10.7995
       DOS:  cpu time    0.0010: real time    0.0004
    --------------------------------------------
      LOOP:  cpu time   10.5604: real time   10.7999

 eigenvalue-minimisations  :   104
 total energy-change (2. order) :-0.7509686E+02  (-0.7492043E+02)
 number of electron      56.0000000 magnetization 
 augmentation part       56.0000000 magnetization 

 Free energy of the ion-electron system (eV)
  ---------------------------------------------------
  alpha Z        PSCENC =         2.51538199
  Ewald energy   TEWEN  =      2629.98113996
  -Hartree energ DENC   =     -3440.36219892
  -exchange      EXHF   =         0.00000000
  -V(xc)+E(xc)   XCENC  =       -49.26081566
  PAW double counting   =       915.51080863     -758.35430496
  entropy T*S    EENTRO =        -0.00000000
  eigenvalues    EBANDS =      -642.07658712
  atomic energy  EATOM  =      1241.89512738
  Solvation  Ediel_sol  =         0.00000000
  ---------------------------------------------------
  free energy    TOTEN  =      -100.15144872 eV

  energy without entropy =     -100.15144872  energy(sigma->0) =     -100.15144872


--------------------------------------------------------------------------------------------------------




--------------------------------------- Iteration      1(   4)  ---------------------------------------


     EDDAV:  cpu time   11.1503: real time   11.1838
       DOS:  cpu time    0.0010: real time    0.0003
    --------------------------------------------
      LOOP:  cpu time   11.1513: real time   11.1841

 eigenvalue-minimisations  :   112
 total energy-change (2. order) :-0.4398545E+01  (-0.4382159E+01)
 number of electron      56.0000000 magnetization 
 augmentation part       56.0000000 magnetization 

 Free energy of the ion-electron system (eV)
  ---------------------------------------------------
  alpha Z        PSCENC =         2.51538199
  Ewald energy   TEWEN  =      2629.98113996
  -Hartree energ DENC   =     -3440.36219892
  -exchange      EXHF   =         0.00000000
  -V(xc)+E(xc)   XCENC  =       -49.26081566
  PAW double counting   =       915.51080863     -758.35430496
  entropy T*S    EENTRO =        -0.00000000
  eigenvalues    EBANDS =      -646.47513166
  atomic energy  EATOM  =      1241.89512738
  Solvation  Ediel_sol  =         0.00000000
  ---------------------------------------------------
  free energy    TOTEN  =      -104.54999325 eV

  energy without entropy =     -104.54999325  energy(sigma->0) =     -104.54999325


--------------------------------------------------------------------------------------------------------




--------------------------------------- Iteration      1(   5)  ---------------------------------------


     EDDAV:  cpu time   12.4671: real time   12.4654
       DOS:  cpu time    0.0000: real time    0.0004
    CHARGE:  cpu time    0.4869: real time    0.4866
    MIXING:  cpu time    0.0430: real time    0.0424
    --------------------------------------------
      LOOP:  cpu time   12.9970: real time   12.9949

 eigenvalue-minimisations  :   128
 total energy-change (2. order) :-0.7079682E-01  (-0.7073449E-01)
 number of electron      56.0000026 magnetization 
 augmentation part       -4.3475444 magnetization 

 Broyden mixing:
  rms(total) = 0.14518E+01    rms(broyden)= 0.14517E+01
  rms(prec ) = 0.15478E+01
  weight for this iteration     100.00

 Free energy of the ion-electron system (eV)
  ---------------------------------------------------
  alpha Z        PSCENC =         2.51538199
  Ewald energy   TEWEN  =      2629.98113996
  -Hartree energ DENC   =     -3440.36219892
  -exchange      EXHF   =         0.00000000
  -V(xc)+E(xc)   XCENC  =       -49.26081566
  PAW double counting   =       915.51080863     -758.35430496
  entropy T*S    EENTRO =        -0.00000000
  eigenvalues    EBANDS =      -646.54592847
  atomic energy  EATOM  =      1241.89512738
  Solvation  Ediel_sol  =         0.00000000
  ---------------------------------------------------
  free energy    TOTEN  =      -104.62079006 eV

  energy without entropy =     -104.62079006  energy(sigma->0) =     -104.62079006


--------------------------------------------------------------------------------------------------------




--------------------------------------- Iteration      1(   6)  ---------------------------------------


    POTLOK:  cpu time    1.7097: real time    1.7158
    SETDIJ:  cpu time    0.0090: real time    0.0087
     EDDAV:  cpu time   10.5964: real time   10.5983
       DOS:  cpu time    0.0010: real time    0.0004
    CHARGE:  cpu time    0.4839: real time    0.4839
    MIXING:  cpu time    0.0450: real time    0.0454
    --------------------------------------------
      LOOP:  cpu time   12.8450: real time   12.8525

 eigenvalue-minimisations  :   104
 total energy-change (2. order) : 0.3159135E+01  (-0.1572620E+00)
 number of electron      56.0000025 magnetization 
 augmentation part       -4.3478603 magnetization 

 Broyden mixing:
  rms(total) = 0.83920E+00    rms(broyden)= 0.83920E+00
  rms(prec ) = 0.89799E+00
  weight for this iteration     100.00

 eigenvalues of (default mixing * dielectric matrix)
  average eigenvalue GAMMA=   2.3004
  2.3004

 Free energy of the ion-electron system (eV)
  ---------------------------------------------------
  alpha Z        PSCENC =         2.51538199
  Ewald energy   TEWEN  =      2629.98113996
  -Hartree energ DENC   =     -3471.28754037
  -exchange      EXHF   =         0.00000000
  -V(xc)+E(xc)   XCENC  =       -45.63616618
  PAW double counting   =      1755.34550002    -1599.06813947
  entropy T*S    EENTRO =        -0.00000000
  eigenvalues    EBANDS =      -615.20695841
  atomic energy  EATOM  =      1241.89512738
  Solvation  Ediel_sol  =         0.00000000
  ---------------------------------------------------
  free energy    TOTEN  =      -101.46165508 eV

  energy without entropy =     -101.46165508  energy(sigma->0) =     -101.46165508


--------------------------------------------------------------------------------------------------------




--------------------------------------- Iteration      1(   7)  ---------------------------------------


    POTLOK:  cpu time    1.6987: real time    1.6979
    SETDIJ:  cpu time    0.0080: real time    0.0078
     EDDAV:  cpu time   11.2463: real time   11.2450
       DOS:  cpu time    0.0000: real time    0.0004
    CHARGE:  cpu time    0.4859: real time    0.4864
    MIXING:  cpu time    0.0480: real time    0.0472
    --------------------------------------------
      LOOP:  cpu time   13.4870: real time   13.4848

 eigenvalue-minimisations  :   112
 total energy-change (2. order) : 0.1652252E+01  (-0.3984091E+00)
 number of electron      56.0000023 magnetization 
 augmentation part       -4.3474599 magnetization 

 Broyden mixing:
  rms(total) = 0.12137E+00    rms(broyden)= 0.12122E+00
  rms(prec ) = 0.15279E+00
  weight for this iteration     100.00

 eigenvalues of (default mixing * dielectric matrix)
  average eigenvalue GAMMA=   1.8489
  1.7880  1.9098

 Free energy of the ion-electron system (eV)
  ---------------------------------------------------
  alpha Z        PSCENC =         2.51538199
  Ewald energy   TEWEN  =      2629.98113996
  -Hartree energ DENC   =     -3526.19487748
  -exchange      EXHF   =         0.00000000
  -V(xc)+E(xc)   XCENC  =       -39.90578492
  PAW double counting   =      3558.34821474    -3403.23940359
  entropy T*S    EENTRO =        -0.00000000
  eigenvalues    EBANDS =      -563.20920119
  atomic energy  EATOM  =      1241.89512738
  Solvation  Ediel_sol  =         0.00000000
  ---------------------------------------------------
  free energy    TOTEN  =       -99.80940310 eV

  energy without entropy =      -99.80940310  energy(sigma->0) =      -99.80940310


--------------------------------------------------------------------------------------------------------




--------------------------------------- Iteration      1(   8)  ---------------------------------------


    POTLOK:  cpu time    1.7027: real time    1.7019
    SETDIJ:  cpu time    0.0070: real time    0.0077
     EDDAV:  cpu time   11.2133: real time   11.2113
       DOS:  cpu time    0.0000: real time    0.0004
    CHARGE:  cpu time    0.4869: real time    0.4871
    MIXING:  cpu time    0.0490: real time    0.0491
    --------------------------------------------
      LOOP:  cpu time   13.4590: real time   13.4575

 eigenvalue-minimisations  :   112
 total energy-change (2. order) : 0.5463576E-01  (-0.2758878E-01)
 number of electron      56.0000023 magnetization 
 augmentation part       -4.3405365 magnetization 

 Broyden mixing:
  rms(total) = 0.60354E-01    rms(broyden)= 0.60340E-01
  rms(prec ) = 0.79458E-01
  weight for this iteration     100.00

 eigenvalues of (default mixing * dielectric matrix)
  average eigenvalue GAMMA=   1.9683
  2.6427  1.6311  1.6311

 Free energy of the ion-electron system (eV)
  ---------------------------------------------------
  alpha Z        PSCENC =         2.51538199
  Ewald energy   TEWEN  =      2629.98113996
  -Hartree energ DENC   =     -3534.46785003
  -exchange      EXHF   =         0.00000000
  -V(xc)+E(xc)   XCENC  =       -39.91565732
  PAW double counting   =      3583.60584799    -3428.41464667
  entropy T*S    EENTRO =        -0.00000000
  eigenvalues    EBANDS =      -554.95411064
  atomic energy  EATOM  =      1241.89512738
  Solvation  Ediel_sol  =         0.00000000
  ---------------------------------------------------
  free energy    TOTEN  =       -99.75476734 eV

  energy without entropy =      -99.75476734  energy(sigma->0) =      -99.75476734


--------------------------------------------------------------------------------------------------------




--------------------------------------- Iteration      1(   9)  ---------------------------------------


    POTLOK:  cpu time    1.7097: real time    1.7093
    SETDIJ:  cpu time    0.0080: real time    0.0078
     EDDAV:  cpu time   11.2223: real time   11.2200
       DOS:  cpu time    0.0010: real time    0.0003
    CHARGE:  cpu time    0.4839: real time    0.4840
    MIXING:  cpu time    0.0510: real time    0.0519
    --------------------------------------------
      LOOP:  cpu time   13.4770: real time   13.4733

 eigenvalue-minimisations  :   112
 total energy-change (2. order) : 0.3534358E-01  (-0.6756429E-02)
 number of electron      56.0000023 magnetization 
 augmentation part       -4.3260108 magnetization 

 Broyden mixing:
  rms(total) = 0.32839E-01    rms(broyden)= 0.32838E-01
  rms(prec ) = 0.44646E-01
  weight for this iteration     100.00

 eigenvalues of (default mixing * dielectric matrix)
  average eigenvalue GAMMA=   1.7561
  2.4906  1.8410  1.8410  0.8518

 Free energy of the ion-electron system (eV)
  ---------------------------------------------------
  alpha Z        PSCENC =         2.51538199
  Ewald energy   TEWEN  =      2629.98113996
  -Hartree energ DENC   =     -3546.01486148
  -exchange      EXHF   =         0.00000000
  -V(xc)+E(xc)   XCENC  =       -39.21473957
  PAW double counting   =      3718.63704468    -3563.49235270
  entropy T*S    EENTRO =        -0.00000000
  eigenvalues    EBANDS =      -544.02616403
  atomic energy  EATOM  =      1241.89512738
  Solvation  Ediel_sol  =         0.00000000
  ---------------------------------------------------
  free energy    TOTEN  =       -99.71942376 eV

  energy without entropy =      -99.71942376  energy(sigma->0) =      -99.71942376


--------------------------------------------------------------------------------------------------------




--------------------------------------- Iteration      1(  10)  ---------------------------------------


    POTLOK:  cpu time    1.7147: real time    1.7136
    SETDIJ:  cpu time    0.0090: real time    0.0084
     EDDAV:  cpu time   11.2003: real time   11.1998
       DOS:  cpu time    0.0010: real time    0.0004
    CHARGE:  cpu time    0.4839: real time    0.4842
    MIXING:  cpu time    0.0540: real time    0.0545
    --------------------------------------------
      LOOP:  cpu time   13.4630: real time   13.4610

 eigenvalue-minimisations  :   112
 total energy-change (2. order) : 0.1145206E-04  (-0.2603991E-03)
 number of electron      56.0000023 magnetization 
 augmentation part       -4.3252792 magnetization 

 Broyden mixing:
  rms(total) = 0.14704E-01    rms(broyden)= 0.14704E-01
  rms(prec ) = 0.27994E-01
  weight for this iteration     100.00

 eigenvalues of (default mixing * dielectric matrix)
  average eigenvalue GAMMA=   1.9014
  2.8360  2.3892  1.0557  1.6131  1.6131

 Free energy of the ion-electron system (eV)
  ---------------------------------------------------
  alpha Z        PSCENC =         2.51538199
  Ewald energy   TEWEN  =      2629.98113996
  -Hartree energ DENC   =     -3548.30840309
  -exchange      EXHF   =         0.00000000
  -V(xc)+E(xc)   XCENC  =       -39.21296553
  PAW double counting   =      3646.50422039    -3491.30841866
  entropy T*S    EENTRO =        -0.00000000
  eigenvalues    EBANDS =      -541.78549475
  atomic energy  EATOM  =      1241.89512738
  Solvation  Ediel_sol  =         0.00000000
  ---------------------------------------------------
  free energy    TOTEN  =       -99.71941231 eV

  energy without entropy =      -99.71941231  energy(sigma->0) =      -99.71941231


--------------------------------------------------------------------------------------------------------




--------------------------------------- Iteration      1(  11)  ---------------------------------------


    POTLOK:  cpu time    1.7847: real time    1.7972
    SETDIJ:  cpu time    0.0080: real time    0.0079
     EDDAV:  cpu time   10.5204: real time   10.5193
       DOS:  cpu time    0.0000: real time    0.0003
    CHARGE:  cpu time    0.4869: real time    0.4867
    MIXING:  cpu time    0.0570: real time    0.0573
    --------------------------------------------
      LOOP:  cpu time   12.8560: real time   12.8686

 eigenvalue-minimisations  :   104
 total energy-change (2. order) : 0.2266728E-03  (-0.6712159E-03)
 number of electron      56.0000023 magnetization 
 augmentation part       -4.3237598 magnetization 

 Broyden mixing:
  rms(total) = 0.83880E-02    rms(broyden)= 0.83877E-02
  rms(prec ) = 0.14432E-01
  weight for this iteration     100.00

 eigenvalues of (default mixing * dielectric matrix)
  average eigenvalue GAMMA=   1.8651
  3.2657  2.5576  1.7281  1.7281  1.0435  0.8677

 Free energy of the ion-electron system (eV)
  ---------------------------------------------------
  alpha Z        PSCENC =         2.51538199
  Ewald energy   TEWEN  =      2629.98113996
  -Hartree energ DENC   =     -3555.24821600
  -exchange      EXHF   =         0.00000000
  -V(xc)+E(xc)   XCENC  =       -39.01021273
  PAW double counting   =      3608.46831494    -3453.23372056
  entropy T*S    EENTRO =        -0.00000000
  eigenvalues    EBANDS =      -535.08700062
  atomic energy  EATOM  =      1241.89512738
  Solvation  Ediel_sol  =         0.00000000
  ---------------------------------------------------
  free energy    TOTEN  =       -99.71918564 eV

  energy without entropy =      -99.71918564  energy(sigma->0) =      -99.71918564


--------------------------------------------------------------------------------------------------------




--------------------------------------- Iteration      1(  12)  ---------------------------------------


    POTLOK:  cpu time    1.7267: real time    1.7258
    SETDIJ:  cpu time    0.0080: real time    0.0080
     EDDAV:  cpu time   10.5644: real time   10.5670
       DOS:  cpu time    0.0000: real time    0.0003
    CHARGE:  cpu time    0.4869: real time    0.4854
    MIXING:  cpu time    0.0610: real time    0.0611
    --------------------------------------------
      LOOP:  cpu time   12.8470: real time   12.8476

 eigenvalue-minimisations  :   104
 total energy-change (2. order) :-0.4174385E-02  (-0.9806410E-04)
 number of electron      56.0000023 magnetization 
 augmentation part       -4.3229634 magnetization 

 Broyden mixing:
  rms(total) = 0.59491E-02    rms(broyden)= 0.59491E-02
  rms(prec ) = 0.10098E-01
  weight for this iteration     100.00

 eigenvalues of (default mixing * dielectric matrix)
  average eigenvalue GAMMA=   2.0628
  4.5113  2.4674  2.4361  1.5304  1.5304  0.9820  0.9820

 Free energy of the ion-electron system (eV)
  ---------------------------------------------------
  alpha Z        PSCENC =         2.51538199
  Ewald energy   TEWEN  =      2629.98113996
  -Hartree energ DENC   =     -3557.31893003
  -exchange      EXHF   =         0.00000000
  -V(xc)+E(xc)   XCENC  =       -38.97658956
  PAW double counting   =      3603.82757896    -3448.59209796
  entropy T*S    EENTRO =        -0.00000000
  eigenvalues    EBANDS =      -533.05497076
  atomic energy  EATOM  =      1241.89512738
  Solvation  Ediel_sol  =         0.00000000
  ---------------------------------------------------
  free energy    TOTEN  =       -99.72336002 eV

  energy without entropy =      -99.72336002  energy(sigma->0) =      -99.72336002


--------------------------------------------------------------------------------------------------------




--------------------------------------- Iteration      1(  13)  ---------------------------------------


    POTLOK:  cpu time    1.7247: real time    1.7253
    SETDIJ:  cpu time    0.0080: real time    0.0079
     EDDAV:  cpu time   11.1823: real time   11.1813
       DOS:  cpu time    0.0010: real time    0.0003
    CHARGE:  cpu time    0.4859: real time    0.4865
    MIXING:  cpu time    0.0650: real time    0.0645
    --------------------------------------------
      LOOP:  cpu time   13.4670: real time   13.4659

 eigenvalue-minimisations  :   112
 total energy-change (2. order) :-0.4953476E-02  (-0.1772060E-03)
 number of electron      56.0000023 magnetization 
 augmentation part       -4.3228824 magnetization 

 Broyden mixing:
  rms(total) = 0.34926E-02    rms(broyden)= 0.34925E-02
  rms(prec ) = 0.52546E-02
  weight for this iteration     100.00

 eigenvalues of (default mixing * dielectric matrix)
  average eigenvalue GAMMA=   2.1781
  5.6069  2.9493  2.2787  1.7834  1.7834  1.1083  0.9575  0.9575

 Free energy of the ion-electron system (eV)
  ---------------------------------------------------
  alpha Z        PSCENC =         2.51538199
  Ewald energy   TEWEN  =      2629.98113996
  -Hartree energ DENC   =     -3560.07988232
  -exchange      EXHF   =         0.00000000
  -V(xc)+E(xc)   XCENC  =       -38.92549714
  PAW double counting   =      3609.18842509    -3453.96041151
  entropy T*S    EENTRO =        -0.00000000
  eigenvalues    EBANDS =      -530.34259696
  atomic energy  EATOM  =      1241.89512738
  Solvation  Ediel_sol  =         0.00000000
  ---------------------------------------------------
  free energy    TOTEN  =       -99.72831350 eV

  energy without entropy =      -99.72831350  energy(sigma->0) =      -99.72831350


--------------------------------------------------------------------------------------------------------




--------------------------------------- Iteration      1(  14)  ---------------------------------------


    POTLOK:  cpu time    1.7227: real time    1.7223
    SETDIJ:  cpu time    0.0080: real time    0.0081
     EDDAV:  cpu time   11.2403: real time   11.2491
       DOS:  cpu time    0.0000: real time    0.0003
    CHARGE:  cpu time    0.4859: real time    0.4847
    MIXING:  cpu time    0.0720: real time    0.0715
    --------------------------------------------
      LOOP:  cpu time   13.5289: real time   13.5359

 eigenvalue-minimisations  :   112
 total energy-change (2. order) :-0.3745530E-02  (-0.2911782E-04)
 number of electron      56.0000023 magnetization 
 augmentation part       -4.3224590 magnetization 

 Broyden mixing:
  rms(total) = 0.17172E-02    rms(broyden)= 0.17172E-02
  rms(prec ) = 0.28663E-02
  weight for this iteration     100.00

 eigenvalues of (default mixing * dielectric matrix)
  average eigenvalue GAMMA=   2.2700
  6.5183  2.9119  2.6514  2.1870  1.5719  1.5719  1.0865  0.9656  0.9656

 Free energy of the ion-electron system (eV)
  ---------------------------------------------------
  alpha Z        PSCENC =         2.51538199
  Ewald energy   TEWEN  =      2629.98113996
  -Hartree energ DENC   =     -3560.81584586
  -exchange      EXHF   =         0.00000000
  -V(xc)+E(xc)   XCENC  =       -38.93749696
  PAW double counting   =      3608.42608356    -3453.19805151
  entropy T*S    EENTRO =        -0.00000000
  eigenvalues    EBANDS =      -529.59839759
  atomic energy  EATOM  =      1241.89512738
  Solvation  Ediel_sol  =         0.00000000
  ---------------------------------------------------
  free energy    TOTEN  =       -99.73205903 eV

  energy without entropy =      -99.73205903  energy(sigma->0) =      -99.73205903


--------------------------------------------------------------------------------------------------------




--------------------------------------- Iteration      1(  15)  ---------------------------------------


    POTLOK:  cpu time    1.7177: real time    1.7188
    SETDIJ:  cpu time    0.0090: real time    0.0084
     EDDAV:  cpu time   11.2193: real time   11.2170
       DOS:  cpu time    0.0000: real time    0.0002
    CHARGE:  cpu time    0.4899: real time    0.4898
    MIXING:  cpu time    0.0790: real time    0.0789
    --------------------------------------------
      LOOP:  cpu time   13.5149: real time   13.5131

 eigenvalue-minimisations  :   112
 total energy-change (2. order) :-0.4457291E-02  (-0.5326997E-04)
 number of electron      56.0000023 magnetization 
 augmentation part       -4.3220688 magnetization 

 Broyden mixing:
  rms(total) = 0.15229E-02    rms(broyden)= 0.15229E-02
  rms(prec ) = 0.19923E-02
  weight for this iteration     100.00

 eigenvalues of (default mixing * dielectric matrix)
  average eigenvalue GAMMA=   2.3090
  6.7571  3.7885  2.6248  2.0003  2.0003  1.7646  1.2312  0.9407  0.9914  0.9914

 Free energy of the ion-electron system (eV)
  ---------------------------------------------------
  alpha Z        PSCENC =         2.51538199
  Ewald energy   TEWEN  =      2629.98113996
  -Hartree energ DENC   =     -3561.07923633
  -exchange      EXHF   =         0.00000000
  -V(xc)+E(xc)   XCENC  =       -38.94679608
  PAW double counting   =      3611.51114762    -3456.28356669
  entropy T*S    EENTRO =        -0.00000000
  eigenvalues    EBANDS =      -529.32971417
  atomic energy  EATOM  =      1241.89512738
  Solvation  Ediel_sol  =         0.00000000
  ---------------------------------------------------
  free energy    TOTEN  =       -99.73651632 eV

  energy without entropy =      -99.73651632  energy(sigma->0) =      -99.73651632


--------------------------------------------------------------------------------------------------------




--------------------------------------- Iteration      1(  16)  ---------------------------------------


    POTLOK:  cpu time    1.7237: real time    1.7288
    SETDIJ:  cpu time    0.0080: real time    0.0080
     EDDAV:  cpu time   11.2103: real time   11.2081
       DOS:  cpu time    0.0010: real time    0.0003
    CHARGE:  cpu time    0.4849: real time    0.4849
    MIXING:  cpu time    0.0850: real time    0.0855
    --------------------------------------------
      LOOP:  cpu time   13.5129: real time   13.5155

 eigenvalue-minimisations  :   112
 total energy-change (2. order) :-0.1282354E-02  (-0.7983672E-05)
 number of electron      56.0000023 magnetization 
 augmentation part       -4.3222481 magnetization 

 Broyden mixing:
  rms(total) = 0.67691E-03    rms(broyden)= 0.67690E-03
  rms(prec ) = 0.99327E-03
  weight for this iteration     100.00

 eigenvalues of (default mixing * dielectric matrix)
  average eigenvalue GAMMA=   2.4409
  7.4310  4.7526  2.6639  2.6639  1.8480  1.8480  1.3582  1.3582  0.9731  0.9731
  0.9800

 Free energy of the ion-electron system (eV)
  ---------------------------------------------------
  alpha Z        PSCENC =         2.51538199
  Ewald energy   TEWEN  =      2629.98113996
  -Hartree energ DENC   =     -3561.18865955
  -exchange      EXHF   =         0.00000000
  -V(xc)+E(xc)   XCENC  =       -38.94461900
  PAW double counting   =      3611.53332528    -3456.30526003
  entropy T*S    EENTRO =        -0.00000000
  eigenvalues    EBANDS =      -529.22423470
  atomic energy  EATOM  =      1241.89512738
  Solvation  Ediel_sol  =         0.00000000
  ---------------------------------------------------
  free energy    TOTEN  =       -99.73779868 eV

  energy without entropy =      -99.73779868  energy(sigma->0) =      -99.73779868


--------------------------------------------------------------------------------------------------------




--------------------------------------- Iteration      1(  17)  ---------------------------------------


    POTLOK:  cpu time    1.7087: real time    1.7081
    SETDIJ:  cpu time    0.0080: real time    0.0078
     EDDAV:  cpu time   10.5874: real time   10.5857
       DOS:  cpu time    0.0000: real time    0.0003
    CHARGE:  cpu time    0.4869: real time    0.4868
    MIXING:  cpu time    0.0960: real time    0.0965
    --------------------------------------------
      LOOP:  cpu time   12.8870: real time   12.8852

 eigenvalue-minimisations  :   104
 total energy-change (2. order) :-0.1025424E-02  (-0.9057634E-05)
 number of electron      56.0000023 magnetization 
 augmentation part       -4.3224711 magnetization 

 Broyden mixing:
  rms(total) = 0.34647E-03    rms(broyden)= 0.34644E-03
  rms(prec ) = 0.46691E-03
  weight for this iteration     100.00

 eigenvalues of (default mixing * dielectric matrix)
  average eigenvalue GAMMA=   2.4339
  7.6067  5.1820  2.6561  2.6561  2.0202  2.0202  1.4964  1.4964  1.1255  0.9821
  0.9821  0.9832

 Free energy of the ion-electron system (eV)
  ---------------------------------------------------
  alpha Z        PSCENC =         2.51538199
  Ewald energy   TEWEN  =      2629.98113996
  -Hartree energ DENC   =     -3561.20263120
  -exchange      EXHF   =         0.00000000
  -V(xc)+E(xc)   XCENC  =       -38.94686639
  PAW double counting   =      3609.93611998    -3454.70649912
  entropy T*S    EENTRO =        -0.00000000
  eigenvalues    EBANDS =      -529.21059670
  atomic energy  EATOM  =      1241.89512738
  Solvation  Ediel_sol  =         0.00000000
  ---------------------------------------------------
  free energy    TOTEN  =       -99.73882410 eV

  energy without entropy =      -99.73882410  energy(sigma->0) =      -99.73882410


--------------------------------------------------------------------------------------------------------




--------------------------------------- Iteration      1(  18)  ---------------------------------------


    POTLOK:  cpu time    1.7177: real time    1.7171
    SETDIJ:  cpu time    0.0080: real time    0.0079
     EDDAV:  cpu time   10.5704: real time   10.5689
       DOS:  cpu time    0.0010: real time    0.0004
    CHARGE:  cpu time    0.4829: real time    0.4834
    MIXING:  cpu time    0.1060: real time    0.1064
    --------------------------------------------
      LOOP:  cpu time   12.8860: real time   12.8841

 eigenvalue-minimisations  :   104
 total energy-change (2. order) :-0.2631838E-03  (-0.8505162E-06)
 number of electron      56.0000023 magnetization 
 augmentation part       -4.3224704 magnetization 

 Broyden mixing:
  rms(total) = 0.19395E-03    rms(broyden)= 0.19393E-03
  rms(prec ) = 0.26655E-03
  weight for this iteration     100.00

 eigenvalues of (default mixing * dielectric matrix)
  average eigenvalue GAMMA=   2.4938
  8.1619  5.7890  3.1831  2.6344  2.3809  1.8167  1.8167  1.3671  1.3671  0.9969
  0.9969  0.9541  0.9541

 Free energy of the ion-electron system (eV)
  ---------------------------------------------------
  alpha Z        PSCENC =         2.51538199
  Ewald energy   TEWEN  =      2629.98113996
  -Hartree energ DENC   =     -3561.22582197
  -exchange      EXHF   =         0.00000000
  -V(xc)+E(xc)   XCENC  =       -38.94685577
  PAW double counting   =      3610.11236274    -3454.88332393
  entropy T*S    EENTRO =        -0.00000000
  eigenvalues    EBANDS =      -529.18709769
  atomic energy  EATOM  =      1241.89512738
  Solvation  Ediel_sol  =         0.00000000
  ---------------------------------------------------
  free energy    TOTEN  =       -99.73908728 eV

  energy without entropy =      -99.73908728  energy(sigma->0) =      -99.73908728


--------------------------------------------------------------------------------------------------------




--------------------------------------- Iteration      1(  19)  ---------------------------------------


    POTLOK:  cpu time    1.7237: real time    1.7222
    SETDIJ:  cpu time    0.0080: real time    0.0081
     EDDAV:  cpu time   10.6024: real time   10.5999
       DOS:  cpu time    0.0000: real time    0.0004
    CHARGE:  cpu time    0.4839: real time    0.4853
    MIXING:  cpu time    0.1180: real time    0.1170
    --------------------------------------------
      LOOP:  cpu time   12.9360: real time   12.9329

 eigenvalue-minimisations  :   104
 total energy-change (2. order) :-0.1482062E-03  (-0.5377003E-06)
 number of electron      56.0000023 magnetization 
 augmentation part       -4.3225012 magnetization 

 Broyden mixing:
  rms(total) = 0.18591E-03    rms(broyden)= 0.18590E-03
  rms(prec ) = 0.22056E-03
  weight for this iteration     100.00

 eigenvalues of (default mixing * dielectric matrix)
  average eigenvalue GAMMA=   2.4962
  8.3862  6.0530  3.3757  2.6489  2.2231  2.2231  1.7370  1.7370  1.3559  1.3559
  0.9981  0.9981  0.9276  0.9276

 Free energy of the ion-electron system (eV)
  ---------------------------------------------------
  alpha Z        PSCENC =         2.51538199
  Ewald energy   TEWEN  =      2629.98113996
  -Hartree energ DENC   =     -3561.24213735
  -exchange      EXHF   =         0.00000000
  -V(xc)+E(xc)   XCENC  =       -38.94570451
  PAW double counting   =      3609.94864179    -3454.71979562
  entropy T*S    EENTRO =        -0.00000000
  eigenvalues    EBANDS =      -529.17188913
  atomic energy  EATOM  =      1241.89512738
  Solvation  Ediel_sol  =         0.00000000
  ---------------------------------------------------
  free energy    TOTEN  =       -99.73923549 eV

  energy without entropy =      -99.73923549  energy(sigma->0) =      -99.73923549


--------------------------------------------------------------------------------------------------------




--------------------------------------- Iteration      1(  20)  ---------------------------------------


    POTLOK:  cpu time    1.7247: real time    1.7243
    SETDIJ:  cpu time    0.0070: real time    0.0079
     EDDAV:  cpu time    9.3296: real time    9.3266
       DOS:  cpu time    0.0000: real time    0.0003
    CHARGE:  cpu time    0.4859: real time    0.4853
    MIXING:  cpu time    0.1300: real time    0.1298
    --------------------------------------------
      LOOP:  cpu time   11.6772: real time   11.6742

 eigenvalue-minimisations  :    88
 total energy-change (2. order) :-0.4452969E-04  (-0.7866333E-07)
 number of electron      56.0000023 magnetization 
 augmentation part       -4.3224828 magnetization 

 Broyden mixing:
  rms(total) = 0.62154E-04    rms(broyden)= 0.62154E-04
  rms(prec ) = 0.84464E-04
  weight for this iteration     100.00

 eigenvalues of (default mixing * dielectric matrix)
  average eigenvalue GAMMA=   2.5268
  8.6407  6.4035  4.0591  2.8967  2.5237  1.9119  1.9119  1.6275  1.6275  1.2149
  1.2149  0.9937  0.9937  0.9734  0.9081

 Free energy of the ion-electron system (eV)
  ---------------------------------------------------
  alpha Z        PSCENC =         2.51538199
  Ewald energy   TEWEN  =      2629.98113996
  -Hartree energ DENC   =     -3561.24558592
  -exchange      EXHF   =         0.00000000
  -V(xc)+E(xc)   XCENC  =       -38.94667991
  PAW double counting   =      3609.77399779    -3454.54507444
  entropy T*S    EENTRO =        -0.00000000
  eigenvalues    EBANDS =      -529.16758687
  atomic energy  EATOM  =      1241.89512738
  Solvation  Ediel_sol  =         0.00000000
  ---------------------------------------------------
  free energy    TOTEN  =       -99.73928002 eV

  energy without entropy =      -99.73928002  energy(sigma->0) =      -99.73928002


--------------------------------------------------------------------------------------------------------




--------------------------------------- Iteration      1(  21)  ---------------------------------------


    POTLOK:  cpu time    1.7207: real time    1.7249
    SETDIJ:  cpu time    0.0090: real time    0.0082
     EDDAV:  cpu time    8.6897: real time    8.6886
       DOS:  cpu time    0.0010: real time    0.0004
    CHARGE:  cpu time    0.4829: real time    0.4837
    MIXING:  cpu time    0.1410: real time    0.1405
    --------------------------------------------
      LOOP:  cpu time   11.0443: real time   11.0464

 eigenvalue-minimisations  :    80
 total energy-change (2. order) :-0.2393044E-04  (-0.7660140E-07)
 number of electron      56.0000023 magnetization 
 augmentation part       -4.3224659 magnetization 

 Broyden mixing:
  rms(total) = 0.48314E-04    rms(broyden)= 0.48311E-04
  rms(prec ) = 0.61373E-04
  weight for this iteration     100.00

 eigenvalues of (default mixing * dielectric matrix)
  average eigenvalue GAMMA=   2.5026
  8.5333  6.6518  4.0641  2.8774  2.5692  2.1444  2.1444  1.7352  1.7352  1.4184
  1.2185  1.0184  1.0184  1.0294  0.9418  0.9418

 Free energy of the ion-electron system (eV)
  ---------------------------------------------------
  alpha Z        PSCENC =         2.51538199
  Ewald energy   TEWEN  =      2629.98113996
  -Hartree energ DENC   =     -3561.25187980
  -exchange      EXHF   =         0.00000000
  -V(xc)+E(xc)   XCENC  =       -38.94666831
  PAW double counting   =      3609.88738763    -3454.65858668
  entropy T*S    EENTRO =        -0.00000000
  eigenvalues    EBANDS =      -529.16120613
  atomic energy  EATOM  =      1241.89512738
  Solvation  Ediel_sol  =         0.00000000
  ---------------------------------------------------
  free energy    TOTEN  =       -99.73930395 eV

  energy without entropy =      -99.73930395  energy(sigma->0) =      -99.73930395


--------------------------------------------------------------------------------------------------------




--------------------------------------- Iteration      1(  22)  ---------------------------------------


    POTLOK:  cpu time    1.7137: real time    1.7131
    SETDIJ:  cpu time    0.0080: real time    0.0078
     EDDAV:  cpu time    9.3256: real time    9.3246
       DOS:  cpu time    0.0010: real time    0.0004
    CHARGE:  cpu time    0.4829: real time    0.4834
    MIXING:  cpu time    0.1530: real time    0.1528
    --------------------------------------------
      LOOP:  cpu time   11.6842: real time   11.6820

 eigenvalue-minimisations  :    88
 total energy-change (2. order) :-0.7414894E-05  (-0.1487247E-07)
 number of electron      56.0000023 magnetization 
 augmentation part       -4.3224764 magnetization 

 Broyden mixing:
  rms(total) = 0.23445E-04    rms(broyden)= 0.23445E-04
  rms(prec ) = 0.30490E-04
  weight for this iteration     100.00

 eigenvalues of (default mixing * dielectric matrix)
  average eigenvalue GAMMA=   2.5350
  8.7895  6.7906  4.7192  3.2516  2.6535  2.5127  1.9270  1.9270  1.6323  1.6323
  1.1983  1.1983  0.9830  0.9830  1.0215  0.9378  0.9378

 Free energy of the ion-electron system (eV)
  ---------------------------------------------------
  alpha Z        PSCENC =         2.51538199
  Ewald energy   TEWEN  =      2629.98113996
  -Hartree energ DENC   =     -3561.25145193
  -exchange      EXHF   =         0.00000000
  -V(xc)+E(xc)   XCENC  =       -38.94647771
  PAW double counting   =      3609.92594847    -3454.69707196
  entropy T*S    EENTRO =        -0.00000000
  eigenvalues    EBANDS =      -529.16190756
  atomic energy  EATOM  =      1241.89512738
  Solvation  Ediel_sol  =         0.00000000
  ---------------------------------------------------
  free energy    TOTEN  =       -99.73931136 eV

  energy without entropy =      -99.73931136  energy(sigma->0) =      -99.73931136


--------------------------------------------------------------------------------------------------------




--------------------------------------- Iteration      1(  23)  ---------------------------------------


    POTLOK:  cpu time    1.7137: real time    1.7136
    SETDIJ:  cpu time    0.0090: real time    0.0084
     EDDAV:  cpu time    8.6857: real time    8.6837
       DOS:  cpu time    0.0000: real time    0.0004
    CHARGE:  cpu time    0.4849: real time    0.4855
    MIXING:  cpu time    0.1640: real time    0.1637
    --------------------------------------------
      LOOP:  cpu time   11.0573: real time   11.0553

 eigenvalue-minimisations  :    80
 total energy-change (2. order) :-0.4044069E-05  (-0.1145365E-07)
 number of electron      56.0000023 magnetization 
 augmentation part       -4.3224816 magnetization 

 Broyden mixing:
  rms(total) = 0.12522E-04    rms(broyden)= 0.12522E-04
  rms(prec ) = 0.16520E-04
  weight for this iteration     100.00

 eigenvalues of (default mixing * dielectric matrix)
  average eigenvalue GAMMA=   2.5041
  8.8581  6.8405  4.8830  3.2249  2.6345  2.6345  2.0034  2.0034  1.6795  1.6795
  1.2927  1.2927  1.1064  1.0341  1.0341  0.9238  0.9744  0.9744

 Free energy of the ion-electron system (eV)
  ---------------------------------------------------
  alpha Z        PSCENC =         2.51538199
  Ewald energy   TEWEN  =      2629.98113996
  -Hartree energ DENC   =     -3561.25101217
  -exchange      EXHF   =         0.00000000
  -V(xc)+E(xc)   XCENC  =       -38.94662126
  PAW double counting   =      3609.89748388    -3454.66857166
  entropy T*S    EENTRO =        -0.00000000
  eigenvalues    EBANDS =      -529.16224353
  atomic energy  EATOM  =      1241.89512738
  Solvation  Ediel_sol  =         0.00000000
  ---------------------------------------------------
  free energy    TOTEN  =       -99.73931541 eV

  energy without entropy =      -99.73931541  energy(sigma->0) =      -99.73931541


--------------------------------------------------------------------------------------------------------




--------------------------------------- Iteration      1(  24)  ---------------------------------------


    POTLOK:  cpu time    1.7217: real time    1.7218
    SETDIJ:  cpu time    0.0080: real time    0.0080
     EDDAV:  cpu time    9.3196: real time    9.3176
       DOS:  cpu time    0.0010: real time    0.0003
    CHARGE:  cpu time    0.4829: real time    0.4830
    MIXING:  cpu time    0.1780: real time    0.1783
    --------------------------------------------
      LOOP:  cpu time   11.7112: real time   11.7089

 eigenvalue-minimisations  :    88
 total energy-change (2. order) :-0.1985920E-05  (-0.3001517E-08)
 number of electron      56.0000023 magnetization 
 augmentation part       -4.3224806 magnetization 

 Broyden mixing:
  rms(total) = 0.66634E-05    rms(broyden)= 0.66633E-05
  rms(prec ) = 0.89572E-05
  weight for this iteration     100.00

 eigenvalues of (default mixing * dielectric matrix)
  average eigenvalue GAMMA=   2.5723
  8.8730  7.1583  5.5562  3.9071  2.9549  2.5718  2.2977  1.9077  1.9077  1.6664
  1.6664  1.1957  1.1957  1.1546  0.9990  0.9990  0.9477  0.9477  0.9673

 Free energy of the ion-electron system (eV)
  ---------------------------------------------------
  alpha Z        PSCENC =         2.51538199
  Ewald energy   TEWEN  =      2629.98113996
  -Hartree energ DENC   =     -3561.25168580
  -exchange      EXHF   =         0.00000000
  -V(xc)+E(xc)   XCENC  =       -38.94662819
  PAW double counting   =      3609.86625306    -3454.63736249
  entropy T*S    EENTRO =        -0.00000000
  eigenvalues    EBANDS =      -529.16154331
  atomic energy  EATOM  =      1241.89512738
  Solvation  Ediel_sol  =         0.00000000
  ---------------------------------------------------
  free energy    TOTEN  =       -99.73931739 eV

  energy without entropy =      -99.73931739  energy(sigma->0) =      -99.73931739


--------------------------------------------------------------------------------------------------------




--------------------------------------- Iteration      1(  25)  ---------------------------------------


    POTLOK:  cpu time    1.7317: real time    1.7306
    SETDIJ:  cpu time    0.0080: real time    0.0086
     EDDAV:  cpu time    8.6747: real time    8.6727
       DOS:  cpu time    0.0000: real time    0.0002
    --------------------------------------------
      LOOP:  cpu time   10.4144: real time   10.4121

 eigenvalue-minimisations  :    80
 total energy-change (2. order) :-0.8182542E-06  (-0.1354167E-08)
 number of electron      56.0000023 magnetization 
 augmentation part       -4.3224806 magnetization 

 Free energy of the ion-electron system (eV)
  ---------------------------------------------------
  alpha Z        PSCENC =         2.51538199
  Ewald energy   TEWEN  =      2629.98113996
  -Hartree energ DENC   =     -3561.25223450
  -exchange      EXHF   =         0.00000000
  -V(xc)+E(xc)   XCENC  =       -38.94658266
  PAW double counting   =      3609.86621947    -3454.63733507
  entropy T*S    EENTRO =        -0.00000000
  eigenvalues    EBANDS =      -529.16103477
  atomic energy  EATOM  =      1241.89512738
  Solvation  Ediel_sol  =         0.00000000
  ---------------------------------------------------
  free energy    TOTEN  =       -99.73931821 eV

  energy without entropy =      -99.73931821  energy(sigma->0) =      -99.73931821


--------------------------------------------------------------------------------------------------------




 average (electrostatic) potential at core
  the test charge radii are     0.9892  1.1631  0.5201
  (the norm of the test charge is              1.0000)
       1 -93.4319       2 -93.4500       3 -93.4319       4 -93.4500       5 -40.3936
       6 -40.4346       7 -40.4229       8 -40.4229       9 -40.4346      10 -40.4762
      11 -41.0616      12 -41.0599      13 -40.6845      14 -40.6930      15 -40.6921
      16 -41.0707      17 -41.0714      18 -40.6846      19 -41.0539      20 -41.0517
      21 -41.0519      22 -41.0537      23 -40.6928      24 -40.6926      25 -41.0599
      26 -41.0615
 
 
 
 E-fermi :  -5.3779     XC(G=0):  -0.6101     alpha+bet : -0.3306


 k-point     1 :       0.0000    0.0000    0.0000
  band No.  band energies     occupation 
      1     -15.3896      2.00000
      2     -14.5157      2.00000
      3     -14.3912      2.00000
      4     -13.8391      2.00000
      5     -13.4173      2.00000
      6     -12.8177      2.00000
      7     -11.8007      2.00000
      8     -11.7392      2.00000
      9     -11.3148      2.00000
     10     -10.4993      2.00000
     11      -8.9731      2.00000
     12      -8.6353      2.00000
     13      -8.6281      2.00000
     14      -8.6279      2.00000
     15      -8.1845      2.00000
     16      -8.1832      2.00000
     17      -8.1686      2.00000
     18      -7.8601      2.00000
     19      -7.8580      2.00000
     20      -7.8429      2.00000
     21      -6.7731      2.00000
     22      -6.7463      2.00000
     23      -6.4588      2.00000
     24      -6.4510      2.00000
     25      -6.4304      2.00000
     26      -6.3531      2.00000
     27      -6.3505      2.00000
     28      -6.3310      2.00000
     29      -1.6772      0.00000
     30      -1.2900      0.00000
     31      -1.2815      0.00000
     32      -1.1973      0.00000
     33      -1.1603      0.00000
     34      -1.0694      0.00000
     35      -1.0460      0.00000
     36      -0.9869      0.00000
     37      -0.8255      0.00000
     38      -0.6487      0.00000
     39      -0.4126      0.00000
     40      -0.2637      0.00000
     41      -0.1610      0.00000
     42      -0.1195      0.00000


--------------------------------------------------------------------------------------------------------


 soft charge-density along one line, spin component           1
         0         1         2         3         4         5         6         7         8         9
 total charge-density along one line
 
 pseudopotential strength for first ion, spin component:           1
 19.618  27.377  -0.001   0.003   0.003  -0.001   0.006   0.005
 27.377  38.211  -0.001   0.004   0.004  -0.002   0.008   0.007
 -0.001  -0.001   4.360   0.000  -0.000   8.133   0.000  -0.000
  0.003   0.004   0.000   4.359   0.000   0.000   8.132   0.000
  0.003   0.004  -0.000   0.000   4.359  -0.000   0.000   8.132
 -0.001  -0.002   8.133   0.000  -0.000  15.182   0.001  -0.000
  0.006   0.008   0.000   8.132   0.000   0.001  15.179   0.001
  0.005   0.007  -0.000   0.000   8.132  -0.000   0.001  15.180
 total augmentation occupancy for first ion, spin component:           1
  5.533  -2.026   0.071  -0.341  -0.068  -0.021   0.102   0.021
 -2.026   0.809  -0.042   0.207   0.037   0.010  -0.045  -0.007
  0.071  -0.042   2.797  -0.106  -0.006  -0.604   0.037   0.003
 -0.341   0.207  -0.106   3.281   0.046   0.037  -0.773  -0.018
 -0.068   0.037  -0.006   0.046   2.823   0.003  -0.018  -0.608
 -0.021   0.010  -0.604   0.037   0.003   0.138  -0.010  -0.001
  0.102  -0.045   0.037  -0.773  -0.018  -0.010   0.185   0.006
  0.021  -0.007   0.003  -0.018  -0.608  -0.001   0.006   0.138


------------------------ aborting loop because EDIFF is reached ----------------------------------------


    CHARGE:  cpu time    0.4779: real time    0.4786
    FORLOC:  cpu time    0.1730: real time    0.1722
    FORNL :  cpu time    1.1628: real time    1.1626
    STRESS:  cpu time    8.5587: real time    8.5560
    FORCOR:  cpu time    1.7137: real time    1.7141
    FORHAR:  cpu time    0.5779: real time    0.5784
    MIXING:  cpu time    0.1910: real time    0.1905
    OFIELD:  cpu time    0.0000: real time    0.0000

  FORCE on cell =-STRESS in cart. coord.  units (eV):
  Direction    XX          YY          ZZ          XY          YZ          ZX
  --------------------------------------------------------------------------------------
  Alpha Z     2.51538     2.51538     2.51538
  Ewald     876.64706   876.62235   876.71007    -0.21850     0.02563    -0.50464
  Hartree  1187.64906  1186.48287  1187.12046    -0.56080    -0.17271     0.24954
  E(xc)    -180.28769  -180.23864  -180.21796    -0.04902    -0.02776     0.01375
  Local   -2547.38431 -2546.16373 -2546.85432     0.71667     0.11203     0.28997
  n-local   239.17275   238.98004   238.81558     0.31851     0.18065    -0.15019
  augment   -13.82208   -13.82199   -13.82091     0.00067     0.00039    -0.00122
  Kinetic   435.01063   435.01300   435.10192    -0.13603    -0.07752     0.10232
  Fock        0.00000     0.00000     0.00000     0.00000     0.00000     0.00000
  -------------------------------------------------------------------------------------
  Total      -0.49919    -0.61072    -0.62978     0.07152     0.04071    -0.00046
  in kB      -0.09997    -0.12231    -0.12613     0.01432     0.00815    -0.00009
  external pressure =       -0.12 kB  Pullay stress =        0.00 kB


 VOLUME and BASIS-vectors are now :
 -----------------------------------------------------------------------------
  energy-cutoff  :      400.00
[...]
    SETDIJ:  cpu time    0.0080: real time    0.0082
     EDDAV:  cpu time   11.8342: real time   11.8303
       DOS:  cpu time    0.0010: real time    0.0003
    CHARGE:  cpu time    0.4989: real time    0.4988
    MIXING:  cpu time    0.0480: real time    0.0472
    --------------------------------------------
      LOOP:  cpu time   14.1189: real time   14.1154

 eigenvalue-minimisations  :   120
 total energy-change (2. order) :-0.3865312E-04  (-0.4955860E-04)
 number of electron      56.0000007 magnetization 
 augmentation part       -4.3103616 magnetization 

 Broyden mixing:
  rms(total) = 0.18097E-02    rms(broyden)= 0.18092E-02
  rms(prec ) = 0.19412E-02
  weight for this iteration     100.00

 eigenvalues of (default mixing * dielectric matrix)
  average eigenvalue GAMMA=   1.0559
  1.0559

 Free energy of the ion-electron system (eV)
  ---------------------------------------------------
  alpha Z        PSCENC =         2.51538199
  Ewald energy   TEWEN  =      2596.24047082
  -Hartree energ DENC   =     -3528.14484420
  -exchange      EXHF   =         0.00000000
  -V(xc)+E(xc)   XCENC  =       -38.84760765
  PAW double counting   =      3676.68105332    -3521.43268462
  entropy T*S    EENTRO =        -0.00000000
  eigenvalues    EBANDS =      -528.87652941
  atomic energy  EATOM  =      1241.89512738
  Solvation  Ediel_sol  =         0.00000000
  ---------------------------------------------------
  free energy    TOTEN  =       -99.96963237 eV

  energy without entropy =      -99.96963237  energy(sigma->0) =      -99.96963237


--------------------------------------------------------------------------------------------------------




--------------------------------------- Iteration     20(   3)  ---------------------------------------


    POTLOK:  cpu time    1.7247: real time    1.7248
    SETDIJ:  cpu time    0.0070: real time    0.0077
     EDDAV:  cpu time   11.8512: real time   11.8469
       DOS:  cpu time    0.0000: real time    0.0003
    CHARGE:  cpu time    0.4979: real time    0.4963
    MIXING:  cpu time    0.0470: real time    0.0471
    --------------------------------------------
      LOOP:  cpu time   14.1279: real time   14.1231

 eigenvalue-minimisations  :   120
 total energy-change (2. order) : 0.2328327E-05  (-0.1527190E-05)
 number of electron      56.0000007 magnetization 
 augmentation part       -4.3102960 magnetization 

 Broyden mixing:
  rms(total) = 0.99259E-03    rms(broyden)= 0.99256E-03
  rms(prec ) = 0.10635E-02
  weight for this iteration     100.00

 eigenvalues of (default mixing * dielectric matrix)
  average eigenvalue GAMMA=   1.5230
  1.0965  1.9495

 Free energy of the ion-electron system (eV)
  ---------------------------------------------------
  alpha Z        PSCENC =         2.51538199
  Ewald energy   TEWEN  =      2596.24047082
  -Hartree energ DENC   =     -3528.13925947
  -exchange      EXHF   =         0.00000000
  -V(xc)+E(xc)   XCENC  =       -38.84890101
  PAW double counting   =      3676.63864376    -3521.39031369
  entropy T*S    EENTRO =        -0.00000000
  eigenvalues    EBANDS =      -528.88077982
  atomic energy  EATOM  =      1241.89512738
  Solvation  Ediel_sol  =         0.00000000
  ---------------------------------------------------
  free energy    TOTEN  =       -99.96963004 eV

  energy without entropy =      -99.96963004  energy(sigma->0) =      -99.96963004


--------------------------------------------------------------------------------------------------------




--------------------------------------- Iteration     20(   4)  ---------------------------------------


    POTLOK:  cpu time    1.7227: real time    1.7219
    SETDIJ:  cpu time    0.0080: real time    0.0086
     EDDAV:  cpu time   11.2003: real time   11.1961
       DOS:  cpu time    0.0000: real time    0.0003
    --------------------------------------------
      LOOP:  cpu time   12.9310: real time   12.9268

 eigenvalue-minimisations  :   112
 total energy-change (2. order) : 0.3748664E-06  (-0.3423844E-06)
 number of electron      56.0000007 magnetization 
 augmentation part       -4.3102960 magnetization 

 Free energy of the ion-electron system (eV)
  ---------------------------------------------------
  alpha Z        PSCENC =         2.51538199
  Ewald energy   TEWEN  =      2596.24047082
  -Hartree energ DENC   =     -3528.12989241
  -exchange      EXHF   =         0.00000000
  -V(xc)+E(xc)   XCENC  =       -38.84982766
  PAW double counting   =      3676.40858556    -3521.16020922
  entropy T*S    EENTRO =        -0.00000000
  eigenvalues    EBANDS =      -528.88926613
  atomic energy  EATOM  =      1241.89512738
  Solvation  Ediel_sol  =         0.00000000
  ---------------------------------------------------
  free energy    TOTEN  =       -99.96962966 eV

  energy without entropy =      -99.96962966  energy(sigma->0) =      -99.96962966


--------------------------------------------------------------------------------------------------------




 average (electrostatic) potential at core
  the test charge radii are     0.9892  1.1631  0.5201
  (the norm of the test charge is              1.0000)
       1 -93.4223       2 -93.3587       3 -93.4224       4 -93.3586       5 -40.3970
       6 -40.4401       7 -40.4616       8 -40.4615       9 -40.4402      10 -40.4853
      11 -40.9862      12 -40.9870      13 -40.9039      14 -40.8572      15 -40.8554
      16 -40.9892      17 -40.9893      18 -40.9045      19 -41.0144      20 -40.9842
      21 -40.9843      22 -41.0141      23 -40.8572      24 -40.8561      25 -40.9882
      26 -40.9862
 
 
 
 E-fermi :  -5.2980     XC(G=0):  -0.6139     alpha+bet : -0.3306


 k-point     1 :       0.0000    0.0000    0.0000
  band No.  band energies     occupation 
      1     -15.2224      2.00000
      2     -14.3426      2.00000
      3     -14.2954      2.00000
      4     -13.9477      2.00000
      5     -13.3215      2.00000
      6     -12.9323      2.00000
      7     -11.8522      2.00000
      8     -11.7963      2.00000
      9     -11.4277      2.00000
     10     -10.6290      2.00000
     11      -8.9835      2.00000
     12      -8.6269      2.00000
     13      -8.6245      2.00000
     14      -8.5346      2.00000
     15      -8.1620      2.00000
     16      -8.1607      2.00000
     17      -8.0424      2.00000
     18      -7.9589      2.00000
     19      -7.8433      2.00000
     20      -7.8047      2.00000
     21      -6.8626      2.00000
     22      -6.7531      2.00000
     23      -6.4996      2.00000
     24      -6.4611      2.00000
     25      -6.4262      2.00000
     26      -6.3411      2.00000
     27      -6.3234      2.00000
     28      -6.2690      2.00000
     29      -1.6455      0.00000
     30      -1.3790      0.00000
     31      -1.3736      0.00000
     32      -1.3112      0.00000
     33      -1.2594      0.00000
     34      -1.2152      0.00000
     35      -1.0579      0.00000
     36      -0.9989      0.00000
     37      -0.7860      0.00000
     38      -0.6286      0.00000
     39      -0.4044      0.00000
     40      -0.2374      0.00000
     41      -0.1079      0.00000
     42      -0.0924      0.00000


--------------------------------------------------------------------------------------------------------


 soft charge-density along one line, spin component           1
         0         1         2         3         4         5         6         7         8         9
 total charge-density along one line
 
 pseudopotential strength for first ion, spin component:           1
 19.622  27.383  -0.001   0.003   0.003  -0.001   0.006   0.005
 27.383  38.218  -0.001   0.004   0.004  -0.001   0.008   0.007
 -0.001  -0.001   4.362   0.000  -0.000   8.137   0.000  -0.000
  0.003   0.004   0.000   4.362   0.000   0.000   8.136   0.000
  0.003   0.004  -0.000   0.000   4.361  -0.000   0.000   8.136
 -0.001  -0.001   8.137   0.000  -0.000  15.188   0.000  -0.000
  0.006   0.008   0.000   8.136   0.000   0.000  15.187   0.001
  0.005   0.007  -0.000   0.000   8.136  -0.000   0.001  15.186
 total augmentation occupancy for first ion, spin component:           1
  5.753  -2.144   0.086  -0.482  -0.169  -0.027   0.149   0.055
 -2.144   0.863  -0.050   0.275   0.082   0.012  -0.067  -0.022
  0.086  -0.050   2.770  -0.151   0.010  -0.598   0.049  -0.002
 -0.482   0.275  -0.151   3.499   0.021   0.049  -0.836  -0.012
 -0.169   0.082   0.010   0.021   2.913  -0.002  -0.012  -0.635
 -0.027   0.012  -0.598   0.049  -0.002   0.136  -0.014   0.000
  0.149  -0.067   0.049  -0.836  -0.012  -0.014   0.203   0.004
  0.055  -0.022  -0.002  -0.012  -0.635   0.000   0.004   0.145


------------------------ aborting loop because EDIFF is reached ----------------------------------------


    CHARGE:  cpu time    0.4909: real time    0.4892
    FORLOC:  cpu time    0.1710: real time    0.1714
    FORNL :  cpu time    1.1458: real time    1.1471
    STRESS:  cpu time    8.8527: real time    8.8494
    FORCOR:  cpu time    1.7147: real time    1.7142
    FORHAR:  cpu time    0.5809: real time    0.5807
    MIXING:  cpu time    0.0490: real time    0.0492
    OFIELD:  cpu time    0.0000: real time    0.0000

  FORCE on cell =-STRESS in cart. coord.  units (eV):
  Direction    XX          YY          ZZ          XY          YZ          ZX
  --------------------------------------------------------------------------------------
  Alpha Z     2.51538     2.51538     2.51538
  Ewald     869.12362   861.57336   865.54185    -2.56206    -1.44169     4.74898
  Hartree  1178.82449  1172.58082  1176.70223    -3.26226    -1.81366     4.68763
  E(xc)    -180.16812  -180.16452  -180.13584    -0.04324    -0.02196     0.02965
  Local   -2530.89541 -2516.78539 -2524.90251     5.75215     3.21142    -9.53230
  n-local   238.06530   238.01816   237.76753     0.39141     0.21916    -0.27514
  augment   -14.01208   -13.99696   -13.99846    -0.00383    -0.00435    -0.00348
  Kinetic   435.55223   435.21230   435.49838    -0.30791    -0.17302     0.39979
  Fock        0.00000     0.00000     0.00000     0.00000     0.00000     0.00000
  -------------------------------------------------------------------------------------
  Total      -0.99459    -1.04684    -1.01145    -0.03574    -0.02410     0.05513
  in kB      -0.19919    -0.20965    -0.20256    -0.00716    -0.00483     0.01104
  external pressure =       -0.20 kB  Pullay stress =        0.00 kB


 VOLUME and BASIS-vectors are now :
 -----------------------------------------------------------------------------
  energy-cutoff  :      400.00
  volume of cell :     8000.00
      direct lattice vectors                 reciprocal lattice vectors
    20.000000000  0.000000000  0.000000000     0.050000000  0.000000000  0.000000000
     0.000000000 20.000000000  0.000000000     0.000000000  0.050000000  0.000000000
     0.000000000  0.000000000 20.000000000     0.000000000  0.000000000  0.050000000

  length of vectors
    20.000000000 20.000000000 20.000000000     0.050000000  0.050000000  0.050000000


 FORCES acting on ions
    electron-ion (+dipol)            ewald-force                    non-local-force                 convergence-correction
 -----------------------------------------------------------------------------------------------
   0.102E+02 -.186E+02 0.868E+02   -.112E+02 0.189E+02 -.883E+02   0.101E+01 -.268E+00 0.151E+01   0.450E-03 -.106E-02 0.660E-03
   0.865E+02 -.497E+01 0.432E+02   -.880E+02 0.520E+01 -.448E+02   0.158E+01 -.227E+00 0.160E+01   0.122E-02 -.486E-03 -.137E-02
   -.485E+02 0.748E+02 -.801E+01   0.500E+02 -.757E+02 0.858E+01   -.147E+01 0.946E+00 -.558E+00   -.274E-03 0.820E-03 -.103E-02
   -.850E+02 0.294E+01 -.460E+02   0.870E+02 -.370E+01 0.468E+02   -.196E+01 0.775E+00 -.831E+00   0.568E-04 -.140E-02 -.131E-02
   -.368E+02 0.540E+02 0.756E+02   0.371E+02 -.544E+02 -.762E+02   -.272E+00 0.399E+00 0.560E+00   -.347E-03 0.514E-03 0.721E-03
   -.290E+02 -.839E+02 0.439E+02   0.292E+02 0.845E+02 -.446E+02   -.156E+00 -.636E+00 0.664E+00   -.357E-03 -.183E-02 -.843E-03
   0.811E+02 0.132E+02 -.408E+02   -.819E+02 -.132E+02 0.407E+02   0.720E+00 0.297E-01 0.331E-01   0.121E-02 -.860E-03 -.169E-02
   -.418E+02 -.710E+02 -.405E+02   0.424E+02 0.713E+02 0.409E+02   -.555E+00 -.271E+00 -.372E+00   0.389E-03 -.150E-02 -.164E-02
   0.301E+02 0.823E+02 -.462E+02   -.302E+02 -.831E+02 0.465E+02   -.376E-02 0.871E+00 -.336E+00   0.145E-02 0.218E-03 -.143E-02
   0.362E+02 -.530E+02 -.742E+02   -.365E+02 0.535E+02 0.750E+02   0.379E+00 -.557E+00 -.781E+00   0.704E-03 -.104E-02 -.147E-02
   0.198E+02 0.396E+02 0.579E+01   -.209E+02 -.416E+02 -.686E+01   0.114E+01 0.196E+01 0.107E+01   0.141E-03 0.174E-03 -.232E-03
   0.165E+01 0.215E+02 -.392E+02   -.139E+01 -.220E+02 0.416E+02   -.261E+00 0.544E+00 -.244E+01   0.247E-03 -.669E-04 -.323E-03
   -.271E+02 0.401E+02 -.418E+01   0.287E+02 -.425E+02 0.441E+01   -.162E+01 0.241E+01 -.233E+00   -.218E-03 0.340E-03 -.115E-03
   -.460E+02 -.394E+01 0.602E+01   0.486E+02 0.436E+01 -.726E+01   -.265E+01 -.421E+00 0.124E+01   0.342E-04 -.210E-03 -.151E-03
   -.206E+02 0.777E+01 -.412E+02   0.210E+02 -.837E+01 0.441E+02   -.437E+00 0.593E+00 -.286E+01   0.183E-03 -.202E-03 -.296E-03
   -.350E+02 0.508E+01 0.280E+02   0.372E+02 -.473E+01 -.292E+02   -.220E+01 -.337E+00 0.115E+01   -.200E-03 -.846E-04 0.194E-03
   0.789E+01 0.347E+02 0.277E+02   -.899E+01 -.366E+02 -.288E+02   0.110E+01 0.195E+01 0.112E+01   0.738E-04 0.274E-03 0.733E-04
   0.619E+01 -.946E+01 0.471E+02   -.655E+01 0.100E+02 -.499E+02   0.358E+00 -.552E+00 0.284E+01   0.866E-04 -.147E-03 0.384E-03
   -.221E+02 -.354E+02 -.202E+02   0.232E+02 0.372E+02 0.213E+02   -.118E+01 -.189E+01 -.106E+01   0.579E-04 -.406E-04 -.137E-03
   0.290E+01 -.305E+01 -.441E+02   -.263E+01 0.255E+01 0.465E+02   -.273E+00 0.496E+00 -.245E+01   0.263E-03 -.236E-03 -.133E-03
   0.238E+02 -.360E+02 -.106E+02   -.252E+02 0.381E+02 0.104E+02   0.137E+01 -.210E+01 0.197E+00   -.279E-04 -.115E-03 -.378E-03
   0.412E+02 0.707E+01 -.197E+02   -.434E+02 -.746E+01 0.207E+02   0.220E+01 0.386E+00 -.105E+01   0.427E-04 -.118E-03 -.854E-04
   0.318E+02 0.250E+02 0.235E+02   -.332E+02 -.272E+02 -.248E+02   0.141E+01 0.224E+01 0.131E+01   0.135E-03 -.491E-04 -.212E-03
   0.348E+02 -.288E+02 0.118E+02   -.365E+02 0.312E+02 -.121E+02   0.168E+01 -.241E+01 0.306E+00   0.106E-03 -.229E-03 -.311E-03
   0.121E+02 -.415E+02 0.110E+02   -.135E+02 0.436E+02 -.112E+02   0.133E+01 -.212E+01 0.230E+00   0.265E-04 -.333E-03 -.238E-03
   -.334E+02 -.197E+02 0.225E+02   0.356E+02 0.201E+02 -.236E+02   -.221E+01 -.394E+00 0.112E+01   -.448E-04 -.317E-03 0.244E-04
 -----------------------------------------------------------------------------------------------
   0.962E+00 -.141E+01 -.198E+01   0.284E-13 0.995E-13 -.121E-12   -.964E+00 0.142E+01 0.199E+01   0.540E-02 -.798E-02 -.113E-01
 
 
 POSITION                                       TOTAL-FORCE (eV/Angst)
 -----------------------------------------------------------------------------------
      9.47291     11.12561      7.67799        -0.012080      0.003067     -0.008334
      7.37671     10.79226      8.69152         0.004560      0.003145      0.014997
     11.18218      8.66413     10.26156         0.012207     -0.003281      0.008074
     12.27940     10.46369     11.30555        -0.013021      0.009008      0.002337
     10.83019      9.15726      7.93448        -0.000347      0.000504      0.000454
     10.61316     12.96952      8.71455         0.000489      0.002650      0.007918
      7.64920     10.29561     11.03035         0.002159      0.005676     -0.010509
     10.97514     12.47472     11.09224         0.001933     -0.011787      0.001897
      9.04119      8.28903     11.28630        -0.005967      0.005275      0.003050
      8.78357     12.16109     12.15056         0.000272     -0.000547     -0.000423
      8.33322      7.07249     10.61782         0.008448      0.002644     -0.001629
      9.20482      7.95335     12.79892         0.001960      0.004926     -0.004394
     12.01946      7.42292     10.38208         0.001980      0.002656     -0.000011
     13.62192     10.67696     10.67379        -0.002798     -0.003377     -0.000065
     12.49843     10.16229     12.75769        -0.001673     -0.001930     -0.006857
     12.20038      9.36966      7.22311        -0.005399      0.006791      0.006196
     10.14233      7.94349      7.24015        -0.002281      0.004359      0.009395
      9.28741     11.41040      6.21493        -0.002203     -0.001738      0.000906
     11.72178     13.67027     11.76678         0.003161     -0.009977     -0.004162
      8.95287     11.85289     13.66868        -0.003511     -0.000372     -0.006636
      7.93706     13.46367     12.02820         0.006550     -0.003801      0.001709
      6.25440     10.05129     11.69112         0.003893     -0.000472     -0.010628
      6.66426      9.65397      8.02540         0.003386      0.002610     -0.001217
      6.52789     12.01828      8.53689         0.005714     -0.003925     -0.001517
      9.78468     14.28123      8.57157        -0.001086     -0.006393      0.002039
     11.98487     13.21191      8.01614        -0.006346     -0.005712     -0.002592
 -----------------------------------------------------------------------------------
    total drift:                                0.002977      0.001637     -0.000281


--------------------------------------------------------------------------------------------------------



  FREE ENERGIE OF THE ION-ELECTRON SYSTEM (eV)
  ---------------------------------------------------
  free  energy   TOTEN  =       -99.96962966 eV

  energy  without entropy=      -99.96962966  energy(sigma->0) =      -99.96962966
 
 d Force = 0.1554715E-03[-0.298E-04, 0.341E-03]  d Energy = 0.1553935E-03 0.781E-07
 d Force =-0.5835945E+00[-0.584E+00,-0.583E+00]  d Ewald  =-0.5835944E+00-0.846E-07


--------------------------------------------------------------------------------------------------------


    POTLOK:  cpu time    1.7327: real time    1.7320


--------------------------------------------------------------------------------------------------------


 Conjugate gradient step on ions:
 trial-energy change:   -0.000155  1 .order   -0.000155   -0.000341    0.000030
  (g-gl).g = 0.291E-03      g.g   = 0.279E-03  gl.gl    = 0.525E-03
 g(Force)  = 0.279E-03   g(Stress)= 0.000E+00 ortho     = 0.147E-05
 gamma     =   0.55447
 trial     =   1.21566
 opt step  =   1.11798  (harmonic =   1.11798) maximal distance =0.00141019
 next E    =   -99.969631   (d E  =  -0.00016)


--------------------------------------------------------------------------------------------------------


  
 reached required accuracy - stopping structural energy minimisation
 writing wavefunctions
     LOOP+:  cpu time   67.8567: real time   68.2882
    4ORBIT:  cpu time    0.0000: real time    0.0000

 total amount of memory used by VASP MPI-rank0   131440. kBytes
=======================================================================

   base      :      30000. kBytes
   nonl-proj :      17624. kBytes
   fftplans  :      26957. kBytes
   grid      :      48673. kBytes
   one-center:         40. kBytes
   wavefun   :       8146. kBytes
 
  
  
 General timing and accounting informations for this job:
 ========================================================
  
                  Total CPU time used (sec):     2660.131
                            User time (sec):     2628.260
                          System time (sec):       31.870
                         Elapsed time (sec):     2663.945
  
                   Maximum memory used (kb):      185856.
                   Average memory used (kb):           0.
  
                          Minor page faults:      6193732
                          Major page faults:            7
                 Voluntary context switches:         4487
