 vasp.5.4.4.18Apr17-6-g9f103f2a35 (build Nov 06 2017 19:16:10) complex          
  
 executed on           IFC91_ompi date 2018.07.16  20:14:53
 running on   12 total cores
 distrk:  each k-point on   12 cores,    1 groups
 distr:  one band on NCORES_PER_BAND=   6 cores,    2 groups


--------------------------------------------------------------------------------------------------------


 INCAR:
 POTCAR:    PAW_PBE Si 05Jan2001                  
 POTCAR:    PAW_PBE Ge 05Jan2001                  
 POTCAR:    PAW_PBE H 15Jun2001                   
 POTCAR:    PAW_PBE Si 05Jan2001                  
   VRHFIN =Si: s2p2                                                             
   LEXCH  = PE                                                                  
   EATOM  =   103.0669 eV,    7.5752 Ry                                         
                                                                                
   TITEL  = PAW_PBE Si 05Jan2001                                                
   LULTRA =        F    use ultrasoft PP ?                                      
   IUNSCR =        1    unscreen: 0-lin 1-nonlin 2-no                           
   RPACOR =    1.500    partial core radius                                     
   POMASS =   28.085; ZVAL   =    4.000    mass and valenz                      
   RCORE  =    1.900    outmost cutoff radius                                   
   RWIGS  =    2.480; RWIGS  =    1.312    wigner-seitz radius (au A)           
   ENMAX  =  245.345; ENMIN  =  184.009 eV                                      
   ICORE  =        2    local potential                                         
   LCOR   =        T    correct aug charges                                     
   LPAW   =        T    paw PP                                                  
   EAUG   =  322.069                                                            
   DEXC   =    0.000                                                            
   RMAX   =    1.950    core radius for proj-oper                               
   RAUG   =    1.300    factor for augmentation sphere                          
   RDEP   =    1.993    radius for radial grids                                 
   RDEPT  =    1.837    core radius for aug-charge                              
                                                                                
   Atomic configuration                                                         
    6 entries                                                                   
     n  l   j            E        occ.                                          
     1  0  0.50     -1785.8828   2.0000                                         
     2  0  0.50      -139.4969   2.0000                                         
     2  1  1.50       -95.5546   6.0000                                         
     3  0  0.50       -10.8127   2.0000                                         
     3  1  0.50        -4.0811   2.0000                                         
     3  2  1.50        -4.0817   0.0000                                         
   Description                                                                  
     l       E           TYP  RCUT    TYP  RCUT                                 
     0    -10.8127223     23  1.900                                             
     0     -7.6451159     23  1.900                                             
     1     -4.0811372     23  1.900                                             
     1      2.4879257     23  1.900                                             
     2     -4.0817478      7  1.900                                             
  local pseudopotential read in
  partial core-charges read in
  partial kinetic energy density read in
  atomic valenz-charges read in
  non local Contribution for L=           0  read in
    real space projection operators read in
  non local Contribution for L=           0  read in
    real space projection operators read in
  non local Contribution for L=           1  read in
    real space projection operators read in
  non local Contribution for L=           1  read in
    real space projection operators read in
    PAW grid and wavefunctions read in
 
   number of l-projection  operators is LMAX  =           4
   number of lm-projection operators is LMMAX =           8
 
 POTCAR:    PAW_PBE Ge 05Jan2001                  
   VRHFIN =Ge: s2p2                                                             
   LEXCH  = PE                                                                  
   EATOM  =   104.9960 eV,    7.7170 Ry                                         
                                                                                
   TITEL  = PAW_PBE Ge 05Jan2001                                                
   LULTRA =        F    use ultrasoft PP ?                                      
   IUNSCR =        1    unscreen: 0-lin 1-nonlin 2-no                           
   RPACOR =    2.170    partial core radius                                     
   POMASS =   72.610; ZVAL   =    4.000    mass and valenz                      
   RCORE  =    2.300    outmost cutoff radius                                   
   RWIGS  =    2.300; RWIGS  =    1.217    wigner-seitz radius (au A)           
   ENMAX  =  173.807; ENMIN  =  130.355 eV                                      
   ICORE  =        3    local potential                                         
   LCOR   =        T    correct aug charges                                     
   LPAW   =        T    paw PP                                                  
   EAUG   =  385.843                                                            
   DEXC   =    0.000                                                            
   RMAX   =    2.342    core radius for proj-oper                               
   RAUG   =    1.300    factor for augmentation sphere                          
   RDEP   =    2.318    radius for radial grids                                 
   RDEPT  =    2.103    core radius for aug-charge                              
                                                                                
   Atomic configuration                                                         
   10 entries                                                                   
     n  l   j            E        occ.                                          
     1  0  0.50    -10959.8463   2.0000                                         
     2  0  0.50     -1371.6056   2.0000                                         
     2  1  1.50     -1198.4791   6.0000                                         
     3  0  0.50      -168.4733   2.0000                                         
     3  1  1.50      -115.6019   6.0000                                         
     3  2  2.50       -29.3106  10.0000                                         
     4  0  0.50       -11.7309   2.0000                                         
     4  1  0.50        -3.8952   2.0000                                         
     4  2  1.50        -4.0817   0.0000                                         
     4  3  2.50        -4.0817   0.0000                                         
   Description                                                                  
     l       E           TYP  RCUT    TYP  RCUT                                 
     0    -11.7309493     23  2.300                                             
     0     -7.4578696     23  2.300                                             
     1     -3.8952261     23  2.300                                             
     1      6.1178114     23  2.300                                             
     2     -4.0817478     23  2.300                                             
     3     -1.3605826      7  2.300                                             
  local pseudopotential read in
  partial core-charges read in
  partial kinetic energy density read in
  atomic valenz-charges read in
  non local Contribution for L=           0  read in
    real space projection operators read in
  non local Contribution for L=           0  read in
    real space projection operators read in
  non local Contribution for L=           1  read in
    real space projection operators read in
  non local Contribution for L=           1  read in
    real space projection operators read in
  non local Contribution for L=           2  read in
    real space projection operators read in
    PAW grid and wavefunctions read in
 
   number of l-projection  operators is LMAX  =           5
   number of lm-projection operators is LMMAX =          13
 
 POTCAR:    PAW_PBE H 15Jun2001                   
   VRHFIN =H: ultrasoft test                                                    
   LEXCH  = PE                                                                  
   EATOM  =    12.4884 eV,    0.9179 Ry                                         
                                                                                
   TITEL  = PAW_PBE H 15Jun2001                                                 
   LULTRA =        F    use ultrasoft PP ?                                      
   IUNSCR =        0    unscreen: 0-lin 1-nonlin 2-no                           
   RPACOR =    0.000    partial core radius                                     
   POMASS =    1.000; ZVAL   =    1.000    mass and valenz                      
   RCORE  =    1.100    outmost cutoff radius                                   
   RWIGS  =    0.700; RWIGS  =    0.370    wigner-seitz radius (au A)           
   ENMAX  =  250.000; ENMIN  =  200.000 eV                                      
   RCLOC  =    0.701    cutoff for local pot                                    
   LCOR   =        T    correct aug charges                                     
   LPAW   =        T    paw PP                                                  
   EAUG   =  400.000                                                            
   RMAX   =    1.123    core radius for proj-oper                               
   RAUG   =    1.200    factor for augmentation sphere                          
   RDEP   =    1.112    radius for radial grids                                 
   RDEPT  =    0.926    core radius for aug-charge                              
                                                                                
   Atomic configuration                                                         
    2 entries                                                                   
     n  l   j            E        occ.                                          
     1  0  0.50        -6.4927   1.0000                                         
     2  1  0.50        -3.4015   0.0000                                         
   Description                                                                  
     l       E           TYP  RCUT    TYP  RCUT                                 
     0     -6.4927494     23  1.100                                             
     0      6.8029130     23  1.100                                             
     1     -4.0817478     23  1.100                                             
  local pseudopotential read in
  atomic valenz-charges read in
  non local Contribution for L=           0  read in
    real space projection operators read in
  non local Contribution for L=           0  read in
    real space projection operators read in
  non local Contribution for L=           1  read in
    real space projection operators read in
    PAW grid and wavefunctions read in
 
   number of l-projection  operators is LMAX  =           3
   number of lm-projection operators is LMMAX =           5
 

 ----------------------------------------------------------------------------- 
|                                                                             |
|  ADVICE TO THIS USER RUNNING 'VASP/VAMP'   (HEAR YOUR MASTER'S VOICE ...):  |
|                                                                             |
|      You have a (more or less) 'large supercell' and for larger cells       |
|      it might be more efficient to use real space projection opertators     |
|      So try LREAL= Auto  in the INCAR   file.                               |
|      Mind:          For very  accurate calculation you might also keep the  |
|      reciprocal projection scheme          (i.e. LREAL=.FALSE.)             |
|                                                                             |
 ----------------------------------------------------------------------------- 

  PAW_PBE Si 05Jan2001                  :
 energy of atom  1       EATOM= -103.0669
 kinetic energy error for atom=    0.0012 (will be added to EATOM!!)
  PAW_PBE Ge 05Jan2001                  :
 energy of atom  2       EATOM= -104.9960
 kinetic energy error for atom=    0.0003 (will be added to EATOM!!)
  PAW_PBE H 15Jun2001                   :
 energy of atom  3       EATOM=  -12.4884
 kinetic energy error for atom=    0.0098 (will be added to EATOM!!)
 
 
 POSCAR: SiGeH16                                 
  positions in direct lattice
  No initial velocities read in
 exchange correlation table for  LEXCH =        8
   RHO(1)=    0.500       N(1)  =     2000
   RHO(2)=  100.500       N(2)  =     4000
 


--------------------------------------------------------------------------------------------------------


 ion  position               nearest neighbor table
   1  0.475  0.556  0.385-  18 1.55   6 2.39   2 2.39   3 2.39
   2  0.369  0.539  0.436-  23 1.55  24 1.55   7 2.39   1 2.39
   3  0.542  0.457  0.396-  17 1.55  16 1.55   8 2.39   1 2.39
   4  0.547  0.624  0.554-  19 1.55   6 2.39   5 2.39  10 2.39
   5  0.613  0.525  0.565-  15 1.55  14 1.55   4 2.39   8 2.39
   6  0.531  0.648  0.437-  25 1.55  26 1.55   4 2.39   1 2.39
   7  0.385  0.515  0.552-  22 1.55  10 2.39   9 2.39   2 2.39
   8  0.557  0.433  0.512-  13 1.55   3 2.39   5 2.39   9 2.39
   9  0.451  0.416  0.564-  12 1.55  11 1.55   7 2.39   8 2.39
  10  0.440  0.606  0.605-  20 1.55  21 1.55   7 2.39   4 2.39
  11  0.415  0.357  0.529-   9 1.55
  12  0.461  0.400  0.639-   9 1.55
  13  0.600  0.369  0.520-   8 1.55
  14  0.682  0.536  0.531-   5 1.55
  15  0.623  0.509  0.640-   5 1.55
  16  0.611  0.469  0.363-   3 1.55
  17  0.506  0.398  0.362-   3 1.55
  18  0.465  0.572  0.309-   1 1.55
  19  0.583  0.683  0.588-   4 1.55
  20  0.451  0.590  0.680-  10 1.55
  21  0.397  0.670  0.598-  10 1.55
  22  0.316  0.504  0.586-   7 1.55
  23  0.333  0.479  0.402-   2 1.55
  24  0.326  0.603  0.429-   2 1.55
  25  0.488  0.712  0.430-   6 1.55
  26  0.600  0.659  0.404-   6 1.55
 
  LATTYP: Found a simple cubic cell.
 ALAT       =    20.0000000000
  
  Lattice vectors:
  
 A1 = (  20.0000000000,   0.0000000000,   0.0000000000)
 A2 = (   0.0000000000,  20.0000000000,   0.0000000000)
 A3 = (   0.0000000000,   0.0000000000,  20.0000000000)


Analysis of symmetry for initial positions (statically):
=====================================================================
 Subroutine PRICEL returns:
 Original cell was already a primitive cell.
 

 Routine SETGRP: Setting up the symmetry group for a 
 simple cubic supercell.


 Subroutine GETGRP returns: Found  1 space group operations
 (whereof  1 operations were pure point group operations)
 out of a pool of 48 trial point group operations.


The static configuration has the point symmetry C_1 .


Analysis of symmetry for dynamics (positions and initial velocities):
=====================================================================
 Subroutine PRICEL returns:
 Original cell was already a primitive cell.
 

 Routine SETGRP: Setting up the symmetry group for a 
 simple cubic supercell.


 Subroutine GETGRP returns: Found  1 space group operations
 (whereof  1 operations were pure point group operations)
 out of a pool of 48 trial point group operations.


The dynamic configuration has the point symmetry C_1 .


 Subroutine INISYM returns: Found  1 space group operations
 (whereof  1 operations are pure point group operations),
 and found     1 'primitive' translations

 
 
 KPOINTS: Automatic mesh                          

Automatic generation of k-mesh.
Space group operators:
 irot       det(A)        alpha          n_x          n_y          n_z        tau_x        tau_y        tau_z
    1     1.000000     0.000000     1.000000     0.000000     0.000000     0.000000     0.000000     0.000000
 
 Subroutine IBZKPT returns following result:
 ===========================================
 
 Found      1 irreducible k-points:
 
 Following reciprocal coordinates:
            Coordinates               Weight
  0.000000  0.000000  0.000000      1.000000
 
 Following cartesian coordinates:
            Coordinates               Weight
  0.000000  0.000000  0.000000      1.000000
 


--------------------------------------------------------------------------------------------------------




 Dimension of arrays:
   k-points           NKPTS =      1   k-points in BZ     NKDIM =      1   number of bands    NBANDS=     42
   number of dos      NEDOS =    301   number of ions     NIONS =     26
   non local maximal  LDIM  =      5   non local SUM 2l+1 LMDIM =     13
   total plane-waves  NPLWV = 941192
   max r-space proj   IRMAX =      1   max aug-charges    IRDMAX=   6593
   dimension x,y,z NGX =    98 NGY =   98 NGZ =   98
   dimension x,y,z NGXF=   196 NGYF=  196 NGZF=  196
   support grid    NGXF=   196 NGYF=  196 NGZF=  196
   ions per type =               5   5  16
   NGX,Y,Z   is equivalent  to a cutoff of   8.15,  8.15,  8.15 a.u.
   NGXF,Y,Z  is equivalent  to a cutoff of  16.29, 16.29, 16.29 a.u.

 SYSTEM =  SiGe                                    
 POSCAR =  SiGeH16                                 

 Startparameter for this run:
   NWRITE =      2    write-flag & timer
   PREC   = normal    normal or accurate (medium, high low for compatibility)
   ISTART =      0    job   : 0-new  1-cont  2-samecut
   ICHARG =      2    charge: 1-file 2-atom 10-const
   ISPIN  =      1    spin polarized calculation?
   LNONCOLLINEAR =      F non collinear calculations
   LSORBIT =      F    spin-orbit coupling
   INIWAV =      1    electr: 0-lowe 1-rand  2-diag
   LASPH  =      F    aspherical Exc in radial PAW
   METAGGA=      F    non-selfconsistent MetaGGA calc.

 Electronic Relaxation 1
   ENCUT  =  400.0 eV  29.40 Ry    5.42 a.u.  32.61 32.61 32.61*2*pi/ulx,y,z
   ENINI  =  400.0     initial cutoff
   ENAUG  =  400.0 eV  augmentation charge cutoff
   NELM   =     60;   NELMIN=  2; NELMDL= -5     # of ELM steps 
   EDIFF  = 0.1E-05   stopping-criterion for ELM
   LREAL  =      F    real-space projection
   NLSPLINE    = F    spline interpolate recip. space projectors
   LCOMPAT=      F    compatible to vasp.4.4
   GGA_COMPAT  = T    GGA compatible to vasp.4.4-vasp.4.6
   LMAXPAW     = -100 max onsite density
   LMAXMIX     =    2 max onsite mixed and CHGCAR
   VOSKOWN=      0    Vosko Wilk Nusair interpolation
   ROPT   =    0.00000   0.00000   0.00000
 Ionic relaxation
   EDIFFG = -.2E-01   stopping-criterion for IOM
   NSW    =    200    number of steps for IOM
   NBLOCK =      1;   KBLOCK =    200    inner block; outer block 
   IBRION =      2    ionic relax: 0-MD 1-quasi-New 2-CG
   NFREE  =      1    steps in history (QN), initial steepest desc. (CG)
   ISIF   =      2    stress and relaxation
   IWAVPR =     11    prediction:  0-non 1-charg 2-wave 3-comb
   ISYM   =      2    0-nonsym 1-usesym 2-fastsym
   LCORR  =      T    Harris-Foulkes like correction to forces

   POTIM  = 0.5000    time-step for ionic-motion
   TEIN   =    0.0    initial temperature
   TEBEG  =    0.0;   TEEND  =   0.0 temperature during run
   SMASS  =  -3.00    Nose mass-parameter (am)
   estimated Nose-frequenzy (Omega)   =  0.10E-29 period in steps =****** mass=  -0.914E-26a.u.
   SCALEE = 1.0000    scale energy and forces
   NPACO  =    256;   APACO  = 16.0  distance and # of slots for P.C.
   PSTRESS=    0.0 pullay stress

  Mass of Ions in am
   POMASS =  28.09 72.61  1.00
  Ionic Valenz
   ZVAL   =   4.00  4.00  1.00
  Atomic Wigner-Seitz radii
   RWIGS  =  -1.00 -1.00 -1.00
  virtual crystal weights 
   VCA    =   1.00  1.00  1.00
   NELECT =      56.0000    total number of electrons
   NUPDOWN=      -1.0000    fix difference up-down

 DOS related values:
   EMIN   =  10.00;   EMAX   =-10.00  energy-range for DOS
   EFERMI =   0.00
   ISMEAR =     0;   SIGMA  =   0.20  broadening in eV -4-tet -1-fermi 0-gaus

 Electronic relaxation 2 (details)
   IALGO  =     38    algorithm
   LDIAG  =      T    sub-space diagonalisation (order eigenvalues)
   LSUBROT=      F    optimize rotation matrix (better conditioning)
   TURBO    =      0    0=normal 1=particle mesh
   IRESTART =      0    0=no restart 2=restart with 2 vectors
   NREBOOT  =      0    no. of reboots
   NMIN     =      0    reboot dimension
   EREF     =   0.00    reference energy to select bands
   IMIX   =      4    mixing-type and parameters
     AMIX     =   0.40;   BMIX     =  1.00
     AMIX_MAG =   1.60;   BMIX_MAG =  1.00
     AMIN     =   0.10
     WC   =   100.;   INIMIX=   1;  MIXPRE=   1;  MAXMIX= -45

 Intra band minimization:
   WEIMIN = 0.0010     energy-eigenvalue tresh-hold
   EBREAK =  0.60E-08  absolut break condition
   DEPER  =   0.30     relativ break condition  

   TIME   =   0.40     timestep for ELM

  volume/ion in A,a.u.               =     307.69      2076.41
  Fermi-wavevector in a.u.,A,eV,Ry     =   0.313166  0.591797  1.334361  0.098073
  Thomas-Fermi vector in A             =   1.193276
 
 Write flags
   LWAVE        =      T    write WAVECAR
   LDOWNSAMPLE  =      F    k-point downsampling of WAVECAR
   LCHARG       =      T    write CHGCAR
   LVTOT        =      F    write LOCPOT, total local potential
   LVHAR        =      F    write LOCPOT, Hartree potential only
   LELF         =      F    write electronic localiz. function (ELF)
   LORBIT       =      0    0 simple, 1 ext, 2 COOP (PROOUT), +10 PAW based schemes


 Dipole corrections
   LMONO  =      F    monopole corrections only (constant potential shift)
   LDIPOL =      F    correct potential (dipole corrections)
   IDIPOL =      0    1-x, 2-y, 3-z, 4-all directions 
   EPSILON=  1.0000000 bulk dielectric constant

 Exchange correlation treatment:
   GGA     =    --    GGA type
   LEXCH   =     8    internal setting for exchange type
   VOSKOWN=      0    Vosko Wilk Nusair interpolation
   LHFCALC =     F    Hartree Fock is set to
   LHFONE  =     F    Hartree Fock one center treatment
   AEXX    =    0.0000 exact exchange contribution

 Linear response parameters
   LEPSILON=     F    determine dielectric tensor
   LRPA    =     F    only Hartree local field effects (RPA)
   LNABLA  =     F    use nabla operator in PAW spheres
   LVEL    =     F    velocity operator in full k-point grid
   LINTERFAST=   F  fast interpolation
   KINTER  =     0    interpolate to denser k-point grid
   CSHIFT  =0.1000    complex shift for real part using Kramers Kronig
   OMEGAMAX=  -1.0    maximum frequency
   DEG_THRESHOLD= 0.2000000E-02 threshold for treating states as degnerate
   RTIME   =   -0.100 relaxation time in fs
  (WPLASMAI=    0.000 imaginary part of plasma frequency in eV, 0.658/RTIME)
   DFIELD  = 0.0000000 0.0000000 0.0000000 field for delta impulse in time
 
 Orbital magnetization related:
   ORBITALMAG=     F  switch on orbital magnetization
   LCHIMAG   =     F  perturbation theory with respect to B field
   DQ        =  0.001000  dq finite difference perturbation B field
   LLRAUG    =     F  two centre corrections for induced B field



--------------------------------------------------------------------------------------------------------


 conjugate gradient relaxation of ions
 charge density and potential will be updated during run
 non-spin polarized calculation
 Variant of blocked Davidson
 Davidson routine will perform the subspace rotation
 perform sub-space diagonalisation
    after iterative eigenvector-optimisation
 modified Broyden-mixing scheme, WC =      100.0
 initial mixing is a Kerker type mixing with AMIX =  0.4000 and BMIX =      1.0000
 Hartree-type preconditioning will be used
 using additional bands           14
 reciprocal scheme for non local part
 use partial core corrections
 calculate Harris-corrections to forces 
   (improved forces if not selfconsistent)
 use gradient corrections 
 use of overlap-Matrix (Vanderbilt PP)
 Gauss-broadening in eV      SIGMA  =   0.20


--------------------------------------------------------------------------------------------------------


  energy-cutoff  :      400.00
  volume of cell :     8000.00
      direct lattice vectors                 reciprocal lattice vectors
    20.000000000  0.000000000  0.000000000     0.050000000  0.000000000  0.000000000
     0.000000000 20.000000000  0.000000000     0.000000000  0.050000000  0.000000000
     0.000000000  0.000000000 20.000000000     0.000000000  0.000000000  0.050000000

  length of vectors
    20.000000000 20.000000000 20.000000000     0.050000000  0.050000000  0.050000000


 
 k-points in units of 2pi/SCALE and weight: Automatic mesh                          
   0.00000000  0.00000000  0.00000000       1.000
 
 k-points in reciprocal lattice and weights: Automatic mesh                          
   0.00000000  0.00000000  0.00000000       1.000
 
 position of ions in fractional coordinates (direct lattice) 
   0.47547100  0.55626000  0.38465300
   0.36907800  0.53906000  0.43641200
   0.54179100  0.45744600  0.39613600
   0.54669200  0.62364400  0.55351800
   0.61299700  0.52481700  0.56496600
   0.53111600  0.64794100  0.43749600
   0.38461900  0.51474100  0.55243500
   0.55736800  0.43311000  0.51215000
   0.45095700  0.41593600  0.56388300
   0.44028400  0.60643000  0.60524300
   0.41490100  0.35665000  0.52940300
   0.46117000  0.40042600  0.63910800
   0.60034800  0.36907000  0.51957800
   0.68182700  0.53600700  0.53118700
   0.62280400  0.50903400  0.64018900
   0.61080000  0.46880600  0.36278200
   0.50550800  0.39805500  0.36207700
   0.46538400  0.57201900  0.30946400
   0.58275500  0.68306700  0.58775000
   0.45052500  0.59044300  0.68036400
   0.39732000  0.67044900  0.59753500
   0.31566200  0.50359800  0.58596500
   0.33322800  0.47946500  0.40225200
   0.32629100  0.60324700  0.42912600
   0.48792300  0.71185500  0.43020800
   0.60015100  0.65882400  0.40403700
 
 position of ions in cartesian coordinates  (Angst):
   9.50942000 11.12520000  7.69306000
   7.38156000 10.78120000  8.72824000
  10.83582000  9.14892000  7.92272000
  10.93384000 12.47288000 11.07036000
  12.25994000 10.49634000 11.29932000
  10.62232000 12.95882000  8.74992000
   7.69238000 10.29482000 11.04870000
  11.14736000  8.66220000 10.24300000
   9.01914000  8.31872000 11.27766000
   8.80568000 12.12860000 12.10486000
   8.29802000  7.13300000 10.58806000
   9.22340000  8.00852000 12.78216000
  12.00696000  7.38140000 10.39156000
  13.63654000 10.72014000 10.62374000
  12.45608000 10.18068000 12.80378000
  12.21600000  9.37612000  7.25564000
  10.11016000  7.96110000  7.24154000
   9.30768000 11.44038000  6.18928000
  11.65510000 13.66134000 11.75500000
   9.01050000 11.80886000 13.60728000
   7.94640000 13.40898000 11.95070000
   6.31324000 10.07196000 11.71930000
   6.66456000  9.58930000  8.04504000
   6.52582000 12.06494000  8.58252000
   9.75846000 14.23710000  8.60416000
  12.00302000 13.17648000  8.08074000
 


--------------------------------------------------------------------------------------------------------


 k-point  1 :   0.0000 0.0000 0.0000  plane waves:  145165

 maximum and minimum number of plane-waves per node :     24209    24180

 maximum number of plane-waves:    145165
 maximum index in each direction: 
   IXMAX=   32   IYMAX=   32   IZMAX=   32
   IXMIN=  -32   IYMIN=  -32   IZMIN=  -32


 parallel 3D FFT for wavefunctions:
    minimum data exchange during FFTs selected (reduces bandwidth)
 parallel 3D FFT for charge:
    minimum data exchange during FFTs selected (reduces bandwidth)


 total amount of memory used by VASP MPI-rank0   131440. kBytes
=======================================================================

   base      :      30000. kBytes
   nonl-proj :      17624. kBytes
   fftplans  :      26957. kBytes
   grid      :      48673. kBytes
   one-center:         40. kBytes
   wavefun   :       8146. kBytes
 
     INWAV:  cpu time    0.0000: real time    0.0000
 Broyden mixing: mesh for mixing (old mesh)
   NGX = 65   NGY = 65   NGZ = 65
  (NGX  =196   NGY  =196   NGZ  =196)
  gives a total of 274625 points

 initial charge density was supplied:
 charge density of overlapping atoms calculated
 number of electron      56.0000000 magnetization 
 keeping initial charge density in first step


--------------------------------------------------------------------------------------------------------


 Maximum index for augmentation-charges          565 (set IRDMAX)


--------------------------------------------------------------------------------------------------------


 First call to EWALD:  gamma=   0.089
 Maximum number of real-space cells 3x 3x 3
 Maximum number of reciprocal cells 3x 3x 3

    FEWALD:  cpu time    0.0020: real time    0.0026


--------------------------------------- Iteration      1(   1)  ---------------------------------------


    POTLOK:  cpu time    1.7727: real time    1.7743
    SETDIJ:  cpu time    0.0080: real time    0.0074
     EDDAV:  cpu time   11.1503: real time   11.1477
       DOS:  cpu time    0.0010: real time    0.0004
    --------------------------------------------
      LOOP:  cpu time   12.9320: real time   12.9299

 eigenvalue-minimisations  :   116
 total energy-change (2. order) : 0.2038631E+03  (-0.1048398E+04)
 number of electron      56.0000000 magnetization 
 augmentation part       56.0000000 magnetization 

 Free energy of the ion-electron system (eV)
  ---------------------------------------------------
  alpha Z        PSCENC =         2.23981092
  Ewald energy   TEWEN  =      2629.98113996
  -Hartree energ DENC   =     -3441.37657785
  -exchange      EXHF   =         0.00000000
  -V(xc)+E(xc)   XCENC  =       -51.21445223
  PAW double counting   =       915.48941305     -755.22719771
  entropy T*S    EENTRO =        -0.44242610
  eigenvalues    EBANDS =      -335.55181079
  atomic energy  EATOM  =      1239.96520364
  Solvation  Ediel_sol  =         0.00000000
  ---------------------------------------------------
  free energy    TOTEN  =       203.86310288 eV

  energy without entropy =      204.30552898  energy(sigma->0) =      204.08431593


--------------------------------------------------------------------------------------------------------




--------------------------------------- Iteration      1(   2)  ---------------------------------------


     EDDAV:  cpu time   12.7191: real time   12.7166
       DOS:  cpu time    0.0010: real time    0.0003
    --------------------------------------------
      LOOP:  cpu time   12.7201: real time   12.7169

 eigenvalue-minimisations  :   136
 total energy-change (2. order) :-0.2291472E+03  (-0.2146469E+03)
 number of electron      56.0000000 magnetization 
 augmentation part       56.0000000 magnetization 

 Free energy of the ion-electron system (eV)
  ---------------------------------------------------
  alpha Z        PSCENC =         2.23981092
  Ewald energy   TEWEN  =      2629.98113996
  -Hartree energ DENC   =     -3441.37657785
  -exchange      EXHF   =         0.00000000
  -V(xc)+E(xc)   XCENC  =       -51.21445223
  PAW double counting   =       915.48941305     -755.22719771
  entropy T*S    EENTRO =        -0.00000000
  eigenvalues    EBANDS =      -565.14143254
  atomic energy  EATOM  =      1239.96520364
  Solvation  Ediel_sol  =         0.00000000
  ---------------------------------------------------
  free energy    TOTEN  =       -25.28409277 eV

  energy without entropy =      -25.28409277  energy(sigma->0) =      -25.28409277


--------------------------------------------------------------------------------------------------------




--------------------------------------- Iteration      1(   3)  ---------------------------------------


     EDDAV:  cpu time   11.0903: real time   11.1007
       DOS:  cpu time    0.0010: real time    0.0002
    --------------------------------------------
      LOOP:  cpu time   11.0913: real time   11.1010

 eigenvalue-minimisations  :   112
 total energy-change (2. order) :-0.7612291E+02  (-0.7594591E+02)
 number of electron      56.0000000 magnetization 
 augmentation part       56.0000000 magnetization 

 Free energy of the ion-electron system (eV)
  ---------------------------------------------------
  alpha Z        PSCENC =         2.23981092
  Ewald energy   TEWEN  =      2629.98113996
  -Hartree energ DENC   =     -3441.37657785
  -exchange      EXHF   =         0.00000000
  -V(xc)+E(xc)   XCENC  =       -51.21445223
  PAW double counting   =       915.48941305     -755.22719771
  entropy T*S    EENTRO =        -0.00000000
  eigenvalues    EBANDS =      -641.26434127
  atomic energy  EATOM  =      1239.96520364
  Solvation  Ediel_sol  =         0.00000000
  ---------------------------------------------------
  free energy    TOTEN  =      -101.40700150 eV

  energy without entropy =     -101.40700150  energy(sigma->0) =     -101.40700150


--------------------------------------------------------------------------------------------------------




--------------------------------------- Iteration      1(   4)  ---------------------------------------


     EDDAV:  cpu time   10.2864: real time   10.2834
       DOS:  cpu time    0.0000: real time    0.0003
    --------------------------------------------
      LOOP:  cpu time   10.2864: real time   10.2837

 eigenvalue-minimisations  :   104
 total energy-change (2. order) :-0.4424042E+01  (-0.4406527E+01)
 number of electron      56.0000000 magnetization 
 augmentation part       56.0000000 magnetization 

 Free energy of the ion-electron system (eV)
  ---------------------------------------------------
  alpha Z        PSCENC =         2.23981092
  Ewald energy   TEWEN  =      2629.98113996
  -Hartree energ DENC   =     -3441.37657785
  -exchange      EXHF   =         0.00000000
  -V(xc)+E(xc)   XCENC  =       -51.21445223
  PAW double counting   =       915.48941305     -755.22719771
  entropy T*S    EENTRO =        -0.00000000
  eigenvalues    EBANDS =      -645.68838330
  atomic energy  EATOM  =      1239.96520364
  Solvation  Ediel_sol  =         0.00000000
  ---------------------------------------------------
  free energy    TOTEN  =      -105.83104353 eV

  energy without entropy =     -105.83104353  energy(sigma->0) =     -105.83104353


--------------------------------------------------------------------------------------------------------




--------------------------------------- Iteration      1(   5)  ---------------------------------------


     EDDAV:  cpu time   12.7251: real time   12.7200
       DOS:  cpu time    0.0010: real time    0.0003
    CHARGE:  cpu time    0.4929: real time    0.4937
    MIXING:  cpu time    0.0440: real time    0.0434
    --------------------------------------------
      LOOP:  cpu time   13.2630: real time   13.2574

 eigenvalue-minimisations  :   136
 total energy-change (2. order) :-0.7785451E-01  (-0.7778029E-01)
 number of electron      56.0000022 magnetization 
 augmentation part       -3.9464520 magnetization 

 Broyden mixing:
  rms(total) = 0.14801E+01    rms(broyden)= 0.14799E+01
  rms(prec ) = 0.15763E+01
  weight for this iteration     100.00

 Free energy of the ion-electron system (eV)
  ---------------------------------------------------
  alpha Z        PSCENC =         2.23981092
  Ewald energy   TEWEN  =      2629.98113996
  -Hartree energ DENC   =     -3441.37657785
  -exchange      EXHF   =         0.00000000
  -V(xc)+E(xc)   XCENC  =       -51.21445223
  PAW double counting   =       915.48941305     -755.22719771
  entropy T*S    EENTRO =        -0.00000000
  eigenvalues    EBANDS =      -645.76623781
  atomic energy  EATOM  =      1239.96520364
  Solvation  Ediel_sol  =         0.00000000
  ---------------------------------------------------
  free energy    TOTEN  =      -105.90889804 eV

  energy without entropy =     -105.90889804  energy(sigma->0) =     -105.90889804


--------------------------------------------------------------------------------------------------------




--------------------------------------- Iteration      1(   6)  ---------------------------------------


    POTLOK:  cpu time    1.7087: real time    1.7090
    SETDIJ:  cpu time    0.0070: real time    0.0076
     EDDAV:  cpu time   10.9123: real time   10.9085
       DOS:  cpu time    0.0000: real time    0.0003
    CHARGE:  cpu time    0.4919: real time    0.4910
    MIXING:  cpu time    0.0450: real time    0.0452
    --------------------------------------------
      LOOP:  cpu time   13.1650: real time   13.1616

 eigenvalue-minimisations  :   112
 total energy-change (2. order) : 0.3199508E+01  (-0.1605638E+00)
 number of electron      56.0000021 magnetization 
 augmentation part       -3.9473637 magnetization 

 Broyden mixing:
  rms(total) = 0.85698E+00    rms(broyden)= 0.85698E+00
  rms(prec ) = 0.91574E+00
  weight for this iteration     100.00

 eigenvalues of (default mixing * dielectric matrix)
  average eigenvalue GAMMA=   2.3032
  2.3032

 Free energy of the ion-electron system (eV)
  ---------------------------------------------------
  alpha Z        PSCENC =         2.23981092
  Ewald energy   TEWEN  =      2629.98113996
  -Hartree energ DENC   =     -3472.54670452
  -exchange      EXHF   =         0.00000000
  -V(xc)+E(xc)   XCENC  =       -47.58274014
  PAW double counting   =      1798.80942540    -1639.36848025
  entropy T*S    EENTRO =        -0.00000000
  eigenvalues    EBANDS =      -614.20704538
  atomic energy  EATOM  =      1239.96520364
  Solvation  Ediel_sol  =         0.00000000
  ---------------------------------------------------
  free energy    TOTEN  =      -102.70939037 eV

  energy without entropy =     -102.70939037  energy(sigma->0) =     -102.70939037


--------------------------------------------------------------------------------------------------------




--------------------------------------- Iteration      1(   7)  ---------------------------------------


    POTLOK:  cpu time    1.7117: real time    1.7106
    SETDIJ:  cpu time    0.0080: real time    0.0079
     EDDAV:  cpu time   10.2774: real time   10.2748
       DOS:  cpu time    0.0000: real time    0.0003
    CHARGE:  cpu time    0.4889: real time    0.4891
    MIXING:  cpu time    0.0480: real time    0.0476
    --------------------------------------------
      LOOP:  cpu time   12.5341: real time   12.5303

 eigenvalue-minimisations  :   104
 total energy-change (2. order) : 0.1674984E+01  (-0.4051367E+00)
 number of electron      56.0000019 magnetization 
 augmentation part       -3.9456677 magnetization 

 Broyden mixing:
  rms(total) = 0.12130E+00    rms(broyden)= 0.12115E+00
  rms(prec ) = 0.15247E+00
  weight for this iteration     100.00

 eigenvalues of (default mixing * dielectric matrix)
  average eigenvalue GAMMA=   1.8355
  1.6826  1.9884

 Free energy of the ion-electron system (eV)
  ---------------------------------------------------
  alpha Z        PSCENC =         2.23981092
  Ewald energy   TEWEN  =      2629.98113996
  -Hartree energ DENC   =     -3528.02773655
  -exchange      EXHF   =         0.00000000
  -V(xc)+E(xc)   XCENC  =       -41.83405592
  PAW double counting   =      3726.03231247    -3567.69011963
  entropy T*S    EENTRO =        -0.00000000
  eigenvalues    EBANDS =      -561.70096108
  atomic energy  EATOM  =      1239.96520364
  Solvation  Ediel_sol  =         0.00000000
  ---------------------------------------------------
  free energy    TOTEN  =      -101.03440620 eV

  energy without entropy =     -101.03440620  energy(sigma->0) =     -101.03440620


--------------------------------------------------------------------------------------------------------




--------------------------------------- Iteration      1(   8)  ---------------------------------------


    POTLOK:  cpu time    1.7497: real time    1.7528
    SETDIJ:  cpu time    0.0080: real time    0.0077
     EDDAV:  cpu time   10.3054: real time   10.3005
       DOS:  cpu time    0.0000: real time    0.0004
    CHARGE:  cpu time    0.4959: real time    0.4956
    MIXING:  cpu time    0.0490: real time    0.0499
    --------------------------------------------
      LOOP:  cpu time   12.6091: real time   12.6068

 eigenvalue-minimisations  :   104
 total energy-change (2. order) : 0.5237004E-01  (-0.2654297E-01)
 number of electron      56.0000019 magnetization 
 augmentation part       -3.9418037 magnetization 

 Broyden mixing:
  rms(total) = 0.61088E-01    rms(broyden)= 0.61073E-01
  rms(prec ) = 0.80610E-01
  weight for this iteration     100.00

 eigenvalues of (default mixing * dielectric matrix)
  average eigenvalue GAMMA=   1.9733
  2.6399  1.6400  1.6400

 Free energy of the ion-electron system (eV)
  ---------------------------------------------------
  alpha Z        PSCENC =         2.23981092
  Ewald energy   TEWEN  =      2629.98113996
  -Hartree energ DENC   =     -3535.99476825
  -exchange      EXHF   =         0.00000000
  -V(xc)+E(xc)   XCENC  =       -41.84964419
  PAW double counting   =      3746.53730973    -3588.11324174
  entropy T*S    EENTRO =        -0.00000000
  eigenvalues    EBANDS =      -553.74784623
  atomic energy  EATOM  =      1239.96520364
  Solvation  Ediel_sol  =         0.00000000
  ---------------------------------------------------
  free energy    TOTEN  =      -100.98203616 eV

  energy without entropy =     -100.98203616  energy(sigma->0) =     -100.98203616


--------------------------------------------------------------------------------------------------------




--------------------------------------- Iteration      1(   9)  ---------------------------------------


    POTLOK:  cpu time    1.7237: real time    1.7237
    SETDIJ:  cpu time    0.0080: real time    0.0077
     EDDAV:  cpu time   11.5382: real time   11.5344
       DOS:  cpu time    0.0010: real time    0.0005
    CHARGE:  cpu time    0.4889: real time    0.4892
    MIXING:  cpu time    0.0520: real time    0.0517
    --------------------------------------------
      LOOP:  cpu time   13.8109: real time   13.8073

 eigenvalue-minimisations  :   120
 total energy-change (2. order) : 0.3594385E-01  (-0.7905427E-02)
 number of electron      56.0000019 magnetization 
 augmentation part       -3.9269939 magnetization 

 Broyden mixing:
  rms(total) = 0.32503E-01    rms(broyden)= 0.32502E-01
  rms(prec ) = 0.44033E-01
  weight for this iteration     100.00

 eigenvalues of (default mixing * dielectric matrix)
  average eigenvalue GAMMA=   1.7467
  2.5235  1.8261  1.8261  0.8111

 Free energy of the ion-electron system (eV)
  ---------------------------------------------------
  alpha Z        PSCENC =         2.23981092
  Ewald energy   TEWEN  =      2629.98113996
  -Hartree energ DENC   =     -3547.93659361
  -exchange      EXHF   =         0.00000000
  -V(xc)+E(xc)   XCENC  =       -41.16474792
  PAW double counting   =      3878.63344909    -3720.24543584
  entropy T*S    EENTRO =        -0.00000000
  eigenvalues    EBANDS =      -542.41891854
  atomic energy  EATOM  =      1239.96520364
  Solvation  Ediel_sol  =         0.00000000
  ---------------------------------------------------
  free energy    TOTEN  =      -100.94609231 eV

  energy without entropy =     -100.94609231  energy(sigma->0) =     -100.94609231


--------------------------------------------------------------------------------------------------------




--------------------------------------- Iteration      1(  10)  ---------------------------------------


    POTLOK:  cpu time    1.7387: real time    1.7385
    SETDIJ:  cpu time    0.0080: real time    0.0077
     EDDAV:  cpu time   10.9463: real time   10.9442
       DOS:  cpu time    0.0010: real time    0.0004
    CHARGE:  cpu time    0.4869: real time    0.4879
    MIXING:  cpu time    0.0550: real time    0.0541
    --------------------------------------------
      LOOP:  cpu time   13.2360: real time   13.2329

 eigenvalue-minimisations  :   112
 total energy-change (2. order) :-0.2288309E-03  (-0.2895308E-03)
 number of electron      56.0000019 magnetization 
 augmentation part       -3.9263230 magnetization 

 Broyden mixing:
  rms(total) = 0.15974E-01    rms(broyden)= 0.15974E-01
  rms(prec ) = 0.28977E-01
  weight for this iteration     100.00

 eigenvalues of (default mixing * dielectric matrix)
  average eigenvalue GAMMA=   1.8686
  2.7422  2.2934  1.0580  1.6247  1.6247

 Free energy of the ion-electron system (eV)
  ---------------------------------------------------
  alpha Z        PSCENC =         2.23981092
  Ewald energy   TEWEN  =      2629.98113996
  -Hartree energ DENC   =     -3549.95898565
  -exchange      EXHF   =         0.00000000
  -V(xc)+E(xc)   XCENC  =       -41.15208387
  PAW double counting   =      3812.25683941    -3653.82502713
  entropy T*S    EENTRO =        -0.00000000
  eigenvalues    EBANDS =      -540.45321841
  atomic energy  EATOM  =      1239.96520364
  Solvation  Ediel_sol  =         0.00000000
  ---------------------------------------------------
  free energy    TOTEN  =      -100.94632114 eV

  energy without entropy =     -100.94632114  energy(sigma->0) =     -100.94632114


--------------------------------------------------------------------------------------------------------




--------------------------------------- Iteration      1(  11)  ---------------------------------------


    POTLOK:  cpu time    1.7407: real time    1.7418
    SETDIJ:  cpu time    0.0080: real time    0.0077
     EDDAV:  cpu time   10.2824: real time   10.2788
       DOS:  cpu time    0.0000: real time    0.0004
    CHARGE:  cpu time    0.4859: real time    0.4850
    MIXING:  cpu time    0.0580: real time    0.0577
    --------------------------------------------
      LOOP:  cpu time   12.5751: real time   12.5713

 eigenvalue-minimisations  :   104
 total energy-change (2. order) :-0.1036660E-03  (-0.6345576E-03)
 number of electron      56.0000019 magnetization 
 augmentation part       -3.9255472 magnetization 

 Broyden mixing:
  rms(total) = 0.78520E-02    rms(broyden)= 0.78517E-02
  rms(prec ) = 0.14540E-01
  weight for this iteration     100.00

 eigenvalues of (default mixing * dielectric matrix)
  average eigenvalue GAMMA=   1.8691
  3.2149  2.5991  1.7312  1.7312  1.0444  0.8936

 Free energy of the ion-electron system (eV)
  ---------------------------------------------------
  alpha Z        PSCENC =         2.23981092
  Ewald energy   TEWEN  =      2629.98113996
  -Hartree energ DENC   =     -3556.63807487
  -exchange      EXHF   =         0.00000000
  -V(xc)+E(xc)   XCENC  =       -40.96684851
  PAW double counting   =      3770.02215947    -3611.54649844
  entropy T*S    EENTRO =        -0.00000000
  eigenvalues    EBANDS =      -534.00331697
  atomic energy  EATOM  =      1239.96520364
  Solvation  Ediel_sol  =         0.00000000
  ---------------------------------------------------
  free energy    TOTEN  =      -100.94642481 eV

  energy without entropy =     -100.94642481  energy(sigma->0) =     -100.94642481


--------------------------------------------------------------------------------------------------------




--------------------------------------- Iteration      1(  12)  ---------------------------------------


    POTLOK:  cpu time    1.7487: real time    1.7484
    SETDIJ:  cpu time    0.0080: real time    0.0079
     EDDAV:  cpu time   10.2224: real time   10.3620
       DOS:  cpu time    0.0010: real time    0.0005
    CHARGE:  cpu time    0.4879: real time    0.4875
    MIXING:  cpu time    0.0610: real time    0.0610
    --------------------------------------------
      LOOP:  cpu time   12.5291: real time   12.6673

 eigenvalue-minimisations  :   104
 total energy-change (2. order) :-0.4225199E-02  (-0.1142805E-03)
 number of electron      56.0000019 magnetization 
 augmentation part       -3.9251152 magnetization 

 Broyden mixing:
  rms(total) = 0.55491E-02    rms(broyden)= 0.55490E-02
  rms(prec ) = 0.98006E-02
  weight for this iteration     100.00

 eigenvalues of (default mixing * dielectric matrix)
  average eigenvalue GAMMA=   2.0912
  4.6171  2.6252  2.3103  1.5757  1.5757  0.9673  0.9673

 Free energy of the ion-electron system (eV)
  ---------------------------------------------------
  alpha Z        PSCENC =         2.23981092
  Ewald energy   TEWEN  =      2629.98113996
  -Hartree energ DENC   =     -3559.08769959
  -exchange      EXHF   =         0.00000000
  -V(xc)+E(xc)   XCENC  =       -40.92264730
  PAW double counting   =      3760.51829968    -3602.03907067
  entropy T*S    EENTRO =        -0.00000000
  eigenvalues    EBANDS =      -531.60568664
  atomic energy  EATOM  =      1239.96520364
  Solvation  Ediel_sol  =         0.00000000
  ---------------------------------------------------
  free energy    TOTEN  =      -100.95065000 eV

  energy without entropy =     -100.95065000  energy(sigma->0) =     -100.95065000


--------------------------------------------------------------------------------------------------------




--------------------------------------- Iteration      1(  13)  ---------------------------------------


    POTLOK:  cpu time    1.7547: real time    1.7563
    SETDIJ:  cpu time    0.0070: real time    0.0078
     EDDAV:  cpu time   10.2764: real time   10.2719
       DOS:  cpu time    0.0010: real time    0.0005
    CHARGE:  cpu time    0.4899: real time    0.4901
    MIXING:  cpu time    0.0640: real time    0.0642
    --------------------------------------------
      LOOP:  cpu time   12.5931: real time   12.5908

 eigenvalue-minimisations  :   104
 total energy-change (2. order) :-0.4658493E-02  (-0.1848474E-03)
 number of electron      56.0000019 magnetization 
 augmentation part       -3.9247569 magnetization 

 Broyden mixing:
  rms(total) = 0.33472E-02    rms(broyden)= 0.33470E-02
  rms(prec ) = 0.50875E-02
  weight for this iteration     100.00

 eigenvalues of (default mixing * dielectric matrix)
  average eigenvalue GAMMA=   2.2019
  5.6742  2.8521  2.3875  1.8021  1.8021  0.9648  0.9648  1.1674

 Free energy of the ion-electron system (eV)
  ---------------------------------------------------
  alpha Z        PSCENC =         2.23981092
  Ewald energy   TEWEN  =      2629.98113996
  -Hartree energ DENC   =     -3561.90071327
  -exchange      EXHF   =         0.00000000
  -V(xc)+E(xc)   XCENC  =       -40.87255122
  PAW double counting   =      3764.38702889    -3605.91650814
  entropy T*S    EENTRO =        -0.00000000
  eigenvalues    EBANDS =      -528.83871927
  atomic energy  EATOM  =      1239.96520364
  Solvation  Ediel_sol  =         0.00000000
  ---------------------------------------------------
  free energy    TOTEN  =      -100.95530850 eV

  energy without entropy =     -100.95530850  energy(sigma->0) =     -100.95530850


--------------------------------------------------------------------------------------------------------




--------------------------------------- Iteration      1(  14)  ---------------------------------------


    POTLOK:  cpu time    1.7397: real time    1.7385
    SETDIJ:  cpu time    0.0070: real time    0.0076
     EDDAV:  cpu time   10.9093: real time   10.9056
       DOS:  cpu time    0.0000: real time    0.0004
    CHARGE:  cpu time    0.4859: real time    0.4917
    MIXING:  cpu time    0.0710: real time    0.0706
    --------------------------------------------
      LOOP:  cpu time   13.2130: real time   13.2144

 eigenvalue-minimisations  :   112
 total energy-change (2. order) :-0.4383916E-02  (-0.3804765E-04)
 number of electron      56.0000019 magnetization 
 augmentation part       -3.9241419 magnetization 

 Broyden mixing:
  rms(total) = 0.15026E-02    rms(broyden)= 0.15026E-02
  rms(prec ) = 0.26729E-02
  weight for this iteration     100.00

 eigenvalues of (default mixing * dielectric matrix)
  average eigenvalue GAMMA=   2.3364
  6.6274  2.9255  2.9255  2.2136  1.6651  1.6651  1.0898  0.9578  0.9578

 Free energy of the ion-electron system (eV)
  ---------------------------------------------------
  alpha Z        PSCENC =         2.23981092
  Ewald energy   TEWEN  =      2629.98113996
  -Hartree energ DENC   =     -3562.62330372
  -exchange      EXHF   =         0.00000000
  -V(xc)+E(xc)   XCENC  =       -40.88465578
  PAW double counting   =      3764.92361017    -3606.45449195
  entropy T*S    EENTRO =        -0.00000000
  eigenvalues    EBANDS =      -528.10700565
  atomic energy  EATOM  =      1239.96520364
  Solvation  Ediel_sol  =         0.00000000
  ---------------------------------------------------
  free energy    TOTEN  =      -100.95969241 eV

  energy without entropy =     -100.95969241  energy(sigma->0) =     -100.95969241


--------------------------------------------------------------------------------------------------------




--------------------------------------- Iteration      1(  15)  ---------------------------------------


    POTLOK:  cpu time    1.7347: real time    1.7356
    SETDIJ:  cpu time    0.0090: real time    0.0083
     EDDAV:  cpu time   10.8783: real time   10.8766
       DOS:  cpu time    0.0010: real time    0.0004
    CHARGE:  cpu time    0.4909: real time    0.4918
    MIXING:  cpu time    0.0790: real time    0.0791
    --------------------------------------------
      LOOP:  cpu time   13.1940: real time   13.1919

 eigenvalue-minimisations  :   112
 total energy-change (2. order) :-0.4289761E-02  (-0.5208445E-04)
 number of electron      56.0000019 magnetization 
 augmentation part       -3.9240147 magnetization 

 Broyden mixing:
  rms(total) = 0.14137E-02    rms(broyden)= 0.14136E-02
  rms(prec ) = 0.18223E-02
  weight for this iteration     100.00

 eigenvalues of (default mixing * dielectric matrix)
  average eigenvalue GAMMA=   2.2979
  6.7443  3.7489  2.5899  2.0568  1.8674  1.8674  1.2420  0.9674  0.9674  0.9278

 Free energy of the ion-electron system (eV)
  ---------------------------------------------------
  alpha Z        PSCENC =         2.23981092
  Ewald energy   TEWEN  =      2629.98113996
  -Hartree energ DENC   =     -3562.82234026
  -exchange      EXHF   =         0.00000000
  -V(xc)+E(xc)   XCENC  =       -40.89399046
  PAW double counting   =      3768.68880502    -3610.21859607
  entropy T*S    EENTRO =        -0.00000000
  eigenvalues    EBANDS =      -527.90401491
  atomic energy  EATOM  =      1239.96520364
  Solvation  Ediel_sol  =         0.00000000
  ---------------------------------------------------
  free energy    TOTEN  =      -100.96398218 eV

  energy without entropy =     -100.96398218  energy(sigma->0) =     -100.96398218


--------------------------------------------------------------------------------------------------------




--------------------------------------- Iteration      1(  16)  ---------------------------------------


    POTLOK:  cpu time    1.7637: real time    1.7632
    SETDIJ:  cpu time    0.0080: real time    0.0079
     EDDAV:  cpu time   10.8803: real time   10.8790
       DOS:  cpu time    0.0000: real time    0.0003
    CHARGE:  cpu time    0.4889: real time    0.4888
    MIXING:  cpu time    0.0850: real time    0.0851
    --------------------------------------------
      LOOP:  cpu time   13.2250: real time   13.2243

 eigenvalue-minimisations  :   112
 total energy-change (2. order) :-0.8249057E-03  (-0.3856454E-05)
 number of electron      56.0000019 magnetization 
 augmentation part       -3.9242320 magnetization 

 Broyden mixing:
  rms(total) = 0.61079E-03    rms(broyden)= 0.61077E-03
  rms(prec ) = 0.95097E-03
  weight for this iteration     100.00

 eigenvalues of (default mixing * dielectric matrix)
  average eigenvalue GAMMA=   2.4107
  7.3347  4.6396  2.6255  2.6255  1.8087  1.8087  1.3937  1.3937  0.9643  0.9643
  0.9587

 Free energy of the ion-electron system (eV)
  ---------------------------------------------------
  alpha Z        PSCENC =         2.23981092
  Ewald energy   TEWEN  =      2629.98113996
  -Hartree energ DENC   =     -3562.92279040
  -exchange      EXHF   =         0.00000000
  -V(xc)+E(xc)   XCENC  =       -40.89114713
  PAW double counting   =      3768.32493142    -3609.85402916
  entropy T*S    EENTRO =        -0.00000000
  eigenvalues    EBANDS =      -527.80792632
  atomic energy  EATOM  =      1239.96520364
  Solvation  Ediel_sol  =         0.00000000
  ---------------------------------------------------
  free energy    TOTEN  =      -100.96480708 eV

  energy without entropy =     -100.96480708  energy(sigma->0) =     -100.96480708


--------------------------------------------------------------------------------------------------------




--------------------------------------- Iteration      1(  17)  ---------------------------------------


    POTLOK:  cpu time    1.7307: real time    1.7299
    SETDIJ:  cpu time    0.0080: real time    0.0083
     EDDAV:  cpu time   10.2654: real time   10.2635
       DOS:  cpu time    0.0010: real time    0.0003
    CHARGE:  cpu time    0.4859: real time    0.4867
    MIXING:  cpu time    0.0950: real time    0.0948
    --------------------------------------------
      LOOP:  cpu time   12.5861: real time   12.5834

 eigenvalue-minimisations  :   104
 total energy-change (2. order) :-0.1088998E-02  (-0.9120476E-05)
 number of electron      56.0000019 magnetization 
 augmentation part       -3.9244003 magnetization 

 Broyden mixing:
  rms(total) = 0.29914E-03    rms(broyden)= 0.29910E-03
  rms(prec ) = 0.44777E-03
  weight for this iteration     100.00

 eigenvalues of (default mixing * dielectric matrix)
  average eigenvalue GAMMA=   2.3859
  7.5305  4.9584  2.6932  2.6932  1.9190  1.9190  1.4939  1.4939  1.0124  1.0124
  0.9523  0.9523

 Free energy of the ion-electron system (eV)
  ---------------------------------------------------
  alpha Z        PSCENC =         2.23981092
  Ewald energy   TEWEN  =      2629.98113996
  -Hartree energ DENC   =     -3562.94274127
  -exchange      EXHF   =         0.00000000
  -V(xc)+E(xc)   XCENC  =       -40.89377426
  PAW double counting   =      3766.72835477    -3608.25647231
  entropy T*S    EENTRO =        -0.00000000
  eigenvalues    EBANDS =      -527.78741754
  atomic energy  EATOM  =      1239.96520364
  Solvation  Ediel_sol  =         0.00000000
  ---------------------------------------------------
  free energy    TOTEN  =      -100.96589608 eV

  energy without entropy =     -100.96589608  energy(sigma->0) =     -100.96589608


--------------------------------------------------------------------------------------------------------




--------------------------------------- Iteration      1(  18)  ---------------------------------------


    POTLOK:  cpu time    1.7317: real time    1.7333
    SETDIJ:  cpu time    0.0080: real time    0.0078
     EDDAV:  cpu time   10.2944: real time   10.2927
       DOS:  cpu time    0.0000: real time    0.0003
    CHARGE:  cpu time    0.4919: real time    0.4906
    MIXING:  cpu time    0.1080: real time    0.1076
    --------------------------------------------
      LOOP:  cpu time   12.6341: real time   12.6324

 eigenvalue-minimisations  :   104
 total energy-change (2. order) :-0.2558207E-03  (-0.7935386E-06)
 number of electron      56.0000019 magnetization 
 augmentation part       -3.9243799 magnetization 

 Broyden mixing:
  rms(total) = 0.17301E-03    rms(broyden)= 0.17298E-03
  rms(prec ) = 0.26485E-03
  weight for this iteration     100.00

 eigenvalues of (default mixing * dielectric matrix)
  average eigenvalue GAMMA=   2.4827
  8.1560  5.7536  3.1687  2.5887  2.3765  1.7733  1.7733  1.3851  1.3851  0.9571
  0.9571  1.0004  1.0004

 Free energy of the ion-electron system (eV)
  ---------------------------------------------------
  alpha Z        PSCENC =         2.23981092
  Ewald energy   TEWEN  =      2629.98113996
  -Hartree energ DENC   =     -3562.97546789
  -exchange      EXHF   =         0.00000000
  -V(xc)+E(xc)   XCENC  =       -40.89325788
  PAW double counting   =      3766.49464923    -3608.02318068
  entropy T*S    EENTRO =        -0.00000000
  eigenvalues    EBANDS =      -527.75504919
  atomic energy  EATOM  =      1239.96520364
  Solvation  Ediel_sol  =         0.00000000
  ---------------------------------------------------
  free energy    TOTEN  =      -100.96615190 eV

  energy without entropy =     -100.96615190  energy(sigma->0) =     -100.96615190


--------------------------------------------------------------------------------------------------------




--------------------------------------- Iteration      1(  19)  ---------------------------------------


    POTLOK:  cpu time    1.7347: real time    1.7351
    SETDIJ:  cpu time    0.0070: real time    0.0077
     EDDAV:  cpu time    9.6645: real time    9.6629
       DOS:  cpu time    0.0010: real time    0.0003
    CHARGE:  cpu time    0.4909: real time    0.4905
    MIXING:  cpu time    0.1200: real time    0.1201
    --------------------------------------------
      LOOP:  cpu time   12.0182: real time   12.0167

 eigenvalue-minimisations  :    96
 total energy-change (2. order) :-0.1738760E-03  (-0.6352428E-06)
 number of electron      56.0000019 magnetization 
 augmentation part       -3.9243964 magnetization 

 Broyden mixing:
  rms(total) = 0.15097E-03    rms(broyden)= 0.15096E-03
  rms(prec ) = 0.19319E-03
  weight for this iteration     100.00

 eigenvalues of (default mixing * dielectric matrix)
  average eigenvalue GAMMA=   2.4752
  8.3174  6.1127  3.3453  2.6772  1.9319  1.9319  1.8153  1.8153  1.5844  1.2771
  0.9883  0.9883  0.9339  0.9339

 Free energy of the ion-electron system (eV)
  ---------------------------------------------------
  alpha Z        PSCENC =         2.23981092
  Ewald energy   TEWEN  =      2629.98113996
  -Hartree energ DENC   =     -3562.99211068
  -exchange      EXHF   =         0.00000000
  -V(xc)+E(xc)   XCENC  =       -40.89220593
  PAW double counting   =      3766.48120209    -3608.01004615
  entropy T*S    EENTRO =        -0.00000000
  eigenvalues    EBANDS =      -527.73931962
  atomic energy  EATOM  =      1239.96520364
  Solvation  Ediel_sol  =         0.00000000
  ---------------------------------------------------
  free energy    TOTEN  =      -100.96632578 eV

  energy without entropy =     -100.96632578  energy(sigma->0) =     -100.96632578


--------------------------------------------------------------------------------------------------------




--------------------------------------- Iteration      1(  20)  ---------------------------------------


    POTLOK:  cpu time    1.7377: real time    1.7377
    SETDIJ:  cpu time    0.0130: real time    0.0129
     EDDAV:  cpu time    9.0516: real time    9.0504
       DOS:  cpu time    0.0010: real time    0.0003
    CHARGE:  cpu time    0.4929: real time    0.4938
    MIXING:  cpu time    0.1300: real time    0.1298
    --------------------------------------------
      LOOP:  cpu time   11.4263: real time   11.4250

 eigenvalue-minimisations  :    88
 total energy-change (2. order) :-0.5557163E-04  (-0.1049756E-06)
 number of electron      56.0000019 magnetization 
 augmentation part       -3.9243780 magnetization 

 Broyden mixing:
  rms(total) = 0.54306E-04    rms(broyden)= 0.54306E-04
  rms(prec ) = 0.80631E-04
  weight for this iteration     100.00

 eigenvalues of (default mixing * dielectric matrix)
  average eigenvalue GAMMA=   2.5247
  8.5995  6.3627  4.0262  2.8095  2.6231  2.0105  1.8043  1.8043  1.4263  1.4263
  1.1580  0.9806  0.9806  0.9639  0.8946

 Free energy of the ion-electron system (eV)
  ---------------------------------------------------
  alpha Z        PSCENC =         2.23981092
  Ewald energy   TEWEN  =      2629.98113996
  -Hartree energ DENC   =     -3562.99728292
  -exchange      EXHF   =         0.00000000
  -V(xc)+E(xc)   XCENC  =       -40.89302509
  PAW double counting   =      3766.37501857    -3607.90385022
  entropy T*S    EENTRO =        -0.00000000
  eigenvalues    EBANDS =      -527.73339620
  atomic energy  EATOM  =      1239.96520364
  Solvation  Ediel_sol  =         0.00000000
  ---------------------------------------------------
  free energy    TOTEN  =      -100.96638135 eV

  energy without entropy =     -100.96638135  energy(sigma->0) =     -100.96638135


--------------------------------------------------------------------------------------------------------




--------------------------------------- Iteration      1(  21)  ---------------------------------------


    POTLOK:  cpu time    1.7297: real time    1.7295
    SETDIJ:  cpu time    0.0080: real time    0.0081
     EDDAV:  cpu time    8.4587: real time    8.4568
       DOS:  cpu time    0.0000: real time    0.0007
    CHARGE:  cpu time    0.4859: real time    0.4856
    MIXING:  cpu time    0.1420: real time    0.1418
    --------------------------------------------
      LOOP:  cpu time   10.8244: real time   10.8226

 eigenvalue-minimisations  :    80
 total energy-change (2. order) :-0.2719757E-04  (-0.8965040E-07)
 number of electron      56.0000019 magnetization 
 augmentation part       -3.9243631 magnetization 

 Broyden mixing:
  rms(total) = 0.54720E-04    rms(broyden)= 0.54717E-04
  rms(prec ) = 0.69260E-04
  weight for this iteration     100.00

 eigenvalues of (default mixing * dielectric matrix)
  average eigenvalue GAMMA=   2.5116
  8.5683  6.6580  4.1973  2.9514  2.6102  1.9374  1.9374  1.7989  1.7220  1.7220
  1.1637  0.9427  0.9427  1.0225  1.0225  0.9892

 Free energy of the ion-electron system (eV)
  ---------------------------------------------------
  alpha Z        PSCENC =         2.23981092
  Ewald energy   TEWEN  =      2629.98113996
  -Hartree energ DENC   =     -3563.00348279
  -exchange      EXHF   =         0.00000000
  -V(xc)+E(xc)   XCENC  =       -40.89307894
  PAW double counting   =      3766.48655059    -3608.01542632
  entropy T*S    EENTRO =        -0.00000000
  eigenvalues    EBANDS =      -527.72712560
  atomic energy  EATOM  =      1239.96520364
  Solvation  Ediel_sol  =         0.00000000
  ---------------------------------------------------
  free energy    TOTEN  =      -100.96640854 eV

  energy without entropy =     -100.96640854  energy(sigma->0) =     -100.96640854


--------------------------------------------------------------------------------------------------------




--------------------------------------- Iteration      1(  22)  ---------------------------------------


    POTLOK:  cpu time    1.7217: real time    1.7213
    SETDIJ:  cpu time    0.0080: real time    0.0078
     EDDAV:  cpu time    9.0316: real time    9.0305
       DOS:  cpu time    0.0010: real time    0.0006
    CHARGE:  cpu time    0.4899: real time    0.4896
    MIXING:  cpu time    0.1570: real time    0.1571
    --------------------------------------------
      LOOP:  cpu time   11.4093: real time   11.4069

 eigenvalue-minimisations  :    88
 total energy-change (2. order) :-0.7166570E-05  (-0.1863138E-07)
 number of electron      56.0000019 magnetization 
 augmentation part       -3.9243749 magnetization 

 Broyden mixing:
  rms(total) = 0.19148E-04    rms(broyden)= 0.19148E-04
  rms(prec ) = 0.26548E-04
  weight for this iteration     100.00

 eigenvalues of (default mixing * dielectric matrix)
  average eigenvalue GAMMA=   2.5160
  8.8256  6.7256  4.6129  3.1183  2.5307  2.5307  1.8636  1.8636  1.6657  1.6657
  1.2439  1.2439  1.0233  0.9584  0.9584  0.9706  0.9706

 Free energy of the ion-electron system (eV)
  ---------------------------------------------------
  alpha Z        PSCENC =         2.23981092
  Ewald energy   TEWEN  =      2629.98113996
  -Hartree energ DENC   =     -3563.00156509
  -exchange      EXHF   =         0.00000000
  -V(xc)+E(xc)   XCENC  =       -40.89293868
  PAW double counting   =      3766.53583343    -3608.06462849
  entropy T*S    EENTRO =        -0.00000000
  eigenvalues    EBANDS =      -527.72927140
  atomic energy  EATOM  =      1239.96520364
  Solvation  Ediel_sol  =         0.00000000
  ---------------------------------------------------
  free energy    TOTEN  =      -100.96641571 eV

  energy without entropy =     -100.96641571  energy(sigma->0) =     -100.96641571


--------------------------------------------------------------------------------------------------------




--------------------------------------- Iteration      1(  23)  ---------------------------------------


    POTLOK:  cpu time    1.7277: real time    1.7270
    SETDIJ:  cpu time    0.0070: real time    0.0077
     EDDAV:  cpu time    8.4697: real time    8.4681
       DOS:  cpu time    0.0010: real time    0.0007
    CHARGE:  cpu time    0.4889: real time    0.4884
    MIXING:  cpu time    0.1650: real time    0.1654
    --------------------------------------------
      LOOP:  cpu time   10.8593: real time   10.8573

 eigenvalue-minimisations  :    80
 total energy-change (2. order) :-0.3431742E-05  (-0.7917185E-08)
 number of electron      56.0000019 magnetization 
 augmentation part       -3.9243832 magnetization 

 Broyden mixing:
  rms(total) = 0.16840E-04    rms(broyden)= 0.16839E-04
  rms(prec ) = 0.21498E-04
  weight for this iteration     100.00

 eigenvalues of (default mixing * dielectric matrix)
  average eigenvalue GAMMA=   2.5164
  8.8794  6.8124  4.7370  3.0559  2.6530  2.6530  1.9794  1.9794  1.9536  1.6760
  1.6760  1.1455  1.1455  0.9363  0.9363  1.0704  1.0025  1.0025

 Free energy of the ion-electron system (eV)
  ---------------------------------------------------
  alpha Z        PSCENC =         2.23981092
  Ewald energy   TEWEN  =      2629.98113996
  -Hartree energ DENC   =     -3563.00089863
  -exchange      EXHF   =         0.00000000
  -V(xc)+E(xc)   XCENC  =       -40.89302942
  PAW double counting   =      3766.50231327    -3608.03108140
  entropy T*S    EENTRO =        -0.00000000
  eigenvalues    EBANDS =      -527.72987748
  atomic energy  EATOM  =      1239.96520364
  Solvation  Ediel_sol  =         0.00000000
  ---------------------------------------------------
  free energy    TOTEN  =      -100.96641914 eV

  energy without entropy =     -100.96641914  energy(sigma->0) =     -100.96641914


--------------------------------------------------------------------------------------------------------




--------------------------------------- Iteration      1(  24)  ---------------------------------------


    POTLOK:  cpu time    1.8337: real time    1.8364
    SETDIJ:  cpu time    0.0080: real time    0.0077
     EDDAV:  cpu time    8.4627: real time    8.4605
       DOS:  cpu time    0.0010: real time    0.0008
    CHARGE:  cpu time    0.4899: real time    0.4902
    MIXING:  cpu time    0.1800: real time    0.1805
    --------------------------------------------
      LOOP:  cpu time   10.9753: real time   10.9763

 eigenvalue-minimisations  :    80
 total energy-change (2. order) :-0.2409920E-05  (-0.3372675E-08)
 number of electron      56.0000019 magnetization 
 augmentation part       -3.9243810 magnetization 

 Broyden mixing:
  rms(total) = 0.77233E-05    rms(broyden)= 0.77231E-05
  rms(prec ) = 0.95051E-05
  weight for this iteration     100.00

 eigenvalues of (default mixing * dielectric matrix)
  average eigenvalue GAMMA=   2.5468
  8.8504  7.1003  5.3870  3.8545  2.8990  2.4336  2.3373  1.8597  1.8597  1.6830
  1.6830  1.2290  1.2290  1.1652  0.9804  0.9804  0.9366  0.9366  0.9851

 Free energy of the ion-electron system (eV)
  ---------------------------------------------------
  alpha Z        PSCENC =         2.23981092
  Ewald energy   TEWEN  =      2629.98113996
  -Hartree energ DENC   =     -3563.00178308
  -exchange      EXHF   =         0.00000000
  -V(xc)+E(xc)   XCENC  =       -40.89305467
  PAW double counting   =      3766.45513528    -3607.98393773
  entropy T*S    EENTRO =        -0.00000000
  eigenvalues    EBANDS =      -527.72893588
  atomic energy  EATOM  =      1239.96520364
  Solvation  Ediel_sol  =         0.00000000
  ---------------------------------------------------
  free energy    TOTEN  =      -100.96642155 eV

  energy without entropy =     -100.96642155  energy(sigma->0) =     -100.96642155


--------------------------------------------------------------------------------------------------------




--------------------------------------- Iteration      1(  25)  ---------------------------------------


    POTLOK:  cpu time    1.7437: real time    1.7425
    SETDIJ:  cpu time    0.0080: real time    0.0081
     EDDAV:  cpu time    9.1006: real time    9.0992
       DOS:  cpu time    0.0010: real time    0.0008
    --------------------------------------------
      LOOP:  cpu time   10.8534: real time   10.8507

 eigenvalue-minimisations  :    88
 total energy-change (2. order) :-0.5594411E-06  (-0.1175110E-08)
 number of electron      56.0000019 magnetization 
 augmentation part       -3.9243810 magnetization 

 Free energy of the ion-electron system (eV)
  ---------------------------------------------------
  alpha Z        PSCENC =         2.23981092
  Ewald energy   TEWEN  =      2629.98113996
  -Hartree energ DENC   =     -3563.00245498
  -exchange      EXHF   =         0.00000000
  -V(xc)+E(xc)   XCENC  =       -40.89302276
  PAW double counting   =      3766.47215709    -3608.00095933
  entropy T*S    EENTRO =        -0.00000000
  eigenvalues    EBANDS =      -527.72829664
  atomic energy  EATOM  =      1239.96520364
  Solvation  Ediel_sol  =         0.00000000
  ---------------------------------------------------
  free energy    TOTEN  =      -100.96642211 eV

  energy without entropy =     -100.96642211  energy(sigma->0) =     -100.96642211


--------------------------------------------------------------------------------------------------------




 average (electrostatic) potential at core
  the test charge radii are     0.9892  1.1631  0.5201
  (the norm of the test charge is              1.0000)
       1 -93.3945       2 -93.4570       3 -93.4635       4 -93.4334       5 -93.4574
       6 -40.4005       7 -40.4243       8 -40.3837       9 -40.4835      10 -40.4355
      11 -41.0529      12 -41.0570      13 -41.0676      14 -40.6934      15 -40.6968
      16 -40.6981      17 -40.6975      18 -40.6965      19 -40.6863      20 -41.0607
      21 -41.0625      22 -41.0549      23 -40.6928      24 -40.6985      25 -41.0762
      26 -41.0711
 
 
 
 E-fermi :  -5.3624     XC(G=0):  -0.6092     alpha+bet : -0.3347


 k-point     1 :       0.0000    0.0000    0.0000
  band No.  band energies     occupation 
      1     -15.3210      2.00000
      2     -14.4002      2.00000
      3     -14.3119      2.00000
      4     -13.7993      2.00000
      5     -13.1900      2.00000
      6     -12.7169      2.00000
      7     -11.7400      2.00000
      8     -11.6625      2.00000
      9     -11.2856      2.00000
     10     -10.4586      2.00000
     11      -8.9707      2.00000
     12      -8.6334      2.00000
     13      -8.6267      2.00000
     14      -8.6197      2.00000
     15      -8.1944      2.00000
     16      -8.1865      2.00000
     17      -8.1747      2.00000
     18      -7.8635      2.00000
     19      -7.8596      2.00000
     20      -7.8474      2.00000
     21      -6.7811      2.00000
     22      -6.7575      2.00000
     23      -6.4701      2.00000
     24      -6.4644      2.00000
     25      -6.4464      2.00000
     26      -6.3721      2.00000
     27      -6.3637      2.00000
     28      -6.3464      2.00000
     29      -1.7036      0.00000
     30      -1.3911      0.00000
     31      -1.2969      0.00000
     32      -1.1967      0.00000
     33      -1.1725      0.00000
     34      -1.0774      0.00000
     35      -1.0669      0.00000
     36      -0.9816      0.00000
     37      -0.8436      0.00000
     38      -0.6035      0.00000
     39      -0.4477      0.00000
     40      -0.2982      0.00000
     41      -0.2529      0.00000
     42      -0.1361      0.00000


--------------------------------------------------------------------------------------------------------


 soft charge-density along one line, spin component           1
         0         1         2         3         4         5         6         7         8         9
 total charge-density along one line
 
 pseudopotential strength for first ion, spin component:           1
 19.613  27.371   0.002   0.003   0.001   0.003   0.005   0.003
 27.371  38.201   0.002   0.004   0.002   0.004   0.008   0.004
  0.002   0.002   4.359   0.000   0.000   8.131   0.000   0.001
  0.003   0.004   0.000   4.359   0.000   0.000   8.131   0.000
  0.001   0.002   0.000   0.000   4.358   0.001   0.000   8.130
  0.003   0.004   8.131   0.000   0.001  15.178   0.001   0.001
  0.005   0.008   0.000   8.131   0.000   0.001  15.177   0.001
  0.003   0.004   0.001   0.000   8.130   0.001   0.001  15.177
 total augmentation occupancy for first ion, spin component:           1
  5.559  -2.039   0.051  -0.338  -0.055  -0.014   0.101   0.017
 -2.039   0.811  -0.035   0.205   0.031   0.008  -0.045  -0.007
  0.051  -0.035   2.837  -0.113  -0.031  -0.615   0.039   0.009
 -0.338   0.205  -0.113   3.285   0.048   0.039  -0.776  -0.019
 -0.055   0.031  -0.031   0.048   2.844   0.009  -0.019  -0.615
 -0.014   0.008  -0.615   0.039   0.009   0.140  -0.011  -0.002
  0.101  -0.045   0.039  -0.776  -0.019  -0.011   0.186   0.006
  0.017  -0.007   0.009  -0.019  -0.615  -0.002   0.006   0.139


------------------------ aborting loop because EDIFF is reached ----------------------------------------


    CHARGE:  cpu time    0.4849: real time    0.4852
    FORLOC:  cpu time    0.1720: real time    0.1713
    FORNL :  cpu time    1.1268: real time    1.1270
    STRESS:  cpu time    8.3897: real time    8.3879
    FORCOR:  cpu time    1.7227: real time    1.7227
    FORHAR:  cpu time    0.5829: real time    0.5832
    MIXING:  cpu time    0.1950: real time    0.1944
    OFIELD:  cpu time    0.0000: real time    0.0000

  FORCE on cell =-STRESS in cart. coord.  units (eV):
  Direction    XX          YY          ZZ          XY          YZ          ZX
  --------------------------------------------------------------------------------------
  Alpha Z     2.23981     2.23981     2.23981
  Ewald     876.64706   876.62235   876.71007    -0.21850     0.02563    -0.50464
  Hartree  1187.98293  1186.95830  1188.06143    -0.28967     0.37534     0.13159
  E(xc)    -178.73693  -178.72997  -178.71090     0.08586     0.04158     0.01144
  Local   -2557.86716 -2556.80670 -2557.90940     0.57387    -0.36891     0.41716
  n-local   255.89600   255.91542   255.67329    -0.46695    -0.25589    -0.14110
  augment   -20.64476   -20.64379   -20.65529    -0.00218     0.00108    -0.00199
  Kinetic   432.27164   432.17110   432.25656     0.19634     0.14660     0.07145
  Fock        0.00000     0.00000     0.00000     0.00000     0.00000     0.00000
  -------------------------------------------------------------------------------------
  Total      -2.21142    -2.27347    -2.33443    -0.12122    -0.03458    -0.01609
  in kB      -0.44289    -0.45531    -0.46752    -0.02428    -0.00693    -0.00322
  external pressure =       -0.46 kB  Pullay stress =        0.00 kB


 VOLUME and BASIS-vectors are now :
 -----------------------------------------------------------------------------
  energy-cutoff  :      400.00
[...]
    SETDIJ:  cpu time    0.0080: real time    0.0083
     EDDAV:  cpu time   11.6372: real time   11.6330
       DOS:  cpu time    0.0010: real time    0.0004
    CHARGE:  cpu time    0.4869: real time    0.4870
    MIXING:  cpu time    0.0470: real time    0.0477
    --------------------------------------------
      LOOP:  cpu time   13.9239: real time   13.9207

 eigenvalue-minimisations  :   120
 total energy-change (2. order) : 0.3341314E-05  (-0.1596608E-05)
 number of electron      55.9999991 magnetization 
 augmentation part       -3.9148046 magnetization 

 Broyden mixing:
  rms(total) = 0.10236E-02    rms(broyden)= 0.10236E-02
  rms(prec ) = 0.10950E-02
  weight for this iteration     100.00

 eigenvalues of (default mixing * dielectric matrix)
  average eigenvalue GAMMA=   1.5347
  1.0816  1.9879

 Free energy of the ion-electron system (eV)
  ---------------------------------------------------
  alpha Z        PSCENC =         2.23981092
  Ewald energy   TEWEN  =      2617.44219299
  -Hartree energ DENC   =     -3550.43060533
  -exchange      EXHF   =         0.00000000
  -V(xc)+E(xc)   XCENC  =       -40.49621053
  PAW double counting   =      3929.61525704    -3771.18242003
  entropy T*S    EENTRO =        -0.00000000
  eigenvalues    EBANDS =      -528.37728845
  atomic energy  EATOM  =      1239.96520364
  Solvation  Ediel_sol  =         0.00000000
  ---------------------------------------------------
  free energy    TOTEN  =      -101.22405977 eV

  energy without entropy =     -101.22405977  energy(sigma->0) =     -101.22405977


--------------------------------------------------------------------------------------------------------




--------------------------------------- Iteration     18(   4)  ---------------------------------------


    POTLOK:  cpu time    1.7537: real time    1.7530
    SETDIJ:  cpu time    0.0080: real time    0.0076
     EDDAV:  cpu time   10.3764: real time   10.3729
       DOS:  cpu time    0.0000: real time    0.0004
    CHARGE:  cpu time    0.4879: real time    0.4878
    MIXING:  cpu time    0.0500: real time    0.0498
    --------------------------------------------
      LOOP:  cpu time   12.6761: real time   12.6716

 eigenvalue-minimisations  :   104
 total energy-change (2. order) : 0.1530724E-05  (-0.4068440E-06)
 number of electron      55.9999991 magnetization 
 augmentation part       -3.9148403 magnetization 

 Broyden mixing:
  rms(total) = 0.24393E-03    rms(broyden)= 0.24392E-03
  rms(prec ) = 0.27757E-03
  weight for this iteration     100.00

 eigenvalues of (default mixing * dielectric matrix)
  average eigenvalue GAMMA=   1.5297
  2.4528  1.0681  1.0681

 Free energy of the ion-electron system (eV)
  ---------------------------------------------------
  alpha Z        PSCENC =         2.23981092
  Ewald energy   TEWEN  =      2617.44219299
  -Hartree energ DENC   =     -3550.41995986
  -exchange      EXHF   =         0.00000000
  -V(xc)+E(xc)   XCENC  =       -40.49678865
  PAW double counting   =      3929.07592450    -3770.64283440
  entropy T*S    EENTRO =        -0.00000000
  eigenvalues    EBANDS =      -528.38760737
  atomic energy  EATOM  =      1239.96520364
  Solvation  Ediel_sol  =         0.00000000
  ---------------------------------------------------
  free energy    TOTEN  =      -101.22405823 eV

  energy without entropy =     -101.22405823  energy(sigma->0) =     -101.22405823


--------------------------------------------------------------------------------------------------------




--------------------------------------- Iteration     18(   5)  ---------------------------------------


    POTLOK:  cpu time    1.7427: real time    1.7417
    SETDIJ:  cpu time    0.0080: real time    0.0078
     EDDAV:  cpu time    9.1426: real time    9.1393
       DOS:  cpu time    0.0000: real time    0.0004
    --------------------------------------------
      LOOP:  cpu time   10.8933: real time   10.8892

 eigenvalue-minimisations  :    88
 total energy-change (2. order) : 0.4521376E-06  (-0.7656952E-07)
 number of electron      55.9999991 magnetization 
 augmentation part       -3.9148403 magnetization 

 Free energy of the ion-electron system (eV)
  ---------------------------------------------------
  alpha Z        PSCENC =         2.23981092
  Ewald energy   TEWEN  =      2617.44219299
  -Hartree energ DENC   =     -3550.41659023
  -exchange      EXHF   =         0.00000000
  -V(xc)+E(xc)   XCENC  =       -40.49690940
  PAW double counting   =      3929.00252652    -3770.56939957
  entropy T*S    EENTRO =        -0.00000000
  eigenvalues    EBANDS =      -528.39089264
  atomic energy  EATOM  =      1239.96520364
  Solvation  Ediel_sol  =         0.00000000
  ---------------------------------------------------
  free energy    TOTEN  =      -101.22405778 eV

  energy without entropy =     -101.22405778  energy(sigma->0) =     -101.22405778


--------------------------------------------------------------------------------------------------------




 average (electrostatic) potential at core
  the test charge radii are     0.9892  1.1631  0.5201
  (the norm of the test charge is              1.0000)
       1 -93.3352       2 -93.3509       3 -93.3467       4 -93.4139       5 -93.3493
       6 -40.3909       7 -40.4560       8 -40.3996       9 -40.4810      10 -40.4361
      11 -40.9792      12 -40.9790      13 -41.0062      14 -40.8484      15 -40.8472
      16 -40.8519      17 -40.8484      18 -40.8893      19 -40.9012      20 -40.9778
      21 -40.9772      22 -41.0148      23 -40.8464      24 -40.8494      25 -40.9817
      26 -40.9831
 
 
 
 E-fermi :  -5.3434     XC(G=0):  -0.6068     alpha+bet : -0.3347


 k-point     1 :       0.0000    0.0000    0.0000
  band No.  band energies     occupation 
      1     -15.1815      2.00000
      2     -14.2906      2.00000
      3     -14.2192      2.00000
      4     -13.9162      2.00000
      5     -13.1746      2.00000
      6     -12.8483      2.00000
      7     -11.7991      2.00000
      8     -11.7415      2.00000
      9     -11.4006      2.00000
     10     -10.5919      2.00000
     11      -8.9985      2.00000
     12      -8.6764      2.00000
     13      -8.6294      2.00000
     14      -8.5643      2.00000
     15      -8.2457      2.00000
     16      -8.1539      2.00000
     17      -8.0687      2.00000
     18      -7.9696      2.00000
     19      -7.8472      2.00000
     20      -7.8177      2.00000
     21      -6.8706      2.00000
     22      -6.7699      2.00000
     23      -6.4979      2.00000
     24      -6.4836      2.00000
     25      -6.4497      2.00000
     26      -6.3877      2.00000
     27      -6.3347      2.00000
     28      -6.2663      2.00000
     29      -1.6672      0.00000
     30      -1.4125      0.00000
     31      -1.3595      0.00000
     32      -1.3124      0.00000
     33      -1.2529      0.00000
     34      -1.1517      0.00000
     35      -1.0860      0.00000
     36      -0.9447      0.00000
     37      -0.7659      0.00000
     38      -0.5243      0.00000
     39      -0.4213      0.00000
     40      -0.2597      0.00000
     41      -0.1786      0.00000
     42      -0.0879      0.00000


--------------------------------------------------------------------------------------------------------


 soft charge-density along one line, spin component           1
         0         1         2         3         4         5         6         7         8         9
 total charge-density along one line
 
 pseudopotential strength for first ion, spin component:           1
 19.614  27.372   0.001   0.003   0.001   0.003   0.006   0.002
 27.372  38.204   0.002   0.004   0.002   0.003   0.008   0.003
  0.001   0.002   4.361   0.000   0.000   8.136   0.000   0.000
  0.003   0.004   0.000   4.362   0.000   0.000   8.136   0.000
  0.001   0.002   0.000   0.000   4.361   0.000   0.000   8.135
  0.003   0.003   8.136   0.000   0.000  15.186   0.000   0.001
  0.006   0.008   0.000   8.136   0.000   0.000  15.187   0.001
  0.002   0.003   0.000   0.000   8.135   0.001   0.001  15.185
 total augmentation occupancy for first ion, spin component:           1
  5.920  -2.234   0.004  -0.472  -0.101   0.001   0.148   0.032
 -2.234   0.904  -0.016   0.269   0.052   0.002  -0.067  -0.013
  0.004  -0.016   2.931  -0.187  -0.092  -0.645   0.060   0.026
 -0.472   0.269  -0.187   3.509   0.029   0.061  -0.843  -0.014
 -0.101   0.052  -0.092   0.029   2.999   0.026  -0.014  -0.662
  0.001   0.002  -0.645   0.061   0.026   0.148  -0.017  -0.007
  0.148  -0.067   0.060  -0.843  -0.014  -0.017   0.206   0.005
  0.032  -0.013   0.026  -0.014  -0.662  -0.007   0.005   0.152


------------------------ aborting loop because EDIFF is reached ----------------------------------------


    CHARGE:  cpu time    0.4889: real time    0.4893
    FORLOC:  cpu time    0.1700: real time    0.1699
    FORNL :  cpu time    1.1218: real time    1.1206
    STRESS:  cpu time    8.5347: real time    8.5315
    FORCOR:  cpu time    1.7227: real time    1.7216
    FORHAR:  cpu time    0.5849: real time    0.5852
    MIXING:  cpu time    0.0510: real time    0.0517
    OFIELD:  cpu time    0.0000: real time    0.0000

  FORCE on cell =-STRESS in cart. coord.  units (eV):
  Direction    XX          YY          ZZ          XY          YZ          ZX
  --------------------------------------------------------------------------------------
  Alpha Z     2.23981     2.23981     2.23981
  Ewald     875.27365   867.40727   874.75961    -0.17768     2.96144     3.69279
  Hartree  1185.72692  1178.57586  1186.10592     1.11857     3.35670     3.74177
  E(xc)    -179.05712  -179.07907  -179.08918     0.06952     0.04760     0.01570
  Local   -2554.69799 -2539.51619 -2554.04515    -0.69383    -6.36911    -7.46291
  n-local   255.88647   256.07244   255.44504    -0.54309    -0.28675    -0.25873
  augment   -20.84968   -20.84798   -20.78221     0.01221    -0.00683     0.00527
  Kinetic   434.45142   434.09970   434.41993     0.14956     0.29996     0.33833
  Fock        0.00000     0.00000     0.00000     0.00000     0.00000     0.00000
  -------------------------------------------------------------------------------------
  Total      -1.02653    -1.04815    -0.94623    -0.06474     0.00299     0.07221
  in kB      -0.20558    -0.20992    -0.18950    -0.01297     0.00060     0.01446
  external pressure =       -0.20 kB  Pullay stress =        0.00 kB


 VOLUME and BASIS-vectors are now :
 -----------------------------------------------------------------------------
  energy-cutoff  :      400.00
  volume of cell :     8000.00
      direct lattice vectors                 reciprocal lattice vectors
    20.000000000  0.000000000  0.000000000     0.050000000  0.000000000  0.000000000
     0.000000000 20.000000000  0.000000000     0.000000000  0.050000000  0.000000000
     0.000000000  0.000000000 20.000000000     0.000000000  0.000000000  0.050000000

  length of vectors
    20.000000000 20.000000000 20.000000000     0.050000000  0.050000000  0.050000000


 FORCES acting on ions
    electron-ion (+dipol)            ewald-force                    non-local-force                 convergence-correction
 -----------------------------------------------------------------------------------------------
   0.116E+02 -.201E+02 0.873E+02   -.121E+02 0.196E+02 -.888E+02   0.503E+00 0.463E+00 0.152E+01   0.465E-03 -.229E-03 0.183E-03
   0.872E+02 -.434E+01 0.436E+02   -.888E+02 0.464E+01 -.451E+02   0.160E+01 -.309E+00 0.156E+01   0.774E-03 0.867E-03 -.772E-03
   -.367E+02 0.548E+02 0.729E+02   0.372E+02 -.555E+02 -.749E+02   -.516E+00 0.689E+00 0.206E+01   0.360E-03 0.717E-03 -.770E-03
   -.404E+02 -.704E+02 -.403E+02   0.418E+02 0.712E+02 0.412E+02   -.140E+01 -.723E+00 -.870E+00   0.417E-03 -.303E-03 -.445E-03
   -.859E+02 0.733E+01 -.456E+02   0.877E+02 -.675E+01 0.468E+02   -.187E+01 -.593E+00 -.116E+01   -.573E-04 0.663E-03 -.214E-03
   -.291E+02 -.846E+02 0.461E+02   0.294E+02 0.852E+02 -.464E+02   -.211E+00 -.635E+00 0.316E+00   -.932E-04 -.611E-03 -.587E-04
   0.820E+02 0.134E+02 -.415E+02   -.827E+02 -.134E+02 0.414E+02   0.703E+00 0.540E-01 0.673E-01   0.636E-03 0.105E-03 -.622E-03
   -.505E+02 0.770E+02 -.100E+02   0.511E+02 -.773E+02 0.989E+01   -.563E+00 0.298E+00 0.152E+00   0.106E-03 0.435E-03 -.553E-03
   0.288E+02 0.829E+02 -.455E+02   -.291E+02 -.837E+02 0.460E+02   0.310E+00 0.858E+00 -.487E+00   0.466E-03 -.414E-04 -.137E-03
   0.378E+02 -.524E+02 -.754E+02   -.379E+02 0.531E+02 0.761E+02   0.847E-01 -.655E+00 -.676E+00   0.101E-02 0.940E-05 -.707E-03
   0.197E+02 0.395E+02 0.563E+01   -.208E+02 -.414E+02 -.669E+01   0.114E+01 0.197E+01 0.107E+01   0.148E-03 0.104E-03 -.433E-05
   0.112E+01 0.214E+02 -.390E+02   -.812E+00 -.220E+02 0.414E+02   -.311E+00 0.536E+00 -.244E+01   0.923E-04 -.155E-05 -.848E-04
   -.263E+02 0.382E+02 -.423E+01   0.277E+02 -.402E+02 0.444E+01   -.139E+01 0.202E+01 -.219E+00   0.707E-04 0.216E-04 -.901E-04
   -.462E+02 -.391E+01 0.580E+01   0.488E+02 0.433E+01 -.702E+01   -.266E+01 -.419E+00 0.123E+01   -.213E-04 0.122E-03 -.118E-03
   -.206E+02 0.832E+01 -.412E+02   0.210E+02 -.896E+01 0.441E+02   -.427E+00 0.641E+00 -.286E+01   0.398E-04 0.877E-04 0.849E-04
   -.367E+02 0.490E+01 0.290E+02   0.393E+02 -.447E+01 -.303E+02   -.261E+01 -.423E+00 0.134E+01   -.482E-04 0.115E-03 -.774E-04
   0.861E+01 0.362E+02 0.286E+02   -.992E+01 -.385E+02 -.299E+02   0.131E+01 0.231E+01 0.131E+01   0.775E-04 0.124E-03 -.148E-03
   0.624E+01 -.104E+02 0.472E+02   -.660E+01 0.111E+02 -.500E+02   0.359E+00 -.632E+00 0.281E+01   0.470E-04 -.872E-04 0.704E-04
   -.228E+02 -.375E+02 -.211E+02   0.241E+02 0.397E+02 0.223E+02   -.136E+01 -.226E+01 -.124E+01   0.201E-04 -.217E-03 -.115E-03
   0.303E+01 -.310E+01 -.444E+02   -.277E+01 0.261E+01 0.468E+02   -.258E+00 0.488E+00 -.245E+01   0.208E-03 -.332E-04 -.360E-04
   0.240E+02 -.363E+02 -.107E+02   -.254E+02 0.384E+02 0.105E+02   0.137E+01 -.210E+01 0.194E+00   0.110E-03 0.762E-04 -.207E-03
   0.413E+02 0.617E+01 -.199E+02   -.434E+02 -.648E+01 0.210E+02   0.220E+01 0.318E+00 -.106E+01   -.186E-04 -.287E-05 -.831E-04
   0.321E+02 0.248E+02 0.235E+02   -.335E+02 -.270E+02 -.248E+02   0.143E+01 0.222E+01 0.132E+01   0.797E-04 0.195E-04 -.221E-03
   0.346E+02 -.291E+02 0.122E+02   -.363E+02 0.316E+02 -.125E+02   0.164E+01 -.244E+01 0.333E+00   0.654E-04 0.235E-03 -.181E-03
   0.125E+02 -.417E+02 0.115E+02   -.138E+02 0.438E+02 -.117E+02   0.135E+01 -.210E+01 0.260E+00   -.657E-04 -.521E-04 -.436E-04
   -.336E+02 -.201E+02 0.227E+02   0.358E+02 0.206E+02 -.239E+02   -.220E+01 -.420E+00 0.113E+01   0.127E-05 -.161E-03 -.548E-05
 -----------------------------------------------------------------------------------------------
   0.175E+01 0.831E+00 -.320E+01   0.142E-13 0.604E-13 0.426E-13   -.176E+01 -.833E+00 0.321E+01   0.489E-02 0.196E-02 -.535E-02
 
 
 POSITION                                       TOTAL-FORCE (eV/Angst)
 -----------------------------------------------------------------------------------
      9.49407     11.09405      7.69307        -0.012043      0.003995     -0.011852
      7.38710     10.77778      8.69217         0.000466     -0.011934      0.004363
     10.81968      9.16433      7.90095        -0.007062     -0.007774      0.008858
     10.97092     12.47065     11.09051         0.000381      0.001934      0.010150
     12.27093     10.52495     11.30856        -0.006437     -0.010579      0.000448
     10.62260     12.93334      8.75802        -0.001454      0.002210      0.000882
      7.64383     10.29698     11.03425         0.008802      0.004691     -0.004966
     11.17745      8.67366     10.22704         0.001144      0.010652      0.007042
      9.00330      8.27191     11.29434         0.000171      0.003642     -0.000474
      8.82408     12.15458     12.12602        -0.003931     -0.004718      0.001617
      8.29593      7.05136     10.63183         0.007715      0.007367      0.003664
      9.19577      7.94009     12.80431        -0.000977      0.000128     -0.005453
     12.06293      7.39402     10.36517         0.004828      0.005840     -0.002742
     13.61733     10.73833     10.68468        -0.006802      0.001637     -0.000688
     12.48408     10.20084     12.75597        -0.002355     -0.000380      0.001637
     12.13929      9.38092      7.22533         0.005071      0.004753     -0.002434
     10.15264      7.99658      7.23963        -0.002308      0.001727      0.002970
      9.30773     11.42047      6.23840        -0.002915     -0.000471     -0.002691
     11.67249     13.63344     11.73235        -0.000789     -0.004273     -0.000445
      8.98626     11.85059     13.64585         0.001815     -0.001189     -0.009531
      7.97573     13.45642     12.00438         0.009959     -0.005784     -0.001185
      6.24657     10.09660     11.70454         0.006611      0.006459     -0.009544
      6.66259      9.64764      8.02412         0.010052      0.005673      0.003947
      6.55776     12.01431      8.52458        -0.000113      0.007012     -0.002051
      9.77911     14.23361      8.59803        -0.002883     -0.008189      0.003675
     11.98923     13.19058      8.05425        -0.006945     -0.012430      0.004804
 -----------------------------------------------------------------------------------
    total drift:                               -0.001960      0.000548      0.000041


--------------------------------------------------------------------------------------------------------



  FREE ENERGIE OF THE ION-ELECTRON SYSTEM (eV)
  ---------------------------------------------------
  free  energy   TOTEN  =      -101.22405778 eV

  energy  without entropy=     -101.22405778  energy(sigma->0) =     -101.22405778
 
 d Force = 0.1653311E-03[-0.247E-04, 0.355E-03]  d Energy = 0.1621975E-03 0.313E-05
 d Force =-0.5191472E-01[-0.518E-01,-0.520E-01]  d Ewald  =-0.5191472E-01 0.235E-08


--------------------------------------------------------------------------------------------------------


    POTLOK:  cpu time    1.7467: real time    1.7452


--------------------------------------------------------------------------------------------------------


 Conjugate gradient step on ions:
 trial-energy change:   -0.000162  1 .order   -0.000165   -0.000355    0.000025
  (g-gl).g = 0.262E-03      g.g   = 0.266E-03  gl.gl    = 0.768E-03
 g(Force)  = 0.266E-03   g(Stress)= 0.000E+00 ortho     = 0.166E-05
 gamma     =   0.34102
 trial     =   1.33518
 opt step  =   1.24842  (harmonic =   1.24842) maximal distance =0.00137216
 next E    =  -101.224062   (d E  =  -0.00017)


--------------------------------------------------------------------------------------------------------


  
 reached required accuracy - stopping structural energy minimisation
 writing wavefunctions
     LOOP+:  cpu time   77.6122: real time   78.0597
    4ORBIT:  cpu time    0.0000: real time    0.0000

 total amount of memory used by VASP MPI-rank0   131440. kBytes
=======================================================================

   base      :      30000. kBytes
   nonl-proj :      17624. kBytes
   fftplans  :      26957. kBytes
   grid      :      48673. kBytes
   one-center:         40. kBytes
   wavefun   :       8146. kBytes
 
  
  
 General timing and accounting informations for this job:
 ========================================================
  
                  Total CPU time used (sec):     2608.971
                            User time (sec):     2576.969
                          System time (sec):       32.002
                         Elapsed time (sec):     2612.611
  
                   Maximum memory used (kb):      184488.
                   Average memory used (kb):           0.
  
                          Minor page faults:      6072982
                          Major page faults:            5
                 Voluntary context switches:         4743
