 vasp.5.4.4.18Apr17-6-g9f103f2a35 (build Nov 06 2017 19:16:10) complex          
  
 executed on           IFC91_ompi date 2018.07.13  09:04:51
 running on   12 total cores
 distrk:  each k-point on   12 cores,    1 groups
 distr:  one band on NCORES_PER_BAND=   6 cores,    2 groups


--------------------------------------------------------------------------------------------------------


 INCAR:
 POTCAR:    PAW_PBE Si 05Jan2001                  
 POTCAR:    PAW_PBE Ge 05Jan2001                  
 POTCAR:    PAW_PBE H 15Jun2001                   
 POTCAR:    PAW_PBE Si 05Jan2001                  
   VRHFIN =Si: s2p2                                                             
   LEXCH  = PE                                                                  
   EATOM  =   103.0669 eV,    7.5752 Ry                                         
                                                                                
   TITEL  = PAW_PBE Si 05Jan2001                                                
   LULTRA =        F    use ultrasoft PP ?                                      
   IUNSCR =        1    unscreen: 0-lin 1-nonlin 2-no                           
   RPACOR =    1.500    partial core radius                                     
   POMASS =   28.085; ZVAL   =    4.000    mass and valenz                      
   RCORE  =    1.900    outmost cutoff radius                                   
   RWIGS  =    2.480; RWIGS  =    1.312    wigner-seitz radius (au A)           
   ENMAX  =  245.345; ENMIN  =  184.009 eV                                      
   ICORE  =        2    local potential                                         
   LCOR   =        T    correct aug charges                                     
   LPAW   =        T    paw PP                                                  
   EAUG   =  322.069                                                            
   DEXC   =    0.000                                                            
   RMAX   =    1.950    core radius for proj-oper                               
   RAUG   =    1.300    factor for augmentation sphere                          
   RDEP   =    1.993    radius for radial grids                                 
   RDEPT  =    1.837    core radius for aug-charge                              
                                                                                
   Atomic configuration                                                         
    6 entries                                                                   
     n  l   j            E        occ.                                          
     1  0  0.50     -1785.8828   2.0000                                         
     2  0  0.50      -139.4969   2.0000                                         
     2  1  1.50       -95.5546   6.0000                                         
     3  0  0.50       -10.8127   2.0000                                         
     3  1  0.50        -4.0811   2.0000                                         
     3  2  1.50        -4.0817   0.0000                                         
   Description                                                                  
     l       E           TYP  RCUT    TYP  RCUT                                 
     0    -10.8127223     23  1.900                                             
     0     -7.6451159     23  1.900                                             
     1     -4.0811372     23  1.900                                             
     1      2.4879257     23  1.900                                             
     2     -4.0817478      7  1.900                                             
  local pseudopotential read in
  partial core-charges read in
  partial kinetic energy density read in
  atomic valenz-charges read in
  non local Contribution for L=           0  read in
    real space projection operators read in
  non local Contribution for L=           0  read in
    real space projection operators read in
  non local Contribution for L=           1  read in
    real space projection operators read in
  non local Contribution for L=           1  read in
    real space projection operators read in
    PAW grid and wavefunctions read in
 
   number of l-projection  operators is LMAX  =           4
   number of lm-projection operators is LMMAX =           8
 
 POTCAR:    PAW_PBE Ge 05Jan2001                  
   VRHFIN =Ge: s2p2                                                             
   LEXCH  = PE                                                                  
   EATOM  =   104.9960 eV,    7.7170 Ry                                         
                                                                                
   TITEL  = PAW_PBE Ge 05Jan2001                                                
   LULTRA =        F    use ultrasoft PP ?                                      
   IUNSCR =        1    unscreen: 0-lin 1-nonlin 2-no                           
   RPACOR =    2.170    partial core radius                                     
   POMASS =   72.610; ZVAL   =    4.000    mass and valenz                      
   RCORE  =    2.300    outmost cutoff radius                                   
   RWIGS  =    2.300; RWIGS  =    1.217    wigner-seitz radius (au A)           
   ENMAX  =  173.807; ENMIN  =  130.355 eV                                      
   ICORE  =        3    local potential                                         
   LCOR   =        T    correct aug charges                                     
   LPAW   =        T    paw PP                                                  
   EAUG   =  385.843                                                            
   DEXC   =    0.000                                                            
   RMAX   =    2.342    core radius for proj-oper                               
   RAUG   =    1.300    factor for augmentation sphere                          
   RDEP   =    2.318    radius for radial grids                                 
   RDEPT  =    2.103    core radius for aug-charge                              
                                                                                
   Atomic configuration                                                         
   10 entries                                                                   
     n  l   j            E        occ.                                          
     1  0  0.50    -10959.8463   2.0000                                         
     2  0  0.50     -1371.6056   2.0000                                         
     2  1  1.50     -1198.4791   6.0000                                         
     3  0  0.50      -168.4733   2.0000                                         
     3  1  1.50      -115.6019   6.0000                                         
     3  2  2.50       -29.3106  10.0000                                         
     4  0  0.50       -11.7309   2.0000                                         
     4  1  0.50        -3.8952   2.0000                                         
     4  2  1.50        -4.0817   0.0000                                         
     4  3  2.50        -4.0817   0.0000                                         
   Description                                                                  
     l       E           TYP  RCUT    TYP  RCUT                                 
     0    -11.7309493     23  2.300                                             
     0     -7.4578696     23  2.300                                             
     1     -3.8952261     23  2.300                                             
     1      6.1178114     23  2.300                                             
     2     -4.0817478     23  2.300                                             
     3     -1.3605826      7  2.300                                             
  local pseudopotential read in
  partial core-charges read in
  partial kinetic energy density read in
  atomic valenz-charges read in
  non local Contribution for L=           0  read in
    real space projection operators read in
  non local Contribution for L=           0  read in
    real space projection operators read in
  non local Contribution for L=           1  read in
    real space projection operators read in
  non local Contribution for L=           1  read in
    real space projection operators read in
  non local Contribution for L=           2  read in
    real space projection operators read in
    PAW grid and wavefunctions read in
 
   number of l-projection  operators is LMAX  =           5
   number of lm-projection operators is LMMAX =          13
 
 POTCAR:    PAW_PBE H 15Jun2001                   
   VRHFIN =H: ultrasoft test                                                    
   LEXCH  = PE                                                                  
   EATOM  =    12.4884 eV,    0.9179 Ry                                         
                                                                                
   TITEL  = PAW_PBE H 15Jun2001                                                 
   LULTRA =        F    use ultrasoft PP ?                                      
   IUNSCR =        0    unscreen: 0-lin 1-nonlin 2-no                           
   RPACOR =    0.000    partial core radius                                     
   POMASS =    1.000; ZVAL   =    1.000    mass and valenz                      
   RCORE  =    1.100    outmost cutoff radius                                   
   RWIGS  =    0.700; RWIGS  =    0.370    wigner-seitz radius (au A)           
   ENMAX  =  250.000; ENMIN  =  200.000 eV                                      
   RCLOC  =    0.701    cutoff for local pot                                    
   LCOR   =        T    correct aug charges                                     
   LPAW   =        T    paw PP                                                  
   EAUG   =  400.000                                                            
   RMAX   =    1.123    core radius for proj-oper                               
   RAUG   =    1.200    factor for augmentation sphere                          
   RDEP   =    1.112    radius for radial grids                                 
   RDEPT  =    0.926    core radius for aug-charge                              
                                                                                
   Atomic configuration                                                         
    2 entries                                                                   
     n  l   j            E        occ.                                          
     1  0  0.50        -6.4927   1.0000                                         
     2  1  0.50        -3.4015   0.0000                                         
   Description                                                                  
     l       E           TYP  RCUT    TYP  RCUT                                 
     0     -6.4927494     23  1.100                                             
     0      6.8029130     23  1.100                                             
     1     -4.0817478     23  1.100                                             
  local pseudopotential read in
  atomic valenz-charges read in
  non local Contribution for L=           0  read in
    real space projection operators read in
  non local Contribution for L=           0  read in
    real space projection operators read in
  non local Contribution for L=           1  read in
    real space projection operators read in
    PAW grid and wavefunctions read in
 
   number of l-projection  operators is LMAX  =           3
   number of lm-projection operators is LMMAX =           5
 

 ----------------------------------------------------------------------------- 
|                                                                             |
|  ADVICE TO THIS USER RUNNING 'VASP/VAMP'   (HEAR YOUR MASTER'S VOICE ...):  |
|                                                                             |
|      You have a (more or less) 'large supercell' and for larger cells       |
|      it might be more efficient to use real space projection opertators     |
|      So try LREAL= Auto  in the INCAR   file.                               |
|      Mind:          For very  accurate calculation you might also keep the  |
|      reciprocal projection scheme          (i.e. LREAL=.FALSE.)             |
|                                                                             |
 ----------------------------------------------------------------------------- 

  PAW_PBE Si 05Jan2001                  :
 energy of atom  1       EATOM= -103.0669
 kinetic energy error for atom=    0.0012 (will be added to EATOM!!)
  PAW_PBE Ge 05Jan2001                  :
 energy of atom  2       EATOM= -104.9960
 kinetic energy error for atom=    0.0003 (will be added to EATOM!!)
  PAW_PBE H 15Jun2001                   :
 energy of atom  3       EATOM=  -12.4884
 kinetic energy error for atom=    0.0098 (will be added to EATOM!!)
 
 
 POSCAR: SiGeH16                                 
  positions in direct lattice
  No initial velocities read in
 exchange correlation table for  LEXCH =        8
   RHO(1)=    0.500       N(1)  =     2000
   RHO(2)=  100.500       N(2)  =     4000
 


--------------------------------------------------------------------------------------------------------


 ion  position               nearest neighbor table
   1  0.369  0.539  0.436-  23 1.55  24 1.55   7 2.39   5 2.39
   2  0.542  0.457  0.396-  17 1.55  16 1.55   8 2.39   5 2.39
   3  0.613  0.525  0.565-  15 1.55  14 1.55   9 2.39   8 2.39
   4  0.440  0.606  0.605-  20 1.55  21 1.55   7 2.39   9 2.39
   5  0.475  0.556  0.385-  18 1.55   6 2.39   1 2.39   2 2.39
   6  0.531  0.648  0.437-  25 1.55  26 1.55   9 2.39   5 2.39
   7  0.385  0.515  0.552-  22 1.55   4 2.39  10 2.39   1 2.39
   8  0.557  0.433  0.512-  13 1.55   2 2.39   3 2.39  10 2.39
   9  0.547  0.624  0.554-  19 1.55   6 2.39   3 2.39   4 2.39
  10  0.451  0.416  0.564-  12 1.55  11 1.55   7 2.39   8 2.39
  11  0.415  0.357  0.529-  10 1.55
  12  0.461  0.400  0.639-  10 1.55
  13  0.600  0.369  0.520-   8 1.55
  14  0.682  0.536  0.531-   3 1.55
  15  0.623  0.509  0.640-   3 1.55
  16  0.611  0.469  0.363-   2 1.55
  17  0.506  0.398  0.362-   2 1.55
  18  0.465  0.572  0.309-   5 1.55
  19  0.583  0.683  0.588-   9 1.55
  20  0.451  0.590  0.680-   4 1.55
  21  0.397  0.670  0.598-   4 1.55
  22  0.316  0.504  0.586-   7 1.55
  23  0.333  0.479  0.402-   1 1.55
  24  0.326  0.603  0.429-   1 1.55
  25  0.488  0.712  0.430-   6 1.55
  26  0.600  0.659  0.404-   6 1.55
 
  LATTYP: Found a simple cubic cell.
 ALAT       =    20.0000000000
  
  Lattice vectors:
  
 A1 = (  20.0000000000,   0.0000000000,   0.0000000000)
 A2 = (   0.0000000000,  20.0000000000,   0.0000000000)
 A3 = (   0.0000000000,   0.0000000000,  20.0000000000)


Analysis of symmetry for initial positions (statically):
=====================================================================
 Subroutine PRICEL returns:
 Original cell was already a primitive cell.
 

 Routine SETGRP: Setting up the symmetry group for a 
 simple cubic supercell.


 Subroutine GETGRP returns: Found  1 space group operations
 (whereof  1 operations were pure point group operations)
 out of a pool of 48 trial point group operations.


The static configuration has the point symmetry C_1 .


Analysis of symmetry for dynamics (positions and initial velocities):
=====================================================================
 Subroutine PRICEL returns:
 Original cell was already a primitive cell.
 

 Routine SETGRP: Setting up the symmetry group for a 
 simple cubic supercell.


 Subroutine GETGRP returns: Found  1 space group operations
 (whereof  1 operations were pure point group operations)
 out of a pool of 48 trial point group operations.


The dynamic configuration has the point symmetry C_1 .


 Subroutine INISYM returns: Found  1 space group operations
 (whereof  1 operations are pure point group operations),
 and found     1 'primitive' translations

 
 
 KPOINTS: Automatic mesh                          

Automatic generation of k-mesh.
Space group operators:
 irot       det(A)        alpha          n_x          n_y          n_z        tau_x        tau_y        tau_z
    1     1.000000     0.000000     1.000000     0.000000     0.000000     0.000000     0.000000     0.000000
 
 Subroutine IBZKPT returns following result:
 ===========================================
 
 Found      1 irreducible k-points:
 
 Following reciprocal coordinates:
            Coordinates               Weight
  0.000000  0.000000  0.000000      1.000000
 
 Following cartesian coordinates:
            Coordinates               Weight
  0.000000  0.000000  0.000000      1.000000
 


--------------------------------------------------------------------------------------------------------




 Dimension of arrays:
   k-points           NKPTS =      1   k-points in BZ     NKDIM =      1   number of bands    NBANDS=     42
   number of dos      NEDOS =    301   number of ions     NIONS =     26
   non local maximal  LDIM  =      5   non local SUM 2l+1 LMDIM =     13
   total plane-waves  NPLWV = 941192
   max r-space proj   IRMAX =      1   max aug-charges    IRDMAX=   6593
   dimension x,y,z NGX =    98 NGY =   98 NGZ =   98
   dimension x,y,z NGXF=   196 NGYF=  196 NGZF=  196
   support grid    NGXF=   196 NGYF=  196 NGZF=  196
   ions per type =               4   6  16
   NGX,Y,Z   is equivalent  to a cutoff of   8.15,  8.15,  8.15 a.u.
   NGXF,Y,Z  is equivalent  to a cutoff of  16.29, 16.29, 16.29 a.u.

 SYSTEM =  SiGe                                    
 POSCAR =  SiGeH16                                 

 Startparameter for this run:
   NWRITE =      2    write-flag & timer
   PREC   = normal    normal or accurate (medium, high low for compatibility)
   ISTART =      0    job   : 0-new  1-cont  2-samecut
   ICHARG =      2    charge: 1-file 2-atom 10-const
   ISPIN  =      1    spin polarized calculation?
   LNONCOLLINEAR =      F non collinear calculations
   LSORBIT =      F    spin-orbit coupling
   INIWAV =      1    electr: 0-lowe 1-rand  2-diag
   LASPH  =      F    aspherical Exc in radial PAW
   METAGGA=      F    non-selfconsistent MetaGGA calc.

 Electronic Relaxation 1
   ENCUT  =  400.0 eV  29.40 Ry    5.42 a.u.  32.61 32.61 32.61*2*pi/ulx,y,z
   ENINI  =  400.0     initial cutoff
   ENAUG  =  400.0 eV  augmentation charge cutoff
   NELM   =     60;   NELMIN=  2; NELMDL= -5     # of ELM steps 
   EDIFF  = 0.1E-05   stopping-criterion for ELM
   LREAL  =      F    real-space projection
   NLSPLINE    = F    spline interpolate recip. space projectors
   LCOMPAT=      F    compatible to vasp.4.4
   GGA_COMPAT  = T    GGA compatible to vasp.4.4-vasp.4.6
   LMAXPAW     = -100 max onsite density
   LMAXMIX     =    2 max onsite mixed and CHGCAR
   VOSKOWN=      0    Vosko Wilk Nusair interpolation
   ROPT   =    0.00000   0.00000   0.00000
 Ionic relaxation
   EDIFFG = -.2E-01   stopping-criterion for IOM
   NSW    =    200    number of steps for IOM
   NBLOCK =      1;   KBLOCK =    200    inner block; outer block 
   IBRION =      2    ionic relax: 0-MD 1-quasi-New 2-CG
   NFREE  =      1    steps in history (QN), initial steepest desc. (CG)
   ISIF   =      2    stress and relaxation
   IWAVPR =     11    prediction:  0-non 1-charg 2-wave 3-comb
   ISYM   =      2    0-nonsym 1-usesym 2-fastsym
   LCORR  =      T    Harris-Foulkes like correction to forces

   POTIM  = 0.5000    time-step for ionic-motion
   TEIN   =    0.0    initial temperature
   TEBEG  =    0.0;   TEEND  =   0.0 temperature during run
   SMASS  =  -3.00    Nose mass-parameter (am)
   estimated Nose-frequenzy (Omega)   =  0.10E-29 period in steps =****** mass=  -0.914E-26a.u.
   SCALEE = 1.0000    scale energy and forces
   NPACO  =    256;   APACO  = 16.0  distance and # of slots for P.C.
   PSTRESS=    0.0 pullay stress

  Mass of Ions in am
   POMASS =  28.09 72.61  1.00
  Ionic Valenz
   ZVAL   =   4.00  4.00  1.00
  Atomic Wigner-Seitz radii
   RWIGS  =  -1.00 -1.00 -1.00
  virtual crystal weights 
   VCA    =   1.00  1.00  1.00
   NELECT =      56.0000    total number of electrons
   NUPDOWN=      -1.0000    fix difference up-down

 DOS related values:
   EMIN   =  10.00;   EMAX   =-10.00  energy-range for DOS
   EFERMI =   0.00
   ISMEAR =     0;   SIGMA  =   0.20  broadening in eV -4-tet -1-fermi 0-gaus

 Electronic relaxation 2 (details)
   IALGO  =     38    algorithm
   LDIAG  =      T    sub-space diagonalisation (order eigenvalues)
   LSUBROT=      F    optimize rotation matrix (better conditioning)
   TURBO    =      0    0=normal 1=particle mesh
   IRESTART =      0    0=no restart 2=restart with 2 vectors
   NREBOOT  =      0    no. of reboots
   NMIN     =      0    reboot dimension
   EREF     =   0.00    reference energy to select bands
   IMIX   =      4    mixing-type and parameters
     AMIX     =   0.40;   BMIX     =  1.00
     AMIX_MAG =   1.60;   BMIX_MAG =  1.00
     AMIN     =   0.10
     WC   =   100.;   INIMIX=   1;  MIXPRE=   1;  MAXMIX= -45

 Intra band minimization:
   WEIMIN = 0.0010     energy-eigenvalue tresh-hold
   EBREAK =  0.60E-08  absolut break condition
   DEPER  =   0.30     relativ break condition  

   TIME   =   0.40     timestep for ELM

  volume/ion in A,a.u.               =     307.69      2076.41
  Fermi-wavevector in a.u.,A,eV,Ry     =   0.313166  0.591797  1.334361  0.098073
  Thomas-Fermi vector in A             =   1.193276
 
 Write flags
   LWAVE        =      T    write WAVECAR
   LDOWNSAMPLE  =      F    k-point downsampling of WAVECAR
   LCHARG       =      T    write CHGCAR
   LVTOT        =      F    write LOCPOT, total local potential
   LVHAR        =      F    write LOCPOT, Hartree potential only
   LELF         =      F    write electronic localiz. function (ELF)
   LORBIT       =      0    0 simple, 1 ext, 2 COOP (PROOUT), +10 PAW based schemes


 Dipole corrections
   LMONO  =      F    monopole corrections only (constant potential shift)
   LDIPOL =      F    correct potential (dipole corrections)
   IDIPOL =      0    1-x, 2-y, 3-z, 4-all directions 
   EPSILON=  1.0000000 bulk dielectric constant

 Exchange correlation treatment:
   GGA     =    --    GGA type
   LEXCH   =     8    internal setting for exchange type
   VOSKOWN=      0    Vosko Wilk Nusair interpolation
   LHFCALC =     F    Hartree Fock is set to
   LHFONE  =     F    Hartree Fock one center treatment
   AEXX    =    0.0000 exact exchange contribution

 Linear response parameters
   LEPSILON=     F    determine dielectric tensor
   LRPA    =     F    only Hartree local field effects (RPA)
   LNABLA  =     F    use nabla operator in PAW spheres
   LVEL    =     F    velocity operator in full k-point grid
   LINTERFAST=   F  fast interpolation
   KINTER  =     0    interpolate to denser k-point grid
   CSHIFT  =0.1000    complex shift for real part using Kramers Kronig
   OMEGAMAX=  -1.0    maximum frequency
   DEG_THRESHOLD= 0.2000000E-02 threshold for treating states as degnerate
   RTIME   =   -0.100 relaxation time in fs
  (WPLASMAI=    0.000 imaginary part of plasma frequency in eV, 0.658/RTIME)
   DFIELD  = 0.0000000 0.0000000 0.0000000 field for delta impulse in time
 
 Orbital magnetization related:
   ORBITALMAG=     F  switch on orbital magnetization
   LCHIMAG   =     F  perturbation theory with respect to B field
   DQ        =  0.001000  dq finite difference perturbation B field
   LLRAUG    =     F  two centre corrections for induced B field



--------------------------------------------------------------------------------------------------------


 conjugate gradient relaxation of ions
 charge density and potential will be updated during run
 non-spin polarized calculation
 Variant of blocked Davidson
 Davidson routine will perform the subspace rotation
 perform sub-space diagonalisation
    after iterative eigenvector-optimisation
 modified Broyden-mixing scheme, WC =      100.0
 initial mixing is a Kerker type mixing with AMIX =  0.4000 and BMIX =      1.0000
 Hartree-type preconditioning will be used
 using additional bands           14
 reciprocal scheme for non local part
 use partial core corrections
 calculate Harris-corrections to forces 
   (improved forces if not selfconsistent)
 use gradient corrections 
 use of overlap-Matrix (Vanderbilt PP)
 Gauss-broadening in eV      SIGMA  =   0.20


--------------------------------------------------------------------------------------------------------


  energy-cutoff  :      400.00
  volume of cell :     8000.00
      direct lattice vectors                 reciprocal lattice vectors
    20.000000000  0.000000000  0.000000000     0.050000000  0.000000000  0.000000000
     0.000000000 20.000000000  0.000000000     0.000000000  0.050000000  0.000000000
     0.000000000  0.000000000 20.000000000     0.000000000  0.000000000  0.050000000

  length of vectors
    20.000000000 20.000000000 20.000000000     0.050000000  0.050000000  0.050000000


 
 k-points in units of 2pi/SCALE and weight: Automatic mesh                          
   0.00000000  0.00000000  0.00000000       1.000
 
 k-points in reciprocal lattice and weights: Automatic mesh                          
   0.00000000  0.00000000  0.00000000       1.000
 
 position of ions in fractional coordinates (direct lattice) 
   0.36907800  0.53906000  0.43641200
   0.54179100  0.45744600  0.39613600
   0.61299700  0.52481700  0.56496600
   0.44028400  0.60643000  0.60524300
   0.47547100  0.55626000  0.38465300
   0.53111600  0.64794100  0.43749600
   0.38461900  0.51474100  0.55243500
   0.55736800  0.43311000  0.51215000
   0.54669200  0.62364400  0.55351800
   0.45095700  0.41593600  0.56388300
   0.41490100  0.35665000  0.52940300
   0.46117000  0.40042600  0.63910800
   0.60034800  0.36907000  0.51957800
   0.68182700  0.53600700  0.53118700
   0.62280400  0.50903400  0.64018900
   0.61080000  0.46880600  0.36278200
   0.50550800  0.39805500  0.36207700
   0.46538400  0.57201900  0.30946400
   0.58275500  0.68306700  0.58775000
   0.45052500  0.59044300  0.68036400
   0.39732000  0.67044900  0.59753500
   0.31566200  0.50359800  0.58596500
   0.33322800  0.47946500  0.40225200
   0.32629100  0.60324700  0.42912600
   0.48792300  0.71185500  0.43020800
   0.60015100  0.65882400  0.40403700
 
 position of ions in cartesian coordinates  (Angst):
   7.38156000 10.78120000  8.72824000
  10.83582000  9.14892000  7.92272000
  12.25994000 10.49634000 11.29932000
   8.80568000 12.12860000 12.10486000
   9.50942000 11.12520000  7.69306000
  10.62232000 12.95882000  8.74992000
   7.69238000 10.29482000 11.04870000
  11.14736000  8.66220000 10.24300000
  10.93384000 12.47288000 11.07036000
   9.01914000  8.31872000 11.27766000
   8.29802000  7.13300000 10.58806000
   9.22340000  8.00852000 12.78216000
  12.00696000  7.38140000 10.39156000
  13.63654000 10.72014000 10.62374000
  12.45608000 10.18068000 12.80378000
  12.21600000  9.37612000  7.25564000
  10.11016000  7.96110000  7.24154000
   9.30768000 11.44038000  6.18928000
  11.65510000 13.66134000 11.75500000
   9.01050000 11.80886000 13.60728000
   7.94640000 13.40898000 11.95070000
   6.31324000 10.07196000 11.71930000
   6.66456000  9.58930000  8.04504000
   6.52582000 12.06494000  8.58252000
   9.75846000 14.23710000  8.60416000
  12.00302000 13.17648000  8.08074000
 


--------------------------------------------------------------------------------------------------------


 k-point  1 :   0.0000 0.0000 0.0000  plane waves:  145165

 maximum and minimum number of plane-waves per node :     24209    24180

 maximum number of plane-waves:    145165
 maximum index in each direction: 
   IXMAX=   32   IYMAX=   32   IZMAX=   32
   IXMIN=  -32   IYMIN=  -32   IZMIN=  -32


 parallel 3D FFT for wavefunctions:
    minimum data exchange during FFTs selected (reduces bandwidth)
 parallel 3D FFT for charge:
    minimum data exchange during FFTs selected (reduces bandwidth)


 total amount of memory used by VASP MPI-rank0   131440. kBytes
=======================================================================

   base      :      30000. kBytes
   nonl-proj :      17624. kBytes
   fftplans  :      26957. kBytes
   grid      :      48673. kBytes
   one-center:         40. kBytes
   wavefun   :       8146. kBytes
 
     INWAV:  cpu time    0.0010: real time    0.0004
 Broyden mixing: mesh for mixing (old mesh)
   NGX = 65   NGY = 65   NGZ = 65
  (NGX  =196   NGY  =196   NGZ  =196)
  gives a total of 274625 points

 initial charge density was supplied:
 charge density of overlapping atoms calculated
 number of electron      56.0000000 magnetization 
 keeping initial charge density in first step


--------------------------------------------------------------------------------------------------------


 Maximum index for augmentation-charges          565 (set IRDMAX)


--------------------------------------------------------------------------------------------------------


 First call to EWALD:  gamma=   0.089
 Maximum number of real-space cells 3x 3x 3
 Maximum number of reciprocal cells 3x 3x 3

    FEWALD:  cpu time    0.0030: real time    0.0026


--------------------------------------- Iteration      1(   1)  ---------------------------------------


    POTLOK:  cpu time    1.7567: real time    1.7576
    SETDIJ:  cpu time    0.0070: real time    0.0077
     EDDAV:  cpu time   11.4603: real time   11.5239
       DOS:  cpu time    0.0000: real time    0.0003
    --------------------------------------------
      LOOP:  cpu time   13.2240: real time   13.2895

 eigenvalue-minimisations  :   116
 total energy-change (2. order) : 0.2070415E+03  (-0.1047165E+04)
 number of electron      56.0000000 magnetization 
 augmentation part       56.0000000 magnetization 

 Free energy of the ion-electron system (eV)
  ---------------------------------------------------
  alpha Z        PSCENC =         2.51538199
  Ewald energy   TEWEN  =      2629.98113996
  -Hartree energ DENC   =     -3440.26251209
  -exchange      EXHF   =         0.00000000
  -V(xc)+E(xc)   XCENC  =       -49.21956188
  PAW double counting   =       915.51080863     -758.35430496
  entropy T*S    EENTRO =        -0.43744202
  eigenvalues    EBANDS =      -334.58714163
  atomic energy  EATOM  =      1241.89512738
  Solvation  Ediel_sol  =         0.00000000
  ---------------------------------------------------
  free energy    TOTEN  =       207.04149537 eV

  energy without entropy =      207.47893739  energy(sigma->0) =      207.26021638


--------------------------------------------------------------------------------------------------------




--------------------------------------- Iteration      1(   2)  ---------------------------------------


     EDDAV:  cpu time   13.7639: real time   13.7598
       DOS:  cpu time    0.0000: real time    0.0002
    --------------------------------------------
      LOOP:  cpu time   13.7639: real time   13.7600

 eigenvalue-minimisations  :   144
 total energy-change (2. order) :-0.2323449E+03  (-0.2177109E+03)
 number of electron      56.0000000 magnetization 
 augmentation part       56.0000000 magnetization 

 Free energy of the ion-electron system (eV)
  ---------------------------------------------------
  alpha Z        PSCENC =         2.51538199
  Ewald energy   TEWEN  =      2629.98113996
  -Hartree energ DENC   =     -3440.26251209
  -exchange      EXHF   =         0.00000000
  -V(xc)+E(xc)   XCENC  =       -49.21956188
  PAW double counting   =       915.51080863     -758.35430496
  entropy T*S    EENTRO =        -0.00000000
  eigenvalues    EBANDS =      -567.36944559
  atomic energy  EATOM  =      1241.89512738
  Solvation  Ediel_sol  =         0.00000000
  ---------------------------------------------------
  free energy    TOTEN  =       -25.30336657 eV

  energy without entropy =      -25.30336657  energy(sigma->0) =      -25.30336657


--------------------------------------------------------------------------------------------------------




--------------------------------------- Iteration      1(   3)  ---------------------------------------


     EDDAV:  cpu time   11.4703: real time   11.4719
       DOS:  cpu time    0.0010: real time    0.0002
    --------------------------------------------
      LOOP:  cpu time   11.4713: real time   11.4721

 eigenvalue-minimisations  :   112
 total energy-change (2. order) :-0.7524147E+02  (-0.7507691E+02)
 number of electron      56.0000000 magnetization 
 augmentation part       56.0000000 magnetization 

 Free energy of the ion-electron system (eV)
  ---------------------------------------------------
  alpha Z        PSCENC =         2.51538199
  Ewald energy   TEWEN  =      2629.98113996
  -Hartree energ DENC   =     -3440.26251209
  -exchange      EXHF   =         0.00000000
  -V(xc)+E(xc)   XCENC  =       -49.21956188
  PAW double counting   =       915.51080863     -758.35430496
  entropy T*S    EENTRO =        -0.00000000
  eigenvalues    EBANDS =      -642.61091721
  atomic energy  EATOM  =      1241.89512738
  Solvation  Ediel_sol  =         0.00000000
  ---------------------------------------------------
  free energy    TOTEN  =      -100.54483819 eV

  energy without entropy =     -100.54483819  energy(sigma->0) =     -100.54483819


--------------------------------------------------------------------------------------------------------




--------------------------------------- Iteration      1(   4)  ---------------------------------------


     EDDAV:  cpu time   10.5044: real time   10.5398
       DOS:  cpu time    0.0010: real time    0.0002
    --------------------------------------------
      LOOP:  cpu time   10.5054: real time   10.5400

 eigenvalue-minimisations  :   104
 total energy-change (2. order) :-0.4280832E+01  (-0.4264912E+01)
 number of electron      56.0000000 magnetization 
 augmentation part       56.0000000 magnetization 

 Free energy of the ion-electron system (eV)
  ---------------------------------------------------
  alpha Z        PSCENC =         2.51538199
  Ewald energy   TEWEN  =      2629.98113996
  -Hartree energ DENC   =     -3440.26251209
  -exchange      EXHF   =         0.00000000
  -V(xc)+E(xc)   XCENC  =       -49.21956188
  PAW double counting   =       915.51080863     -758.35430496
  entropy T*S    EENTRO =        -0.00000000
  eigenvalues    EBANDS =      -646.89174879
  atomic energy  EATOM  =      1241.89512738
  Solvation  Ediel_sol  =         0.00000000
  ---------------------------------------------------
  free energy    TOTEN  =      -104.82566977 eV

  energy without entropy =     -104.82566977  energy(sigma->0) =     -104.82566977


--------------------------------------------------------------------------------------------------------




--------------------------------------- Iteration      1(   5)  ---------------------------------------


     EDDAV:  cpu time   13.7719: real time   13.7678
       DOS:  cpu time    0.0010: real time    0.0003
    CHARGE:  cpu time    0.4919: real time    0.4920
    MIXING:  cpu time    0.0420: real time    0.0426
    --------------------------------------------
      LOOP:  cpu time   14.3068: real time   14.3027

 eigenvalue-minimisations  :   144
 total energy-change (2. order) :-0.7410507E-01  (-0.7405975E-01)
 number of electron      56.0000020 magnetization 
 augmentation part       -4.3620016 magnetization 

 Broyden mixing:
  rms(total) = 0.14643E+01    rms(broyden)= 0.14642E+01
  rms(prec ) = 0.15608E+01
  weight for this iteration     100.00

 Free energy of the ion-electron system (eV)
  ---------------------------------------------------
  alpha Z        PSCENC =         2.51538199
  Ewald energy   TEWEN  =      2629.98113996
  -Hartree energ DENC   =     -3440.26251209
  -exchange      EXHF   =         0.00000000
  -V(xc)+E(xc)   XCENC  =       -49.21956188
  PAW double counting   =       915.51080863     -758.35430496
  entropy T*S    EENTRO =        -0.00000000
  eigenvalues    EBANDS =      -646.96585386
  atomic energy  EATOM  =      1241.89512738
  Solvation  Ediel_sol  =         0.00000000
  ---------------------------------------------------
  free energy    TOTEN  =      -104.89977484 eV

  energy without entropy =     -104.89977484  energy(sigma->0) =     -104.89977484


--------------------------------------------------------------------------------------------------------




--------------------------------------- Iteration      1(   6)  ---------------------------------------


    POTLOK:  cpu time    1.7057: real time    1.7090
    SETDIJ:  cpu time    0.0120: real time    0.0117
     EDDAV:  cpu time   11.1673: real time   11.2012
       DOS:  cpu time    0.0010: real time    0.0005
    CHARGE:  cpu time    0.5049: real time    0.5049
    MIXING:  cpu time    0.0460: real time    0.0459
    --------------------------------------------
      LOOP:  cpu time   13.4370: real time   13.4733

 eigenvalue-minimisations  :   112
 total energy-change (2. order) : 0.3196428E+01  (-0.1618507E+00)
 number of electron      56.0000019 magnetization 
 augmentation part       -4.3607484 magnetization 

 Broyden mixing:
  rms(total) = 0.84420E+00    rms(broyden)= 0.84420E+00
  rms(prec ) = 0.90326E+00
  weight for this iteration     100.00

 eigenvalues of (default mixing * dielectric matrix)
  average eigenvalue GAMMA=   2.2930
  2.2930

 Free energy of the ion-electron system (eV)
  ---------------------------------------------------
  alpha Z        PSCENC =         2.51538199
  Ewald energy   TEWEN  =      2629.98113996
  -Hartree energ DENC   =     -3471.20091757
  -exchange      EXHF   =         0.00000000
  -V(xc)+E(xc)   XCENC  =       -45.58681368
  PAW double counting   =      1760.02229262    -1603.72042155
  entropy T*S    EENTRO =        -0.00000000
  eigenvalues    EBANDS =      -615.60913592
  atomic energy  EATOM  =      1241.89512738
  Solvation  Ediel_sol  =         0.00000000
  ---------------------------------------------------
  free energy    TOTEN  =      -101.70334676 eV

  energy without entropy =     -101.70334676  energy(sigma->0) =     -101.70334676


--------------------------------------------------------------------------------------------------------




--------------------------------------- Iteration      1(   7)  ---------------------------------------


    POTLOK:  cpu time    1.7007: real time    1.7007
    SETDIJ:  cpu time    0.0080: real time    0.0077
     EDDAV:  cpu time   11.2303: real time   11.2343
       DOS:  cpu time    0.0010: real time    0.0007
    CHARGE:  cpu time    0.4779: real time    0.4835
    MIXING:  cpu time    0.0470: real time    0.0469
    --------------------------------------------
      LOOP:  cpu time   13.4650: real time   13.4738

 eigenvalue-minimisations  :   112
 total energy-change (2. order) : 0.1663029E+01  (-0.4035579E+00)
 number of electron      56.0000017 magnetization 
 augmentation part       -4.3562642 magnetization 

 Broyden mixing:
  rms(total) = 0.12087E+00    rms(broyden)= 0.12072E+00
  rms(prec ) = 0.15246E+00
  weight for this iteration     100.00

 eigenvalues of (default mixing * dielectric matrix)
  average eigenvalue GAMMA=   1.8523
  1.8523  1.8523

 Free energy of the ion-electron system (eV)
  ---------------------------------------------------
  alpha Z        PSCENC =         2.51538199
  Ewald energy   TEWEN  =      2629.98113996
  -Hartree energ DENC   =     -3526.04809364
  -exchange      EXHF   =         0.00000000
  -V(xc)+E(xc)   XCENC  =       -39.85838817
  PAW double counting   =      3560.84992283    -3405.68979758
  entropy T*S    EENTRO =        -0.00000000
  eigenvalues    EBANDS =      -563.68561008
  atomic energy  EATOM  =      1241.89512738
  Solvation  Ediel_sol  =         0.00000000
  ---------------------------------------------------
  free energy    TOTEN  =      -100.04031732 eV

  energy without entropy =     -100.04031732  energy(sigma->0) =     -100.04031732


--------------------------------------------------------------------------------------------------------




--------------------------------------- Iteration      1(   8)  ---------------------------------------


    POTLOK:  cpu time    1.7067: real time    1.7056
    SETDIJ:  cpu time    0.0080: real time    0.0083
     EDDAV:  cpu time   11.2113: real time   11.2455
       DOS:  cpu time    0.0000: real time    0.0004
    CHARGE:  cpu time    0.4769: real time    0.4766
    MIXING:  cpu time    0.0490: real time    0.0492
    --------------------------------------------
      LOOP:  cpu time   13.4520: real time   13.4855

 eigenvalue-minimisations  :   112
 total energy-change (2. order) : 0.5446752E-01  (-0.2853594E-01)
 number of electron      56.0000017 magnetization 
 augmentation part       -4.3499463 magnetization 

 Broyden mixing:
  rms(total) = 0.60427E-01    rms(broyden)= 0.60413E-01
  rms(prec ) = 0.79549E-01
  weight for this iteration     100.00

 eigenvalues of (default mixing * dielectric matrix)
  average eigenvalue GAMMA=   1.9621
  2.6369  1.6246  1.6246

 Free energy of the ion-electron system (eV)
  ---------------------------------------------------
  alpha Z        PSCENC =         2.51538199
  Ewald energy   TEWEN  =      2629.98113996
  -Hartree energ DENC   =     -3534.47985783
  -exchange      EXHF   =         0.00000000
  -V(xc)+E(xc)   XCENC  =       -39.84990302
  PAW double counting   =      3582.29892780    -3427.06872615
  entropy T*S    EENTRO =        -0.00000000
  eigenvalues    EBANDS =      -555.27793993
  atomic energy  EATOM  =      1241.89512738
  Solvation  Ediel_sol  =         0.00000000
  ---------------------------------------------------
  free energy    TOTEN  =       -99.98584980 eV

  energy without entropy =      -99.98584980  energy(sigma->0) =      -99.98584980


--------------------------------------------------------------------------------------------------------




--------------------------------------- Iteration      1(   9)  ---------------------------------------


    POTLOK:  cpu time    1.7147: real time    1.7138
    SETDIJ:  cpu time    0.0080: real time    0.0084
     EDDAV:  cpu time   11.2183: real time   11.2148
       DOS:  cpu time    0.0000: real time    0.0005
    CHARGE:  cpu time    0.4989: real time    0.4986
    MIXING:  cpu time    0.0520: real time    0.0522
    --------------------------------------------
      LOOP:  cpu time   13.4919: real time   13.4882

 eigenvalue-minimisations  :   112
 total energy-change (2. order) : 0.3542267E-01  (-0.6877787E-02)
 number of electron      56.0000017 magnetization 
 augmentation part       -4.3352724 magnetization 

 Broyden mixing:
  rms(total) = 0.32579E-01    rms(broyden)= 0.32578E-01
  rms(prec ) = 0.44431E-01
  weight for this iteration     100.00

 eigenvalues of (default mixing * dielectric matrix)
  average eigenvalue GAMMA=   1.7616
  2.5114  1.8445  1.8445  0.8458

 Free energy of the ion-electron system (eV)
  ---------------------------------------------------
  alpha Z        PSCENC =         2.51538199
  Ewald energy   TEWEN  =      2629.98113996
  -Hartree energ DENC   =     -3546.02143772
  -exchange      EXHF   =         0.00000000
  -V(xc)+E(xc)   XCENC  =       -39.15191672
  PAW double counting   =      3720.57116930    -3565.38919731
  entropy T*S    EENTRO =        -0.00000000
  eigenvalues    EBANDS =      -544.35069401
  atomic energy  EATOM  =      1241.89512738
  Solvation  Ediel_sol  =         0.00000000
  ---------------------------------------------------
  free energy    TOTEN  =       -99.95042713 eV

  energy without entropy =      -99.95042713  energy(sigma->0) =      -99.95042713


--------------------------------------------------------------------------------------------------------




--------------------------------------- Iteration      1(  10)  ---------------------------------------


    POTLOK:  cpu time    1.7167: real time    1.7164
    SETDIJ:  cpu time    0.0080: real time    0.0078
     EDDAV:  cpu time   11.2383: real time   11.2335
       DOS:  cpu time    0.0000: real time    0.0006
    CHARGE:  cpu time    0.4869: real time    0.4871
    MIXING:  cpu time    0.0550: real time    0.0546
    --------------------------------------------
      LOOP:  cpu time   13.5049: real time   13.5000

 eigenvalue-minimisations  :   112
 total energy-change (2. order) : 0.3605578E-03  (-0.2751184E-03)
 number of electron      56.0000017 magnetization 
 augmentation part       -4.3343536 magnetization 

 Broyden mixing:
  rms(total) = 0.14904E-01    rms(broyden)= 0.14904E-01
  rms(prec ) = 0.28046E-01
  weight for this iteration     100.00

 eigenvalues of (default mixing * dielectric matrix)
  average eigenvalue GAMMA=   1.8662
  2.8355  2.2226  1.0980  1.5874  1.5874

 Free energy of the ion-electron system (eV)
  ---------------------------------------------------
  alpha Z        PSCENC =         2.51538199
  Ewald energy   TEWEN  =      2629.98113996
  -Hartree energ DENC   =     -3548.43300796
  -exchange      EXHF   =         0.00000000
  -V(xc)+E(xc)   XCENC  =       -39.13521305
  PAW double counting   =      3654.64461313    -3499.41530080
  entropy T*S    EENTRO =        -0.00000000
  eigenvalues    EBANDS =      -542.00280722
  atomic energy  EATOM  =      1241.89512738
  Solvation  Ediel_sol  =         0.00000000
  ---------------------------------------------------
  free energy    TOTEN  =       -99.95006657 eV

  energy without entropy =      -99.95006657  energy(sigma->0) =      -99.95006657


--------------------------------------------------------------------------------------------------------




--------------------------------------- Iteration      1(  11)  ---------------------------------------


    POTLOK:  cpu time    1.7407: real time    1.7608
    SETDIJ:  cpu time    0.0110: real time    0.0109
     EDDAV:  cpu time   10.5494: real time   10.5838
       DOS:  cpu time    0.0010: real time    0.0005
    CHARGE:  cpu time    0.4869: real time    0.4863
    MIXING:  cpu time    0.0570: real time    0.0570
    --------------------------------------------
      LOOP:  cpu time   12.8460: real time   12.8994

 eigenvalue-minimisations  :   104
 total energy-change (2. order) :-0.3391036E-04  (-0.6129801E-03)
 number of electron      56.0000017 magnetization 
 augmentation part       -4.3329402 magnetization 

 Broyden mixing:
  rms(total) = 0.82366E-02    rms(broyden)= 0.82363E-02
  rms(prec ) = 0.14694E-01
  weight for this iteration     100.00

 eigenvalues of (default mixing * dielectric matrix)
  average eigenvalue GAMMA=   1.8740
  3.2413  2.5794  1.7391  1.7391  1.0482  0.8969

 Free energy of the ion-electron system (eV)
  ---------------------------------------------------
  alpha Z        PSCENC =         2.51538199
  Ewald energy   TEWEN  =      2629.98113996
  -Hartree energ DENC   =     -3555.01755852
  -exchange      EXHF   =         0.00000000
  -V(xc)+E(xc)   XCENC  =       -38.94700431
  PAW double counting   =      3618.65650033    -3463.38992904
  entropy T*S    EENTRO =        -0.00000000
  eigenvalues    EBANDS =      -535.64375825
  atomic energy  EATOM  =      1241.89512738
  Solvation  Ediel_sol  =         0.00000000
  ---------------------------------------------------
  free energy    TOTEN  =       -99.95010048 eV

  energy without entropy =      -99.95010048  energy(sigma->0) =      -99.95010048


--------------------------------------------------------------------------------------------------------




--------------------------------------- Iteration      1(  12)  ---------------------------------------


    POTLOK:  cpu time    1.7337: real time    1.7323
    SETDIJ:  cpu time    0.0080: real time    0.0083
     EDDAV:  cpu time   10.4284: real time   10.4248
       DOS:  cpu time    0.0000: real time    0.0006
    CHARGE:  cpu time    0.4869: real time    0.4937
    MIXING:  cpu time    0.0600: real time    0.0602
    --------------------------------------------
      LOOP:  cpu time   12.7171: real time   12.7198

 eigenvalue-minimisations  :   102
 total energy-change (2. order) :-0.4614124E-02  (-0.1209852E-03)
 number of electron      56.0000017 magnetization 
 augmentation part       -4.3322048 magnetization 

 Broyden mixing:
  rms(total) = 0.56382E-02    rms(broyden)= 0.56382E-02
  rms(prec ) = 0.96581E-02
  weight for this iteration     100.00

 eigenvalues of (default mixing * dielectric matrix)
  average eigenvalue GAMMA=   2.1149
  4.7872  2.6454  2.3253  1.5412  1.5412  0.9819  0.9819

 Free energy of the ion-electron system (eV)
  ---------------------------------------------------
  alpha Z        PSCENC =         2.51538199
  Ewald energy   TEWEN  =      2629.98113996
  -Hartree energ DENC   =     -3557.52655737
  -exchange      EXHF   =         0.00000000
  -V(xc)+E(xc)   XCENC  =       -38.90700061
  PAW double counting   =      3608.31765639    -3453.04638038
  entropy T*S    EENTRO =        -0.00000000
  eigenvalues    EBANDS =      -533.18408195
  atomic energy  EATOM  =      1241.89512738
  Solvation  Ediel_sol  =         0.00000000
  ---------------------------------------------------
  free energy    TOTEN  =       -99.95471460 eV

  energy without entropy =      -99.95471460  energy(sigma->0) =      -99.95471460


--------------------------------------------------------------------------------------------------------




--------------------------------------- Iteration      1(  13)  ---------------------------------------


    POTLOK:  cpu time    1.7357: real time    1.7351
    SETDIJ:  cpu time    0.0080: real time    0.0080
     EDDAV:  cpu time   11.1953: real time   11.2299
       DOS:  cpu time    0.0010: real time    0.0004
    CHARGE:  cpu time    0.4939: real time    0.4933
    MIXING:  cpu time    0.0650: real time    0.0650
    --------------------------------------------
      LOOP:  cpu time   13.4989: real time   13.5317

 eigenvalue-minimisations  :   112
 total energy-change (2. order) :-0.4340925E-02  (-0.1752955E-03)
 number of electron      56.0000017 magnetization 
 augmentation part       -4.3320701 magnetization 

 Broyden mixing:
  rms(total) = 0.35014E-02    rms(broyden)= 0.35013E-02
  rms(prec ) = 0.51811E-02
  weight for this iteration     100.00

 eigenvalues of (default mixing * dielectric matrix)
  average eigenvalue GAMMA=   2.2005
  5.5961  2.9466  2.2228  1.8631  1.8631  1.1568  0.9779  0.9779

 Free energy of the ion-electron system (eV)
  ---------------------------------------------------
  alpha Z        PSCENC =         2.51538199
  Ewald energy   TEWEN  =      2629.98113996
  -Hartree energ DENC   =     -3560.23269776
  -exchange      EXHF   =         0.00000000
  -V(xc)+E(xc)   XCENC  =       -38.85592387
  PAW double counting   =      3612.93674997    -3457.67235840
  entropy T*S    EENTRO =        -0.00000000
  eigenvalues    EBANDS =      -530.52647480
  atomic energy  EATOM  =      1241.89512738
  Solvation  Ediel_sol  =         0.00000000
  ---------------------------------------------------
  free energy    TOTEN  =       -99.95905553 eV

  energy without entropy =      -99.95905553  energy(sigma->0) =      -99.95905553


--------------------------------------------------------------------------------------------------------




--------------------------------------- Iteration      1(  14)  ---------------------------------------


    POTLOK:  cpu time    1.7267: real time    1.7273
    SETDIJ:  cpu time    0.0080: real time    0.0079
     EDDAV:  cpu time   11.2553: real time   11.2509
       DOS:  cpu time    0.0000: real time    0.0004
    CHARGE:  cpu time    0.4889: real time    0.4886
    MIXING:  cpu time    0.0700: real time    0.0703
    --------------------------------------------
      LOOP:  cpu time   13.5489: real time   13.5454

 eigenvalue-minimisations  :   112
 total energy-change (2. order) :-0.4669800E-02  (-0.3997235E-04)
 number of electron      56.0000017 magnetization 
 augmentation part       -4.3315650 magnetization 

 Broyden mixing:
  rms(total) = 0.14416E-02    rms(broyden)= 0.14416E-02
  rms(prec ) = 0.25604E-02
  weight for this iteration     100.00

 eigenvalues of (default mixing * dielectric matrix)
  average eigenvalue GAMMA=   2.2754
  6.5627  3.0282  2.6110  2.1160  1.5738  1.5738  1.0789  0.9672  0.9672

 Free energy of the ion-electron system (eV)
  ---------------------------------------------------
  alpha Z        PSCENC =         2.51538199
  Ewald energy   TEWEN  =      2629.98113996
  -Hartree energ DENC   =     -3560.92459763
  -exchange      EXHF   =         0.00000000
  -V(xc)+E(xc)   XCENC  =       -38.87163455
  PAW double counting   =      3613.18396519    -3457.92053609
  entropy T*S    EENTRO =        -0.00000000
  eigenvalues    EBANDS =      -529.82257157
  atomic energy  EATOM  =      1241.89512738
  Solvation  Ediel_sol  =         0.00000000
  ---------------------------------------------------
  free energy    TOTEN  =       -99.96372533 eV

  energy without entropy =      -99.96372533  energy(sigma->0) =      -99.96372533


--------------------------------------------------------------------------------------------------------




--------------------------------------- Iteration      1(  15)  ---------------------------------------


    POTLOK:  cpu time    1.7267: real time    1.7260
    SETDIJ:  cpu time    0.0080: real time    0.0078
     EDDAV:  cpu time   11.1803: real time   11.2143
       DOS:  cpu time    0.0010: real time    0.0004
    CHARGE:  cpu time    0.4949: real time    0.4955
    MIXING:  cpu time    0.0780: real time    0.0778
    --------------------------------------------
      LOOP:  cpu time   13.4889: real time   13.5217

 eigenvalue-minimisations  :   112
 total energy-change (2. order) :-0.3609412E-02  (-0.3764710E-04)
 number of electron      56.0000017 magnetization 
 augmentation part       -4.3312534 magnetization 

 Broyden mixing:
  rms(total) = 0.13775E-02    rms(broyden)= 0.13774E-02
  rms(prec ) = 0.18883E-02
  weight for this iteration     100.00

 eigenvalues of (default mixing * dielectric matrix)
  average eigenvalue GAMMA=   2.3261
  6.7485  3.8766  2.6291  2.0416  2.0416  1.6909  1.2780  0.9475  1.0034  1.0034

 Free energy of the ion-electron system (eV)
  ---------------------------------------------------
  alpha Z        PSCENC =         2.51538199
  Ewald energy   TEWEN  =      2629.98113996
  -Hartree energ DENC   =     -3561.12584103
  -exchange      EXHF   =         0.00000000
  -V(xc)+E(xc)   XCENC  =       -38.87776558
  PAW double counting   =      3616.49603330    -3461.23321232
  entropy T*S    EENTRO =        -0.00000000
  eigenvalues    EBANDS =      -529.61819845
  atomic energy  EATOM  =      1241.89512738
  Solvation  Ediel_sol  =         0.00000000
  ---------------------------------------------------
  free energy    TOTEN  =       -99.96733474 eV

  energy without entropy =      -99.96733474  energy(sigma->0) =      -99.96733474


--------------------------------------------------------------------------------------------------------




--------------------------------------- Iteration      1(  16)  ---------------------------------------


    POTLOK:  cpu time    1.7217: real time    1.7457
    SETDIJ:  cpu time    0.0080: real time    0.0079
     EDDAV:  cpu time   11.2023: real time   11.1988
       DOS:  cpu time    0.0010: real time    0.0004
    CHARGE:  cpu time    0.4889: real time    0.4896
    MIXING:  cpu time    0.0860: real time    0.0860
    --------------------------------------------
      LOOP:  cpu time   13.5079: real time   13.5283

 eigenvalue-minimisations  :   112
 total energy-change (2. order) :-0.1473770E-02  (-0.1056015E-04)
 number of electron      56.0000017 magnetization 
 augmentation part       -4.3315127 magnetization 

 Broyden mixing:
  rms(total) = 0.64449E-03    rms(broyden)= 0.64447E-03
  rms(prec ) = 0.93301E-03
  weight for this iteration     100.00

 eigenvalues of (default mixing * dielectric matrix)
  average eigenvalue GAMMA=   2.4498
  7.4628  4.8458  2.6788  2.6788  1.8166  1.8166  1.3514  1.3514  0.9763  0.9846
  0.9846

 Free energy of the ion-electron system (eV)
  ---------------------------------------------------
  alpha Z        PSCENC =         2.51538199
  Ewald energy   TEWEN  =      2629.98113996
  -Hartree energ DENC   =     -3561.24100757
  -exchange      EXHF   =         0.00000000
  -V(xc)+E(xc)   XCENC  =       -38.87516679
  PAW double counting   =      3616.56034758    -3461.29656164
  entropy T*S    EENTRO =        -0.00000000
  eigenvalues    EBANDS =      -529.50806943
  atomic energy  EATOM  =      1241.89512738
  Solvation  Ediel_sol  =         0.00000000
  ---------------------------------------------------
  free energy    TOTEN  =       -99.96880851 eV

  energy without entropy =      -99.96880851  energy(sigma->0) =      -99.96880851


--------------------------------------------------------------------------------------------------------




--------------------------------------- Iteration      1(  17)  ---------------------------------------


    POTLOK:  cpu time    1.7227: real time    1.7214
    SETDIJ:  cpu time    0.0150: real time    0.0157
     EDDAV:  cpu time   10.5734: real time   10.5703
       DOS:  cpu time    0.0000: real time    0.0003
    CHARGE:  cpu time    0.4889: real time    0.4895
    MIXING:  cpu time    0.0970: real time    0.0969
    --------------------------------------------
      LOOP:  cpu time   12.8970: real time   12.8941

 eigenvalue-minimisations  :   104
 total energy-change (2. order) :-0.9560643E-03  (-0.8287277E-05)
 number of electron      56.0000017 magnetization 
 augmentation part       -4.3317174 magnetization 

 Broyden mixing:
  rms(total) = 0.39320E-03    rms(broyden)= 0.39317E-03
  rms(prec ) = 0.50567E-03
  weight for this iteration     100.00

 eigenvalues of (default mixing * dielectric matrix)
  average eigenvalue GAMMA=   2.4715
  7.7333  5.2722  2.7518  2.7518  1.9768  1.9768  1.5406  1.5406  1.1383  0.9879
  0.9879  0.9998

 Free energy of the ion-electron system (eV)
  ---------------------------------------------------
  alpha Z        PSCENC =         2.51538199
  Ewald energy   TEWEN  =      2629.98113996
  -Hartree energ DENC   =     -3561.23207393
  -exchange      EXHF   =         0.00000000
  -V(xc)+E(xc)   XCENC  =       -38.87946001
  PAW double counting   =      3614.56260384    -3459.29734801
  entropy T*S    EENTRO =        -0.00000000
  eigenvalues    EBANDS =      -529.51513580
  atomic energy  EATOM  =      1241.89512738
  Solvation  Ediel_sol  =         0.00000000
  ---------------------------------------------------
  free energy    TOTEN  =       -99.96976458 eV

  energy without entropy =      -99.96976458  energy(sigma->0) =      -99.96976458


--------------------------------------------------------------------------------------------------------




--------------------------------------- Iteration      1(  18)  ---------------------------------------


    POTLOK:  cpu time    1.7257: real time    1.7247
    SETDIJ:  cpu time    0.0080: real time    0.0078
     EDDAV:  cpu time   10.5164: real time   10.5518
       DOS:  cpu time    0.0000: real time    0.0003
    CHARGE:  cpu time    0.4869: real time    0.4874
    MIXING:  cpu time    0.1070: real time    0.1062
    --------------------------------------------
      LOOP:  cpu time   12.8440: real time   12.8783

 eigenvalue-minimisations  :   104
 total energy-change (2. order) :-0.2893902E-03  (-0.1039554E-05)
 number of electron      56.0000017 magnetization 
 augmentation part       -4.3317055 magnetization 

 Broyden mixing:
  rms(total) = 0.18224E-03    rms(broyden)= 0.18222E-03
  rms(prec ) = 0.24003E-03
  weight for this iteration     100.00

 eigenvalues of (default mixing * dielectric matrix)
  average eigenvalue GAMMA=   2.5211
  8.1811  5.9114  3.2546  2.6184  2.4797  1.8130  1.8130  1.3685  1.3685  1.0109
  1.0109  0.9722  0.9722

 Free energy of the ion-electron system (eV)
  ---------------------------------------------------
  alpha Z        PSCENC =         2.51538199
  Ewald energy   TEWEN  =      2629.98113996
  -Hartree energ DENC   =     -3561.28045634
  -exchange      EXHF   =         0.00000000
  -V(xc)+E(xc)   XCENC  =       -38.87786454
  PAW double counting   =      3614.70955194    -3459.44497617
  entropy T*S    EENTRO =        -0.00000000
  eigenvalues    EBANDS =      -529.46795819
  atomic energy  EATOM  =      1241.89512738
  Solvation  Ediel_sol  =         0.00000000
  ---------------------------------------------------
  free energy    TOTEN  =       -99.97005397 eV

  energy without entropy =      -99.97005397  energy(sigma->0) =      -99.97005397


--------------------------------------------------------------------------------------------------------




--------------------------------------- Iteration      1(  19)  ---------------------------------------


    POTLOK:  cpu time    1.7287: real time    1.7284
    SETDIJ:  cpu time    0.0080: real time    0.0079
     EDDAV:  cpu time    9.9515: real time    9.9485
       DOS:  cpu time    0.0010: real time    0.0003
    CHARGE:  cpu time    0.4869: real time    0.4903
    MIXING:  cpu time    0.1200: real time    0.1199
    --------------------------------------------
      LOOP:  cpu time   12.2961: real time   12.2953

 eigenvalue-minimisations  :    96
 total energy-change (2. order) :-0.1091628E-03  (-0.3034374E-06)
 number of electron      56.0000017 magnetization 
 augmentation part       -4.3317217 magnetization 

 Broyden mixing:
  rms(total) = 0.16119E-03    rms(broyden)= 0.16118E-03
  rms(prec ) = 0.19491E-03
  weight for this iteration     100.00

 eigenvalues of (default mixing * dielectric matrix)
  average eigenvalue GAMMA=   2.5326
  8.4591  6.1903  3.5776  2.6198  2.2197  2.2197  1.8163  1.8163  1.3278  1.2631
  1.0101  1.0101  0.9631  0.9631

 Free energy of the ion-electron system (eV)
  ---------------------------------------------------
  alpha Z        PSCENC =         2.51538199
  Ewald energy   TEWEN  =      2629.98113996
  -Hartree energ DENC   =     -3561.29023142
  -exchange      EXHF   =         0.00000000
  -V(xc)+E(xc)   XCENC  =       -38.87717864
  PAW double counting   =      3614.73842613    -3459.47406693
  entropy T*S    EENTRO =        -0.00000000
  eigenvalues    EBANDS =      -529.45876160
  atomic energy  EATOM  =      1241.89512738
  Solvation  Ediel_sol  =         0.00000000
  ---------------------------------------------------
  free energy    TOTEN  =       -99.97016313 eV

  energy without entropy =      -99.97016313  energy(sigma->0) =      -99.97016313


--------------------------------------------------------------------------------------------------------




--------------------------------------- Iteration      1(  20)  ---------------------------------------


    POTLOK:  cpu time    1.7327: real time    1.7318
    SETDIJ:  cpu time    0.0080: real time    0.0081
     EDDAV:  cpu time    9.3166: real time    9.3528
       DOS:  cpu time    0.0000: real time    0.0003
    CHARGE:  cpu time    0.4879: real time    0.4881
    MIXING:  cpu time    0.1280: real time    0.1284
    --------------------------------------------
      LOOP:  cpu time   11.6732: real time   11.7094

 eigenvalue-minimisations  :    88
 total energy-change (2. order) :-0.4689257E-04  (-0.1016299E-06)
 number of electron      56.0000017 magnetization 
 augmentation part       -4.3317050 magnetization 

 Broyden mixing:
  rms(total) = 0.47278E-04    rms(broyden)= 0.47277E-04
  rms(prec ) = 0.67566E-04
  weight for this iteration     100.00

 eigenvalues of (default mixing * dielectric matrix)
  average eigenvalue GAMMA=   2.5389
  8.6218  6.4279  4.0741  2.8900  2.5433  2.0094  1.8416  1.8416  1.3531  1.3531
  1.2088  1.0048  1.0048  0.9854  0.9243

 Free energy of the ion-electron system (eV)
  ---------------------------------------------------
  alpha Z        PSCENC =         2.51538199
  Ewald energy   TEWEN  =      2629.98113996
  -Hartree energ DENC   =     -3561.29321340
  -exchange      EXHF   =         0.00000000
  -V(xc)+E(xc)   XCENC  =       -38.87807902
  PAW double counting   =      3614.65452211    -3459.39011560
  entropy T*S    EENTRO =        -0.00000000
  eigenvalues    EBANDS =      -529.45497344
  atomic energy  EATOM  =      1241.89512738
  Solvation  Ediel_sol  =         0.00000000
  ---------------------------------------------------
  free energy    TOTEN  =       -99.97021002 eV

  energy without entropy =      -99.97021002  energy(sigma->0) =      -99.97021002


--------------------------------------------------------------------------------------------------------




--------------------------------------- Iteration      1(  21)  ---------------------------------------


    POTLOK:  cpu time    1.7307: real time    1.7322
    SETDIJ:  cpu time    0.0070: real time    0.0077
     EDDAV:  cpu time    9.3476: real time    9.3433
       DOS:  cpu time    0.0000: real time    0.0005
    CHARGE:  cpu time    0.4849: real time    0.4848
    MIXING:  cpu time    0.1450: real time    0.1453
    --------------------------------------------
      LOOP:  cpu time   11.7152: real time   11.7138

 eigenvalue-minimisations  :    88
 total energy-change (2. order) :-0.1622083E-04  (-0.4917417E-07)
 number of electron      56.0000017 magnetization 
 augmentation part       -4.3316916 magnetization 

 Broyden mixing:
  rms(total) = 0.48413E-04    rms(broyden)= 0.48410E-04
  rms(prec ) = 0.60884E-04
  weight for this iteration     100.00

 eigenvalues of (default mixing * dielectric matrix)
  average eigenvalue GAMMA=   2.5515
  8.5952  6.7145  4.2409  3.0748  2.4949  2.4949  1.9184  1.9184  1.6226  1.5312
  1.1543  1.1543  0.9833  0.9833  0.9713  0.9713

 Free energy of the ion-electron system (eV)
  ---------------------------------------------------
  alpha Z        PSCENC =         2.51538199
  Ewald energy   TEWEN  =      2629.98113996
  -Hartree energ DENC   =     -3561.29717647
  -exchange      EXHF   =         0.00000000
  -V(xc)+E(xc)   XCENC  =       -38.87819863
  PAW double counting   =      3614.70438804    -3459.43999402
  entropy T*S    EENTRO =        -0.00000000
  eigenvalues    EBANDS =      -529.45089448
  atomic energy  EATOM  =      1241.89512738
  Solvation  Ediel_sol  =         0.00000000
  ---------------------------------------------------
  free energy    TOTEN  =       -99.97022624 eV

  energy without entropy =      -99.97022624  energy(sigma->0) =      -99.97022624


--------------------------------------------------------------------------------------------------------




--------------------------------------- Iteration      1(  22)  ---------------------------------------


    POTLOK:  cpu time    1.7157: real time    1.7152
    SETDIJ:  cpu time    0.0080: real time    0.0080
     EDDAV:  cpu time    9.3516: real time    9.3509
       DOS:  cpu time    0.0010: real time    0.0005
    CHARGE:  cpu time    0.4969: real time    0.4973
    MIXING:  cpu time    0.1530: real time    0.1526
    --------------------------------------------
      LOOP:  cpu time   11.7262: real time   11.7245

 eigenvalue-minimisations  :    88
 total energy-change (2. order) :-0.7573851E-05  (-0.1781530E-07)
 number of electron      56.0000017 magnetization 
 augmentation part       -4.3317047 magnetization 

 Broyden mixing:
  rms(total) = 0.15577E-04    rms(broyden)= 0.15577E-04
  rms(prec ) = 0.21988E-04
  weight for this iteration     100.00

 eigenvalues of (default mixing * dielectric matrix)
  average eigenvalue GAMMA=   2.5299
  8.7797  6.7890  4.6704  3.2368  2.5260  2.5260  1.9113  1.9113  1.6584  1.6584
  1.1908  1.1908  1.0588  0.9865  0.9865  0.9638  0.9638

 Free energy of the ion-electron system (eV)
  ---------------------------------------------------
  alpha Z        PSCENC =         2.51538199
  Ewald energy   TEWEN  =      2629.98113996
  -Hartree energ DENC   =     -3561.29524719
  -exchange      EXHF   =         0.00000000
  -V(xc)+E(xc)   XCENC  =       -38.87806891
  PAW double counting   =      3614.71514491    -3459.45067006
  entropy T*S    EENTRO =        -0.00000000
  eigenvalues    EBANDS =      -529.45304191
  atomic energy  EATOM  =      1241.89512738
  Solvation  Ediel_sol  =         0.00000000
  ---------------------------------------------------
  free energy    TOTEN  =       -99.97023382 eV

  energy without entropy =      -99.97023382  energy(sigma->0) =      -99.97023382


--------------------------------------------------------------------------------------------------------




--------------------------------------- Iteration      1(  23)  ---------------------------------------


    POTLOK:  cpu time    1.7147: real time    1.7147
    SETDIJ:  cpu time    0.0080: real time    0.0078
     EDDAV:  cpu time    9.2936: real time    9.3287
       DOS:  cpu time    0.0010: real time    0.0007
    CHARGE:  cpu time    0.4939: real time    0.4938
    MIXING:  cpu time    0.1720: real time    0.1719
    --------------------------------------------
      LOOP:  cpu time   11.6832: real time   11.7176

 eigenvalue-minimisations  :    88
 total energy-change (2. order) :-0.1951008E-05  (-0.4168871E-08)
 number of electron      56.0000017 magnetization 
 augmentation part       -4.3317092 magnetization 

 Broyden mixing:
  rms(total) = 0.11032E-04    rms(broyden)= 0.11031E-04
  rms(prec ) = 0.15513E-04
  weight for this iteration     100.00

 eigenvalues of (default mixing * dielectric matrix)
  average eigenvalue GAMMA=   2.5390
  8.8858  6.8357  4.9486  3.2628  2.7096  2.7096  1.9944  1.9944  1.9799  1.5148
  1.5148  1.2066  1.2066  1.0226  1.0226  0.9887  0.9887  0.9157

 Free energy of the ion-electron system (eV)
  ---------------------------------------------------
  alpha Z        PSCENC =         2.51538199
  Ewald energy   TEWEN  =      2629.98113996
  -Hartree energ DENC   =     -3561.29576743
  -exchange      EXHF   =         0.00000000
  -V(xc)+E(xc)   XCENC  =       -38.87811052
  PAW double counting   =      3614.70397864    -3459.43951420
  entropy T*S    EENTRO =        -0.00000000
  eigenvalues    EBANDS =      -529.45247158
  atomic energy  EATOM  =      1241.89512738
  Solvation  Ediel_sol  =         0.00000000
  ---------------------------------------------------
  free energy    TOTEN  =       -99.97023577 eV

  energy without entropy =      -99.97023577  energy(sigma->0) =      -99.97023577


--------------------------------------------------------------------------------------------------------




--------------------------------------- Iteration      1(  24)  ---------------------------------------


    POTLOK:  cpu time    1.7267: real time    1.7255
    SETDIJ:  cpu time    0.0080: real time    0.0081
     EDDAV:  cpu time    8.5967: real time    8.5970
       DOS:  cpu time    0.0010: real time    0.0006
    CHARGE:  cpu time    0.4869: real time    0.4875
    MIXING:  cpu time    0.1790: real time    0.1792
    --------------------------------------------
      LOOP:  cpu time   10.9983: real time   10.9980

 eigenvalue-minimisations  :    78
 total energy-change (2. order) :-0.2274850E-05  (-0.3171042E-08)
 number of electron      56.0000017 magnetization 
 augmentation part       -4.3317085 magnetization 

 Broyden mixing:
  rms(total) = 0.52712E-05    rms(broyden)= 0.52710E-05
  rms(prec ) = 0.73993E-05
  weight for this iteration     100.00

 eigenvalues of (default mixing * dielectric matrix)
  average eigenvalue GAMMA=   2.5556
  8.8843  7.1135  5.5134  3.8739  2.9372  2.5772  2.1345  1.9292  1.9292  1.6436
  1.6436  1.1981  1.1981  1.1209  1.0006  1.0006  0.9848  0.9372  0.9372

 Free energy of the ion-electron system (eV)
  ---------------------------------------------------
  alpha Z        PSCENC =         2.51538199
  Ewald energy   TEWEN  =      2629.98113996
  -Hartree energ DENC   =     -3561.29661286
  -exchange      EXHF   =         0.00000000
  -V(xc)+E(xc)   XCENC  =       -38.87810652
  PAW double counting   =      3614.67050050    -3459.40605265
  entropy T*S    EENTRO =        -0.00000000
  eigenvalues    EBANDS =      -529.45161584
  atomic energy  EATOM  =      1241.89512738
  Solvation  Ediel_sol  =         0.00000000
  ---------------------------------------------------
  free energy    TOTEN  =       -99.97023804 eV

  energy without entropy =      -99.97023804  energy(sigma->0) =      -99.97023804


--------------------------------------------------------------------------------------------------------




--------------------------------------- Iteration      1(  25)  ---------------------------------------


    POTLOK:  cpu time    1.7337: real time    1.7327
    SETDIJ:  cpu time    0.0170: real time    0.0167
     EDDAV:  cpu time    9.3446: real time    9.3409
       DOS:  cpu time    0.0000: real time    0.0005
    --------------------------------------------
      LOOP:  cpu time   11.0953: real time   11.0908

 eigenvalue-minimisations  :    88
 total energy-change (2. order) :-0.4534709E-06  (-0.6847802E-09)
 number of electron      56.0000017 magnetization 
 augmentation part       -4.3317085 magnetization 

 Free energy of the ion-electron system (eV)
  ---------------------------------------------------
  alpha Z        PSCENC =         2.51538199
  Ewald energy   TEWEN  =      2629.98113996
  -Hartree energ DENC   =     -3561.29708359
  -exchange      EXHF   =         0.00000000
  -V(xc)+E(xc)   XCENC  =       -38.87809234
  PAW double counting   =      3614.67553414    -3459.41108749
  entropy T*S    EENTRO =        -0.00000000
  eigenvalues    EBANDS =      -529.45115854
  atomic energy  EATOM  =      1241.89512738
  Solvation  Ediel_sol  =         0.00000000
  ---------------------------------------------------
  free energy    TOTEN  =       -99.97023850 eV

  energy without entropy =      -99.97023850  energy(sigma->0) =      -99.97023850


--------------------------------------------------------------------------------------------------------




 average (electrostatic) potential at core
  the test charge radii are     0.9892  1.1631  0.5201
  (the norm of the test charge is              1.0000)
       1 -93.5055       2 -93.5056       3 -93.5055       4 -93.5056       5 -40.3777
       6 -40.4922       7 -40.3777       8 -40.3777       9 -40.3777      10 -40.4922
      11 -41.0606      12 -41.0604      13 -41.0619      14 -40.6929      15 -40.6925
      16 -40.6929      17 -40.6936      18 -41.0620      19 -41.0624      20 -40.6925
      21 -40.6927      22 -41.0621      23 -40.6928      24 -40.6929      25 -41.0604
      26 -41.0605
 
 
 
 E-fermi :  -5.3626     XC(G=0):  -0.6098     alpha+bet : -0.3306


 k-point     1 :       0.0000    0.0000    0.0000
  band No.  band energies     occupation 
      1     -15.4090      2.00000
      2     -14.6356      2.00000
      3     -14.1594      2.00000
      4     -14.1594      2.00000
      5     -13.1297      2.00000
      6     -12.5630      2.00000
      7     -11.9493      2.00000
      8     -11.5879      2.00000
      9     -11.5879      2.00000
     10     -10.5920      2.00000
     11      -8.9994      2.00000
     12      -8.6314      2.00000
     13      -8.6313      2.00000
     14      -8.6242      2.00000
     15      -8.2095      2.00000
     16      -8.1979      2.00000
     17      -8.1978      2.00000
     18      -7.8686      2.00000
     19      -7.8553      2.00000
     20      -7.8553      2.00000
     21      -6.7684      2.00000
     22      -6.7405      2.00000
     23      -6.4647      2.00000
     24      -6.4407      2.00000
     25      -6.4407      2.00000
     26      -6.3514      2.00000
     27      -6.3377      2.00000
     28      -6.3376      2.00000
     29      -1.5765      0.00000
     30      -1.3508      0.00000
     31      -1.2320      0.00000
     32      -1.2318      0.00000
     33      -1.2286      0.00000
     34      -1.0130      0.00000
     35      -0.9363      0.00000
     36      -0.9362      0.00000
     37      -0.8562      0.00000
     38      -0.6979      0.00000
     39      -0.2743      0.00000
     40      -0.2740      0.00000
     41      -0.2675      0.00000
     42      -0.0832      0.00000


--------------------------------------------------------------------------------------------------------


 soft charge-density along one line, spin component           1
         0         1         2         3         4         5         6         7         8         9
 total charge-density along one line
 
 pseudopotential strength for first ion, spin component:           1
 19.625  27.388  -0.000   0.002   0.004  -0.000   0.004   0.007
 27.388  38.225  -0.000   0.003   0.005  -0.001   0.005   0.010
 -0.000  -0.000   4.359  -0.000   0.000   8.132  -0.000   0.000
  0.002   0.003  -0.000   4.360  -0.000  -0.000   8.134  -0.000
  0.004   0.005   0.000  -0.000   4.360   0.000  -0.000   8.134
 -0.000  -0.001   8.132  -0.000   0.000  15.180  -0.001   0.000
  0.004   0.005  -0.000   8.134  -0.000  -0.001  15.184  -0.001
  0.007   0.010   0.000  -0.000   8.134   0.000  -0.001  15.183
 total augmentation occupancy for first ion, spin component:           1
  5.688  -2.102   0.022  -0.198  -0.375  -0.006   0.058   0.109
 -2.102   0.831  -0.013   0.118   0.224   0.003  -0.024  -0.046
  0.022  -0.013   3.392   0.146  -0.056  -0.809  -0.050   0.019
 -0.198   0.118   0.146   2.785   0.137  -0.050  -0.601  -0.047
 -0.375   0.224  -0.056   0.137   2.953   0.019  -0.047  -0.659
 -0.006   0.003  -0.809  -0.050   0.019   0.194   0.014  -0.005
  0.058  -0.024  -0.050  -0.601  -0.047   0.014   0.137   0.013
  0.109  -0.046   0.019  -0.047  -0.659  -0.005   0.013   0.153


------------------------ aborting loop because EDIFF is reached ----------------------------------------


    CHARGE:  cpu time    0.4909: real time    0.4901
    FORLOC:  cpu time    0.1720: real time    0.1718
    FORNL :  cpu time    1.1858: real time    1.2083
    STRESS:  cpu time    8.9626: real time    8.9597
    FORCOR:  cpu time    1.7147: real time    1.7145
    FORHAR:  cpu time    0.5799: real time    0.5793
    MIXING:  cpu time    0.1920: real time    0.1918
    OFIELD:  cpu time    0.0000: real time    0.0000

  FORCE on cell =-STRESS in cart. coord.  units (eV):
  Direction    XX          YY          ZZ          XY          YZ          ZX
  --------------------------------------------------------------------------------------
  Alpha Z     2.51538     2.51538     2.51538
  Ewald     876.64706   876.62235   876.71007    -0.21850     0.02563    -0.50464
  Hartree  1187.54425  1186.36991  1187.38316    -0.60234     0.63556    -0.28613
  E(xc)    -180.31619  -180.30855  -180.31495     0.00306    -0.00483    -0.00172
  Local   -2547.11488 -2545.92921 -2547.01868     0.81497    -0.65190     0.79464
  n-local   238.14653   238.20020   238.15848     0.02099    -0.03273    -0.01078
  augment   -13.74588   -13.74664   -13.74518     0.00017    -0.00052    -0.00035
  Kinetic   435.55757   435.46044   435.53702    -0.03755     0.05909     0.01989
  Fock        0.00000     0.00000     0.00000     0.00000     0.00000     0.00000
  -------------------------------------------------------------------------------------
  Total      -0.76617    -0.81611    -0.77471    -0.01921     0.03030     0.01090
  in kB      -0.15344    -0.16344    -0.15515    -0.00385     0.00607     0.00218
  external pressure =       -0.16 kB  Pullay stress =        0.00 kB


 VOLUME and BASIS-vectors are now :
 -----------------------------------------------------------------------------
  energy-cutoff  :      400.00
[...]
    SETDIJ:  cpu time    0.0080: real time    0.0078
     EDDAV:  cpu time   11.9922: real time   11.9879
       DOS:  cpu time    0.0000: real time    0.0006
    CHARGE:  cpu time    0.4909: real time    0.4912
    MIXING:  cpu time    0.0480: real time    0.0474
    --------------------------------------------
      LOOP:  cpu time   14.2768: real time   14.2720

 eigenvalue-minimisations  :   120
 total energy-change (2. order) : 0.2398720E-05  (-0.1458774E-05)
 number of electron      56.0000023 magnetization 
 augmentation part       -4.3175234 magnetization 

 Broyden mixing:
  rms(total) = 0.97605E-03    rms(broyden)= 0.97602E-03
  rms(prec ) = 0.10309E-02
  weight for this iteration     100.00

 eigenvalues of (default mixing * dielectric matrix)
  average eigenvalue GAMMA=   1.6198
  1.0698  2.1697

 Free energy of the ion-electron system (eV)
  ---------------------------------------------------
  alpha Z        PSCENC =         2.51538199
  Ewald energy   TEWEN  =      2587.09571716
  -Hartree energ DENC   =     -3519.47389445
  -exchange      EXHF   =         0.00000000
  -V(xc)+E(xc)   XCENC  =       -38.72963947
  PAW double counting   =      3678.76126726    -3523.47896405
  entropy T*S    EENTRO =        -0.00000000
  eigenvalues    EBANDS =      -528.81930089
  atomic energy  EATOM  =      1241.89512738
  Solvation  Ediel_sol  =         0.00000000
  ---------------------------------------------------
  free energy    TOTEN  =      -100.23430506 eV

  energy without entropy =     -100.23430506  energy(sigma->0) =     -100.23430506


--------------------------------------------------------------------------------------------------------




--------------------------------------- Iteration     16(   4)  ---------------------------------------


    POTLOK:  cpu time    1.7587: real time    1.7610
    SETDIJ:  cpu time    0.0080: real time    0.0079
     EDDAV:  cpu time   10.6224: real time   10.6184
       DOS:  cpu time    0.0010: real time    0.0006
    CHARGE:  cpu time    0.4849: real time    0.4857
    MIXING:  cpu time    0.0500: real time    0.0494
    --------------------------------------------
      LOOP:  cpu time   12.9250: real time   12.9230

 eigenvalue-minimisations  :   104
 total energy-change (2. order) :-0.1129109E-05  (-0.4439832E-06)
 number of electron      56.0000023 magnetization 
 augmentation part       -4.3174093 magnetization 

 Broyden mixing:
  rms(total) = 0.20641E-03    rms(broyden)= 0.20637E-03
  rms(prec ) = 0.22300E-03
  weight for this iteration     100.00

 eigenvalues of (default mixing * dielectric matrix)
  average eigenvalue GAMMA=   1.5711
  2.4044  1.1544  1.1544

 Free energy of the ion-electron system (eV)
  ---------------------------------------------------
  alpha Z        PSCENC =         2.51538199
  Ewald energy   TEWEN  =      2587.09571716
  -Hartree energ DENC   =     -3519.47629401
  -exchange      EXHF   =         0.00000000
  -V(xc)+E(xc)   XCENC  =       -38.72990403
  PAW double counting   =      3679.24780361    -3523.96606931
  entropy T*S    EENTRO =        -0.00000000
  eigenvalues    EBANDS =      -528.81606897
  atomic energy  EATOM  =      1241.89512738
  Solvation  Ediel_sol  =         0.00000000
  ---------------------------------------------------
  free energy    TOTEN  =      -100.23430619 eV

  energy without entropy =     -100.23430619  energy(sigma->0) =     -100.23430619


--------------------------------------------------------------------------------------------------------




--------------------------------------- Iteration     16(   5)  ---------------------------------------


    POTLOK:  cpu time    1.7487: real time    1.7482
    SETDIJ:  cpu time    0.0080: real time    0.0079
     EDDAV:  cpu time    9.3356: real time    9.3335
       DOS:  cpu time    0.0010: real time    0.0005
    --------------------------------------------
      LOOP:  cpu time   11.0933: real time   11.0901

 eigenvalue-minimisations  :    88
 total energy-change (2. order) :-0.3648620E-07  (-0.2692449E-07)
 number of electron      56.0000023 magnetization 
 augmentation part       -4.3174093 magnetization 

 Free energy of the ion-electron system (eV)
  ---------------------------------------------------
  alpha Z        PSCENC =         2.51538199
  Ewald energy   TEWEN  =      2587.09571716
  -Hartree energ DENC   =     -3519.47302242
  -exchange      EXHF   =         0.00000000
  -V(xc)+E(xc)   XCENC  =       -38.72975574
  PAW double counting   =      3679.47529409    -3524.19350731
  entropy T*S    EENTRO =        -0.00000000
  eigenvalues    EBANDS =      -528.81954137
  atomic energy  EATOM  =      1241.89512738
  Solvation  Ediel_sol  =         0.00000000
  ---------------------------------------------------
  free energy    TOTEN  =      -100.23430623 eV

  energy without entropy =     -100.23430623  energy(sigma->0) =     -100.23430623


--------------------------------------------------------------------------------------------------------




 average (electrostatic) potential at core
  the test charge radii are     0.9892  1.1631  0.5201
  (the norm of the test charge is              1.0000)
       1 -93.4269       2 -93.4269       3 -93.4268       4 -93.4267       5 -40.4023
       6 -40.4826       7 -40.4019       8 -40.4022       9 -40.4020      10 -40.4825
      11 -40.9754      12 -40.9753      13 -41.0087      14 -40.8551      15 -40.8553
      16 -40.8548      17 -40.8564      18 -41.0090      19 -41.0081      20 -40.8553
      21 -40.8561      22 -41.0084      23 -40.8553      24 -40.8561      25 -40.9767
      26 -40.9753
 
 
 
 E-fermi :  -5.3372     XC(G=0):  -0.6090     alpha+bet : -0.3306


 k-point     1 :       0.0000    0.0000    0.0000
  band No.  band energies     occupation 
      1     -15.2305      2.00000
      2     -14.3997      2.00000
      3     -14.1266      2.00000
      4     -14.1265      2.00000
      5     -13.0948      2.00000
      6     -12.7160      2.00000
      7     -11.9619      2.00000
      8     -11.6650      2.00000
      9     -11.6650      2.00000
     10     -10.7318      2.00000
     11      -8.9113      2.00000
     12      -8.6761      2.00000
     13      -8.6242      2.00000
     14      -8.6241      2.00000
     15      -8.3158      2.00000
     16      -8.1581      2.00000
     17      -8.1581      2.00000
     18      -7.8495      2.00000
     19      -7.8494      2.00000
     20      -7.7795      2.00000
     21      -6.8391      2.00000
     22      -6.7206      2.00000
     23      -6.4607      2.00000
     24      -6.4044      2.00000
     25      -6.4042      2.00000
     26      -6.3677      2.00000
     27      -6.2745      2.00000
     28      -6.2745      2.00000
     29      -1.5509      0.00000
     30      -1.4250      0.00000
     31      -1.3111      0.00000
     32      -1.2668      0.00000
     33      -1.2665      0.00000
     34      -1.1777      0.00000
     35      -0.9358      0.00000
     36      -0.9357      0.00000
     37      -0.8437      0.00000
     38      -0.7399      0.00000
     39      -0.2399      0.00000
     40      -0.2396      0.00000
     41      -0.2328      0.00000
     42      -0.0479      0.00000


--------------------------------------------------------------------------------------------------------


 soft charge-density along one line, spin component           1
         0         1         2         3         4         5         6         7         8         9
 total charge-density along one line
 
 pseudopotential strength for first ion, spin component:           1
 19.624  27.385  -0.000   0.003   0.005  -0.001   0.005   0.009
 27.385  38.222  -0.000   0.004   0.007  -0.001   0.007   0.013
 -0.000  -0.000   4.362  -0.000   0.000   8.137  -0.000   0.000
  0.003   0.004  -0.000   4.362  -0.000  -0.000   8.138  -0.000
  0.005   0.007   0.000  -0.000   4.362   0.000  -0.000   8.137
 -0.001  -0.001   8.137  -0.000   0.000  15.189  -0.000   0.000
  0.005   0.007  -0.000   8.138  -0.000  -0.000  15.190  -0.000
  0.009   0.013   0.000  -0.000   8.137   0.000  -0.000  15.189
 total augmentation occupancy for first ion, spin component:           1
  6.029  -2.284   0.035  -0.317  -0.602  -0.011   0.099   0.188
 -2.284   0.917  -0.020   0.176   0.334   0.005  -0.043  -0.082
  0.035  -0.020   3.656   0.187  -0.073  -0.885  -0.060   0.023
 -0.317   0.176   0.187   2.815   0.216  -0.060  -0.613  -0.069
 -0.602   0.334  -0.073   0.216   3.087   0.023  -0.069  -0.700
 -0.011   0.005  -0.885  -0.060   0.023   0.215   0.017  -0.006
  0.099  -0.043  -0.060  -0.613  -0.069   0.017   0.141   0.019
  0.188  -0.082   0.023  -0.069  -0.700  -0.006   0.019   0.165


------------------------ aborting loop because EDIFF is reached ----------------------------------------


    CHARGE:  cpu time    0.4909: real time    0.4910
    FORLOC:  cpu time    0.1720: real time    0.1714
    FORNL :  cpu time    1.1588: real time    1.1583
    STRESS:  cpu time    8.8617: real time    8.8587
    FORCOR:  cpu time    1.7187: real time    1.7175
    FORHAR:  cpu time    0.5829: real time    0.5832
    MIXING:  cpu time    0.0510: real time    0.0514
    OFIELD:  cpu time    0.0000: real time    0.0000

  FORCE on cell =-STRESS in cart. coord.  units (eV):
  Direction    XX          YY          ZZ          XY          YZ          ZX
  --------------------------------------------------------------------------------------
  Alpha Z     2.51538     2.51538     2.51538
  Ewald     865.68722   857.33803   864.06880    -3.11729     4.56727     1.00141
  Hartree  1176.16001  1168.58534  1174.71441    -2.82852     4.13558     0.86669
  E(xc)    -180.28339  -180.29673  -180.28598    -0.00491     0.00799     0.00270
  Local   -2524.42092 -2508.32370 -2521.32303     6.01209    -8.80905    -1.90400
  n-local   236.82883   237.02613   236.86691     0.07204    -0.11739    -0.03997
  augment   -13.93935   -13.93897   -13.93951     0.00030    -0.00045    -0.00004
  Kinetic   436.45288   436.02119   436.36433    -0.16613     0.26258     0.09118
  Fock        0.00000     0.00000     0.00000     0.00000     0.00000     0.00000
  -------------------------------------------------------------------------------------
  Total      -0.99933    -1.07333    -1.01870    -0.03242     0.04653     0.01797
  in kB      -0.20014    -0.21496    -0.20402    -0.00649     0.00932     0.00360
  external pressure =       -0.21 kB  Pullay stress =        0.00 kB


 VOLUME and BASIS-vectors are now :
 -----------------------------------------------------------------------------
  energy-cutoff  :      400.00
  volume of cell :     8000.00
      direct lattice vectors                 reciprocal lattice vectors
    20.000000000  0.000000000  0.000000000     0.050000000  0.000000000  0.000000000
     0.000000000 20.000000000  0.000000000     0.000000000  0.050000000  0.000000000
     0.000000000  0.000000000 20.000000000     0.000000000  0.000000000  0.050000000

  length of vectors
    20.000000000 20.000000000 20.000000000     0.050000000  0.050000000  0.050000000


 FORCES acting on ions
    electron-ion (+dipol)            ewald-force                    non-local-force                 convergence-correction
 -----------------------------------------------------------------------------------------------
   0.840E+02 -.493E+01 0.445E+02   -.863E+02 0.506E+01 -.457E+02   0.228E+01 -.135E+00 0.120E+01   0.317E-03 0.128E-03 0.241E-03
   -.351E+02 0.515E+02 0.721E+02   0.360E+02 -.529E+02 -.741E+02   -.947E+00 0.139E+01 0.195E+01   -.260E-03 0.739E-04 0.279E-03
   -.840E+02 0.493E+01 -.444E+02   0.862E+02 -.506E+01 0.456E+02   -.228E+01 0.133E+00 -.120E+01   -.365E-03 0.203E-04 -.853E-04
   0.351E+02 -.515E+02 -.721E+02   -.361E+02 0.529E+02 0.740E+02   0.950E+00 -.139E+01 -.195E+01   0.350E-04 0.299E-06 -.471E-03
   0.116E+02 -.194E+02 0.885E+02   -.118E+02 0.192E+02 -.891E+02   0.222E+00 0.195E+00 0.558E+00   -.132E-03 -.420E-03 0.510E-03
   -.285E+02 -.821E+02 0.449E+02   0.288E+02 0.830E+02 -.454E+02   -.303E+00 -.880E+00 0.478E+00   -.192E-03 -.288E-03 0.240E-03
   0.811E+02 0.140E+02 -.398E+02   -.816E+02 -.137E+02 0.400E+02   0.566E+00 -.241E+00 -.143E+00   0.351E-03 0.484E-03 -.367E-03
   -.502E+02 0.759E+02 -.918E+01   0.507E+02 -.762E+02 0.906E+01   -.550E+00 0.287E+00 0.118E+00   -.646E-04 0.546E-03 -.227E-03
   -.426E+02 -.706E+02 -.397E+02   0.429E+02 0.708E+02 0.402E+02   -.238E+00 -.241E+00 -.534E+00   -.310E-03 -.534E-03 0.855E-04
   0.285E+02 0.821E+02 -.448E+02   -.288E+02 -.830E+02 0.453E+02   0.304E+00 0.879E+00 -.479E+00   0.123E-03 0.301E-03 -.237E-03
   0.200E+02 0.392E+02 0.574E+01   -.212E+02 -.412E+02 -.681E+01   0.117E+01 0.195E+01 0.107E+01   0.250E-04 0.306E-04 -.868E-05
   0.113E+01 0.215E+02 -.389E+02   -.829E+00 -.221E+02 0.414E+02   -.308E+00 0.549E+00 -.243E+01   0.909E-05 0.134E-04 -.461E-04
   -.258E+02 0.383E+02 -.448E+01   0.271E+02 -.403E+02 0.472E+01   -.135E+01 0.204E+01 -.243E+00   -.479E-04 0.135E-03 -.426E-04
   -.457E+02 -.435E+01 0.594E+01   0.484E+02 0.481E+01 -.717E+01   -.266E+01 -.459E+00 0.124E+01   -.128E-03 -.477E-04 0.648E-04
   -.205E+02 0.824E+01 -.410E+02   0.209E+02 -.889E+01 0.438E+02   -.429E+00 0.640E+00 -.286E+01   -.275E-04 0.596E-04 -.139E-03
   -.364E+02 0.474E+01 0.286E+02   0.390E+02 -.432E+01 -.299E+02   -.261E+01 -.421E+00 0.134E+01   -.130E-03 -.540E-04 0.862E-04
   0.874E+01 0.359E+02 0.283E+02   -.101E+02 -.382E+02 -.296E+02   0.133E+01 0.231E+01 0.131E+01   0.470E-04 0.129E-03 0.638E-04
   0.606E+01 -.950E+01 0.448E+02   -.638E+01 0.100E+02 -.472E+02   0.314E+00 -.513E+00 0.238E+01   -.128E-04 -.773E-04 0.140E-03
   -.217E+02 -.356E+02 -.205E+02   0.228E+02 0.374E+02 0.216E+02   -.115E+01 -.189E+01 -.107E+01   -.837E-04 -.137E-03 -.204E-04
   0.274E+01 -.277E+01 -.462E+02   -.242E+01 0.218E+01 0.491E+02   -.330E+00 0.593E+00 -.289E+01   0.514E-05 0.640E-04 -.163E-03
   0.250E+02 -.378E+02 -.106E+02   -.266E+02 0.403E+02 0.104E+02   0.161E+01 -.248E+01 0.243E+00   0.561E-04 -.134E-03 -.281E-04
   0.412E+02 0.673E+01 -.201E+02   -.433E+02 -.709E+01 0.212E+02   0.218E+01 0.368E+00 -.107E+01   0.116E-03 0.880E-04 -.911E-04
   0.318E+02 0.250E+02 0.230E+02   -.333E+02 -.272E+02 -.242E+02   0.143E+01 0.226E+01 0.129E+01   0.943E-04 0.121E-03 0.499E-04
   0.344E+02 -.289E+02 0.121E+02   -.360E+02 0.313E+02 -.125E+02   0.166E+01 -.244E+01 0.340E+00   0.856E-04 -.105E-03 0.686E-04
   0.124E+02 -.411E+02 0.113E+02   -.137E+02 0.432E+02 -.116E+02   0.136E+01 -.210E+01 0.262E+00   -.163E-04 -.306E-04 0.302E-04
   -.334E+02 -.197E+02 0.220E+02   0.356E+02 0.201E+02 -.231E+02   -.222E+01 -.400E+00 0.110E+01   -.422E-04 -.129E-04 0.311E-04
 -----------------------------------------------------------------------------------------------
   -.463E-02 0.432E-02 0.239E-02   0.639E-13 -.320E-13 -.675E-13   0.579E-02 -.316E-02 -.175E-02   -.548E-03 0.353E-03 -.358E-04
 
 
 POSITION                                       TOTAL-FORCE (eV/Angst)
 -----------------------------------------------------------------------------------
      7.35119     10.78307      8.71228         0.004974     -0.002053      0.001474
     10.84837      9.13027      7.89680        -0.000021      0.004152      0.003712
     12.29014     10.49467     11.31529        -0.003849     -0.000026     -0.003362
      8.79297     12.14724     12.13076         0.003003     -0.005442     -0.001243
      9.48932     11.09909      7.65958        -0.000857     -0.004760      0.007553
     10.63194     12.98630      8.73478         0.003228      0.005872     -0.003612
      7.65601     10.32417     11.05232         0.006488      0.004506     -0.004229
     11.19093      8.65363     10.22808        -0.001821      0.008650     -0.001953
     10.94664     12.47814     11.11505        -0.004315     -0.007902     -0.001289
      9.00963      8.29123     11.29260        -0.002356     -0.006257      0.003810
      8.28350      7.08324     10.62674         0.007666      0.010744      0.010687
      9.20069      7.95112     12.80183        -0.004423     -0.000026     -0.017236
     12.05330      7.35894     10.38128         0.003669      0.012204     -0.006411
     13.63093     10.72742     10.68827        -0.002840      0.004487      0.006579
     12.50529     10.17112     12.76226         0.003423     -0.004503     -0.004870
     12.16927      9.34471      7.22283        -0.007342      0.000169     -0.003899
     10.17525      7.96575      7.23699         0.006627     -0.002173      0.002738
      9.28869     11.42247      6.14346        -0.004100     -0.012070      0.006670
     11.67425     13.67993     11.80025        -0.004220     -0.011849      0.006946
      8.96025     11.84600     13.58900        -0.007117      0.000789     -0.005316
      7.97831     13.39839     12.00651         0.005714      0.001864      0.004192
      6.26665     10.09353     11.73038         0.003830      0.012126     -0.006580
      6.62979      9.64114      8.06370        -0.003104      0.004879      0.006135
      6.51693     12.01566      8.54097         0.001774     -0.002849     -0.006287
      9.78712     14.28617      8.57245         0.012271     -0.011897     -0.000637
     12.01206     13.23460      8.05389        -0.016303      0.001366      0.006431
 -----------------------------------------------------------------------------------
    total drift:                                0.000605      0.001519      0.000598


--------------------------------------------------------------------------------------------------------



  FREE ENERGIE OF THE ION-ELECTRON SYSTEM (eV)
  ---------------------------------------------------
  free  energy   TOTEN  =      -100.23430623 eV

  energy  without entropy=     -100.23430623  energy(sigma->0) =     -100.23430623
 
 d Force = 0.4252221E-03[ 0.311E-03, 0.539E-03]  d Energy = 0.4310566E-03-0.583E-05
 d Force =-0.9914530E+00[-0.991E+00,-0.992E+00]  d Ewald  =-0.9914529E+00-0.117E-06


--------------------------------------------------------------------------------------------------------


    POTLOK:  cpu time    1.7607: real time    1.7598


--------------------------------------------------------------------------------------------------------


 Conjugate gradient step on ions:
 trial-energy change:   -0.000431  1 .order   -0.000425   -0.000539   -0.000311
  (g-gl).g = 0.345E-03      g.g   = 0.360E-03  gl.gl    = 0.104E-02
 g(Force)  = 0.360E-03   g(Stress)= 0.000E+00 ortho     = 0.132E-04
 gamma     =   0.33129
 trial     =   1.47939
 opt step  =   3.01894  (harmonic =   3.50187) maximal distance =0.00420369
 next E    =  -100.234475   (d E  =  -0.00060)


--------------------------------------------------------------------------------------------------------


  
 reached required accuracy - stopping structural energy minimisation
 writing wavefunctions
     LOOP+:  cpu time   78.5921: real time   79.0928
    4ORBIT:  cpu time    0.0000: real time    0.0000

 total amount of memory used by VASP MPI-rank0   131440. kBytes
=======================================================================

   base      :      30000. kBytes
   nonl-proj :      17624. kBytes
   fftplans  :      26957. kBytes
   grid      :      48673. kBytes
   one-center:         40. kBytes
   wavefun   :       8146. kBytes
 
  
  
 General timing and accounting informations for this job:
 ========================================================
  
                  Total CPU time used (sec):     2634.295
                            User time (sec):     2602.644
                          System time (sec):       31.651
                         Elapsed time (sec):     2640.613
  
                   Maximum memory used (kb):      184608.
                   Average memory used (kb):           0.
  
                          Minor page faults:      5886564
                          Major page faults:            6
                 Voluntary context switches:         2108
