<?xml version="1.0" encoding="ISO-8859-1"?>
<modeling>
 <generator>
  <i name="program" type="string">vasp </i>
  <i name="version" type="string">5.4.4.18Apr17-6-g9f103f2a35  </i>
  <i name="subversion" type="string">(build Nov 06 2017 19:16:10) complex            parallel </i>
  <i name="platform" type="string">IFC91_ompi </i>
  <i name="date" type="string">2018 07 19 </i>
  <i name="time" type="string">11:52:36 </i>
 </generator>
 <incar>
  <i type="string" name="SYSTEM">SiGe</i>
  <i type="string" name="PREC">normal</i>
  <i type="int" name="IBRION">     5</i>
  <i type="int" name="NFREE">     2</i>
  <i name="EDIFF">      0.00000100</i>
  <i name="EDIFFG">     -0.01000000</i>
  <i type="int" name="NSW">   300</i>
  <i type="int" name="ISIF">     2</i>
  <i name="ENCUT">    400.00000000</i>
  <i name="POTIM">      0.02000000</i>
  <i type="logical" name="LREAL"> F  </i>
  <i type="int" name="ISMEAR">     0</i>
  <i type="logical" name="LWAVE"> F  </i>
  <i type="logical" name="LCHARG"> F  </i>
  <v type="int" name="KPOINT_BSE">    -1     0     0     0</v>
 </incar>
 <structure name="primitive_cell" >
  <crystal>
   <varray name="basis" >
    <v>      20.00000000       0.00000000       0.00000000 </v>
    <v>       0.00000000      20.00000000       0.00000000 </v>
    <v>       0.00000000       0.00000000      20.00000000 </v>
   </varray>
   <i name="volume">   8000.00000000 </i>
   <varray name="rec_basis" >
    <v>       0.05000000       0.00000000       0.00000000 </v>
    <v>       0.00000000       0.05000000       0.00000000 </v>
    <v>       0.00000000       0.00000000       0.05000000 </v>
   </varray>
  </crystal>
  <varray name="positions" >
   <v>       0.47380427      -0.44366278       0.38431961 </v>
   <v>       0.46520091      -0.42835622       0.31137210 </v>
   <v>       0.36918482      -0.46094572       0.43481175 </v>
   <v>      -0.45931517       0.45717357       0.39658616 </v>
   <v>      -0.46948087      -0.35194824       0.43763162 </v>
   <v>       0.33322061       0.48250057       0.40128922 </v>
   <v>       0.32666872      -0.39960377       0.42819799 </v>
   <v>      -0.40084611      -0.34007357       0.40279314 </v>
   <v>      -0.39011378       0.46790167       0.36249304 </v>
   <v>       0.48904714      -0.28654993       0.42915188 </v>
   <v>      -0.49348557       0.39712849       0.36053884 </v>
   <v>       0.38473417      -0.48647659      -0.44881494 </v>
   <v>      -0.44348584       0.43197376      -0.48691756 </v>
   <v>      -0.45232148      -0.37490114      -0.44571013 </v>
   <v>       0.45190140       0.41467384      -0.43642013 </v>
   <v>       0.44090159      -0.39215699      -0.39378805 </v>
   <v>      -0.38740116      -0.47536207      -0.43459323 </v>
   <v>       0.41704169       0.35647205      -0.46824570 </v>
   <v>       0.39671858      -0.32828943      -0.39991492 </v>
   <v>      -0.31754694      -0.46533088      -0.46753798 </v>
   <v>       0.31528323      -0.49759001      -0.41492870 </v>
   <v>      -0.40100205       0.37047804      -0.48034917 </v>
   <v>      -0.41647308      -0.31748638      -0.41330538 </v>
   <v>       0.46040385       0.39926972      -0.36358910 </v>
   <v>       0.44939051      -0.40752058      -0.31788925 </v>
   <v>      -0.37505942      -0.49091740      -0.35926410 </v>
  </varray>
 </structure>
 <varray name="primitive_index" >
  <v type="int" >        1 </v>
  <v type="int" >       18 </v>
  <v type="int" >        2 </v>
  <v type="int" >        6 </v>
  <v type="int" >        7 </v>
  <v type="int" >       23 </v>
  <v type="int" >       24 </v>
  <v type="int" >       26 </v>
  <v type="int" >       16 </v>
  <v type="int" >       25 </v>
  <v type="int" >       17 </v>
  <v type="int" >        8 </v>
  <v type="int" >        3 </v>
  <v type="int" >        4 </v>
  <v type="int" >        5 </v>
  <v type="int" >       10 </v>
  <v type="int" >        9 </v>
  <v type="int" >       11 </v>
  <v type="int" >       21 </v>
  <v type="int" >       14 </v>
  <v type="int" >       22 </v>
  <v type="int" >       13 </v>
  <v type="int" >       19 </v>
  <v type="int" >       12 </v>
  <v type="int" >       20 </v>
  <v type="int" >       15 </v>
 </varray>
 <kpoints>
  <generation param="Gamma">
   <v type="int" name="divisions">       1        1        1 </v>
   <v name="usershift">      0.00000000       0.00000000       0.00000000 </v>
   <v name="genvec1">      1.00000000       0.00000000       0.00000000 </v>
   <v name="genvec2">      0.00000000       1.00000000       0.00000000 </v>
   <v name="genvec3">      0.00000000       0.00000000       1.00000000 </v>
   <v name="shift">      0.00000000       0.00000000       0.00000000 </v>
  </generation>
  <varray name="kpointlist" >
   <v>       0.00000000       0.00000000       0.00000000 </v>
  </varray>
  <varray name="weights" >
   <v>       1.00000000 </v>
  </varray>
 </kpoints>
 <parameters>
  <separator name="general" >
   <i type="string" name="SYSTEM">SiGe</i>
   <i type="logical" name="LCOMPAT"> F  </i>
  </separator>
  <separator name="electronic" >
   <i type="string" name="PREC">normal</i>
   <i name="ENMAX">    400.00000000</i>
   <i name="ENAUG">    400.00000000</i>
   <i name="EDIFF">      0.00000100</i>
   <i type="int" name="IALGO">    38</i>
   <i type="int" name="IWAVPR">    11</i>
   <i type="int" name="NBANDS">    48</i>
   <i name="NELECT">     56.00000000</i>
   <i type="int" name="TURBO">     0</i>
   <i type="int" name="IRESTART">     0</i>
   <i type="int" name="NREBOOT">     0</i>
   <i type="int" name="NMIN">     0</i>
   <i name="EREF">      0.00000000</i>
   <separator name="electronic smearing" >
    <i type="int" name="ISMEAR">     0</i>
    <i name="SIGMA">      0.20000000</i>
    <i name="KSPACING">      0.50000000</i>
    <i type="logical" name="KGAMMA"> T  </i>
   </separator>
   <separator name="electronic projectors" >
    <i type="logical" name="LREAL"> F  </i>
    <v name="ROPT">      0.00000000      0.00000000      0.00000000</v>
    <i type="int" name="LMAXPAW">  -100</i>
    <i type="int" name="LMAXMIX">     2</i>
    <i type="logical" name="NLSPLINE"> F  </i>
   </separator>
   <separator name="electronic startup" >
    <i type="int" name="ISTART">     0</i>
    <i type="int" name="ICHARG">     2</i>
    <i type="int" name="INIWAV">     1</i>
   </separator>
   <separator name="electronic spin" >
    <i type="int" name="ISPIN">     1</i>
    <i type="logical" name="LNONCOLLINEAR"> F  </i>
    <v name="MAGMOM">      1.00000000      1.00000000      1.00000000      1.00000000      1.00000000      1.00000000      1.00000000      1.00000000      1.00000000      1.00000000      1.00000000      1.00000000      1.00000000      1.00000000      1.00000000      1.00000000      1.00000000      1.00000000      1.00000000      1.00000000
      1.00000000      1.00000000      1.00000000      1.00000000      1.00000000      1.00000000</v>
    <i name="NUPDOWN">     -1.00000000</i>
    <i type="logical" name="LSORBIT"> F  </i>
    <v name="SAXIS">      0.00000000      0.00000000      1.00000000</v>
    <i type="logical" name="LSPIRAL"> F  </i>
    <v name="QSPIRAL">      0.00000000      0.00000000      0.00000000</v>
    <i type="logical" name="LZEROZ"> F  </i>
   </separator>
   <separator name="electronic exchange-correlation" >
    <i type="logical" name="LASPH"> F  </i>
    <i type="logical" name="LMETAGGA"> F  </i>
   </separator>
   <separator name="electronic convergence" >
    <i type="int" name="NELM">    60</i>
    <i type="int" name="NELMDL">    -5</i>
    <i type="int" name="NELMIN">     2</i>
    <i name="ENINI">    400.00000000</i>
    <separator name="electronic convergence detail" >
     <i type="logical" name="LDIAG"> T  </i>
     <i type="logical" name="LSUBROT"> F  </i>
     <i name="WEIMIN">      0.00100000</i>
     <i name="EBREAK">      0.00000001</i>
     <i name="DEPER">      0.30000000</i>
     <i type="int" name="NRMM">     4</i>
     <i name="TIME">      0.40000000</i>
    </separator>
   </separator>
   <separator name="electronic mixer" >
    <i name="AMIX">      0.40000000</i>
    <i name="BMIX">      1.00000000</i>
    <i name="AMIN">      0.10000000</i>
    <i name="AMIX_MAG">      1.60000000</i>
    <i name="BMIX_MAG">      1.00000000</i>
    <separator name="electronic mixer details" >
     <i type="int" name="IMIX">     4</i>
     <i type="logical" name="MIXFIRST"> F  </i>
     <i type="int" name="MAXMIX">   -45</i>
     <i name="WC">    100.00000000</i>
     <i type="int" name="INIMIX">     1</i>
     <i type="int" name="MIXPRE">     1</i>
     <i type="int" name="MREMOVE">     5</i>
    </separator>
   </separator>
   <separator name="electronic dipolcorrection" >
    <i type="logical" name="LDIPOL"> F  </i>
    <i type="logical" name="LMONO"> F  </i>
    <i type="int" name="IDIPOL">     0</i>
    <i name="EPSILON">      1.00000000</i>
    <v name="DIPOL">   -100.00000000   -100.00000000   -100.00000000</v>
    <i name="EFIELD">      0.00000000</i>
   </separator>
  </separator>
  <separator name="grids" >
   <i type="int" name="NGX">    98</i>
   <i type="int" name="NGY">    98</i>
   <i type="int" name="NGZ">    98</i>
   <i type="int" name="NGXF">   196</i>
   <i type="int" name="NGYF">   196</i>
   <i type="int" name="NGZF">   196</i>
   <i type="logical" name="ADDGRID"> F  </i>
  </separator>
  <separator name="ionic" >
   <i type="int" name="NSW">   349</i>
   <i type="int" name="IBRION">     5</i>
   <i type="int" name="MDALGO">     0</i>
   <i type="int" name="ISIF">     2</i>
   <i name="PSTRESS">      0.00000000</i>
   <i name="EDIFFG">     -0.01000000</i>
   <i type="int" name="NFREE">     2</i>
   <i name="POTIM">      0.02000000</i>
   <i name="SMASS">     -3.00000000</i>
   <i name="SCALEE">      1.00000000</i>
  </separator>
  <separator name="ionic md" >
   <i name="TEBEG">      0.00010000</i>
   <i name="TEEND">      0.00010000</i>
   <i type="int" name="NBLOCK">     1</i>
   <i type="int" name="KBLOCK">   349</i>
   <i type="int" name="NPACO">   256</i>
   <i name="APACO">     16.00000000</i>
  </separator>
  <separator name="symmetry" >
   <i type="int" name="ISYM">     2</i>
   <i name="SYMPREC">      0.00001000</i>
  </separator>
  <separator name="dos" >
   <i type="int" name="LORBIT">     0</i>
   <v name="RWIGS">     -1.00000000     -1.00000000     -1.00000000</v>
   <i type="int" name="NEDOS">   301</i>
   <i name="EMIN">     10.00000000</i>
   <i name="EMAX">    -10.00000000</i>
   <i name="EFERMI">      0.00000000</i>
  </separator>
  <separator name="writing" >
   <i type="int" name="NWRITE">     2</i>
   <i type="logical" name="LWAVE"> F  </i>
   <i type="logical" name="LDOWNSAMPLE"> F  </i>
   <i type="logical" name="LCHARG"> F  </i>
   <i type="logical" name="LPARD"> F  </i>
   <i type="logical" name="LVTOT"> F  </i>
   <i type="logical" name="LVHAR"> F  </i>
   <i type="logical" name="LELF"> F  </i>
   <i type="logical" name="LOPTICS"> F  </i>
   <v name="STM">      0.00000000      0.00000000      0.00000000      0.00000000      0.00000000      0.00000000      0.00000000</v>
  </separator>
  <separator name="performance" >
   <i type="int" name="NPAR">    12</i>
   <i type="int" name="NSIM">     4</i>
   <i type="int" name="NBLK">    -1</i>
   <i type="logical" name="LPLANE"> T  </i>
   <i type="logical" name="LSCALAPACK"> T  </i>
   <i type="logical" name="LSCAAWARE"> F  </i>
   <i type="logical" name="LSCALU"> F  </i>
   <i type="logical" name="LASYNC"> F  </i>
   <i type="logical" name="LORBITALREAL"> F  </i>
  </separator>
  <separator name="miscellaneous" >
   <i type="int" name="IDIOT">     3</i>
   <i type="int" name="ISPECIAL">     0</i>
   <i type="logical" name="LMUSIC"> F  </i>
   <v name="POMASS">     28.08500000     72.61000000      1.00000000</v>
   <v name="DARWINR">      0.00000000      0.00000000      0.00000000</v>
   <v name="DARWINV">      1.00000000      1.00000000      1.00000000</v>
   <i type="logical" name="LCORR"> T  </i>
  </separator>
  <i type="logical" name="GGA_COMPAT"> T  </i>
  <i type="logical" name="LBERRY"> F  </i>
  <i type="int" name="ICORELEVEL">     0</i>
  <i type="logical" name="LDAU"> F  </i>
  <i type="int" name="I_CONSTRAINED_M">     0</i>
  <separator name="electronic exchange-correlation" >
   <i type="string" name="GGA">--</i>
   <i type="int" name="VOSKOWN">     0</i>
   <i type="logical" name="LHFCALC"> F  </i>
   <i type="string" name="PRECFOCK"></i>
   <i type="logical" name="LSYMGRAD"> F  </i>
   <i type="logical" name="LHFONE"> F  </i>
   <i type="logical" name="LRHFCALC"> F  </i>
   <i type="logical" name="LTHOMAS"> F  </i>
   <i type="logical" name="LMODELHF"> F  </i>
   <i name="ENCUT4O">     -1.00000000</i>
   <i type="int" name="EXXOEP">     0</i>
   <i type="int" name="FOURORBIT">     0</i>
   <i name="AEXX">      0.00000000</i>
   <i name="HFALPHA">      0.00000000</i>
   <i name="MCALPHA">      0.00000000</i>
   <i name="ALDAX">      1.00000000</i>
   <i name="AGGAX">      1.00000000</i>
   <i name="ALDAC">      1.00000000</i>
   <i name="AGGAC">      1.00000000</i>
   <i type="int" name="NKREDX">     1</i>
   <i type="int" name="NKREDY">     1</i>
   <i type="int" name="NKREDZ">     1</i>
   <i type="logical" name="SHIFTRED"> F  </i>
   <i type="logical" name="ODDONLY"> F  </i>
   <i type="logical" name="EVENONLY"> F  </i>
   <i type="int" name="LMAXFOCK">     0</i>
   <i type="int" name="NMAXFOCKAE">     0</i>
   <i type="logical" name="LFOCKAEDFT"> F  </i>
   <i name="HFSCREEN">      0.00000000</i>
   <i name="HFSCREENC">      0.00000000</i>
   <i type="int" name="NBANDSGWLOW">     0</i>
  </separator>
  <separator name="vdW DFT" >
   <i type="logical" name="LUSE_VDW"> F  </i>
   <i name="Zab_VDW">     -0.84910000</i>
   <i name="PARAM1">      0.12340000</i>
   <i name="PARAM2">      1.00000000</i>
   <i name="PARAM3">      0.00000000</i>
  </separator>
  <separator name="model GW" >
   <i type="int" name="MODEL_GW">     0</i>
   <i name="MODEL_EPS0">    184.61538462</i>
   <i name="MODEL_ALPHA">      1.00000000</i>
  </separator>
  <separator name="linear response parameters" >
   <i type="logical" name="LEPSILON"> F  </i>
   <i type="logical" name="LRPA"> F  </i>
   <i type="logical" name="LNABLA"> F  </i>
   <i type="logical" name="LVEL"> F  </i>
   <i type="int" name="KINTER">     0</i>
   <i name="CSHIFT">      0.10000000</i>
   <i name="OMEGAMAX">     -1.00000000</i>
   <i name="DEG_THRESHOLD">      0.00200000</i>
   <i name="RTIME">     -0.10000000</i>
   <i name="WPLASMAI">      0.00000000</i>
   <v name="DFIELD">      0.00000000      0.00000000      0.00000000</v>
   <v name="WPLASMA">      0.00000000      0.00000000      0.00000000      0.00000000      0.00000000      0.00000000      0.00000000      0.00000000      0.00000000</v>
  </separator>
  <separator name="orbital magnetization" >
   <i type="logical" name="NUCIND"> F  </i>
   <v name="MAGPOS">      0.00000000      0.00000000      0.00000000</v>
   <i type="logical" name="LNICSALL"> T  </i>
   <i type="logical" name="ORBITALMAG"> F  </i>
   <i type="logical" name="LMAGBLOCH"> F  </i>
   <i type="logical" name="LCHIMAG"> F  </i>
   <i type="logical" name="LGAUGE"> T  </i>
   <i type="int" name="MAGATOM">     0</i>
   <v name="MAGDIPOL">      0.00000000      0.00000000      0.00000000</v>
   <v name="AVECCONST">      0.00000000      0.00000000      0.00000000</v>
  </separator>
  <separator name="response functions" >
   <i type="logical" name="LADDER"> F  </i>
   <i type="logical" name="LRPAFORCE"> F  </i>
   <i type="logical" name="LFXC"> F  </i>
   <i type="logical" name="LHARTREE"> T  </i>
   <i type="int" name="IBSE">     0</i>
   <v type="int" name="KPOINT">    -1     0     0     0</v>
   <i type="logical" name="LTCTE"> F  </i>
   <i type="logical" name="LTETE"> F  </i>
   <i type="logical" name="LTRIPLET"> F  </i>
   <i type="logical" name="LFXCEPS"> F  </i>
   <i type="logical" name="LFXHEG"> F  </i>
   <i type="int" name="NATURALO">     2</i>
   <i type="logical" name="L2ORDER"> F  </i>
   <i type="logical" name="LMP2LT"> F  </i>
   <i type="logical" name="LUSEW"> F  </i>
   <i name="ENCUTGW">     -2.00000000</i>
   <i name="ENCUTGWSOFT">     -2.00000000</i>
   <i name="ENCUTLF">     -1.00000000</i>
   <i type="int" name="LMAXMP2">    -1</i>
   <i name="SCISSOR">      0.00000000</i>
   <i type="int" name="NOMEGA">     0</i>
   <i type="int" name="NOMEGAR">     0</i>
   <i type="int" name="NBANDSGW">    -1</i>
   <i type="int" name="NBANDSO">    -1</i>
   <i type="int" name="NBANDSV">    -1</i>
   <i type="int" name="NELM">     1</i>
   <i type="int" name="NELMHF">     1</i>
   <i type="int" name="DIM">     3</i>
   <i type="int" name="ANTIRES">     0</i>
   <i name="OMEGAMAX">    -30.00000000</i>
   <i name="OMEGAMIN">    -30.00000000</i>
   <i name="OMEGATL">   -200.00000000</i>
   <i type="int" name="OMEGAGRID">   140</i>
   <i name="CSHIFT">     -0.10000000</i>
   <i type="logical" name="SELFENERGY"> F  </i>
   <i type="logical" name="LSPECTRAL"> F  </i>
   <i type="logical" name="LSPECTRALGW"> F  </i>
   <i type="logical" name="LSINGLES"> F  </i>
   <i type="logical" name="LFERMIGW"> F  </i>
   <i type="logical" name="ODDONLYGW"> F  </i>
   <i type="logical" name="EVENONLYGW"> F  </i>
   <i type="int" name="NKREDLFX">     1</i>
   <i type="int" name="NKREDLFY">     1</i>
   <i type="int" name="NKREDLFZ">     1</i>
   <i type="int" name="MAXMEM">  2800</i>
   <i type="int" name="TELESCOPE">     0</i>
   <i type="int" name="TAUPAR">     1</i>
   <i type="int" name="OMEGAPAR">    -1</i>
   <i name="LAMBDA">      1.00000000</i>
  </separator>
  <separator name="External order field" >
   <i name="OFIELD_KAPPA">      0.00000000</i>
   <v name="OFIELD_K">      0.00000000      0.00000000      0.00000000</v>
   <i name="OFIELD_Q6_NEAR">      0.00000000</i>
   <i name="OFIELD_Q6_FAR">      0.00000000</i>
   <i name="OFIELD_A">      0.00000000</i>
  </separator>
 </parameters>
 <atominfo>
  <atoms>      26 </atoms>
  <types>       3 </types>
  <array name="atoms" >
   <dimension dim="1">ion</dimension>
   <field type="string">element</field>
   <field type="int">atomtype</field>
   <set>
    <rc><c>Si</c><c>   1</c></rc>
    <rc><c>Si</c><c>   1</c></rc>
    <rc><c>Si</c><c>   1</c></rc>
    <rc><c>Si</c><c>   1</c></rc>
    <rc><c>Si</c><c>   1</c></rc>
    <rc><c>Ge</c><c>   2</c></rc>
    <rc><c>Ge</c><c>   2</c></rc>
    <rc><c>Ge</c><c>   2</c></rc>
    <rc><c>Ge</c><c>   2</c></rc>
    <rc><c>Ge</c><c>   2</c></rc>
    <rc><c>H </c><c>   3</c></rc>
    <rc><c>H </c><c>   3</c></rc>
    <rc><c>H </c><c>   3</c></rc>
    <rc><c>H </c><c>   3</c></rc>
    <rc><c>H </c><c>   3</c></rc>
    <rc><c>H </c><c>   3</c></rc>
    <rc><c>H </c><c>   3</c></rc>
    <rc><c>H </c><c>   3</c></rc>
    <rc><c>H </c><c>   3</c></rc>
    <rc><c>H </c><c>   3</c></rc>
    <rc><c>H </c><c>   3</c></rc>
    <rc><c>H </c><c>   3</c></rc>
    <rc><c>H </c><c>   3</c></rc>
    <rc><c>H </c><c>   3</c></rc>
    <rc><c>H </c><c>   3</c></rc>
    <rc><c>H </c><c>   3</c></rc>
   </set>
  </array>
  <array name="atomtypes" >
   <dimension dim="1">type</dimension>
   <field type="int">atomspertype</field>
   <field type="string">element</field>
   <field>mass</field>
   <field>valence</field>
   <field type="string">pseudopotential</field>
   <set>
    <rc><c>   5</c><c>Si</c><c>     28.08500000</c><c>      4.00000000</c><c>  PAW_PBE Si 05Jan2001                  </c></rc>
    <rc><c>   5</c><c>Ge</c><c>     72.61000000</c><c>      4.00000000</c><c>  PAW_PBE Ge 05Jan2001                  </c></rc>
    <rc><c>  16</c><c>H </c><c>      1.00000000</c><c>      1.00000000</c><c>  PAW_PBE H 15Jun2001                   </c></rc>
   </set>
  </array>
 </atominfo>
 <structure name="initialpos" >
  <crystal>
   <varray name="basis" >
    <v>      20.00000000       0.00000000       0.00000000 </v>
    <v>       0.00000000      20.00000000       0.00000000 </v>
    <v>       0.00000000       0.00000000      20.00000000 </v>
   </varray>
   <i name="volume">   8000.00000000 </i>
   <varray name="rec_basis" >
    <v>       0.05000000       0.00000000       0.00000000 </v>
    <v>       0.00000000       0.05000000       0.00000000 </v>
    <v>       0.00000000       0.00000000       0.05000000 </v>
   </varray>
  </crystal>
  <varray name="positions" >
   <v>       0.47380427       0.55633722       0.38431961 </v>
   <v>       0.36918482       0.53905428       0.43481175 </v>
   <v>       0.55651416       0.43197376       0.51308244 </v>
   <v>       0.54767852       0.62509886       0.55428987 </v>
   <v>       0.45190140       0.41467384       0.56357987 </v>
   <v>       0.54068483       0.45717357       0.39658616 </v>
   <v>       0.53051913       0.64805176       0.43763162 </v>
   <v>       0.38473417       0.51352341       0.55118506 </v>
   <v>       0.61259884       0.52463793       0.56540677 </v>
   <v>       0.44090159       0.60784301       0.60621195 </v>
   <v>       0.41704169       0.35647205       0.53175430 </v>
   <v>       0.46040385       0.39926972       0.63641090 </v>
   <v>       0.59899795       0.37047804       0.51965083 </v>
   <v>       0.68245306       0.53466912       0.53246202 </v>
   <v>       0.62494058       0.50908260       0.64073590 </v>
   <v>       0.60988622       0.46790167       0.36249304 </v>
   <v>       0.50651443       0.39712849       0.36053884 </v>
   <v>       0.46520091       0.57164378       0.31137210 </v>
   <v>       0.58352692       0.68251362       0.58669462 </v>
   <v>       0.44939051       0.59247942       0.68211075 </v>
   <v>       0.39671858       0.67171057       0.60008508 </v>
   <v>       0.31528323       0.50240999       0.58507130 </v>
   <v>       0.33322061       0.48250057       0.40128922 </v>
   <v>       0.32666872       0.60039623       0.42819799 </v>
   <v>       0.48904714       0.71345007       0.42915188 </v>
   <v>       0.59915389       0.65992643       0.40279314 </v>
  </varray>
 </structure>
 <calculation>
  <scstep>
   <time name="dav">   19.80   19.79</time>
   <time name="total">   21.62   21.62</time>
   <energy>
    <i name="alphaZ">      2.23981092 </i>
    <i name="ewald">   2624.18976636 </i>
    <i name="hartreedc">  -3433.15882325 </i>
    <i name="XCdc">    -51.10241220 </i>
    <i name="pawpsdc">    915.48941305 </i>
    <i name="pawaedc">   -755.22719771 </i>
    <i name="eentropy">     -0.40500473 </i>
    <i name="bandstr">   -296.58233438 </i>
    <i name="atom">   1239.96520364 </i>
    <i name="e_fr_energy">    245.40842169 </i>
    <i name="e_wo_entrp">    245.81342642 </i>
    <i name="e_0_energy">    245.61092406 </i>
   </energy>
  </scstep>
  <scstep>
   <time name="dav">   24.79   24.90</time>
   <time name="total">   24.79   24.90</time>
   <energy>
    <i name="e_fr_energy">    -22.48532555 </i>
    <i name="e_wo_entrp">    -22.48532555 </i>
    <i name="e_0_energy">    -22.48532555 </i>
   </energy>
  </scstep>
  <scstep>
   <time name="dav">   20.05   20.05</time>
   <time name="total">   20.05   20.05</time>
   <energy>
    <i name="e_fr_energy">   -102.30642626 </i>
    <i name="e_wo_entrp">   -102.30642626 </i>
    <i name="e_0_energy">   -102.30642626 </i>
   </energy>
  </scstep>
  <scstep>
   <time name="dav">   20.04   20.03</time>
   <time name="total">   20.04   20.03</time>
   <energy>
    <i name="e_fr_energy">   -106.19048600 </i>
    <i name="e_wo_entrp">   -106.19048600 </i>
    <i name="e_0_energy">   -106.19048600 </i>
   </energy>
  </scstep>
  <scstep>
   <time name="dav">   24.78   24.77</time>
   <time name="total">   25.35   25.34</time>
   <energy>
    <i name="e_fr_energy">   -106.26870625 </i>
    <i name="e_wo_entrp">   -106.26870625 </i>
    <i name="e_0_energy">   -106.26870625 </i>
   </energy>
  </scstep>
  <scstep>
   <time name="dav">   18.46   18.45</time>
   <time name="total">   20.78   20.79</time>
   <energy>
    <i name="e_fr_energy">   -102.86408632 </i>
    <i name="e_wo_entrp">   -102.86408632 </i>
    <i name="e_0_energy">   -102.86408632 </i>
   </energy>
  </scstep>
  <scstep>
   <time name="dav">   20.03   20.02</time>
   <time name="total">   22.37   22.36</time>
   <energy>
    <i name="e_fr_energy">   -101.12545725 </i>
    <i name="e_wo_entrp">   -101.12545725 </i>
    <i name="e_0_energy">   -101.12545725 </i>
   </energy>
  </scstep>
  <scstep>
   <time name="dav">   21.61   21.61</time>
   <time name="total">   23.94   23.94</time>
   <energy>
    <i name="e_fr_energy">   -101.06811184 </i>
    <i name="e_wo_entrp">   -101.06811184 </i>
    <i name="e_0_energy">   -101.06811184 </i>
   </energy>
  </scstep>
  <scstep>
   <time name="dav">   23.20   23.19</time>
   <time name="total">   25.55   25.54</time>
   <energy>
    <i name="e_fr_energy">   -101.03426786 </i>
    <i name="e_wo_entrp">   -101.03426786 </i>
    <i name="e_0_energy">   -101.03426786 </i>
   </energy>
  </scstep>
  <scstep>
   <time name="dav">   20.04   20.03</time>
   <time name="total">   22.40   22.39</time>
   <energy>
    <i name="e_fr_energy">   -101.03312505 </i>
    <i name="e_wo_entrp">   -101.03312505 </i>
    <i name="e_0_energy">   -101.03312505 </i>
   </energy>
  </scstep>
  <scstep>
   <time name="dav">   20.08   20.08</time>
   <time name="total">   22.45   22.45</time>
   <energy>
    <i name="e_fr_energy">   -101.03215297 </i>
    <i name="e_wo_entrp">   -101.03215297 </i>
    <i name="e_0_energy">   -101.03215297 </i>
   </energy>
  </scstep>
  <scstep>
   <time name="dav">   21.66   21.66</time>
   <time name="total">   24.05   24.05</time>
   <energy>
    <i name="e_fr_energy">   -101.03746780 </i>
    <i name="e_wo_entrp">   -101.03746780 </i>
    <i name="e_0_energy">   -101.03746780 </i>
   </energy>
  </scstep>
  <scstep>
   <time name="dav">   21.66   21.65</time>
   <time name="total">   24.05   24.04</time>
   <energy>
    <i name="e_fr_energy">   -101.04132330 </i>
    <i name="e_wo_entrp">   -101.04132330 </i>
    <i name="e_0_energy">   -101.04132330 </i>
   </energy>
  </scstep>
  <scstep>
   <time name="dav">   23.26   23.26</time>
   <time name="total">   25.64   25.64</time>
   <energy>
    <i name="e_fr_energy">   -101.04433196 </i>
    <i name="e_wo_entrp">   -101.04433196 </i>
    <i name="e_0_energy">   -101.04433196 </i>
   </energy>
  </scstep>
  <scstep>
   <time name="dav">   16.88   16.88</time>
   <time name="total">   19.29   19.29</time>
   <energy>
    <i name="e_fr_energy">   -101.04928737 </i>
    <i name="e_wo_entrp">   -101.04928737 </i>
    <i name="e_0_energy">   -101.04928737 </i>
   </energy>
  </scstep>
  <scstep>
   <time name="dav">   21.59   21.59</time>
   <time name="total">   23.99   23.99</time>
   <energy>
    <i name="e_fr_energy">   -101.05084919 </i>
    <i name="e_wo_entrp">   -101.05084919 </i>
    <i name="e_0_energy">   -101.05084919 </i>
   </energy>
  </scstep>
  <scstep>
   <time name="dav">   21.61   21.60</time>
   <time name="total">   24.01   24.00</time>
   <energy>
    <i name="e_fr_energy">   -101.05205723 </i>
    <i name="e_wo_entrp">   -101.05205723 </i>
    <i name="e_0_energy">   -101.05205723 </i>
   </energy>
  </scstep>
  <scstep>
   <time name="dav">   21.61   21.60</time>
   <time name="total">   24.05   24.04</time>
   <energy>
    <i name="e_fr_energy">   -101.05235289 </i>
    <i name="e_wo_entrp">   -101.05235289 </i>
    <i name="e_0_energy">   -101.05235289 </i>
   </energy>
  </scstep>
  <scstep>
   <time name="dav">   18.44   18.43</time>
   <time name="total">   20.87   20.86</time>
   <energy>
    <i name="e_fr_energy">   -101.05257388 </i>
    <i name="e_wo_entrp">   -101.05257388 </i>
    <i name="e_0_energy">   -101.05257388 </i>
   </energy>
  </scstep>
  <scstep>
   <time name="dav">   18.46   18.45</time>
   <time name="total">   20.89   20.89</time>
   <energy>
    <i name="e_fr_energy">   -101.05262727 </i>
    <i name="e_wo_entrp">   -101.05262727 </i>
    <i name="e_0_energy">   -101.05262727 </i>
   </energy>
  </scstep>
  <scstep>
   <time name="dav">   16.91   16.91</time>
   <time name="total">   19.38   19.37</time>
   <energy>
    <i name="e_fr_energy">   -101.05265358 </i>
    <i name="e_wo_entrp">   -101.05265358 </i>
    <i name="e_0_energy">   -101.05265358 </i>
   </energy>
  </scstep>
  <scstep>
   <time name="dav">   16.88   16.87</time>
   <time name="total">   19.33   19.32</time>
   <energy>
    <i name="e_fr_energy">   -101.05266856 </i>
    <i name="e_wo_entrp">   -101.05266856 </i>
    <i name="e_0_energy">   -101.05266856 </i>
   </energy>
  </scstep>
  <scstep>
   <time name="dav">   18.48   18.48</time>
   <time name="total">   20.94   20.94</time>
   <energy>
    <i name="e_fr_energy">   -101.05267199 </i>
    <i name="e_wo_entrp">   -101.05267199 </i>
    <i name="e_0_energy">   -101.05267199 </i>
   </energy>
  </scstep>
  <scstep>
   <time name="dav">   15.30   15.30</time>
   <time name="total">   17.79   17.78</time>
   <energy>
    <i name="e_fr_energy">   -101.05267578 </i>
    <i name="e_wo_entrp">   -101.05267578 </i>
    <i name="e_0_energy">   -101.05267578 </i>
   </energy>
  </scstep>
  <scstep>
   <time name="dav">   18.47   18.46</time>
   <time name="total">   20.28   20.27</time>
   <energy>
    <i name="alphaZ">      2.23981092 </i>
    <i name="ewald">   2624.18976636 </i>
    <i name="hartreedc">  -3556.78436173 </i>
    <i name="XCdc">    -40.55614865 </i>
    <i name="pawpsdc">   3888.86713803 </i>
    <i name="pawaedc">  -3730.45447641 </i>
    <i name="eentropy">     -0.00000000 </i>
    <i name="bandstr">   -528.51960862 </i>
    <i name="atom">   1239.96520364 </i>
    <i name="e_fr_energy">   -101.05267646 </i>
    <i name="e_wo_entrp">   -101.05267646 </i>
    <i name="e_0_energy">   -101.05267646 </i>
   </energy>
  </scstep>
  <structure>
   <crystal>
    <varray name="basis" >
     <v>      20.00000000       0.00000000       0.00000000 </v>
     <v>       0.00000000      20.00000000       0.00000000 </v>
     <v>       0.00000000       0.00000000      20.00000000 </v>
    </varray>
    <i name="volume">   8000.00000000 </i>
    <varray name="rec_basis" >
     <v>       0.05000000       0.00000000       0.00000000 </v>
     <v>       0.00000000       0.05000000       0.00000000 </v>
     <v>       0.00000000       0.00000000       0.05000000 </v>
    </varray>
   </crystal>
   <varray name="positions" >
    <v>       0.47380427       0.55633722       0.38431961 </v>
    <v>       0.36918482       0.53905428       0.43481175 </v>
    <v>       0.55651416       0.43197376       0.51308244 </v>
    <v>       0.54767852       0.62509886       0.55428987 </v>
    <v>       0.45190140       0.41467384       0.56357987 </v>
    <v>       0.54068483       0.45717357       0.39658616 </v>
    <v>       0.53051913       0.64805176       0.43763162 </v>
    <v>       0.38473417       0.51352341       0.55118506 </v>
    <v>       0.61259884       0.52463793       0.56540677 </v>
    <v>       0.44090159       0.60784301       0.60621195 </v>
    <v>       0.41704169       0.35647205       0.53175430 </v>
    <v>       0.46040385       0.39926972       0.63641090 </v>
    <v>       0.59899795       0.37047804       0.51965083 </v>
    <v>       0.68245306       0.53466912       0.53246202 </v>
    <v>       0.62494058       0.50908260       0.64073590 </v>
    <v>       0.60988622       0.46790167       0.36249304 </v>
    <v>       0.50651443       0.39712849       0.36053884 </v>
    <v>       0.46520091       0.57164378       0.31137210 </v>
    <v>       0.58352692       0.68251362       0.58669462 </v>
    <v>       0.44939051       0.59247942       0.68211075 </v>
    <v>       0.39671858       0.67171057       0.60008508 </v>
    <v>       0.31528323       0.50240999       0.58507130 </v>
    <v>       0.33322061       0.48250057       0.40128922 </v>
    <v>       0.32666872       0.60039623       0.42819799 </v>
    <v>       0.48904714       0.71345007       0.42915188 </v>
    <v>       0.59915389       0.65992643       0.40279314 </v>
   </varray>
  </structure>
  <varray name="forces" >
   <v>       0.00248369      -0.01066475       0.00673562 </v>
   <v>      -0.00311279       0.01292248      -0.00595434 </v>
   <v>      -0.00773621       0.00488526      -0.00912785 </v>
   <v>      -0.00799911       0.00078092       0.00583113 </v>
   <v>       0.00798916      -0.00416907       0.01075101 </v>
   <v>      -0.00080407       0.00977286       0.00982580 </v>
   <v>      -0.00374354      -0.00619132       0.00105770 </v>
   <v>       0.00058596       0.00365175       0.00317662 </v>
   <v>      -0.00634091      -0.00220752      -0.00292760 </v>
   <v>       0.00332415       0.00009877      -0.00209483 </v>
   <v>       0.00371143       0.00049061      -0.00490097 </v>
   <v>      -0.00052233       0.00098523       0.00150391 </v>
   <v>       0.00994047      -0.01199377       0.00545106 </v>
   <v>       0.00410906      -0.00280437      -0.00513858 </v>
   <v>      -0.00510039       0.00044943       0.00082435 </v>
   <v>       0.00128165       0.00114704       0.00021963 </v>
   <v>      -0.00189958       0.00844210       0.00940490 </v>
   <v>      -0.00305105       0.00713405      -0.01456551 </v>
   <v>       0.00643489       0.00110453      -0.00325705 </v>
   <v>      -0.00230628       0.00363710      -0.00544175 </v>
   <v>       0.00381417      -0.00513394       0.00384390 </v>
   <v>      -0.00680361      -0.00666047      -0.00196900 </v>
   <v>       0.00486024      -0.00201823      -0.00270252 </v>
   <v>      -0.00003660       0.00109705       0.00173182 </v>
   <v>      -0.00322160      -0.00185945       0.00324000 </v>
   <v>       0.00414320      -0.00289628      -0.00551744 </v>
  </varray>
  <varray name="stress" >
   <v>      -0.17440260      -0.00655005      -0.00051091 </v>
   <v>      -0.00655006      -0.18211612      -0.01117403 </v>
   <v>      -0.00051091      -0.01117403      -0.17613337 </v>
  </varray>
  <energy>
   <i name="e_fr_energy">   -101.05267646 </i>
   <i name="e_wo_entrp">   -101.05267646 </i>
   <i name="e_0_energy">     -0.00000000 </i>
  </energy>
  <kpoints>
   <generation param="Gamma">
    <v type="int" name="divisions">       1        1        1 </v>
    <v name="usershift">      0.00000000       0.00000000       0.00000000 </v>
    <v name="genvec1">      1.00000000       0.00000000       0.00000000 </v>
    <v name="genvec2">      0.00000000       1.00000000       0.00000000 </v>
    <v name="genvec3">      0.00000000       0.00000000       1.00000000 </v>
    <v name="shift">      0.00000000       0.00000000       0.00000000 </v>
   </generation>
   <varray name="kpointlist" >
    <v>       0.00000000       0.00000000       0.00000000 </v>
   </varray>
   <varray name="weights" >
    <v>       1.00000000 </v>
   </varray>
  </kpoints>
  <time name="totalsc">  589.40  589.41</time>
 </calculation>
 <calculation>
  <scstep>
   <time name="dav">   16.87   16.87</time>
   <time name="total">   19.22   19.22</time>
   <energy>
    <i name="alphaZ">      2.23981092 </i>
    <i name="ewald">   2624.40295937 </i>
    <i name="hartreedc">  -3557.01121841 </i>
    <i name="XCdc">    -40.55745954 </i>
    <i name="pawpsdc">   3888.85315238 </i>
    <i name="pawaedc">  -3730.44050007 </i>
    <i name="eentropy">     -0.00000000 </i>
    <i name="bandstr">   -528.50127949 </i>
    <i name="atom">   1239.96520364 </i>
    <i name="e_fr_energy">   -101.04933121 </i>
    <i name="e_wo_entrp">   -101.04933121 </i>
    <i name="e_0_energy">   -101.04933121 </i>
   </energy>
  </scstep>
  <scstep>
   <time name="dav">   20.05   20.04</time>
   <time name="total">   22.41   22.41</time>
   <energy>
    <i name="e_fr_energy">   -101.04970258 </i>
    <i name="e_wo_entrp">   -101.04970258 </i>
    <i name="e_0_energy">   -101.04970258 </i>
   </energy>
  </scstep>
  <scstep>
   <time name="dav">   23.22   23.21</time>
   <time name="total">   25.57   25.57</time>
   <energy>
    <i name="e_fr_energy">   -101.04969242 </i>
    <i name="e_wo_entrp">   -101.04969242 </i>
    <i name="e_0_energy">   -101.04969242 </i>
   </energy>
  </scstep>
  <scstep>
   <time name="dav">   21.65   21.64</time>
   <time name="total">   24.00   23.99</time>
   <energy>
    <i name="e_fr_energy">   -101.04969536 </i>
    <i name="e_wo_entrp">   -101.04969536 </i>
    <i name="e_0_energy">   -101.04969536 </i>
   </energy>
  </scstep>
  <scstep>
   <time name="dav">   23.21   23.21</time>
   <time name="total">   25.01   25.00</time>
   <energy>
    <i name="alphaZ">      2.23981092 </i>
    <i name="ewald">   2624.40295937 </i>
    <i name="hartreedc">  -3556.99043033 </i>
    <i name="XCdc">    -40.56038542 </i>
    <i name="pawpsdc">   3885.03175506 </i>
    <i name="pawaedc">  -3726.61886475 </i>
    <i name="eentropy">     -0.00000000 </i>
    <i name="bandstr">   -528.51974327 </i>
    <i name="atom">   1239.96520364 </i>
    <i name="e_fr_energy">   -101.04969479 </i>
    <i name="e_wo_entrp">   -101.04969478 </i>
    <i name="e_0_energy">   -101.04969478 </i>
   </energy>
  </scstep>
  <structure>
   <crystal>
    <varray name="basis" >
     <v>      20.00000000       0.00000000       0.00000000 </v>
     <v>       0.00000000      20.00000000       0.00000000 </v>
     <v>       0.00000000       0.00000000      20.00000000 </v>
    </varray>
    <i name="volume">   8000.00000000 </i>
    <varray name="rec_basis" >
     <v>       0.05000000       0.00000000       0.00000000 </v>
     <v>       0.00000000       0.05000000       0.00000000 </v>
     <v>       0.00000000       0.00000000       0.05000000 </v>
    </varray>
   </crystal>
   <varray name="positions" >
    <v>       0.47480427       0.55633722       0.38431961 </v>
    <v>       0.36918482       0.53905428       0.43481175 </v>
    <v>       0.55651416       0.43197376       0.51308244 </v>
    <v>       0.54767852       0.62509886       0.55428987 </v>
    <v>       0.45190140       0.41467384       0.56357987 </v>
    <v>       0.54068483       0.45717357       0.39658616 </v>
    <v>       0.53051913       0.64805176       0.43763162 </v>
    <v>       0.38473417       0.51352341       0.55118506 </v>
    <v>       0.61259884       0.52463793       0.56540677 </v>
    <v>       0.44090159       0.60784301       0.60621195 </v>
    <v>       0.41704169       0.35647205       0.53175430 </v>
    <v>       0.46040385       0.39926972       0.63641090 </v>
    <v>       0.59899795       0.37047804       0.51965083 </v>
    <v>       0.68245306       0.53466912       0.53246202 </v>
    <v>       0.62494058       0.50908260       0.64073590 </v>
    <v>       0.60988622       0.46790167       0.36249304 </v>
    <v>       0.50651443       0.39712849       0.36053884 </v>
    <v>       0.46520091       0.57164378       0.31137210 </v>
    <v>       0.58352692       0.68251362       0.58669462 </v>
    <v>       0.44939051       0.59247942       0.68211075 </v>
    <v>       0.39671858       0.67171057       0.60008508 </v>
    <v>       0.31528323       0.50240999       0.58507130 </v>
    <v>       0.33322061       0.48250057       0.40128922 </v>
    <v>       0.32666872       0.60039623       0.42819799 </v>
    <v>       0.48904714       0.71345007       0.42915188 </v>
    <v>       0.59915389       0.65992643       0.40279314 </v>
   </varray>
  </structure>
  <varray name="forces" >
   <v>      -0.29914037      -0.00785807      -0.00946015 </v>
   <v>       0.13658451       0.02943302      -0.05178749 </v>
   <v>      -0.00830816       0.00453609      -0.00532797 </v>
   <v>      -0.00837751       0.00015029       0.00900209 </v>
   <v>       0.00488315      -0.00189736       0.01222006 </v>
   <v>       0.06769644      -0.05289311       0.01344499 </v>
   <v>       0.05230725       0.04395848       0.02608022 </v>
   <v>      -0.00776466       0.00459555      -0.00357208 </v>
   <v>      -0.00518774      -0.00172114      -0.00370965 </v>
   <v>       0.00090815      -0.00274677      -0.00190182 </v>
   <v>       0.00439834       0.00006844      -0.00516905 </v>
   <v>       0.00113517      -0.00002478       0.00124493 </v>
   <v>       0.00993135      -0.01132802       0.00309962 </v>
   <v>       0.00406513      -0.00288373      -0.00511119 </v>
   <v>      -0.00557620       0.00038731       0.00047110 </v>
   <v>       0.00855767      -0.01002432       0.00218116 </v>
   <v>      -0.00618318       0.01741920       0.00906616 </v>
   <v>       0.02790467       0.00025714       0.01843529 </v>
   <v>       0.00652861       0.00132213      -0.00517913 </v>
   <v>      -0.00100264       0.00473656      -0.00521109 </v>
   <v>       0.00444385      -0.00459131       0.00382360 </v>
   <v>      -0.00618534      -0.00796078       0.00384229 </v>
   <v>       0.00919512      -0.00080076      -0.00474150 </v>
   <v>       0.00581486       0.00165764      -0.00127218 </v>
   <v>      -0.00720059      -0.01106928      -0.00137370 </v>
   <v>       0.01057212       0.00727760       0.00090549 </v>
  </varray>
  <varray name="stress" >
   <v>      -0.20162677      -0.01926999       0.02908832 </v>
   <v>      -0.01926999      -0.14458431       0.00072091 </v>
   <v>       0.02908831       0.00072092      -0.18947227 </v>
  </varray>
  <energy>
   <i name="e_fr_energy">   -101.04969479 </i>
   <i name="e_wo_entrp">   -101.04969478 </i>
   <i name="e_0_energy">     -0.00000000 </i>
  </energy>
  <kpoints>
   <generation param="Gamma">
    <v type="int" name="divisions">       1        1        1 </v>
    <v name="usershift">      0.00000000       0.00000000       0.00000000 </v>
    <v name="genvec1">      1.00000000       0.00000000       0.00000000 </v>
    <v name="genvec2">      0.00000000       1.00000000       0.00000000 </v>
    <v name="genvec3">      0.00000000       0.00000000       1.00000000 </v>
    <v name="shift">      0.00000000       0.00000000       0.00000000 </v>
   </generation>
   <varray name="kpointlist" >
    <v>       0.00000000       0.00000000       0.00000000 </v>
   </varray>
   <varray name="weights" >
    <v>       1.00000000 </v>
   </varray>
  </kpoints>
  <time name="totalsc">  151.48  151.45</time>
 </calculation>
 <calculation>
  <scstep>
   <time name="dav">   16.86   16.85</time>
   <time name="total">   19.19   19.19</time>
   <energy>
    <i name="alphaZ">      2.23981092 </i>
    <i name="ewald">   2623.97543185 </i>
    <i name="hartreedc">  -3556.52646319 </i>
    <i name="XCdc">    -40.55800991 </i>
    <i name="pawpsdc">   3884.89914274 </i>
    <i name="pawaedc">  -3726.48625759 </i>
    <i name="eentropy">     -0.00000000 </i>
    <i name="bandstr">   -528.55692991 </i>
    <i name="atom">   1239.96520364 </i>
    <i name="e_fr_energy">   -101.04807145 </i>
    <i name="e_wo_entrp">   -101.04807145 </i>
    <i name="e_0_energy">   -101.04807145 </i>
   </energy>
  </scstep>
  <scstep>
   <time name="dav">   20.00   20.00</time>
   <time name="total">   22.37   22.36</time>
   <energy>
    <i name="e_fr_energy">   -101.04955689 </i>
    <i name="e_wo_entrp">   -101.04955689 </i>
    <i name="e_0_energy">   -101.04955689 </i>
   </energy>
  </scstep>
  <scstep>
   <time name="dav">   21.60   21.59</time>
   <time name="total">   23.97   23.97</time>
   <energy>
    <i name="e_fr_energy">   -101.04952897 </i>
    <i name="e_wo_entrp">   -101.04952897 </i>
    <i name="e_0_energy">   -101.04952897 </i>
   </energy>
  </scstep>
  <scstep>
   <time name="dav">   21.59   21.58</time>
   <time name="total">   24.03   24.03</time>
   <energy>
    <i name="e_fr_energy">   -101.04954305 </i>
    <i name="e_wo_entrp">   -101.04954305 </i>
    <i name="e_0_energy">   -101.04954305 </i>
   </energy>
  </scstep>
  <scstep>
   <time name="dav">   21.60   21.59</time>
   <time name="total">   23.96   23.95</time>
   <energy>
    <i name="e_fr_energy">   -101.04953980 </i>
    <i name="e_wo_entrp">   -101.04953980 </i>
    <i name="e_0_energy">   -101.04953980 </i>
   </energy>
  </scstep>
  <scstep>
   <time name="dav">   21.59   21.58</time>
   <time name="total">   23.37   23.37</time>
   <energy>
    <i name="alphaZ">      2.23981092 </i>
    <i name="ewald">   2623.97543185 </i>
    <i name="hartreedc">  -3556.56901568 </i>
    <i name="XCdc">    -40.55233288 </i>
    <i name="pawpsdc">   3893.12243042 </i>
    <i name="pawaedc">  -3734.71027241 </i>
    <i name="eentropy">     -0.00000000 </i>
    <i name="bandstr">   -528.52079521 </i>
    <i name="atom">   1239.96520364 </i>
    <i name="e_fr_energy">   -101.04953936 </i>
    <i name="e_wo_entrp">   -101.04953936 </i>
    <i name="e_0_energy">   -101.04953936 </i>
   </energy>
  </scstep>
  <structure>
   <crystal>
    <varray name="basis" >
     <v>      20.00000000       0.00000000       0.00000000 </v>
     <v>       0.00000000      20.00000000       0.00000000 </v>
     <v>       0.00000000       0.00000000      20.00000000 </v>
    </varray>
    <i name="volume">   8000.00000000 </i>
    <varray name="rec_basis" >
     <v>       0.05000000       0.00000000       0.00000000 </v>
     <v>       0.00000000       0.05000000       0.00000000 </v>
     <v>       0.00000000       0.00000000       0.05000000 </v>
    </varray>
   </crystal>
   <varray name="positions" >
    <v>       0.47280427       0.55633722       0.38431961 </v>
    <v>       0.36918482       0.53905428       0.43481175 </v>
    <v>       0.55651416       0.43197376       0.51308244 </v>
    <v>       0.54767852       0.62509886       0.55428987 </v>
    <v>       0.45190140       0.41467384       0.56357987 </v>
    <v>       0.54068483       0.45717357       0.39658616 </v>
    <v>       0.53051913       0.64805176       0.43763162 </v>
    <v>       0.38473417       0.51352341       0.55118506 </v>
    <v>       0.61259884       0.52463793       0.56540677 </v>
    <v>       0.44090159       0.60784301       0.60621195 </v>
    <v>       0.41704169       0.35647205       0.53175430 </v>
    <v>       0.46040385       0.39926972       0.63641090 </v>
    <v>       0.59899795       0.37047804       0.51965083 </v>
    <v>       0.68245306       0.53466912       0.53246202 </v>
    <v>       0.62494058       0.50908260       0.64073590 </v>
    <v>       0.60988622       0.46790167       0.36249304 </v>
    <v>       0.50651443       0.39712849       0.36053884 </v>
    <v>       0.46520091       0.57164378       0.31137210 </v>
    <v>       0.58352692       0.68251362       0.58669462 </v>
    <v>       0.44939051       0.59247942       0.68211075 </v>
    <v>       0.39671858       0.67171057       0.60008508 </v>
    <v>       0.31528323       0.50240999       0.58507130 </v>
    <v>       0.33322061       0.48250057       0.40128922 </v>
    <v>       0.32666872       0.60039623       0.42819799 </v>
    <v>       0.48904714       0.71345007       0.42915188 </v>
    <v>       0.59915389       0.65992643       0.40279314 </v>
   </varray>
  </structure>
  <varray name="forces" >
   <v>       0.31040459      -0.00948176       0.01289944 </v>
   <v>      -0.15149441      -0.00531011       0.04475348 </v>
   <v>      -0.00715459       0.00520470      -0.01292000 </v>
   <v>      -0.00759052       0.00143605       0.00267806 </v>
   <v>       0.01104307      -0.00642668       0.00919220 </v>
   <v>      -0.06866008       0.06912837       0.00699681 </v>
   <v>      -0.05992688      -0.05459277      -0.02245145 </v>
   <v>       0.00897980       0.00270465       0.00997766 </v>
   <v>      -0.00752572      -0.00267838      -0.00214946 </v>
   <v>       0.00571660       0.00296125      -0.00231618 </v>
   <v>       0.00302920       0.00091413      -0.00463598 </v>
   <v>      -0.00218648       0.00201203       0.00176847 </v>
   <v>       0.00997496      -0.01266486       0.00783917 </v>
   <v>       0.00421399      -0.00272832      -0.00518500 </v>
   <v>      -0.00461595       0.00049674       0.00120831 </v>
   <v>      -0.00532279       0.01202306      -0.00196846 </v>
   <v>       0.00233888      -0.00048428       0.00966960 </v>
   <v>      -0.03334805       0.01328843      -0.04444413 </v>
   <v>       0.00636520       0.00085921      -0.00130641 </v>
   <v>      -0.00361137       0.00254883      -0.00569434 </v>
   <v>       0.00320654      -0.00568547       0.00387444 </v>
   <v>      -0.00745929      -0.00536173      -0.00778956 </v>
   <v>       0.00049294      -0.00302019      -0.00047664 </v>
   <v>      -0.00583612       0.00024059       0.00477542 </v>
   <v>       0.00068947       0.00732025       0.00774776 </v>
   <v>      -0.00172299      -0.01270375      -0.01204320 </v>
  </varray>
  <varray name="stress" >
   <v>      -0.14522748       0.00654084      -0.03216046 </v>
   <v>       0.00654082      -0.21785683      -0.02302247 </v>
   <v>      -0.03216048      -0.02302245      -0.16246637 </v>
  </varray>
  <energy>
   <i name="e_fr_energy">   -101.04953936 </i>
   <i name="e_wo_entrp">   -101.04953936 </i>
   <i name="e_0_energy">     -0.00000000 </i>
  </energy>
  <kpoints>
   <generation param="Gamma">
    <v type="int" name="divisions">       1        1        1 </v>
    <v name="usershift">      0.00000000       0.00000000       0.00000000 </v>
    <v name="genvec1">      1.00000000       0.00000000       0.00000000 </v>
    <v name="genvec2">      0.00000000       1.00000000       0.00000000 </v>
    <v name="genvec3">      0.00000000       0.00000000       1.00000000 </v>
    <v name="shift">      0.00000000       0.00000000       0.00000000 </v>
   </generation>
   <varray name="kpointlist" >
    <v>       0.00000000       0.00000000       0.00000000 </v>
   </varray>
   <varray name="weights" >
    <v>       1.00000000 </v>
   </varray>
  </kpoints>
  <time name="totalsc">  172.25  172.21</time>
 </calculation>
 <calculation>
  <scstep>
   <time name="dav">   16.86   16.86</time>
   <time name="total">   19.19   19.19</time>
   <energy>
    <i name="alphaZ">      2.23981092 </i>
    <i name="ewald">   2623.79963422 </i>
    <i name="hartreedc">  -3556.40748527 </i>
    <i name="XCdc">    -40.55527489 </i>
    <i name="pawpsdc">   3893.15991392 </i>
    <i name="pawaedc">  -3734.74775237 </i>
    <i name="eentropy">     -0.00000000 </i>
    <i name="bandstr">   -528.50284755 </i>
    <i name="atom">   1239.96520364 </i>
    <i name="e_fr_energy">   -101.04879737 </i>
    <i name="e_wo_entrp">   -101.04879737 </i>
    <i name="e_0_energy">   -101.04879737 </i>
   </energy>
  </scstep>
  <scstep>
   <time name="dav">   20.03   20.03</time>
   <time name="total">   22.37   22.37</time>
   <energy>
    <i name="e_fr_energy">   -101.04951111 </i>
    <i name="e_wo_entrp">   -101.04951111 </i>
    <i name="e_0_energy">   -101.04951111 </i>
   </energy>
  </scstep>
  <scstep>
   <time name="dav">   23.21   23.20</time>
   <time name="total">   25.56   25.56</time>
   <energy>
    <i name="e_fr_energy">   -101.04950314 </i>
    <i name="e_wo_entrp">   -101.04950314 </i>
    <i name="e_0_energy">   -101.04950314 </i>
   </energy>
  </scstep>
  <scstep>
   <time name="dav">   18.45   18.45</time>
   <time name="total">   20.81   20.81</time>
   <energy>
    <i name="e_fr_energy">   -101.04951493 </i>
    <i name="e_wo_entrp">   -101.04951493 </i>
    <i name="e_0_energy">   -101.04951493 </i>
   </energy>
  </scstep>
  <scstep>
   <time name="dav">   20.03   20.03</time>
   <time name="total">   22.40   22.39</time>
   <energy>
    <i name="e_fr_energy">   -101.04951473 </i>
    <i name="e_wo_entrp">   -101.04951473 </i>
    <i name="e_0_energy">   -101.04951473 </i>
   </energy>
  </scstep>
  <scstep>
   <time name="dav">   21.58   21.58</time>
   <time name="total">   23.37   23.37</time>
   <energy>
    <i name="alphaZ">      2.23981092 </i>
    <i name="ewald">   2623.79963422 </i>
    <i name="hartreedc">  -3556.40434044 </i>
    <i name="XCdc">    -40.55563372 </i>
    <i name="pawpsdc">   3888.41451831 </i>
    <i name="pawaedc">  -3730.00180113 </i>
    <i name="eentropy">     -0.00000000 </i>
    <i name="bandstr">   -528.50690705 </i>
    <i name="atom">   1239.96520364 </i>
    <i name="e_fr_energy">   -101.04951525 </i>
    <i name="e_wo_entrp">   -101.04951525 </i>
    <i name="e_0_energy">   -101.04951525 </i>
   </energy>
  </scstep>
  <structure>
   <crystal>
    <varray name="basis" >
     <v>      20.00000000       0.00000000       0.00000000 </v>
     <v>       0.00000000      20.00000000       0.00000000 </v>
     <v>       0.00000000       0.00000000      20.00000000 </v>
    </varray>
    <i name="volume">   8000.00000000 </i>
    <varray name="rec_basis" >
     <v>       0.05000000       0.00000000       0.00000000 </v>
     <v>       0.00000000       0.05000000       0.00000000 </v>
     <v>       0.00000000       0.00000000       0.05000000 </v>
    </varray>
   </crystal>
   <varray name="positions" >
    <v>       0.47380427       0.55733722       0.38431961 </v>
    <v>       0.36918482       0.53905428       0.43481175 </v>
    <v>       0.55651416       0.43197376       0.51308244 </v>
    <v>       0.54767852       0.62509886       0.55428987 </v>
    <v>       0.45190140       0.41467384       0.56357987 </v>
    <v>       0.54068483       0.45717357       0.39658616 </v>
    <v>       0.53051913       0.64805176       0.43763162 </v>
    <v>       0.38473417       0.51352341       0.55118506 </v>
    <v>       0.61259884       0.52463793       0.56540677 </v>
    <v>       0.44090159       0.60784301       0.60621195 </v>
    <v>       0.41704169       0.35647205       0.53175430 </v>
    <v>       0.46040385       0.39926972       0.63641090 </v>
    <v>       0.59899795       0.37047804       0.51965083 </v>
    <v>       0.68245306       0.53466912       0.53246202 </v>
    <v>       0.62494058       0.50908260       0.64073590 </v>
    <v>       0.60988622       0.46790167       0.36249304 </v>
    <v>       0.50651443       0.39712849       0.36053884 </v>
    <v>       0.46520091       0.57164378       0.31137210 </v>
    <v>       0.58352692       0.68251362       0.58669462 </v>
    <v>       0.44939051       0.59247942       0.68211075 </v>
    <v>       0.39671858       0.67171057       0.60008508 </v>
    <v>       0.31528323       0.50240999       0.58507130 </v>
    <v>       0.33322061       0.48250057       0.40128922 </v>
    <v>       0.32666872       0.60039623       0.42819799 </v>
    <v>       0.48904714       0.71345007       0.42915188 </v>
    <v>       0.59915389       0.65992643       0.40279314 </v>
   </varray>
  </structure>
  <varray name="forces" >
   <v>      -0.00215045      -0.30378442       0.03703453 </v>
   <v>       0.01759141       0.04708072      -0.01489625 </v>
   <v>      -0.00811335       0.00465572      -0.01485929 </v>
   <v>      -0.01005488      -0.00653853       0.01022719 </v>
   <v>       0.01053060      -0.00418450       0.01136883 </v>
   <v>      -0.06029841       0.12395494       0.00452347 </v>
   <v>       0.04540252       0.09958471       0.04065525 </v>
   <v>       0.00274850       0.00302747       0.00171015 </v>
   <v>      -0.00588247      -0.00638349      -0.00397082 </v>
   <v>       0.00055097      -0.00020820      -0.00243285 </v>
   <v>       0.00328404       0.00064955      -0.00486283 </v>
   <v>      -0.00154757       0.00093545       0.00190606 </v>
   <v>       0.01054553      -0.01253106       0.00897118 </v>
   <v>       0.00399407      -0.00187105      -0.00490188 </v>
   <v>      -0.00520638       0.00242798       0.00123605 </v>
   <v>       0.00622928      -0.00247759      -0.00018801 </v>
   <v>      -0.00789622       0.01503578       0.00743754 </v>
   <v>      -0.00924427       0.04436142      -0.07013618 </v>
   <v>       0.00557059       0.00252899      -0.00879441 </v>
   <v>      -0.00121730       0.00409614      -0.00580804 </v>
   <v>       0.00432546      -0.00490340       0.00390408 </v>
   <v>      -0.00696837      -0.00609360      -0.00228823 </v>
   <v>       0.01580780      -0.00076481      -0.00883780 </v>
   <v>      -0.01360794      -0.00220939       0.00873336 </v>
   <v>       0.00291409       0.00615371       0.00868220 </v>
   <v>       0.00269275      -0.00254256      -0.00441331 </v>
  </varray>
  <varray name="stress" >
   <v>      -0.18606302       0.03098368       0.01185850 </v>
   <v>       0.03098368      -0.18907004       0.00936425 </v>
   <v>       0.01185849       0.00936424      -0.15517705 </v>
  </varray>
  <energy>
   <i name="e_fr_energy">   -101.04951525 </i>
   <i name="e_wo_entrp">   -101.04951525 </i>
   <i name="e_0_energy">     -0.00000000 </i>
  </energy>
  <kpoints>
   <generation param="Gamma">
    <v type="int" name="divisions">       1        1        1 </v>
    <v name="usershift">      0.00000000       0.00000000       0.00000000 </v>
    <v name="genvec1">      1.00000000       0.00000000       0.00000000 </v>
    <v name="genvec2">      0.00000000       1.00000000       0.00000000 </v>
    <v name="genvec3">      0.00000000       0.00000000       1.00000000 </v>
    <v name="shift">      0.00000000       0.00000000       0.00000000 </v>
   </generation>
   <varray name="kpointlist" >
    <v>       0.00000000       0.00000000       0.00000000 </v>
   </varray>
   <varray name="weights" >
    <v>       1.00000000 </v>
   </varray>
  </kpoints>
  <time name="totalsc">  169.04  169.03</time>
 </calculation>
 <calculation>
  <scstep>
   <time name="dav">   16.86   16.86</time>
   <time name="total">   19.20   19.20</time>
   <energy>
    <i name="alphaZ">      2.23981092 </i>
    <i name="ewald">   2624.57729197 </i>
    <i name="hartreedc">  -3557.19015165 </i>
    <i name="XCdc">    -40.55200195 </i>
    <i name="pawpsdc">   3888.40047523 </i>
    <i name="pawaedc">  -3729.98774067 </i>
    <i name="eentropy">     -0.00000000 </i>
    <i name="bandstr">   -528.50126379 </i>
    <i name="atom">   1239.96520364 </i>
    <i name="e_fr_energy">   -101.04837630 </i>
    <i name="e_wo_entrp">   -101.04837630 </i>
    <i name="e_0_energy">   -101.04837630 </i>
   </energy>
  </scstep>
  <scstep>
   <time name="dav">   23.21   23.20</time>
   <time name="total">   25.64   25.64</time>
   <energy>
    <i name="e_fr_energy">   -101.04991245 </i>
    <i name="e_wo_entrp">   -101.04991245 </i>
    <i name="e_0_energy">   -101.04991245 </i>
   </energy>
  </scstep>
  <scstep>
   <time name="dav">   18.46   18.46</time>
   <time name="total">   20.81   20.81</time>
   <energy>
    <i name="e_fr_energy">   -101.04989735 </i>
    <i name="e_wo_entrp">   -101.04989735 </i>
    <i name="e_0_energy">   -101.04989735 </i>
   </energy>
  </scstep>
  <scstep>
   <time name="dav">   20.09   20.08</time>
   <time name="total">   22.45   22.44</time>
   <energy>
    <i name="e_fr_energy">   -101.04991372 </i>
    <i name="e_wo_entrp">   -101.04991372 </i>
    <i name="e_0_energy">   -101.04991372 </i>
   </energy>
  </scstep>
  <scstep>
   <time name="dav">   21.65   21.65</time>
   <time name="total">   24.13   24.12</time>
   <energy>
    <i name="e_fr_energy">   -101.04990872 </i>
    <i name="e_wo_entrp">   -101.04990872 </i>
    <i name="e_0_energy">   -101.04990872 </i>
   </energy>
  </scstep>
  <scstep>
   <time name="dav">   21.66   21.65</time>
   <time name="total">   23.44   23.43</time>
   <energy>
    <i name="alphaZ">      2.23981092 </i>
    <i name="ewald">   2624.57729197 </i>
    <i name="hartreedc">  -3557.16031719 </i>
    <i name="XCdc">    -40.55708847 </i>
    <i name="pawpsdc">   3889.52475131 </i>
    <i name="pawaedc">  -3731.11235134 </i>
    <i name="eentropy">     -0.00000000 </i>
    <i name="bandstr">   -528.52720952 </i>
    <i name="atom">   1239.96520364 </i>
    <i name="e_fr_energy">   -101.04990869 </i>
    <i name="e_wo_entrp">   -101.04990869 </i>
    <i name="e_0_energy">   -101.04990869 </i>
   </energy>
  </scstep>
  <structure>
   <crystal>
    <varray name="basis" >
     <v>      20.00000000       0.00000000       0.00000000 </v>
     <v>       0.00000000      20.00000000       0.00000000 </v>
     <v>       0.00000000       0.00000000      20.00000000 </v>
    </varray>
    <i name="volume">   8000.00000000 </i>
    <varray name="rec_basis" >
     <v>       0.05000000       0.00000000       0.00000000 </v>
     <v>       0.00000000       0.05000000       0.00000000 </v>
     <v>       0.00000000       0.00000000       0.05000000 </v>
    </varray>
   </crystal>
   <varray name="positions" >
    <v>       0.47380427       0.55533722       0.38431961 </v>
    <v>       0.36918482       0.53905428       0.43481175 </v>
    <v>       0.55651416       0.43197376       0.51308244 </v>
    <v>       0.54767852       0.62509886       0.55428987 </v>
    <v>       0.45190140       0.41467384       0.56357987 </v>
    <v>       0.54068483       0.45717357       0.39658616 </v>
    <v>       0.53051913       0.64805176       0.43763162 </v>
    <v>       0.38473417       0.51352341       0.55118506 </v>
    <v>       0.61259884       0.52463793       0.56540677 </v>
    <v>       0.44090159       0.60784301       0.60621195 </v>
    <v>       0.41704169       0.35647205       0.53175430 </v>
    <v>       0.46040385       0.39926972       0.63641090 </v>
    <v>       0.59899795       0.37047804       0.51965083 </v>
    <v>       0.68245306       0.53466912       0.53246202 </v>
    <v>       0.62494058       0.50908260       0.64073590 </v>
    <v>       0.60988622       0.46790167       0.36249304 </v>
    <v>       0.50651443       0.39712849       0.36053884 </v>
    <v>       0.46520091       0.57164378       0.31137210 </v>
    <v>       0.58352692       0.68251362       0.58669462 </v>
    <v>       0.44939051       0.59247942       0.68211075 </v>
    <v>       0.39671858       0.67171057       0.60008508 </v>
    <v>       0.31528323       0.50240999       0.58507130 </v>
    <v>       0.33322061       0.48250057       0.40128922 </v>
    <v>       0.32666872       0.60039623       0.42819799 </v>
    <v>       0.48904714       0.71345007       0.42915188 </v>
    <v>       0.59915389       0.65992643       0.40279314 </v>
   </varray>
  </structure>
  <varray name="forces" >
   <v>      -0.00393232       0.28539649      -0.02972503 </v>
   <v>      -0.02257176      -0.02090376       0.00289603 </v>
   <v>      -0.00732324       0.00507016      -0.00342277 </v>
   <v>      -0.00590253       0.00803654       0.00144295 </v>
   <v>       0.00558649      -0.00421713       0.01006209 </v>
   <v>       0.06411045      -0.11041347       0.01599188 </v>
   <v>      -0.04892004      -0.10763751      -0.03507472 </v>
   <v>      -0.00159904       0.00419556       0.00455878 </v>
   <v>      -0.00677236       0.00185481      -0.00202630 </v>
   <v>       0.00612337       0.00045210      -0.00188520 </v>
   <v>       0.00409032       0.00034486      -0.00494882 </v>
   <v>       0.00046072       0.00105402       0.00115341 </v>
   <v>       0.00932127      -0.01146714       0.00195863 </v>
   <v>       0.00421335      -0.00369487      -0.00539376 </v>
   <v>      -0.00501254      -0.00148442       0.00044319 </v>
   <v>      -0.00378163       0.00479651       0.00065465 </v>
   <v>       0.00420793       0.00153416       0.01136698 </v>
   <v>       0.00371494      -0.03192612       0.04320800 </v>
   <v>       0.00727054      -0.00025605       0.00226589 </v>
   <v>      -0.00339178       0.00318849      -0.00506056 </v>
   <v>       0.00326947      -0.00531712       0.00379835 </v>
   <v>      -0.00674079      -0.00720934      -0.00160364 </v>
   <v>      -0.00626766      -0.00327442       0.00337405 </v>
   <v>       0.01349074       0.00432774      -0.00540809 </v>
   <v>      -0.00924666      -0.00932050      -0.00201953 </v>
   <v>       0.00560277      -0.00312960      -0.00660648 </v>
  </varray>
  <varray name="stress" >
   <v>      -0.16102345      -0.04494939      -0.01189732 </v>
   <v>      -0.04494942      -0.17289889      -0.03024810 </v>
   <v>      -0.01189731      -0.03024809      -0.19716263 </v>
  </varray>
  <energy>
   <i name="e_fr_energy">   -101.04990869 </i>
   <i name="e_wo_entrp">   -101.04990869 </i>
   <i name="e_0_energy">     -0.00000000 </i>
  </energy>
  <kpoints>
   <generation param="Gamma">
    <v type="int" name="divisions">       1        1        1 </v>
    <v name="usershift">      0.00000000       0.00000000       0.00000000 </v>
    <v name="genvec1">      1.00000000       0.00000000       0.00000000 </v>
    <v name="genvec2">      0.00000000       1.00000000       0.00000000 </v>
    <v name="genvec3">      0.00000000       0.00000000       1.00000000 </v>
    <v name="shift">      0.00000000       0.00000000       0.00000000 </v>
   </generation>
   <varray name="kpointlist" >
    <v>       0.00000000       0.00000000       0.00000000 </v>
   </varray>
   <varray name="weights" >
    <v>       1.00000000 </v>
   </varray>
  </kpoints>
  <time name="totalsc">  170.99  170.99</time>
 </calculation>
 <calculation>
  <scstep>
   <time name="dav">   16.86   16.85</time>
   <time name="total">   19.19   19.18</time>
   <energy>
    <i name="alphaZ">      2.23981092 </i>
    <i name="ewald">   2625.98363803 </i>
    <i name="hartreedc">  -3558.58816947 </i>
    <i name="XCdc">    -40.55158735 </i>
    <i name="pawpsdc">   3889.44262631 </i>
    <i name="pawaedc">  -3731.03024869 </i>
    <i name="eentropy">     -0.00000000 </i>
    <i name="bandstr">   -528.50884440 </i>
    <i name="atom">   1239.96520364 </i>
    <i name="e_fr_energy">   -101.04757101 </i>
    <i name="e_wo_entrp">   -101.04757101 </i>
    <i name="e_0_energy">   -101.04757101 </i>
   </energy>
  </scstep>
  <scstep>
   <time name="dav">   23.37   23.36</time>
   <time name="total">   25.73   25.72</time>
   <energy>
    <i name="e_fr_energy">   -101.04849441 </i>
    <i name="e_wo_entrp">   -101.04849441 </i>
    <i name="e_0_energy">   -101.04849441 </i>
   </energy>
  </scstep>
  <scstep>
   <time name="dav">   20.08   20.07</time>
   <time name="total">   22.50   22.50</time>
   <energy>
    <i name="e_fr_energy">   -101.04846864 </i>
    <i name="e_wo_entrp">   -101.04846864 </i>
    <i name="e_0_energy">   -101.04846864 </i>
   </energy>
  </scstep>
  <scstep>
   <time name="dav">   21.68   21.67</time>
   <time name="total">   24.04   24.04</time>
   <energy>
    <i name="e_fr_energy">   -101.04847634 </i>
    <i name="e_wo_entrp">   -101.04847634 </i>
    <i name="e_0_energy">   -101.04847634 </i>
   </energy>
  </scstep>
  <scstep>
   <time name="dav">   21.65   21.64</time>
   <time name="total">   24.01   24.00</time>
   <energy>
    <i name="e_fr_energy">   -101.04847495 </i>
    <i name="e_wo_entrp">   -101.04847495 </i>
    <i name="e_0_energy">   -101.04847495 </i>
   </energy>
  </scstep>
  <scstep>
   <time name="dav">   21.63   21.62</time>
   <time name="total">   24.01   24.02</time>
   <energy>
    <i name="e_fr_energy">   -101.04847691 </i>
    <i name="e_wo_entrp">   -101.04847691 </i>
    <i name="e_0_energy">   -101.04847691 </i>
   </energy>
  </scstep>
  <scstep>
   <time name="dav">   18.47   18.46</time>
   <time name="total">   20.83   20.83</time>
   <energy>
    <i name="e_fr_energy">   -101.04848259 </i>
    <i name="e_wo_entrp">   -101.04848259 </i>
    <i name="e_0_energy">   -101.04848259 </i>
   </energy>
  </scstep>
  <scstep>
   <time name="dav">   18.48   18.48</time>
   <time name="total">   20.85   20.85</time>
   <energy>
    <i name="e_fr_energy">   -101.04848820 </i>
    <i name="e_wo_entrp">   -101.04848820 </i>
    <i name="e_0_energy">   -101.04848820 </i>
   </energy>
  </scstep>
  <scstep>
   <time name="dav">   16.88   16.87</time>
   <time name="total">   19.26   19.25</time>
   <energy>
    <i name="e_fr_energy">   -101.04849545 </i>
    <i name="e_wo_entrp">   -101.04849545 </i>
    <i name="e_0_energy">   -101.04849545 </i>
   </energy>
  </scstep>
  <scstep>
   <time name="dav">   16.89   16.89</time>
   <time name="total">   19.28   19.27</time>
   <energy>
    <i name="e_fr_energy">   -101.04850173 </i>
    <i name="e_wo_entrp">   -101.04850173 </i>
    <i name="e_0_energy">   -101.04850173 </i>
   </energy>
  </scstep>
  <scstep>
   <time name="dav">   18.46   18.46</time>
   <time name="total">   20.86   20.85</time>
   <energy>
    <i name="e_fr_energy">   -101.04850330 </i>
    <i name="e_wo_entrp">   -101.04850330 </i>
    <i name="e_0_energy">   -101.04850330 </i>
   </energy>
  </scstep>
  <scstep>
   <time name="dav">   15.29   15.29</time>
   <time name="total">   17.72   17.72</time>
   <energy>
    <i name="e_fr_energy">   -101.04850513 </i>
    <i name="e_wo_entrp">   -101.04850513 </i>
    <i name="e_0_energy">   -101.04850513 </i>
   </energy>
  </scstep>
  <scstep>
   <time name="dav">   18.50   18.49</time>
   <time name="total">   20.91   20.90</time>
   <energy>
    <i name="e_fr_energy">   -101.04850627 </i>
    <i name="e_wo_entrp">   -101.04850627 </i>
    <i name="e_0_energy">   -101.04850627 </i>
   </energy>
  </scstep>
  <scstep>
   <time name="dav">   15.29   15.28</time>
   <time name="total">   17.09   17.09</time>
   <energy>
    <i name="alphaZ">      2.23981092 </i>
    <i name="ewald">   2625.98363803 </i>
    <i name="hartreedc">  -3558.51281602 </i>
    <i name="XCdc">    -40.56152120 </i>
    <i name="pawpsdc">   3889.86744656 </i>
    <i name="pawaedc">  -3731.45543585 </i>
    <i name="eentropy">     -0.00000000 </i>
    <i name="bandstr">   -528.57483307 </i>
    <i name="atom">   1239.96520364 </i>
    <i name="e_fr_energy">   -101.04850699 </i>
    <i name="e_wo_entrp">   -101.04850699 </i>
    <i name="e_0_energy">   -101.04850699 </i>
   </energy>
  </scstep>
  <structure>
   <crystal>
    <varray name="basis" >
     <v>      20.00000000       0.00000000       0.00000000 </v>
     <v>       0.00000000      20.00000000       0.00000000 </v>
     <v>       0.00000000       0.00000000      20.00000000 </v>
    </varray>
    <i name="volume">   8000.00000000 </i>
    <varray name="rec_basis" >
     <v>       0.05000000       0.00000000       0.00000000 </v>
     <v>       0.00000000       0.05000000       0.00000000 </v>
     <v>       0.00000000       0.00000000       0.05000000 </v>
    </varray>
   </crystal>
   <varray name="positions" >
    <v>       0.47380427       0.55633722       0.38531961 </v>
    <v>       0.36918482       0.53905428       0.43481175 </v>
    <v>       0.55651416       0.43197376       0.51308244 </v>
    <v>       0.54767852       0.62509886       0.55428987 </v>
    <v>       0.45190140       0.41467384       0.56357987 </v>
    <v>       0.54068483       0.45717357       0.39658616 </v>
    <v>       0.53051913       0.64805176       0.43763162 </v>
    <v>       0.38473417       0.51352341       0.55118506 </v>
    <v>       0.61259884       0.52463793       0.56540677 </v>
    <v>       0.44090159       0.60784301       0.60621195 </v>
    <v>       0.41704169       0.35647205       0.53175430 </v>
    <v>       0.46040385       0.39926972       0.63641090 </v>
    <v>       0.59899795       0.37047804       0.51965083 </v>
    <v>       0.68245306       0.53466912       0.53246202 </v>
    <v>       0.62494058       0.50908260       0.64073590 </v>
    <v>       0.60988622       0.46790167       0.36249304 </v>
    <v>       0.50651443       0.39712849       0.36053884 </v>
    <v>       0.46520091       0.57164378       0.31137210 </v>
    <v>       0.58352692       0.68251362       0.58669462 </v>
    <v>       0.44939051       0.59247942       0.68211075 </v>
    <v>       0.39671858       0.67171057       0.60008508 </v>
    <v>       0.31528323       0.50240999       0.58507130 </v>
    <v>       0.33322061       0.48250057       0.40128922 </v>
    <v>       0.32666872       0.60039623       0.42819799 </v>
    <v>       0.48904714       0.71345007       0.42915188 </v>
    <v>       0.59915389       0.65992643       0.40279314 </v>
   </varray>
  </structure>
  <varray name="forces" >
   <v>      -0.00605362       0.01807913      -0.41937665 </v>
   <v>      -0.06483789       0.00321765       0.05244449 </v>
   <v>      -0.00045435      -0.00596156      -0.01199306 </v>
   <v>      -0.00213065       0.01050543       0.00979140 </v>
   <v>       0.00930984      -0.00403096       0.01066103 </v>
   <v>       0.01035225      -0.00742858       0.03921170 </v>
   <v>       0.02766144       0.04539720       0.05542930 </v>
   <v>      -0.01083145       0.00184713       0.00690125 </v>
   <v>      -0.00703755      -0.00320008      -0.00315129 </v>
   <v>       0.00344801       0.00006669      -0.00248557 </v>
   <v>       0.00345216       0.00052129      -0.00498868 </v>
   <v>      -0.00095708       0.00121932       0.00150315 </v>
   <v>       0.01037773      -0.01278363       0.01073596 </v>
   <v>       0.00425983      -0.00254828      -0.00525148 </v>
   <v>      -0.00521693       0.00089889       0.00074769 </v>
   <v>      -0.00446883       0.00826535      -0.00021919 </v>
   <v>      -0.00648611       0.01656975       0.00900559 </v>
   <v>       0.02599131      -0.04580414       0.26730222 </v>
   <v>       0.00663798       0.00015378      -0.00007686 </v>
   <v>      -0.00223949       0.00351184      -0.00581405 </v>
   <v>       0.00373139      -0.00501963       0.00376250 </v>
   <v>      -0.00633869      -0.00737693       0.00158332 </v>
   <v>       0.01451850      -0.00075041      -0.00792931 </v>
   <v>       0.00397826       0.00185186      -0.00039930 </v>
   <v>      -0.00442175      -0.00646959       0.00164281 </v>
   <v>      -0.00224431      -0.01073150      -0.00903698 </v>
  </varray>
  <varray name="stress" >
   <v>      -0.14624829       0.00548703      -0.01185995 </v>
   <v>       0.00548702      -0.16444765       0.00826374 </v>
   <v>      -0.01185995       0.00826374      -0.22562313 </v>
  </varray>
  <energy>
   <i name="e_fr_energy">   -101.04850699 </i>
   <i name="e_wo_entrp">   -101.04850699 </i>
   <i name="e_0_energy">     -0.00000000 </i>
  </energy>
  <kpoints>
   <generation param="Gamma">
    <v type="int" name="divisions">       1        1        1 </v>
    <v name="usershift">      0.00000000       0.00000000       0.00000000 </v>
    <v name="genvec1">      1.00000000       0.00000000       0.00000000 </v>
    <v name="genvec2">      0.00000000       1.00000000       0.00000000 </v>
    <v name="genvec3">      0.00000000       0.00000000       1.00000000 </v>
    <v name="shift">      0.00000000       0.00000000       0.00000000 </v>
   </generation>
   <varray name="kpointlist" >
    <v>       0.00000000       0.00000000       0.00000000 </v>
   </varray>
   <varray name="weights" >
    <v>       1.00000000 </v>
   </varray>
  </kpoints>
  <time name="totalsc">  331.66  331.60</time>
 </calculation>
 <calculation>
  <scstep>
   <time name="dav">   16.85   16.85</time>
   <time name="total">   19.21   19.21</time>
   <energy>
    <i name="alphaZ">      2.23981092 </i>
    <i name="ewald">   2622.40152733 </i>
    <i name="hartreedc">  -3554.87026520 </i>
    <i name="XCdc">    -40.57615598 </i>
    <i name="pawpsdc">   3889.86878460 </i>
    <i name="pawaedc">  -3731.45677379 </i>
    <i name="eentropy">     -0.00000000 </i>
    <i name="bandstr">   -528.61797409 </i>
    <i name="atom">   1239.96520364 </i>
    <i name="e_fr_energy">   -101.04584257 </i>
    <i name="e_wo_entrp">   -101.04584257 </i>
    <i name="e_0_energy">   -101.04584257 </i>
   </energy>
  </scstep>
  <scstep>
   <time name="dav">   20.04   20.03</time>
   <time name="total">   22.47   22.47</time>
   <energy>
    <i name="e_fr_energy">   -101.04812731 </i>
    <i name="e_wo_entrp">   -101.04812731 </i>
    <i name="e_0_energy">   -101.04812731 </i>
   </energy>
  </scstep>
  <scstep>
   <time name="dav">   21.62   21.62</time>
   <time name="total">   23.98   23.97</time>
   <energy>
    <i name="e_fr_energy">   -101.04796842 </i>
    <i name="e_wo_entrp">   -101.04796842 </i>
    <i name="e_0_energy">   -101.04796842 </i>
   </energy>
  </scstep>
  <scstep>
   <time name="dav">   21.61   21.60</time>
   <time name="total">   23.96   23.95</time>
   <energy>
    <i name="e_fr_energy">   -101.04796495 </i>
    <i name="e_wo_entrp">   -101.04796495 </i>
    <i name="e_0_energy">   -101.04796495 </i>
   </energy>
  </scstep>
  <scstep>
   <time name="dav">   21.61   21.60</time>
   <time name="total">   23.96   23.96</time>
   <energy>
    <i name="e_fr_energy">   -101.04795656 </i>
    <i name="e_wo_entrp">   -101.04795656 </i>
    <i name="e_0_energy">   -101.04795656 </i>
   </energy>
  </scstep>
  <scstep>
   <time name="dav">   21.63   21.62</time>
   <time name="total">   23.97   23.97</time>
   <energy>
    <i name="e_fr_energy">   -101.04795673 </i>
    <i name="e_wo_entrp">   -101.04795673 </i>
    <i name="e_0_energy">   -101.04795673 </i>
   </energy>
  </scstep>
  <scstep>
   <time name="dav">   20.05   20.05</time>
   <time name="total">   22.40   22.40</time>
   <energy>
    <i name="e_fr_energy">   -101.04796803 </i>
    <i name="e_wo_entrp">   -101.04796803 </i>
    <i name="e_0_energy">   -101.04796803 </i>
   </energy>
  </scstep>
  <scstep>
   <time name="dav">   20.04   20.03</time>
   <time name="total">   22.44   22.44</time>
   <energy>
    <i name="e_fr_energy">   -101.04798716 </i>
    <i name="e_wo_entrp">   -101.04798716 </i>
    <i name="e_0_energy">   -101.04798716 </i>
   </energy>
  </scstep>
  <scstep>
   <time name="dav">   21.62   21.61</time>
   <time name="total">   23.97   23.96</time>
   <energy>
    <i name="e_fr_energy">   -101.04800219 </i>
    <i name="e_wo_entrp">   -101.04800219 </i>
    <i name="e_0_energy">   -101.04800219 </i>
   </energy>
  </scstep>
  <scstep>
   <time name="dav">   16.87   16.86</time>
   <time name="total">   19.23   19.24</time>
   <energy>
    <i name="e_fr_energy">   -101.04802481 </i>
    <i name="e_wo_entrp">   -101.04802481 </i>
    <i name="e_0_energy">   -101.04802481 </i>
   </energy>
  </scstep>
  <scstep>
   <time name="dav">   18.49   18.48</time>
   <time name="total">   20.91   20.90</time>
   <energy>
    <i name="e_fr_energy">   -101.04802958 </i>
    <i name="e_wo_entrp">   -101.04802958 </i>
    <i name="e_0_energy">   -101.04802958 </i>
   </energy>
  </scstep>
  <scstep>
   <time name="dav">   15.27   15.27</time>
   <time name="total">   17.66   17.65</time>
   <energy>
    <i name="e_fr_energy">   -101.04803784 </i>
    <i name="e_wo_entrp">   -101.04803784 </i>
    <i name="e_0_energy">   -101.04803784 </i>
   </energy>
  </scstep>
  <scstep>
   <time name="dav">   18.46   18.45</time>
   <time name="total">   20.86   20.86</time>
   <energy>
    <i name="e_fr_energy">   -101.04804182 </i>
    <i name="e_wo_entrp">   -101.04804182 </i>
    <i name="e_0_energy">   -101.04804182 </i>
   </energy>
  </scstep>
  <scstep>
   <time name="dav">   15.29   15.29</time>
   <time name="total">   17.71   17.71</time>
   <energy>
    <i name="e_fr_energy">   -101.04804426 </i>
    <i name="e_wo_entrp">   -101.04804426 </i>
    <i name="e_0_energy">   -101.04804426 </i>
   </energy>
  </scstep>
  <scstep>
   <time name="dav">   18.47   18.46</time>
   <time name="total">   20.91   20.91</time>
   <energy>
    <i name="e_fr_energy">   -101.04804531 </i>
    <i name="e_wo_entrp">   -101.04804531 </i>
    <i name="e_0_energy">   -101.04804531 </i>
   </energy>
  </scstep>
  <scstep>
   <time name="dav">   15.31   15.30</time>
   <time name="total">   17.11   17.10</time>
   <energy>
    <i name="alphaZ">      2.23981092 </i>
    <i name="ewald">   2622.40152733 </i>
    <i name="hartreedc">  -3555.05028406 </i>
    <i name="XCdc">    -40.55079825 </i>
    <i name="pawpsdc">   3888.04799322 </i>
    <i name="pawaedc">  -3729.63496680 </i>
    <i name="eentropy">     -0.00000000 </i>
    <i name="bandstr">   -528.46653196 </i>
    <i name="atom">   1239.96520364 </i>
[...]
    <v name="genvec3">      0.00000000       0.00000000       1.00000000 </v>
    <v name="shift">      0.00000000       0.00000000       0.00000000 </v>
   </generation>
   <varray name="kpointlist" >
    <v>       0.00000000       0.00000000       0.00000000 </v>
   </varray>
   <varray name="weights" >
    <v>       1.00000000 </v>
   </varray>
  </kpoints>
  <time name="totalsc">  140.66  140.63</time>
  <eigenvalues>
   <array>
    <dimension dim="1">band</dimension>
    <dimension dim="2">kpoint</dimension>
    <dimension dim="3">spin</dimension>
    <field>eigene</field>
    <field>occ</field>
    <set>
     <set comment="spin 1">
      <set comment="kpoint 1">
       <r>  -15.1696    1.0000 </r>
       <r>  -14.2977    1.0000 </r>
       <r>  -14.1272    1.0000 </r>
       <r>  -14.0728    1.0000 </r>
       <r>  -13.2201    1.0000 </r>
       <r>  -12.9983    1.0000 </r>
       <r>  -11.7876    1.0000 </r>
       <r>  -11.5172    1.0000 </r>
       <r>  -11.4505    1.0000 </r>
       <r>  -10.5654    1.0000 </r>
       <r>   -9.0302    1.0000 </r>
       <r>   -8.6638    1.0000 </r>
       <r>   -8.5898    1.0000 </r>
       <r>   -8.5324    1.0000 </r>
       <r>   -8.2305    1.0000 </r>
       <r>   -8.0908    1.0000 </r>
       <r>   -8.0399    1.0000 </r>
       <r>   -7.9559    1.0000 </r>
       <r>   -7.9493    1.0000 </r>
       <r>   -7.7971    1.0000 </r>
       <r>   -6.8427    1.0000 </r>
       <r>   -6.7926    1.0000 </r>
       <r>   -6.4786    1.0000 </r>
       <r>   -6.4546    1.0000 </r>
       <r>   -6.4507    1.0000 </r>
       <r>   -6.4124    1.0000 </r>
       <r>   -6.3875    1.0000 </r>
       <r>   -6.3401    1.0000 </r>
       <r>   -1.6804    0.0000 </r>
       <r>   -1.3935    0.0000 </r>
       <r>   -1.3141    0.0000 </r>
       <r>   -1.2812    0.0000 </r>
       <r>   -1.2372    0.0000 </r>
       <r>   -1.1376    0.0000 </r>
       <r>   -1.1095    0.0000 </r>
       <r>   -0.9236    0.0000 </r>
       <r>   -0.7715    0.0000 </r>
       <r>   -0.5468    0.0000 </r>
       <r>   -0.3641    0.0000 </r>
       <r>   -0.3022    0.0000 </r>
       <r>   -0.2052    0.0000 </r>
       <r>   -0.1180    0.0000 </r>
       <r>   -0.0060    0.0000 </r>
       <r>    0.1289    0.0000 </r>
       <r>    0.1353    0.0000 </r>
       <r>    0.1601    0.0000 </r>
       <r>    0.1822    0.0000 </r>
       <r>    0.2110    0.0000 </r>
      </set>
     </set>
    </set>
   </array>
  </eigenvalues>
  <separator name="orbital magnetization" >
   <v name="MAGDIPOLOUT">      0.00000000      0.00000000      0.00000000</v>
  </separator>
  <dos>
   <i name="efermi">     -5.41195079 </i>
   <total>
    <array>
     <dimension dim="1">gridpoints</dimension>
     <dimension dim="2">spin</dimension>
     <field>energy</field>
     <field>total</field>
     <field>integrated</field>
     <set>
      <set comment="spin 1">
       <r>   -17.1696     0.0000     0.0000 </r>
       <r>   -17.1050     0.0000     0.0000 </r>
       <r>   -17.0404     0.0000     0.0000 </r>
       <r>   -16.9758     0.0000     0.0000 </r>
       <r>   -16.9111     0.0000     0.0000 </r>
       <r>   -16.8465     0.0000     0.0000 </r>
       <r>   -16.7819     0.0000     0.0000 </r>
       <r>   -16.7173     0.0000     0.0000 </r>
       <r>   -16.6527     0.0000     0.0000 </r>
       <r>   -16.5881     0.0000     0.0000 </r>
       <r>   -16.5235     0.0000     0.0000 </r>
       <r>   -16.4589     0.0000     0.0000 </r>
       <r>   -16.3943     0.0000     0.0000 </r>
       <r>   -16.3297     0.0000     0.0000 </r>
       <r>   -16.2651     0.0000     0.0000 </r>
       <r>   -16.2005     0.0000     0.0000 </r>
       <r>   -16.1359     0.0000     0.0000 </r>
       <r>   -16.0713     0.0000     0.0000 </r>
       <r>   -16.0067     0.0000     0.0000 </r>
       <r>   -15.9421     0.0000     0.0000 </r>
       <r>   -15.8775     0.0000     0.0000 </r>
       <r>   -15.8129     0.0001     0.0000 </r>
       <r>   -15.7483     0.0006     0.0000 </r>
       <r>   -15.6837     0.0036     0.0003 </r>
       <r>   -15.6191     0.0186     0.0015 </r>
       <r>   -15.5545     0.0775     0.0065 </r>
       <r>   -15.4899     0.2633     0.0235 </r>
       <r>   -15.4253     0.7282     0.0705 </r>
       <r>   -15.3607     1.6402     0.1765 </r>
       <r>   -15.2961     3.0090     0.3709 </r>
       <r>   -15.2315     4.4967     0.6614 </r>
       <r>   -15.1669     5.4738     1.0150 </r>
       <r>   -15.1023     5.4278     1.3656 </r>
       <r>   -15.0377     4.3843     1.6489 </r>
       <r>   -14.9731     2.8847     1.8352 </r>
       <r>   -14.9085     1.5463     1.9351 </r>
       <r>   -14.8439     0.6764     1.9788 </r>
       <r>   -14.7793     0.2485     1.9949 </r>
       <r>   -14.7147     0.1092     2.0019 </r>
       <r>   -14.6501     0.1671     2.0127 </r>
       <r>   -14.5855     0.4729     2.0433 </r>
       <r>   -14.5209     1.2090     2.1214 </r>
       <r>   -14.4563     2.5902     2.2887 </r>
       <r>   -14.3917     4.6918     2.5918 </r>
       <r>   -14.3271     7.3245     3.0650 </r>
       <r>   -14.2625    10.0644     3.7152 </r>
       <r>   -14.1979    12.3551     4.5133 </r>
       <r>   -14.1333    13.5650     5.3897 </r>
       <r>   -14.0687    13.1467     6.2390 </r>
       <r>   -14.0041    11.0258     6.9512 </r>
       <r>   -13.9395     7.8533     7.4586 </r>
       <r>   -13.8749     4.6847     7.7612 </r>
       <r>   -13.8103     2.3194     7.9111 </r>
       <r>   -13.7457     0.9499     7.9724 </r>
       <r>   -13.6811     0.3324     7.9939 </r>
       <r>   -13.6165     0.1491     8.0035 </r>
       <r>   -13.5519     0.2365     8.0188 </r>
       <r>   -13.4872     0.6286     8.0594 </r>
       <r>   -13.4226     1.4767     8.1548 </r>
       <r>   -13.3580     2.8726     8.3404 </r>
       <r>   -13.2934     4.6535     8.6410 </r>
       <r>   -13.2288     6.3907     9.0539 </r>
       <r>   -13.1642     7.6465     9.5478 </r>
       <r>   -13.0996     8.2265    10.0793 </r>
       <r>   -13.0350     8.1267    10.6043 </r>
       <r>   -12.9704     7.3419    11.0786 </r>
       <r>   -12.9058     5.9103    11.4604 </r>
       <r>   -12.8412     4.1084    11.7258 </r>
       <r>   -12.7766     2.4057    11.8812 </r>
       <r>   -12.7120     1.1683    11.9567 </r>
       <r>   -12.6474     0.4664    11.9868 </r>
       <r>   -12.5828     0.1524    11.9967 </r>
       <r>   -12.5182     0.0406    11.9993 </r>
       <r>   -12.4536     0.0089    11.9999 </r>
       <r>   -12.3890     0.0019    12.0000 </r>
       <r>   -12.3244     0.0022    12.0001 </r>
       <r>   -12.2598     0.0108    12.0008 </r>
       <r>   -12.1952     0.0481    12.0040 </r>
       <r>   -12.1306     0.1758    12.0153 </r>
       <r>   -12.0660     0.5234    12.0491 </r>
       <r>   -12.0014     1.2723    12.1313 </r>
       <r>   -11.9368     2.5344    12.2950 </r>
       <r>   -11.8722     4.1737    12.5647 </r>
       <r>   -11.8076     5.7972    12.9392 </r>
       <r>   -11.7430     7.0791    13.3965 </r>
       <r>   -11.6784     8.1249    13.9214 </r>
       <r>   -11.6138     9.3224    14.5236 </r>
       <r>   -11.5492    10.6912    15.2143 </r>
       <r>   -11.4846    11.5363    15.9596 </r>
       <r>   -11.4200    10.9895    16.6695 </r>
       <r>   -11.3554     8.8912    17.2439 </r>
       <r>   -11.2908     5.9981    17.6314 </r>
       <r>   -11.2262     3.3468    17.8476 </r>
       <r>   -11.1616     1.5392    17.9470 </r>
       <r>   -11.0970     0.5842    17.9848 </r>
       <r>   -11.0324     0.1929    17.9972 </r>
       <r>   -10.9678     0.0998    18.0037 </r>
       <r>   -10.9032     0.2027    18.0168 </r>
       <r>   -10.8386     0.5660    18.0533 </r>
       <r>   -10.7740     1.3440    18.1402 </r>
       <r>   -10.7094     2.6059    18.3085 </r>
       <r>   -10.6448     4.1162    18.5744 </r>
       <r>   -10.5802     5.2964    18.9166 </r>
       <r>   -10.5156     5.5513    19.2752 </r>
       <r>   -10.4510     4.7398    19.5814 </r>
       <r>   -10.3864     3.2965    19.7944 </r>
       <r>   -10.3218     1.8675    19.9150 </r>
       <r>   -10.2572     0.8618    19.9707 </r>
       <r>   -10.1926     0.3239    19.9916 </r>
       <r>   -10.1280     0.0991    19.9980 </r>
       <r>   -10.0633     0.0247    19.9996 </r>
       <r>    -9.9987     0.0050    19.9999 </r>
       <r>    -9.9341     0.0008    20.0000 </r>
       <r>    -9.8695     0.0001    20.0000 </r>
       <r>    -9.8049     0.0000    20.0000 </r>
       <r>    -9.7403     0.0000    20.0000 </r>
       <r>    -9.6757     0.0001    20.0000 </r>
       <r>    -9.6111     0.0005    20.0000 </r>
       <r>    -9.5465     0.0034    20.0003 </r>
       <r>    -9.4819     0.0176    20.0014 </r>
       <r>    -9.4173     0.0741    20.0062 </r>
       <r>    -9.3527     0.2534    20.0226 </r>
       <r>    -9.2881     0.7059    20.0682 </r>
       <r>    -9.2235     1.6019    20.1716 </r>
       <r>    -9.1589     2.9642    20.3631 </r>
       <r>    -9.0943     4.4851    20.6529 </r>
       <r>    -9.0297     5.5982    21.0145 </r>
       <r>    -8.9651     5.9326    21.3978 </r>
       <r>    -8.9005     5.7958    21.7722 </r>
       <r>    -8.8359     6.1231    22.1678 </r>
       <r>    -8.7713     7.7838    22.6706 </r>
       <r>    -8.7067    10.7707    23.3664 </r>
       <r>    -8.6421    13.9721    24.2691 </r>
       <r>    -8.5775    15.8181    25.2909 </r>
       <r>    -8.5129    15.4117    26.2866 </r>
       <r>    -8.4483    13.2605    27.1432 </r>
       <r>    -8.3837    10.9584    27.8512 </r>
       <r>    -8.3191    10.0967    28.5034 </r>
       <r>    -8.2545    11.3628    29.2375 </r>
       <r>    -8.1899    14.4308    30.1697 </r>
       <r>    -8.1253    18.3574    31.3557 </r>
       <r>    -8.0607    21.9316    32.7725 </r>
       <r>    -7.9961    23.9360    34.3188 </r>
       <r>    -7.9315    23.5668    35.8412 </r>
       <r>    -7.8669    20.8433    37.1878 </r>
       <r>    -7.8023    16.5679    38.2581 </r>
       <r>    -7.7377    11.8349    39.0226 </r>
       <r>    -7.6731     7.5516    39.5105 </r>
       <r>    -7.6085     4.2465    39.7848 </r>
       <r>    -7.5439     2.0672    39.9184 </r>
       <r>    -7.4793     0.8560    39.9737 </r>
       <r>    -7.4147     0.2980    39.9929 </r>
       <r>    -7.3501     0.0910    39.9988 </r>
       <r>    -7.2855     0.0485    40.0019 </r>
       <r>    -7.2209     0.1234    40.0099 </r>
       <r>    -7.1563     0.4150    40.0367 </r>
       <r>    -7.0917     1.1773    40.1128 </r>
       <r>    -7.0271     2.7406    40.2898 </r>
       <r>    -6.9625     5.2355    40.6280 </r>
       <r>    -6.8979     8.2389    41.1603 </r>
       <r>    -6.8333    10.8024    41.8581 </r>
       <r>    -6.7687    12.1969    42.6461 </r>
       <r>    -6.7041    12.8776    43.4780 </r>
       <r>    -6.6394    14.5265    44.4164 </r>
       <r>    -6.5748    18.6665    45.6223 </r>
       <r>    -6.5102    24.8769    47.2294 </r>
       <r>    -6.4456    30.4232    49.1948 </r>
       <r>    -6.3810    32.0279    51.2639 </r>
       <r>    -6.3164    28.3701    53.0966 </r>
       <r>    -6.2518    21.0036    54.4535 </r>
       <r>    -6.1872    12.9736    55.2916 </r>
       <r>    -6.1226     6.6811    55.7232 </r>
       <r>    -6.0580     2.8659    55.9084 </r>
       <r>    -5.9934     1.0227    55.9745 </r>
       <r>    -5.9288     0.3030    55.9940 </r>
       <r>    -5.8642     0.0744    55.9988 </r>
       <r>    -5.7996     0.0151    55.9998 </r>
       <r>    -5.7350     0.0025    56.0000 </r>
       <r>    -5.6704     0.0003    56.0000 </r>
       <r>    -5.6058     0.0000    56.0000 </r>
       <r>    -5.5412     0.0000    56.0000 </r>
       <r>    -5.4766     0.0000    56.0000 </r>
       <r>    -5.4120     0.0000    56.0000 </r>
       <r>    -5.3474     0.0000    56.0000 </r>
       <r>    -5.2828     0.0000    56.0000 </r>
       <r>    -5.2182     0.0000    56.0000 </r>
       <r>    -5.1536     0.0000    56.0000 </r>
       <r>    -5.0890     0.0000    56.0000 </r>
       <r>    -5.0244     0.0000    56.0000 </r>
       <r>    -4.9598     0.0000    56.0000 </r>
       <r>    -4.8952     0.0000    56.0000 </r>
       <r>    -4.8306     0.0000    56.0000 </r>
       <r>    -4.7660     0.0000    56.0000 </r>
       <r>    -4.7014     0.0000    56.0000 </r>
       <r>    -4.6368     0.0000    56.0000 </r>
       <r>    -4.5722     0.0000    56.0000 </r>
       <r>    -4.5076     0.0000    56.0000 </r>
       <r>    -4.4430     0.0000    56.0000 </r>
       <r>    -4.3784     0.0000    56.0000 </r>
       <r>    -4.3138     0.0000    56.0000 </r>
       <r>    -4.2492     0.0000    56.0000 </r>
       <r>    -4.1846     0.0000    56.0000 </r>
       <r>    -4.1200     0.0000    56.0000 </r>
       <r>    -4.0554     0.0000    56.0000 </r>
       <r>    -3.9908     0.0000    56.0000 </r>
       <r>    -3.9262     0.0000    56.0000 </r>
       <r>    -3.8616     0.0000    56.0000 </r>
       <r>    -3.7970     0.0000    56.0000 </r>
       <r>    -3.7324     0.0000    56.0000 </r>
       <r>    -3.6678     0.0000    56.0000 </r>
       <r>    -3.6032     0.0000    56.0000 </r>
       <r>    -3.5386     0.0000    56.0000 </r>
       <r>    -3.4740     0.0000    56.0000 </r>
       <r>    -3.4094     0.0000    56.0000 </r>
       <r>    -3.3448     0.0000    56.0000 </r>
       <r>    -3.2802     0.0000    56.0000 </r>
       <r>    -3.2155     0.0000    56.0000 </r>
       <r>    -3.1509     0.0000    56.0000 </r>
       <r>    -3.0863     0.0000    56.0000 </r>
       <r>    -3.0217     0.0000    56.0000 </r>
       <r>    -2.9571     0.0000    56.0000 </r>
       <r>    -2.8925     0.0000    56.0000 </r>
       <r>    -2.8279     0.0000    56.0000 </r>
       <r>    -2.7633     0.0000    56.0000 </r>
       <r>    -2.6987     0.0000    56.0000 </r>
       <r>    -2.6341     0.0000    56.0000 </r>
       <r>    -2.5695     0.0000    56.0000 </r>
       <r>    -2.5049     0.0000    56.0000 </r>
       <r>    -2.4403     0.0000    56.0000 </r>
       <r>    -2.3757     0.0000    56.0000 </r>
       <r>    -2.3111     0.0001    56.0000 </r>
       <r>    -2.2465     0.0008    56.0001 </r>
       <r>    -2.1819     0.0051    56.0004 </r>
       <r>    -2.1173     0.0250    56.0020 </r>
       <r>    -2.0527     0.1002    56.0085 </r>
       <r>    -1.9881     0.3270    56.0296 </r>
       <r>    -1.9235     0.8703    56.0858 </r>
       <r>    -1.8589     1.8923    56.2081 </r>
       <r>    -1.7943     3.3778    56.4263 </r>
       <r>    -1.7297     5.0148    56.7502 </r>
       <r>    -1.6651     6.3972    57.1635 </r>
       <r>    -1.6005     7.5296    57.6499 </r>
       <r>    -1.5359     9.1019    58.2379 </r>
       <r>    -1.4713    12.0332    59.0153 </r>
       <r>    -1.4067    16.5525    60.0846 </r>
       <r>    -1.3421    21.7062    61.4869 </r>
       <r>    -1.2775    25.8201    63.1549 </r>
       <r>    -1.2129    27.5187    64.9327 </r>
       <r>    -1.1483    26.4684    66.6426 </r>
       <r>    -1.0837    23.4098    68.1549 </r>
       <r>    -1.0191    19.6431    69.4239 </r>
       <r>    -0.9545    16.3334    70.4791 </r>
       <r>    -0.8899    13.9990    71.3834 </r>
       <r>    -0.8253    12.4837    72.1899 </r>
       <r>    -0.7607    11.3930    72.9259 </r>
       <r>    -0.6961    10.5733    73.6090 </r>
       <r>    -0.6315    10.2113    74.2686 </r>
       <r>    -0.5669    10.5844    74.9524 </r>
       <r>    -0.5023    11.8175    75.7158 </r>
       <r>    -0.4377    13.8184    76.6085 </r>
       <r>    -0.3731    16.2571    77.6588 </r>
       <r>    -0.3085    18.5796    78.8590 </r>
       <r>    -0.2439    20.2490    80.1672 </r>
       <r>    -0.1793    21.1590    81.5341 </r>
       <r>    -0.1147    21.8512    82.9457 </r>
       <r>    -0.0501    23.2669    84.4488 </r>
       <r>     0.0145    26.0198    86.1297 </r>
       <r>     0.0791    29.5188    88.0367 </r>
       <r>     0.1437    31.7730    90.0893 </r>
       <r>     0.2084    30.5671    92.0640 </r>
       <r>     0.2730    25.2999    93.6984 </r>
       <r>     0.3376    17.6398    94.8380 </r>
       <r>     0.4022    10.2457    95.4998 </r>
       <r>     0.4668     4.9280    95.8182 </r>
       <r>     0.5314     1.9563    95.9446 </r>
       <r>     0.5960     0.6397    95.9859 </r>
       <r>     0.6606     0.1720    95.9970 </r>
       <r>     0.7252     0.0380    95.9995 </r>
       <r>     0.7898     0.0069    95.9999 </r>
       <r>     0.8544     0.0010    96.0000 </r>
       <r>     0.9190     0.0001    96.0000 </r>
       <r>     0.9836     0.0000    96.0000 </r>
       <r>     1.0482     0.0000    96.0000 </r>
       <r>     1.1128     0.0000    96.0000 </r>
       <r>     1.1774     0.0000    96.0000 </r>
       <r>     1.2420     0.0000    96.0000 </r>
       <r>     1.3066     0.0000    96.0000 </r>
       <r>     1.3712     0.0000    96.0000 </r>
       <r>     1.4358     0.0000    96.0000 </r>
       <r>     1.5004     0.0000    96.0000 </r>
       <r>     1.5650     0.0000    96.0000 </r>
       <r>     1.6296     0.0000    96.0000 </r>
       <r>     1.6942     0.0000    96.0000 </r>
       <r>     1.7588     0.0000    96.0000 </r>
       <r>     1.8234     0.0000    96.0000 </r>
       <r>     1.8880     0.0000    96.0000 </r>
       <r>     1.9526     0.0000    96.0000 </r>
       <r>     2.0172     0.0000    96.0000 </r>
       <r>     2.0818     0.0000    96.0000 </r>
       <r>     2.1464     0.0000    96.0000 </r>
       <r>     2.2110     0.0000    96.0000 </r>
      </set>
     </set>
    </array>
   </total>
  </dos>
 </calculation>
 <structure name="finalpos" >
  <crystal>
   <varray name="basis" >
    <v>      20.00000000       0.00000000       0.00000000 </v>
    <v>       0.00000000      20.00000000       0.00000000 </v>
    <v>       0.00000000       0.00000000      20.00000000 </v>
   </varray>
   <i name="volume">   8000.00000000 </i>
   <varray name="rec_basis" >
    <v>       0.05000000       0.00000000       0.00000000 </v>
    <v>       0.00000000       0.05000000       0.00000000 </v>
    <v>       0.00000000       0.00000000       0.05000000 </v>
   </varray>
  </crystal>
  <varray name="positions" >
   <v>       0.47380427       0.55633722       0.38431961 </v>
   <v>       0.36918482       0.53905428       0.43481175 </v>
   <v>       0.55651416       0.43197376       0.51308244 </v>
   <v>       0.54767852       0.62509886       0.55428987 </v>
   <v>       0.45190140       0.41467384       0.56357987 </v>
   <v>       0.54068483       0.45717357       0.39658616 </v>
   <v>       0.53051913       0.64805176       0.43763162 </v>
   <v>       0.38473417       0.51352341       0.55118506 </v>
   <v>       0.61259884       0.52463793       0.56540677 </v>
   <v>       0.44090159       0.60784301       0.60621195 </v>
   <v>       0.41704169       0.35647205       0.53175430 </v>
   <v>       0.46040385       0.39926972       0.63641090 </v>
   <v>       0.59899795       0.37047804       0.51965083 </v>
   <v>       0.68245306       0.53466912       0.53246202 </v>
   <v>       0.62494058       0.50908260       0.64073590 </v>
   <v>       0.60988622       0.46790167       0.36249304 </v>
   <v>       0.50651443       0.39712849       0.36053884 </v>
   <v>       0.46520091       0.57164378       0.31137210 </v>
   <v>       0.58352692       0.68251362       0.58669462 </v>
   <v>       0.44939051       0.59247942       0.68211075 </v>
   <v>       0.39671858       0.67171057       0.60008508 </v>
   <v>       0.31528323       0.50240999       0.58507130 </v>
   <v>       0.33322061       0.48250057       0.40128922 </v>
   <v>       0.32666872       0.60039623       0.42819799 </v>
   <v>       0.48904714       0.71345007       0.42915188 </v>
   <v>       0.59915389       0.65992643       0.40179314 </v>
  </varray>
 </structure>
</modeling>
