  26  26   0   0
  0.3076923E+03  0.2000000E-08  0.2000000E-08  0.2000000E-08  0.2000000E-16
  1.000000000000000E-004
  CAR 
 SiGe                                    
      2.20307560    -17.22270906  301     -5.37291719      1.00000000
    -17.223  0.0000E+00  0.0000E+00
    -17.158  0.0000E+00  0.0000E+00
    -17.093  0.0000E+00  0.0000E+00
    -17.028  0.0000E+00  0.0000E+00
    -16.964  0.0000E+00  0.0000E+00
    -16.899  0.0000E+00  0.0000E+00
    -16.834  0.0000E+00  0.0000E+00
    -16.769  0.0000E+00  0.0000E+00
    -16.705  0.0000E+00  0.0000E+00
    -16.640  0.0000E+00  0.0000E+00
    -16.575  0.0000E+00  0.0000E+00
    -16.510  0.0000E+00  0.0000E+00
    -16.446  0.0000E+00  0.0000E+00
    -16.381  0.9826E-17  0.6362E-18
    -16.316  0.4569E-15  0.3022E-16
    -16.251  0.1497E-13  0.9995E-15
    -16.187  0.3982E-12  0.2678E-13
    -16.122  0.8611E-11  0.5844E-12
    -16.057  0.1514E-09  0.1039E-10
    -15.992  0.2163E-08  0.1505E-09
    -15.928  0.2513E-07  0.1778E-08
    -15.863  0.2375E-06  0.1715E-07
    -15.798  0.1824E-05  0.1353E-06
    -15.733  0.1140E-04  0.8736E-06
    -15.669  0.5796E-04  0.4626E-05
    -15.604  0.2397E-03  0.2015E-04
    -15.539  0.8063E-03  0.7236E-04
    -15.474  0.2207E-02  0.2153E-03
    -15.410  0.4917E-02  0.5337E-03
    -15.345  0.8912E-02  0.1111E-02
    -15.280  0.1315E-01  0.1962E-02
    -15.215  0.1578E-01  0.2984E-02
    -15.151  0.1542E-01  0.3982E-02
    -15.086  0.1226E-01  0.4776E-02
    -15.021  0.7931E-02  0.5289E-02
    -14.956  0.4180E-02  0.5560E-02
    -14.892  0.1812E-02  0.5677E-02
    -14.827  0.7301E-03  0.5725E-02
    -14.762  0.5827E-03  0.5762E-02
    -14.697  0.1305E-02  0.5847E-02
    -14.633  0.3233E-02  0.6056E-02
    -14.568  0.6776E-02  0.6495E-02
    -14.503  0.1183E-01  0.7261E-02
    -14.438  0.1742E-01  0.8389E-02
    -14.374  0.2219E-01  0.9826E-02
    -14.309  0.2519E-01  0.1146E-01
    -14.244  0.2633E-01  0.1316E-01
    -14.179  0.2611E-01  0.1485E-01
    -14.115  0.2518E-01  0.1648E-01
    -14.050  0.2397E-01  0.1803E-01
    -13.985  0.2224E-01  0.1947E-01
    -13.920  0.1931E-01  0.2072E-01
    -13.856  0.1492E-01  0.2169E-01
    -13.791  0.9880E-02  0.2233E-01
    -13.726  0.5570E-02  0.2269E-01
    -13.661  0.2976E-02  0.2288E-01
    -13.597  0.2430E-02  0.2304E-01
    -13.532  0.3938E-02  0.2330E-01
    -13.467  0.7275E-02  0.2377E-01
    -13.402  0.1158E-01  0.2452E-01
    -13.338  0.1518E-01  0.2550E-01
    -13.273  0.1648E-01  0.2657E-01
    -13.208  0.1532E-01  0.2756E-01
    -13.143  0.1341E-01  0.2843E-01
    -13.079  0.1285E-01  0.2926E-01
    -13.014  0.1422E-01  0.3018E-01
    -12.949  0.1608E-01  0.3122E-01
    -12.884  0.1623E-01  0.3227E-01
    -12.820  0.1375E-01  0.3316E-01
    -12.755  0.9572E-02  0.3378E-01
    -12.690  0.5436E-02  0.3414E-01
    -12.625  0.2515E-02  0.3430E-01
    -12.561  0.9476E-03  0.3436E-01
    -12.496  0.2962E-03  0.3438E-01
    -12.431  0.1063E-03  0.3439E-01
    -12.366  0.1657E-03  0.3440E-01
    -12.302  0.5476E-03  0.3443E-01
    -12.237  0.1602E-02  0.3454E-01
    -12.172  0.3829E-02  0.3478E-01
    -12.107  0.7452E-02  0.3527E-01
    -12.042  0.1183E-01  0.3603E-01
    -11.978  0.1540E-01  0.3703E-01
    -11.913  0.1676E-01  0.3811E-01
    -11.848  0.1616E-01  0.3916E-01
    -11.783  0.1584E-01  0.4019E-01
    -11.719  0.1831E-01  0.4137E-01
    -11.654  0.2390E-01  0.4292E-01
    -11.589  0.2983E-01  0.4485E-01
    -11.524  0.3209E-01  0.4693E-01
    -11.460  0.2864E-01  0.4878E-01
    -11.395  0.2096E-01  0.5014E-01
    -11.330  0.1254E-01  0.5095E-01
    -11.265  0.6125E-02  0.5135E-01
    -11.201  0.2443E-02  0.5151E-01
    -11.136  0.8053E-03  0.5156E-01
    -11.071  0.2678E-03  0.5158E-01
    -11.006  0.2821E-03  0.5160E-01
    -10.942  0.8055E-03  0.5165E-01
    -10.877  0.2189E-02  0.5179E-01
    -10.812  0.4883E-02  0.5211E-01
    -10.747  0.8868E-02  0.5268E-01
    -10.683  0.1311E-01  0.5353E-01
    -10.618  0.1577E-01  0.5455E-01
    -10.553  0.1544E-01  0.5555E-01
    -10.488  0.1230E-01  0.5635E-01
    -10.424  0.7974E-02  0.5686E-01
    -10.359  0.4207E-02  0.5713E-01
    -10.294  0.1806E-02  0.5725E-01
    -10.229  0.6311E-03  0.5729E-01
    -10.165  0.1794E-03  0.5730E-01
    -10.100  0.4148E-04  0.5731E-01
    -10.035  0.7804E-05  0.5731E-01
     -9.970  0.1194E-05  0.5731E-01
     -9.906  0.1486E-06  0.5731E-01
     -9.841  0.1510E-07  0.5731E-01
     -9.776  0.2134E-08  0.5731E-01
     -9.711  0.1126E-07  0.5731E-01
     -9.647  0.1133E-06  0.5731E-01
     -9.582  0.9336E-06  0.5731E-01
     -9.517  0.6259E-05  0.5731E-01
     -9.452  0.3413E-04  0.5731E-01
     -9.388  0.1514E-03  0.5732E-01
     -9.323  0.5464E-03  0.5735E-01
     -9.258  0.1605E-02  0.5746E-01
     -9.193  0.3837E-02  0.5771E-01
     -9.129  0.7480E-02  0.5819E-01
     -9.064  0.1193E-01  0.5896E-01
     -8.999  0.1576E-01  0.5998E-01
     -8.934  0.1787E-01  0.6114E-01
     -8.870  0.1895E-01  0.6237E-01
     -8.805  0.2154E-01  0.6376E-01
     -8.740  0.2781E-01  0.6556E-01
     -8.675  0.3686E-01  0.6795E-01
     -8.611  0.4452E-01  0.7083E-01
     -8.546  0.4635E-01  0.7384E-01
     -8.481  0.4139E-01  0.7652E-01
     -8.416  0.3330E-01  0.7867E-01
     -8.352  0.2778E-01  0.8047E-01
     -8.287  0.2869E-01  0.8233E-01
     -8.222  0.3595E-01  0.8466E-01
     -8.157  0.4628E-01  0.8765E-01
     -8.093  0.5579E-01  0.9127E-01
     -8.028  0.6210E-01  0.9529E-01
     -7.963  0.6442E-01  0.9946E-01
     -7.898  0.6242E-01  0.1035E+00
     -7.834  0.5578E-01  0.1071E+00
     -7.769  0.4506E-01  0.1100E+00
     -7.704  0.3225E-01  0.1121E+00
     -7.639  0.2013E-01  0.1134E+00
     -7.575  0.1080E-01  0.1141E+00
     -7.510  0.4923E-02  0.1144E+00
     -7.445  0.1889E-02  0.1146E+00
     -7.380  0.6118E-03  0.1146E+00
     -7.316  0.2024E-03  0.1146E+00
     -7.251  0.2247E-03  0.1146E+00
     -7.186  0.7030E-03  0.1147E+00
     -7.121  0.2104E-02  0.1148E+00
     -7.057  0.5236E-02  0.1151E+00
     -6.992  0.1079E-01  0.1158E+00
     -6.927  0.1850E-01  0.1170E+00
     -6.862  0.2666E-01  0.1188E+00
     -6.798  0.3291E-01  0.1209E+00
     -6.733  0.3616E-01  0.1232E+00
     -6.668  0.3805E-01  0.1257E+00
     -6.603  0.4215E-01  0.1284E+00
     -6.539  0.5138E-01  0.1318E+00
     -6.474  0.6523E-01  0.1360E+00
     -6.409  0.7878E-01  0.1411E+00
     -6.344  0.8474E-01  0.1466E+00
     -6.280  0.7830E-01  0.1516E+00
     -6.215  0.6096E-01  0.1556E+00
     -6.150  0.3957E-01  0.1582E+00
     -6.085  0.2128E-01  0.1595E+00
     -6.021  0.9448E-02  0.1601E+00
     -5.956  0.3453E-02  0.1604E+00
     -5.891  0.1037E-02  0.1604E+00
     -5.826  0.2557E-03  0.1605E+00
     -5.761  0.5168E-04  0.1605E+00
     -5.697  0.8550E-05  0.1605E+00
     -5.632  0.1157E-05  0.1605E+00
     -5.567  0.1281E-06  0.1605E+00
     -5.502  0.1158E-07  0.1605E+00
     -5.438  0.8542E-09  0.1605E+00
     -5.373  0.5144E-10  0.1605E+00
     -5.308  0.2526E-11  0.1605E+00
     -5.243  0.1011E-12  0.1605E+00
     -5.179  0.3301E-14  0.1605E+00
     -5.114  0.8843E-16  0.1605E+00
     -5.049  0.0000E+00  0.1605E+00
     -4.984  0.0000E+00  0.1605E+00
     -4.920  0.0000E+00  0.1605E+00
     -4.855  0.0000E+00  0.1605E+00
     -4.790  0.0000E+00  0.1605E+00
     -4.725  0.0000E+00  0.1605E+00
     -4.661  0.0000E+00  0.1605E+00
     -4.596  0.0000E+00  0.1605E+00
     -4.531  0.0000E+00  0.1605E+00
     -4.466  0.0000E+00  0.1605E+00
     -4.402  0.0000E+00  0.1605E+00
     -4.337  0.0000E+00  0.1605E+00
     -4.272  0.0000E+00  0.1605E+00
     -4.207  0.0000E+00  0.1605E+00
     -4.143  0.0000E+00  0.1605E+00
     -4.078  0.0000E+00  0.1605E+00
     -4.013  0.0000E+00  0.1605E+00
     -3.948  0.0000E+00  0.1605E+00
     -3.884  0.0000E+00  0.1605E+00
     -3.819  0.0000E+00  0.1605E+00
     -3.754  0.0000E+00  0.1605E+00
     -3.689  0.0000E+00  0.1605E+00
     -3.625  0.0000E+00  0.1605E+00
     -3.560  0.0000E+00  0.1605E+00
     -3.495  0.0000E+00  0.1605E+00
     -3.430  0.0000E+00  0.1605E+00
     -3.366  0.0000E+00  0.1605E+00
     -3.301  0.0000E+00  0.1605E+00
     -3.236  0.0000E+00  0.1605E+00
     -3.171  0.0000E+00  0.1605E+00
     -3.107  0.0000E+00  0.1605E+00
     -3.042  0.0000E+00  0.1605E+00
     -2.977  0.0000E+00  0.1605E+00
     -2.912  0.0000E+00  0.1605E+00
     -2.848  0.0000E+00  0.1605E+00
     -2.783  0.1474E-16  0.1605E+00
     -2.718  0.5306E-15  0.1605E+00
     -2.653  0.1724E-13  0.1605E+00
     -2.589  0.4548E-12  0.1605E+00
     -2.524  0.9750E-11  0.1605E+00
     -2.459  0.1699E-09  0.1605E+00
     -2.394  0.2408E-08  0.1605E+00
     -2.330  0.2774E-07  0.1605E+00
     -2.265  0.2599E-06  0.1605E+00
     -2.200  0.1981E-05  0.1605E+00
     -2.135  0.1229E-04  0.1605E+00
     -2.071  0.6207E-04  0.1605E+00
     -2.006  0.2556E-03  0.1605E+00
     -1.941  0.8594E-03  0.1605E+00
     -1.876  0.2368E-02  0.1607E+00
     -1.812  0.5383E-02  0.1610E+00
     -1.747  0.1022E-01  0.1617E+00
     -1.682  0.1656E-01  0.1628E+00
     -1.617  0.2380E-01  0.1643E+00
     -1.553  0.3188E-01  0.1664E+00
     -1.488  0.4161E-01  0.1691E+00
     -1.423  0.5351E-01  0.1725E+00
     -1.358  0.6619E-01  0.1768E+00
     -1.294  0.7620E-01  0.1818E+00
     -1.229  0.8015E-01  0.1869E+00
     -1.164  0.7714E-01  0.1919E+00
     -1.099  0.6907E-01  0.1964E+00
     -1.035  0.5878E-01  0.2002E+00
     -0.970  0.4852E-01  0.2034E+00
     -0.905  0.3986E-01  0.2059E+00
     -0.840  0.3385E-01  0.2081E+00
     -0.776  0.3051E-01  0.2101E+00
     -0.711  0.2885E-01  0.2120E+00
     -0.646  0.2768E-01  0.2138E+00
     -0.581  0.2650E-01  0.2155E+00
     -0.517  0.2588E-01  0.2172E+00
     -0.452  0.2718E-01  0.2189E+00
     -0.387  0.3149E-01  0.2210E+00
     -0.322  0.3864E-01  0.2235E+00
     -0.258  0.4713E-01  0.2265E+00
     -0.193  0.5502E-01  0.2301E+00
     -0.128  0.6160E-01  0.2341E+00
     -0.063  0.6852E-01  0.2385E+00
      0.001  0.7832E-01  0.2436E+00
      0.066  0.9054E-01  0.2494E+00
      0.131  0.9942E-01  0.2559E+00
      0.196  0.9736E-01  0.2622E+00
      0.260  0.8173E-01  0.2675E+00
      0.325  0.5762E-01  0.2712E+00
      0.390  0.3380E-01  0.2734E+00
      0.455  0.1642E-01  0.2745E+00
      0.520  0.6586E-02  0.2749E+00
      0.584  0.2178E-02  0.2750E+00
      0.649  0.5930E-03  0.2751E+00
      0.714  0.1327E-03  0.2751E+00
      0.779  0.2439E-04  0.2751E+00
      0.843  0.3676E-05  0.2751E+00
      0.908  0.4538E-06  0.2751E+00
      0.973  0.4584E-07  0.2751E+00
      1.038  0.3785E-08  0.2751E+00
      1.102  0.2553E-09  0.2751E+00
      1.167  0.1405E-10  0.2751E+00
      1.232  0.6310E-12  0.2751E+00
      1.297  0.2309E-13  0.2751E+00
      1.361  0.7074E-15  0.2751E+00
      1.426  0.9826E-17  0.2751E+00
      1.491  0.0000E+00  0.2751E+00
      1.556  0.0000E+00  0.2751E+00
      1.620  0.0000E+00  0.2751E+00
      1.685  0.0000E+00  0.2751E+00
      1.750  0.0000E+00  0.2751E+00
      1.815  0.0000E+00  0.2751E+00
      1.879  0.0000E+00  0.2751E+00
      1.944  0.0000E+00  0.2751E+00
      2.009  0.0000E+00  0.2751E+00
      2.074  0.0000E+00  0.2751E+00
      2.138  0.0000E+00  0.2751E+00
      2.203  0.0000E+00  0.2751E+00
