       N       E                     dE             d eps       ncg     rms          rms(c)
DAV:   1     0.249193141047E+03    0.24919E+03   -0.10132E+04   120   0.484E+02
DAV:   2    -0.200798323084E+02   -0.26927E+03   -0.25519E+03   156   0.917E+01
DAV:   3    -0.999361959357E+02   -0.79856E+02   -0.79641E+02   120   0.556E+01
DAV:   4    -0.103796445647E+03   -0.38602E+01   -0.38472E+01   120   0.174E+01
DAV:   5    -0.103862080985E+03   -0.65635E-01   -0.65565E-01   156   0.250E+00    0.145E+01
DAV:   6    -0.100586300525E+03    0.32758E+01   -0.15408E+00   108   0.430E+00    0.831E+00
DAV:   7    -0.989441569190E+02    0.16421E+01   -0.40149E+00   120   0.618E+00    0.128E+00
DAV:   8    -0.988843297613E+02    0.59827E-01   -0.33701E-01   132   0.220E+00    0.667E-01
DAV:   9    -0.988503018169E+02    0.34028E-01   -0.60035E-02   144   0.664E-01    0.352E-01
DAV:  10    -0.988492113608E+02    0.10905E-02   -0.36401E-03   132   0.200E-01    0.136E-01
DAV:  11    -0.988484540022E+02    0.75736E-03   -0.60323E-03   120   0.209E-01    0.108E-01
DAV:  12    -0.988548230374E+02   -0.63690E-02   -0.19161E-03   132   0.114E-01    0.491E-02
DAV:  13    -0.988578493037E+02   -0.30263E-02   -0.15353E-03   132   0.108E-01    0.475E-02
DAV:  14    -0.988608373705E+02   -0.29881E-02   -0.21275E-04   108   0.520E-02    0.190E-02
DAV:  15    -0.988651461563E+02   -0.43088E-02   -0.46998E-04   108   0.545E-02    0.139E-02
DAV:  16    -0.988669884533E+02   -0.18423E-02   -0.14750E-04   132   0.336E-02    0.723E-03
DAV:  17    -0.988679548406E+02   -0.96639E-03   -0.73407E-05   132   0.190E-02    0.544E-03
DAV:  18    -0.988683366066E+02   -0.38177E-03   -0.15035E-05   132   0.928E-03    0.257E-03
DAV:  19    -0.988684938074E+02   -0.15720E-03   -0.52715E-06   108   0.544E-03    0.183E-03
DAV:  20    -0.988685537310E+02   -0.59924E-04   -0.11453E-06   108   0.318E-03    0.538E-04
DAV:  21    -0.988685774828E+02   -0.23752E-04   -0.58632E-07    96   0.199E-03    0.637E-04
DAV:  22    -0.988685904015E+02   -0.12919E-04   -0.25062E-07   108   0.129E-03    0.237E-04
DAV:  23    -0.988685944798E+02   -0.40783E-05   -0.89613E-08   108   0.681E-04    0.133E-04
DAV:  24    -0.988685986187E+02   -0.41389E-05   -0.66306E-08    96   0.539E-04    0.101E-04
DAV:  25    -0.988685992335E+02   -0.61483E-06   -0.61600E-09   108   0.261E-04
   1 F= -.98868599E+02 E0= -.98868599E+02  d E =-.126850E-10
       N       E                     dE             d eps       ncg     rms          rms(c)
DAV:   1    -0.988651856318E+02    0.34130E-02   -0.83113E-02    96   0.821E-01    0.118E-01
DAV:   2    -0.988655356826E+02   -0.35005E-03   -0.38205E-03   120   0.202E-01    0.537E-02
DAV:   3    -0.988655267551E+02    0.89275E-05   -0.12701E-04   132   0.421E-02    0.277E-02
DAV:   4    -0.988655297676E+02   -0.30125E-05   -0.30585E-05   120   0.210E-02    0.776E-03
DAV:   5    -0.988655291758E+02    0.59182E-06   -0.60860E-06   132   0.962E-03
   2 F= -.98865529E+02 E0= -.98865529E+02  d E =-.146707E-10
       N       E                     dE             d eps       ncg     rms          rms(c)
DAV:   1    -0.988641889954E+02    0.13408E-02   -0.32431E-01    96   0.165E+00    0.249E-01
DAV:   2    -0.988655651783E+02   -0.13762E-02   -0.14995E-02   120   0.401E-01    0.107E-01
DAV:   3    -0.988655347486E+02    0.30430E-04   -0.48916E-04   132   0.821E-02    0.575E-02
DAV:   4    -0.988655504971E+02   -0.15748E-04   -0.12555E-04   120   0.421E-02    0.160E-02
DAV:   5    -0.988655470741E+02    0.34229E-05   -0.26151E-05   132   0.196E-02    0.860E-03
DAV:   6    -0.988655469396E+02    0.13459E-06   -0.50925E-06   132   0.762E-03
   3 F= -.98865547E+02 E0= -.98865547E+02  d E =-.107031E-10
       N       E                     dE             d eps       ncg     rms          rms(c)
DAV:   1    -0.988650870419E+02    0.46003E-03   -0.16751E-01    96   0.114E+00    0.159E-01
DAV:   2    -0.988657797031E+02   -0.69266E-03   -0.74954E-03   120   0.278E-01    0.744E-02
DAV:   3    -0.988657734594E+02    0.62437E-05   -0.25372E-04   144   0.591E-02    0.387E-02
DAV:   4    -0.988657853741E+02   -0.11915E-04   -0.56851E-05   120   0.279E-02    0.106E-02
DAV:   5    -0.988657851972E+02    0.17697E-06   -0.10524E-05   132   0.125E-02    0.584E-03
DAV:   6    -0.988657857028E+02   -0.50563E-06   -0.27118E-06   132   0.550E-03
   4 F= -.98865786E+02 E0= -.98865786E+02  d E =-.136755E-10
       N       E                     dE             d eps       ncg     rms          rms(c)
DAV:   1    -0.988639318361E+02    0.18534E-02   -0.33016E-01    96   0.165E+00    0.193E-01
DAV:   2    -0.988654626616E+02   -0.15308E-02   -0.16038E-02   120   0.412E-01    0.107E-01
DAV:   3    -0.988654461878E+02    0.16474E-04   -0.47928E-04   120   0.842E-02    0.521E-02
DAV:   4    -0.988654634844E+02   -0.17297E-04   -0.12427E-04   120   0.422E-02    0.143E-02
DAV:   5    -0.988654582572E+02    0.52272E-05   -0.22270E-05   132   0.185E-02    0.727E-03
DAV:   6    -0.988654585218E+02   -0.26462E-06   -0.66617E-06   132   0.845E-03
   5 F= -.98865459E+02 E0= -.98865459E+02  d E =-.124991E-10
       N       E                     dE             d eps       ncg     rms          rms(c)
DAV:   1    -0.988631756034E+02    0.22827E-02   -0.16525E-01    96   0.118E+00    0.147E-01
DAV:   2    -0.988641132616E+02   -0.93766E-03   -0.97961E-03   120   0.322E-01    0.899E-02
DAV:   3    -0.988640888016E+02    0.24460E-04   -0.29522E-04   156   0.662E-02    0.483E-02
DAV:   4    -0.988640974497E+02   -0.86481E-05   -0.99085E-05   120   0.369E-02    0.110E-02
DAV:   5    -0.988640963867E+02    0.10630E-05   -0.20192E-05   132   0.164E-02    0.722E-03
DAV:   6    -0.988640981201E+02   -0.17334E-05   -0.39234E-06   132   0.634E-03    0.410E-03
DAV:   7    -0.988641034388E+02   -0.53187E-05   -0.68907E-07    96   0.289E-03    0.154E-03
DAV:   8    -0.988641093684E+02   -0.59296E-05   -0.43106E-07   120   0.191E-03    0.578E-04
DAV:   9    -0.988641154183E+02   -0.60499E-05   -0.31172E-07   108   0.151E-03    0.544E-04
DAV:  10    -0.988641221925E+02   -0.67741E-05   -0.56659E-07   120   0.153E-03    0.242E-04
DAV:  11    -0.988641242112E+02   -0.20188E-05   -0.61522E-08   108   0.716E-04    0.184E-04
DAV:  12    -0.988641260005E+02   -0.17893E-05   -0.47842E-08   108   0.489E-04    0.946E-05
DAV:  13    -0.988641271685E+02   -0.11679E-05   -0.24731E-08   108   0.345E-04    0.770E-05
DAV:  14    -0.988641278765E+02   -0.70804E-06   -0.82637E-09    96   0.235E-04
   6 F= -.98864128E+02 E0= -.98864128E+02  d E =-.156681E-10
       N       E                     dE             d eps       ncg     rms          rms(c)
DAV:   1    -0.988621670627E+02    0.19601E-02   -0.33756E-01    96   0.166E+00    0.261E-01
DAV:   2    -0.988644580790E+02   -0.22910E-02   -0.24723E-02   120   0.486E-01    0.167E-01
DAV:   3    -0.988643016745E+02    0.15640E-03   -0.68899E-04   132   0.102E-01    0.892E-02
DAV:   4    -0.988642957027E+02    0.59718E-05   -0.39263E-04   132   0.677E-02    0.159E-02
DAV:   5    -0.988642882317E+02    0.74710E-05   -0.65559E-05   132   0.280E-02    0.117E-02
DAV:   6    -0.988642880161E+02    0.21562E-06   -0.10023E-05   132   0.855E-03    0.799E-03
DAV:   7    -0.988643000447E+02   -0.12029E-04   -0.13281E-06   132   0.365E-03    0.314E-03
DAV:   8    -0.988643182454E+02   -0.18201E-04   -0.16489E-06   120   0.396E-03    0.125E-03
DAV:   9    -0.988643348274E+02   -0.16582E-04   -0.12069E-06   132   0.252E-03    0.155E-03
DAV:  10    -0.988643569496E+02   -0.22122E-04   -0.12416E-06   120   0.235E-03    0.589E-04
DAV:  11    -0.988643613958E+02   -0.44462E-05   -0.10975E-07   108   0.902E-04    0.397E-04
DAV:  12    -0.988643706593E+02   -0.92635E-05   -0.30253E-07   108   0.109E-03    0.206E-04
DAV:  13    -0.988643732804E+02   -0.26211E-05   -0.70047E-08   108   0.529E-04    0.216E-04
DAV:  14    -0.988643753857E+02   -0.21053E-05   -0.18952E-08    84   0.369E-04    0.104E-04
DAV:  15    -0.988643763503E+02   -0.96460E-06   -0.77866E-09   108   0.253E-04
   7 F= -.98864376E+02 E0= -.98864376E+02  d E =-.110645E-10
       N       E                     dE             d eps       ncg     rms          rms(c)
DAV:   1    -0.988634588932E+02    0.91649E-03   -0.19181E-01    96   0.131E+00    0.187E-01
DAV:   2    -0.988648405033E+02   -0.13816E-02   -0.14258E-02   108   0.411E-01    0.120E-01
DAV:   3    -0.988647606892E+02    0.79814E-04   -0.37814E-04   132   0.818E-02    0.653E-02
DAV:   4    -0.988647579660E+02    0.27232E-05   -0.21778E-04   120   0.565E-02    0.118E-02
DAV:   5    -0.988647536869E+02    0.42791E-05   -0.45446E-05   132   0.239E-02    0.954E-03
DAV:   6    -0.988647542528E+02   -0.56593E-06   -0.42667E-06   132   0.640E-03
   8 F= -.98864754E+02 E0= -.98864754E+02  d E =-.946916E-11
       N       E                     dE             d eps       ncg     rms          rms(c)
DAV:   1    -0.988623562661E+02    0.23974E-02   -0.33579E-01    96   0.178E+00    0.259E-01
DAV:   2    -0.988644244902E+02   -0.20682E-02   -0.21143E-02   132   0.489E-01    0.153E-01
DAV:   3    -0.988643601350E+02    0.64355E-04   -0.52472E-04   120   0.877E-02    0.837E-02
DAV:   4    -0.988643545991E+02    0.55359E-05   -0.23370E-04   132   0.584E-02    0.149E-02
DAV:   5    -0.988643460743E+02    0.85248E-05   -0.47731E-05   132   0.257E-02    0.108E-02
DAV:   6    -0.988643453100E+02    0.76426E-06   -0.75485E-06   132   0.952E-03
   9 F= -.98864345E+02 E0= -.98864345E+02  d E =-.175474E-10
       N       E                     dE             d eps       ncg     rms          rms(c)
DAV:   1    -0.988624529372E+02    0.18931E-02   -0.17134E-01    96   0.126E+00    0.182E-01
DAV:   2    -0.988635846975E+02   -0.11318E-02   -0.11297E-02   132   0.370E-01    0.115E-01
DAV:   3    -0.988635644579E+02    0.20240E-04   -0.27015E-04   132   0.679E-02    0.634E-02
DAV:   4    -0.988635843276E+02   -0.19870E-04   -0.16679E-04   120   0.493E-02    0.116E-02
DAV:   5    -0.988635801221E+02    0.42054E-05   -0.36851E-05   132   0.224E-02    0.851E-03
DAV:   6    -0.988635804077E+02   -0.28559E-06   -0.69175E-06   132   0.783E-03
  10 F= -.98863580E+02 E0= -.98863580E+02  d E =-.147883E-10
       N       E                     dE             d eps       ncg     rms          rms(c)
DAV:   1    -0.988612231330E+02    0.23570E-02   -0.34971E-01    96   0.178E+00    0.255E-01
DAV:   2    -0.988639754334E+02   -0.27523E-02   -0.27686E-02   132   0.563E-01    0.185E-01
DAV:   3    -0.988638310089E+02    0.14442E-03   -0.63024E-04   144   0.108E-01    0.946E-02
DAV:   4    -0.988638583307E+02   -0.27322E-04   -0.50626E-04   132   0.831E-02    0.183E-02
DAV:   5    -0.988638417538E+02    0.16577E-04   -0.10344E-04   132   0.372E-02    0.120E-02
DAV:   6    -0.988638412136E+02    0.54017E-06   -0.16531E-05   132   0.108E-02    0.684E-03
DAV:   7    -0.988638536660E+02   -0.12452E-04   -0.10916E-06   120   0.334E-03    0.336E-03
DAV:   8    -0.988638734149E+02   -0.19749E-04   -0.42101E-06   120   0.581E-03    0.166E-03
DAV:   9    -0.988638862661E+02   -0.12851E-04   -0.13053E-06   132   0.308E-03    0.163E-03
DAV:  10    -0.988639019623E+02   -0.15696E-04   -0.12358E-06   120   0.243E-03    0.562E-04
DAV:  11    -0.988639068431E+02   -0.48807E-05   -0.17414E-07   108   0.113E-03    0.322E-04
DAV:  12    -0.988639143888E+02   -0.75457E-05   -0.36294E-07    96   0.119E-03    0.190E-04
DAV:  13    -0.988639160658E+02   -0.16770E-05   -0.52216E-08   108   0.468E-04    0.196E-04
DAV:  14    -0.988639180501E+02   -0.19843E-05   -0.31053E-08    96   0.423E-04    0.102E-04
DAV:  15    -0.988639187224E+02   -0.67231E-06   -0.96839E-09   108   0.259E-04
  11 F= -.98863919E+02 E0= -.98863919E+02  d E =-.117114E-10
       N       E                     dE             d eps       ncg     rms          rms(c)
DAV:   1    -0.988640645756E+02   -0.14653E-03   -0.17186E-01    96   0.125E+00    0.172E-01
DAV:   2    -0.988653897685E+02   -0.13252E-02   -0.13486E-02   120   0.394E-01    0.123E-01
DAV:   3    -0.988653200568E+02    0.69712E-04   -0.29646E-04   132   0.722E-02    0.681E-02
DAV:   4    -0.988653204373E+02   -0.38051E-06   -0.21847E-04   132   0.579E-02    0.124E-02
DAV:   5    -0.988653162101E+02    0.42272E-05   -0.56122E-05   132   0.273E-02    0.919E-03
DAV:   6    -0.988653163935E+02   -0.18341E-06   -0.92393E-06   132   0.886E-03
  12 F= -.98865316E+02 E0= -.98865316E+02  d E =-.120748E-10
       N       E                     dE             d eps       ncg     rms          rms(c)
DAV:   1    -0.988634555780E+02    0.18606E-02   -0.32893E-01    96   0.167E+00    0.220E-01
DAV:   2    -0.988652384607E+02   -0.17829E-02   -0.18030E-02   132   0.436E-01    0.128E-01
DAV:   3    -0.988652378229E+02    0.63779E-06   -0.49257E-04   132   0.832E-02    0.702E-02
DAV:   4    -0.988652666995E+02   -0.28877E-04   -0.16431E-04   120   0.527E-02    0.130E-02
DAV:   5    -0.988652634249E+02    0.32746E-05   -0.43565E-05   132   0.250E-02    0.950E-03
DAV:   6    -0.988652628731E+02    0.55184E-06   -0.64947E-06   132   0.864E-03
  13 F= -.98865263E+02 E0= -.98865263E+02  d E =-.146601E-10
       N       E                     dE             d eps       ncg     rms          rms(c)
DAV:   1    -0.988642353144E+02    0.10281E-02   -0.16695E-01    96   0.124E+00    0.148E-01
DAV:   2    -0.988652801947E+02   -0.10449E-02   -0.10285E-02   144   0.337E-01    0.897E-02
DAV:   3    -0.988652847161E+02   -0.45215E-05   -0.23932E-04   132   0.601E-02    0.508E-02
DAV:   4    -0.988653058075E+02   -0.21091E-04   -0.92850E-05   120   0.385E-02    0.892E-03
DAV:   5    -0.988653054035E+02    0.40399E-06   -0.24445E-05   132   0.181E-02    0.679E-03
DAV:   6    -0.988653065008E+02   -0.10972E-05   -0.35168E-06   120   0.602E-03    0.456E-03
DAV:   7    -0.988653110718E+02   -0.45710E-05   -0.62789E-07   108   0.331E-03    0.173E-03
DAV:   8    -0.988653168523E+02   -0.57805E-05   -0.67981E-07    96   0.309E-03    0.665E-04
DAV:   9    -0.988653227482E+02   -0.58959E-05   -0.47075E-07    96   0.220E-03    0.709E-04
DAV:  10    -0.988653275008E+02   -0.47526E-05   -0.23633E-07    96   0.132E-03    0.351E-04
DAV:  11    -0.988653295799E+02   -0.20791E-05   -0.81809E-08   108   0.734E-04    0.236E-04
DAV:  12    -0.988653320238E+02   -0.24439E-05   -0.94709E-08    96   0.692E-04    0.916E-05
DAV:  13    -0.988653328525E+02   -0.82867E-06   -0.23984E-08   108   0.363E-04
  14 F= -.98865333E+02 E0= -.98865333E+02  d E =-.148838E-10
       N       E                     dE             d eps       ncg     rms          rms(c)
DAV:   1    -0.988633835942E+02    0.19484E-02   -0.33428E-01    96   0.172E+00    0.202E-01
DAV:   2    -0.988652572579E+02   -0.18737E-02   -0.19009E-02   132   0.456E-01    0.127E-01
DAV:   3    -0.988652390805E+02    0.18177E-04   -0.45154E-04   132   0.854E-02    0.683E-02
DAV:   4    -0.988652533750E+02   -0.14294E-04   -0.19174E-04   132   0.581E-02    0.136E-02
DAV:   5    -0.988652487980E+02    0.45771E-05   -0.54596E-05   132   0.278E-02    0.987E-03
DAV:   6    -0.988652484231E+02    0.37490E-06   -0.79657E-06   132   0.914E-03
  15 F= -.98865248E+02 E0= -.98865248E+02  d E =-.130254E-10
       N       E                     dE             d eps       ncg     rms          rms(c)
DAV:   1    -0.988635286558E+02    0.17201E-02   -0.17125E-01    96   0.129E+00    0.155E-01
DAV:   2    -0.988646449537E+02   -0.11163E-02   -0.11114E-02   144   0.370E-01    0.112E-01
DAV:   3    -0.988646324073E+02    0.12546E-04   -0.23625E-04   132   0.630E-02    0.618E-02
DAV:   4    -0.988646348697E+02   -0.24624E-05   -0.13930E-04   120   0.440E-02    0.103E-02
DAV:   5    -0.988646306214E+02    0.42482E-05   -0.25481E-05   132   0.189E-02    0.734E-03
DAV:   6    -0.988646312785E+02   -0.65708E-06   -0.62938E-06   120   0.793E-03
  16 F= -.98864631E+02 E0= -.98864631E+02  d E =-.161941E-10
       N       E                     dE             d eps       ncg     rms          rms(c)
DAV:   1    -0.988623367063E+02    0.22939E-02   -0.33829E-01    96   0.180E+00    0.218E-01
DAV:   2    -0.988644562738E+02   -0.21196E-02   -0.21330E-02   132   0.497E-01    0.153E-01
DAV:   3    -0.988644186148E+02    0.37659E-04   -0.45956E-04   120   0.864E-02    0.790E-02
DAV:   4    -0.988644183797E+02    0.23514E-06   -0.23715E-04   132   0.575E-02    0.144E-02
DAV:   5    -0.988644063804E+02    0.11999E-04   -0.40011E-05   132   0.241E-02    0.914E-03
DAV:   6    -0.988644007711E+02    0.56094E-05   -0.10987E-05   132   0.113E-02    0.524E-03
DAV:   7    -0.988644066200E+02   -0.58489E-05   -0.32778E-06   132   0.672E-03    0.212E-03
DAV:   8    -0.988644170805E+02   -0.10460E-04   -0.11365E-06   108   0.456E-03    0.120E-03
DAV:   9    -0.988644315740E+02   -0.14494E-04   -0.16076E-06   120   0.337E-03    0.114E-03
DAV:  10    -0.988644450082E+02   -0.13434E-04   -0.59324E-07   108   0.203E-03    0.471E-04
DAV:  11    -0.988644514231E+02   -0.64148E-05   -0.26440E-07   108   0.109E-03    0.353E-04
DAV:  12    -0.988644584237E+02   -0.70006E-05   -0.20089E-07    96   0.972E-04    0.158E-04
DAV:  13    -0.988644611566E+02   -0.27329E-05   -0.56391E-08   108   0.548E-04    0.105E-04
DAV:  14    -0.988644633843E+02   -0.22277E-05   -0.31347E-08    96   0.387E-04    0.480E-05
DAV:  15    -0.988644640966E+02   -0.71231E-06   -0.27799E-09   108   0.206E-04
  17 F= -.98864464E+02 E0= -.98864464E+02  d E =-.106107E-10
       N       E                     dE             d eps       ncg     rms          rms(c)
DAV:   1    -0.988623504710E+02    0.21129E-02   -0.17500E-01    96   0.124E+00    0.167E-01
DAV:   2    -0.988636906629E+02   -0.13402E-02   -0.13596E-02   132   0.393E-01    0.125E-01
DAV:   3    -0.988636224539E+02    0.68209E-04   -0.26960E-04   156   0.685E-02    0.709E-02
DAV:   4    -0.988636195642E+02    0.28897E-05   -0.23045E-04   132   0.585E-02    0.123E-02
DAV:   5    -0.988636157900E+02    0.37742E-05   -0.64047E-05   132   0.284E-02    0.926E-03
DAV:   6    -0.988636150546E+02    0.73546E-06   -0.10947E-05   132   0.973E-03    0.595E-03
DAV:   7    -0.988636236957E+02   -0.86411E-05   -0.23941E-06   132   0.506E-03    0.260E-03
DAV:   8    -0.988636385708E+02   -0.14875E-04   -0.13915E-06   132   0.325E-03    0.835E-04
DAV:   9    -0.988636529156E+02   -0.14345E-04   -0.13049E-06   132   0.257E-03    0.117E-03
DAV:  10    -0.988636649948E+02   -0.12079E-04   -0.71651E-07   108   0.202E-03    0.508E-04
DAV:  11    -0.988636699922E+02   -0.49974E-05   -0.30703E-07   108   0.113E-03    0.236E-04
DAV:  12    -0.988636736554E+02   -0.36632E-05   -0.12603E-07   108   0.760E-04    0.150E-04
DAV:  13    -0.988636751831E+02   -0.15277E-05   -0.37881E-08   108   0.449E-04    0.116E-04
DAV:  14    -0.988636762034E+02   -0.10203E-05   -0.13749E-08   108   0.305E-04    0.647E-05
DAV:  15    -0.988636766881E+02   -0.48464E-06   -0.10848E-09   108   0.197E-04
  18 F= -.98863677E+02 E0= -.98863677E+02  d E =-.145041E-10
       N       E                     dE             d eps       ncg     rms          rms(c)
DAV:   1    -0.988615073593E+02    0.21688E-02   -0.35377E-01    96   0.177E+00    0.246E-01
DAV:   2    -0.988640623514E+02   -0.25550E-02   -0.25932E-02   144   0.547E-01    0.178E-01
DAV:   3    -0.988639443872E+02    0.11796E-03   -0.59821E-04   144   0.101E-01    0.973E-02
DAV:   4    -0.988639366255E+02    0.77617E-05   -0.40515E-04   132   0.759E-02    0.169E-02
DAV:   5    -0.988639312951E+02    0.53304E-05   -0.92000E-05   132   0.345E-02    0.126E-02
DAV:   6    -0.988639367930E+02   -0.54979E-05   -0.17420E-05   132   0.117E-02    0.771E-03
DAV:   7    -0.988639604921E+02   -0.23699E-04   -0.32235E-06   132   0.582E-03    0.315E-03
DAV:   8    -0.988639950895E+02   -0.34597E-04   -0.37890E-06   132   0.512E-03    0.125E-03
DAV:   9    -0.988640232287E+02   -0.28139E-04   -0.32955E-06   132   0.411E-03    0.185E-03
DAV:  10    -0.988640432442E+02   -0.20015E-04   -0.15937E-06   108   0.299E-03    0.535E-04
DAV:  11    -0.988640509996E+02   -0.77555E-05   -0.38358E-07   108   0.144E-03    0.311E-04
DAV:  12    -0.988640568116E+02   -0.58120E-05   -0.29274E-07    96   0.106E-03    0.264E-04
DAV:  13    -0.988640588002E+02   -0.19886E-05   -0.54083E-08   108   0.489E-04    0.191E-04
DAV:  14    -0.988640603672E+02   -0.15670E-05   -0.24031E-08    96   0.384E-04    0.494E-05
DAV:  15    -0.988640609727E+02   -0.60552E-06   -0.65242E-09   108   0.244E-04
  19 F= -.98864061E+02 E0= -.98864061E+02  d E =-.120018E-10
       N       E                     dE             d eps       ncg     rms          rms(c)
DAV:   1    -0.988631890263E+02    0.87134E-03   -0.18500E-01    96   0.135E+00    0.165E-01
DAV:   2    -0.988644977811E+02   -0.13088E-02   -0.14574E-02   132   0.411E-01    0.112E-01
DAV:   3    -0.988644373209E+02    0.60460E-04   -0.27480E-04   144   0.645E-02    0.671E-02
DAV:   4    -0.988644077142E+02    0.29607E-04   -0.15366E-04   132   0.497E-02    0.101E-02
DAV:   5    -0.988644006877E+02    0.70265E-05   -0.46314E-05   132   0.246E-02    0.812E-03
DAV:   6    -0.988643981348E+02    0.25529E-05   -0.71392E-06   132   0.846E-03    0.538E-03
DAV:   7    -0.988644068280E+02   -0.86932E-05   -0.24066E-06   132   0.524E-03    0.215E-03
DAV:   8    -0.988644229188E+02   -0.16091E-04   -0.11099E-06   108   0.357E-03    0.104E-03
DAV:   9    -0.988644395810E+02   -0.16662E-04   -0.13496E-06   132   0.277E-03    0.139E-03
DAV:  10    -0.988644548491E+02   -0.15268E-04   -0.62072E-07    96   0.212E-03    0.371E-04
DAV:  11    -0.988644615969E+02   -0.67477E-05   -0.30885E-07   108   0.121E-03    0.398E-04
DAV:  12    -0.988644683681E+02   -0.67713E-05   -0.17502E-07    96   0.976E-04    0.176E-04
DAV:  13    -0.988644705492E+02   -0.21810E-05   -0.47284E-08   108   0.504E-04    0.137E-04
DAV:  14    -0.988644726564E+02   -0.21072E-05   -0.21318E-08    96   0.341E-04    0.556E-05
DAV:  15    -0.988644736239E+02   -0.96752E-06   -0.84914E-09   108   0.241E-04
  20 F= -.98864474E+02 E0= -.98864474E+02  d E =-.140796E-10
       N       E                     dE             d eps       ncg     rms          rms(c)
DAV:   1    -0.988629548890E+02    0.15178E-02   -0.40255E-01    96   0.171E+00    0.214E-01
DAV:   2    -0.988645603854E+02   -0.16055E-02   -0.19701E-02   132   0.424E-01    0.126E-01
DAV:   3    -0.988644505830E+02    0.10980E-03   -0.31108E-04   132   0.619E-02    0.692E-02
DAV:   4    -0.988643953951E+02    0.55188E-04   -0.14116E-04   132   0.462E-02    0.112E-02
DAV:   5    -0.988643904053E+02    0.49898E-05   -0.36562E-05   132   0.223E-02    0.754E-03
DAV:   6    -0.988644013004E+02   -0.10895E-04   -0.10850E-05   132   0.904E-03    0.475E-03
DAV:   7    -0.988644239597E+02   -0.22659E-04   -0.14971E-06   120   0.382E-03    0.245E-03
DAV:   8    -0.988644607747E+02   -0.36815E-04   -0.41987E-06   120   0.459E-03    0.127E-03
DAV:   9    -0.988644802189E+02   -0.19444E-04   -0.13636E-06   120   0.274E-03    0.986E-04
DAV:  10    -0.988645017053E+02   -0.21486E-04   -0.19267E-06   108   0.278E-03    0.433E-04
DAV:  11    -0.988645087191E+02   -0.70138E-05   -0.26734E-07   108   0.126E-03    0.328E-04
DAV:  12    -0.988645151089E+02   -0.63899E-05   -0.29560E-07    96   0.111E-03    0.183E-04
DAV:  13    -0.988645169827E+02   -0.18738E-05   -0.62889E-08   108   0.518E-04    0.168E-04
DAV:  14    -0.988645187162E+02   -0.17335E-05   -0.28355E-08    96   0.407E-04    0.541E-05
DAV:  15    -0.988645191336E+02   -0.41739E-06   -0.19203E-09   108   0.200E-04
  21 F= -.98864519E+02 E0= -.98864519E+02  d E =-.112697E-10
       N       E                     dE             d eps       ncg     rms          rms(c)
DAV:   1    -0.988641599242E+02    0.35879E-03   -0.20108E-01    96   0.122E+00    0.147E-01
DAV:   2    -0.988650325814E+02   -0.87266E-03   -0.10555E-02   132   0.315E-01    0.949E-02
DAV:   3    -0.988649664420E+02    0.66139E-04   -0.13475E-04   132   0.412E-02    0.535E-02
DAV:   4    -0.988649294469E+02    0.36995E-04   -0.83121E-05   132   0.337E-02    0.783E-03
DAV:   5    -0.988649237341E+02    0.57129E-05   -0.20960E-05   132   0.163E-02    0.543E-03
DAV:   6    -0.988649282741E+02   -0.45400E-05   -0.61923E-06   132   0.631E-03    0.328E-03
DAV:   7    -0.988649413257E+02   -0.13052E-04   -0.66911E-07    96   0.249E-03    0.166E-03
DAV:   8    -0.988649641519E+02   -0.22826E-04   -0.25966E-06   108   0.340E-03    0.959E-04
DAV:   9    -0.988649783220E+02   -0.14170E-04   -0.96119E-07   120   0.218E-03    0.831E-04
DAV:  10    -0.988649911533E+02   -0.12831E-04   -0.88288E-07   108   0.192E-03    0.288E-04
DAV:  11    -0.988649951156E+02   -0.39623E-05   -0.10224E-07   108   0.809E-04    0.211E-04
DAV:  12    -0.988649996241E+02   -0.45085E-05   -0.16821E-07    96   0.814E-04    0.126E-04
DAV:  13    -0.988650006050E+02   -0.98090E-06   -0.16060E-08   108   0.317E-04
  22 F= -.98865001E+02 E0= -.98865001E+02  d E =-.120738E-10
       N       E                     dE             d eps       ncg     rms          rms(c)
DAV:   1    -0.988633931109E+02    0.16065E-02   -0.40395E-01    96   0.177E+00    0.213E-01
DAV:   2    -0.988649913363E+02   -0.15982E-02   -0.19212E-02   132   0.408E-01    0.115E-01
DAV:   3    -0.988649070436E+02    0.84293E-04   -0.30984E-04   132   0.605E-02    0.625E-02
DAV:   4    -0.988648619363E+02    0.45107E-04   -0.11958E-04   132   0.432E-02    0.115E-02
DAV:   5    -0.988648520582E+02    0.98781E-05   -0.30279E-05   132   0.206E-02    0.760E-03
DAV:   6    -0.988648531741E+02   -0.11160E-05   -0.79344E-06   132   0.853E-03    0.427E-03
DAV:   7    -0.988648640215E+02   -0.10847E-04   -0.16106E-06   132   0.442E-03    0.213E-03
DAV:   8    -0.988648841365E+02   -0.20115E-04   -0.17161E-06   108   0.388E-03    0.119E-03
DAV:   9    -0.988648989994E+02   -0.14863E-04   -0.80698E-07   108   0.244E-03    0.949E-04
DAV:  10    -0.988649165806E+02   -0.17581E-04   -0.10622E-06   108   0.217E-03    0.313E-04
DAV:  11    -0.988649235855E+02   -0.70049E-05   -0.17748E-07   108   0.108E-03    0.309E-04
DAV:  12    -0.988649295450E+02   -0.59594E-05   -0.13812E-07    96   0.808E-04    0.165E-04
DAV:  13    -0.988649324409E+02   -0.28959E-05   -0.56255E-08   108   0.486E-04    0.988E-05
DAV:  14    -0.988649341971E+02   -0.17562E-05   -0.15408E-08    96   0.315E-04    0.548E-05
DAV:  15    -0.988649347941E+02   -0.59695E-06   -0.98140E-10   108   0.173E-04
  23 F= -.98864935E+02 E0= -.98864935E+02  d E =-.148518E-10
       N       E                     dE             d eps       ncg     rms          rms(c)
DAV:   1    -0.988645080968E+02    0.42610E-03   -0.20317E-01    96   0.121E+00    0.145E-01
DAV:   2    -0.988652873752E+02   -0.77928E-03   -0.96994E-03   132   0.291E-01    0.856E-02
DAV:   3    -0.988652297268E+02    0.57648E-04   -0.14490E-04   132   0.396E-02    0.467E-02
DAV:   4    -0.988651870395E+02    0.42687E-04   -0.52863E-05   132   0.259E-02    0.793E-03
DAV:   5    -0.988651834774E+02    0.35621E-05   -0.90903E-06   132   0.116E-02    0.440E-03
DAV:   6    -0.988651943964E+02   -0.10919E-04   -0.52915E-06   132   0.727E-03    0.235E-03
DAV:   7    -0.988652124548E+02   -0.18058E-04   -0.22681E-06   120   0.455E-03    0.155E-03
DAV:   8    -0.988652331460E+02   -0.20691E-04   -0.14797E-06   108   0.292E-03    0.768E-04
DAV:   9    -0.988652499823E+02   -0.16836E-04   -0.15054E-06   108   0.258E-03    0.601E-04
DAV:  10    -0.988652635961E+02   -0.13614E-04   -0.12732E-06   108   0.214E-03    0.237E-04
DAV:  11    -0.988652677450E+02   -0.41490E-05   -0.16320E-07   108   0.882E-04    0.182E-04
DAV:  12    -0.988652705754E+02   -0.28304E-05   -0.12108E-07    96   0.660E-04    0.925E-05
DAV:  13    -0.988652715350E+02   -0.95959E-06   -0.23236E-08   108   0.333E-04
  24 F= -.98865272E+02 E0= -.98865272E+02  d E =-.114986E-10
       N       E                     dE             d eps       ncg     rms          rms(c)
DAV:   1    -0.988639405015E+02    0.13301E-02   -0.40841E-01    96   0.175E+00    0.186E-01
DAV:   2    -0.988653956653E+02   -0.14552E-02   -0.17735E-02   132   0.388E-01    0.101E-01
DAV:   3    -0.988653334053E+02    0.62260E-04   -0.29871E-04   132   0.583E-02    0.528E-02
DAV:   4    -0.988652885311E+02    0.44874E-04   -0.76448E-05   132   0.370E-02    0.102E-02
DAV:   5    -0.988652786123E+02    0.99188E-05   -0.21865E-05   132   0.185E-02    0.692E-03
DAV:   6    -0.988652815365E+02   -0.29242E-05   -0.58180E-06   132   0.791E-03    0.431E-03
DAV:   7    -0.988652928489E+02   -0.11312E-04   -0.12311E-06   108   0.473E-03    0.180E-03
DAV:   8    -0.988653096940E+02   -0.16845E-04   -0.14265E-06   108   0.427E-03    0.135E-03
DAV:   9    -0.988653353333E+02   -0.25639E-04   -0.20945E-06   108   0.398E-03    0.666E-04
DAV:  10    -0.988653474707E+02   -0.12137E-04   -0.60984E-07   108   0.224E-03    0.643E-04
DAV:  11    -0.988653534239E+02   -0.59532E-05   -0.13375E-07   108   0.999E-04    0.323E-04
DAV:  12    -0.988653607983E+02   -0.73744E-05   -0.26499E-07    96   0.106E-03    0.302E-04
DAV:  13    -0.988653625164E+02   -0.17181E-05   -0.33250E-08   108   0.471E-04    0.196E-04
DAV:  14    -0.988653645722E+02   -0.20558E-05   -0.33124E-08    84   0.424E-04    0.687E-05
DAV:  15    -0.988653653314E+02   -0.75910E-06   -0.34179E-09   108   0.232E-04
  25 F= -.98865365E+02 E0= -.98865365E+02  d E =-.164131E-10
       N       E                     dE             d eps       ncg     rms          rms(c)
DAV:   1    -0.988633259598E+02    0.20386E-02   -0.20048E-01    96   0.136E+00    0.147E-01
DAV:   2    -0.988644451085E+02   -0.11191E-02   -0.13550E-02   132   0.358E-01    0.839E-02
DAV:   3    -0.988644102913E+02    0.34817E-04   -0.22082E-04   132   0.489E-02    0.483E-02
DAV:   4    -0.988643764662E+02    0.33825E-04   -0.62202E-05   132   0.309E-02    0.861E-03
DAV:   5    -0.988643703188E+02    0.61474E-05   -0.15001E-05   132   0.144E-02    0.509E-03
DAV:   6    -0.988643746423E+02   -0.43235E-05   -0.41697E-06   120   0.726E-03    0.270E-03
DAV:   7    -0.988643871701E+02   -0.12528E-04   -0.14315E-06    96   0.458E-03    0.136E-03
DAV:   8    -0.988644076865E+02   -0.20516E-04   -0.19515E-06   108   0.387E-03    0.918E-04
DAV:   9    -0.988644232480E+02   -0.15562E-04   -0.10786E-06   108   0.271E-03    0.544E-04
DAV:  10    -0.988644330267E+02   -0.97787E-05   -0.42867E-07   108   0.156E-03    0.323E-04
DAV:  11    -0.988644388902E+02   -0.58635E-05   -0.26841E-07    96   0.103E-03    0.226E-04
DAV:  12    -0.988644431128E+02   -0.42226E-05   -0.15995E-07   108   0.804E-04    0.100E-04
DAV:  13    -0.988644447412E+02   -0.16284E-05   -0.37388E-08    96   0.430E-04    0.621E-05
DAV:  14    -0.988644457808E+02   -0.10396E-05   -0.13586E-08    96   0.290E-04    0.386E-05
DAV:  15    -0.988644461029E+02   -0.32216E-06    0.91029E-10   108   0.172E-04
  26 F= -.98864446E+02 E0= -.98864446E+02  d E =-.986112E-11
       N       E                     dE             d eps       ncg     rms          rms(c)
DAV:   1    -0.988628822752E+02    0.15635E-02   -0.40917E-01   108   0.187E+00    0.215E-01
DAV:   2    -0.988644290854E+02   -0.15468E-02   -0.18977E-02   120   0.449E-01    0.126E-01
DAV:   3    -0.988643167702E+02    0.11232E-03   -0.30121E-04   132   0.615E-02    0.661E-02
DAV:   4    -0.988642591577E+02    0.57612E-04   -0.13235E-04   132   0.438E-02    0.110E-02
DAV:   5    -0.988642537556E+02    0.54021E-05   -0.33371E-05   132   0.209E-02    0.668E-03
DAV:   6    -0.988642665158E+02   -0.12760E-04   -0.10841E-05   132   0.898E-03    0.411E-03
DAV:   7    -0.988642895199E+02   -0.23004E-04   -0.13364E-06   108   0.360E-03    0.219E-03
DAV:   8    -0.988643272486E+02   -0.37729E-04   -0.42312E-06   120   0.449E-03    0.119E-03
DAV:   9    -0.988643476281E+02   -0.20380E-04   -0.13508E-06   120   0.267E-03    0.828E-04
DAV:  10    -0.988643694861E+02   -0.21858E-04   -0.19539E-06   108   0.275E-03    0.382E-04
DAV:  11    -0.988643763426E+02   -0.68565E-05   -0.22654E-07   108   0.117E-03    0.312E-04
DAV:  12    -0.988643832147E+02   -0.68721E-05   -0.33913E-07   108   0.118E-03    0.180E-04
DAV:  13    -0.988643846660E+02   -0.14514E-05   -0.48593E-08   108   0.489E-04    0.146E-04
DAV:  14    -0.988643862237E+02   -0.15577E-05   -0.21644E-08    96   0.378E-04    0.490E-05
DAV:  15    -0.988643867769E+02   -0.55315E-06   -0.42306E-09   108   0.222E-04
  27 F= -.98864387E+02 E0= -.98864387E+02  d E =-.207439E-10
       N       E                     dE             d eps       ncg     rms          rms(c)
DAV:   1    -0.988640709232E+02    0.31530E-03   -0.20267E-01    96   0.135E+00    0.150E-01
DAV:   2    -0.988647947853E+02   -0.72386E-03   -0.88844E-03   108   0.311E-01    0.774E-02
DAV:   3    -0.988647528058E+02    0.41980E-04   -0.14974E-04   132   0.423E-02    0.404E-02
DAV:   4    -0.988647251649E+02    0.27641E-04   -0.46489E-05   132   0.264E-02    0.782E-03
DAV:   5    -0.988647189574E+02    0.62074E-05   -0.99442E-06   132   0.123E-02    0.458E-03
DAV:   6    -0.988647200153E+02   -0.10579E-05   -0.34740E-06   132   0.659E-03    0.246E-03
DAV:   7    -0.988647268332E+02   -0.68179E-05   -0.99266E-07    84   0.409E-03    0.132E-03
DAV:   8    -0.988647387919E+02   -0.11959E-04   -0.10746E-06   108   0.331E-03    0.846E-04
DAV:   9    -0.988647507216E+02   -0.11930E-04   -0.65629E-07    84   0.226E-03    0.508E-04
DAV:  10    -0.988647592918E+02   -0.85702E-05   -0.38739E-07    96   0.135E-03    0.284E-04
DAV:  11    -0.988647655444E+02   -0.62526E-05   -0.16597E-07    84   0.833E-04    0.176E-04
DAV:  12    -0.988647692313E+02   -0.36870E-05   -0.71261E-08   108   0.561E-04    0.870E-05
DAV:  13    -0.988647713808E+02   -0.21494E-05   -0.39869E-08    84   0.397E-04    0.539E-05
DAV:  14    -0.988647724897E+02   -0.11089E-05   -0.76591E-09    96   0.249E-04    0.299E-05
DAV:  15    -0.988647728480E+02   -0.35831E-06    0.13240E-09    84   0.143E-04
  28 F= -.98864773E+02 E0= -.98864773E+02  d E =-.104229E-10
       N       E                     dE             d eps       ncg     rms          rms(c)
DAV:   1    -0.988632169838E+02    0.15555E-02   -0.40529E-01    96   0.187E+00    0.216E-01
DAV:   2    -0.988647993711E+02   -0.15824E-02   -0.19358E-02   132   0.445E-01    0.118E-01
DAV:   3    -0.988646990735E+02    0.10030E-03   -0.31001E-04   132   0.602E-02    0.645E-02
DAV:   4    -0.988646274232E+02    0.71650E-04   -0.10821E-04   132   0.383E-02    0.115E-02
DAV:   5    -0.988646232822E+02    0.41410E-05   -0.20101E-05   132   0.172E-02    0.708E-03
DAV:   6    -0.988646393414E+02   -0.16059E-04   -0.91263E-06   132   0.102E-02    0.348E-03
DAV:   7    -0.988646665558E+02   -0.27214E-04   -0.43410E-06   120   0.667E-03    0.225E-03
DAV:   8    -0.988647017102E+02   -0.35154E-04   -0.29205E-06   108   0.431E-03    0.110E-03
DAV:   9    -0.988647273110E+02   -0.25601E-04   -0.23967E-06   108   0.351E-03    0.892E-04
DAV:  10    -0.988647490291E+02   -0.21718E-04   -0.20508E-06   108   0.287E-03    0.345E-04
DAV:  11    -0.988647560982E+02   -0.70691E-05   -0.31734E-07   108   0.128E-03    0.270E-04
DAV:  12    -0.988647611316E+02   -0.50334E-05   -0.22917E-07   108   0.933E-04    0.131E-04
DAV:  13    -0.988647629983E+02   -0.18667E-05   -0.63204E-08   108   0.512E-04    0.725E-05
DAV:  14    -0.988647640604E+02   -0.10621E-05   -0.13530E-08   108   0.319E-04    0.465E-05
DAV:  15    -0.988647644118E+02   -0.35144E-06    0.77410E-10   108   0.164E-04
  29 F= -.98864764E+02 E0= -.98864764E+02  d E =-.168991E-10
       N       E                     dE             d eps       ncg     rms          rms(c)
DAV:   1    -0.988647595135E+02    0.45469E-05   -0.20202E-01   120   0.131E+00    0.146E-01
DAV:   2    -0.988655347351E+02   -0.77522E-03   -0.92384E-03   120   0.294E-01    0.705E-02
DAV:   3    -0.988655078413E+02    0.26894E-04   -0.17443E-04   132   0.456E-02    0.372E-02
DAV:   4    -0.988654950771E+02    0.12764E-04   -0.47348E-05   132   0.298E-02    0.807E-03
DAV:   5    -0.988654919392E+02    0.31378E-05   -0.15705E-05   132   0.147E-02    0.546E-03
DAV:   6    -0.988654925671E+02   -0.62789E-06   -0.24330E-06   132   0.484E-03
  30 F= -.98865493E+02 E0= -.98865493E+02  d E =-.103222E-10
       N       E                     dE             d eps       ncg     rms          rms(c)
DAV:   1    -0.988641647358E+02    0.13272E-02   -0.40793E-01    96   0.180E+00    0.188E-01
DAV:   2    -0.988657053903E+02   -0.15407E-02   -0.18325E-02   120   0.409E-01    0.933E-02
DAV:   3    -0.988656717093E+02    0.33681E-04   -0.34046E-04   132   0.619E-02    0.501E-02
DAV:   4    -0.988656540813E+02    0.17628E-04   -0.79211E-05   132   0.384E-02    0.104E-02
DAV:   5    -0.988656505486E+02    0.35326E-05   -0.25471E-05   132   0.193E-02    0.718E-03
DAV:   6    -0.988656530900E+02   -0.25413E-05   -0.45030E-06   132   0.721E-03    0.444E-03
DAV:   7    -0.988656604570E+02   -0.73670E-05   -0.93873E-07   108   0.437E-03    0.167E-03
DAV:   8    -0.988656704541E+02   -0.99971E-05   -0.12598E-06   120   0.398E-03    0.122E-03
DAV:   9    -0.988656864966E+02   -0.16042E-04   -0.11565E-06   108   0.334E-03    0.526E-04
DAV:  10    -0.988656928895E+02   -0.63929E-05   -0.33404E-07   108   0.179E-03    0.530E-04
DAV:  11    -0.988656981713E+02   -0.52819E-05   -0.12709E-07   108   0.988E-04    0.263E-04
DAV:  12    -0.988657031011E+02   -0.49298E-05   -0.16611E-07    96   0.843E-04    0.214E-04
DAV:  13    -0.988657049625E+02   -0.18614E-05   -0.27004E-08   108   0.417E-04    0.107E-04
DAV:  14    -0.988657066805E+02   -0.17180E-05   -0.38196E-08    96   0.384E-04    0.562E-05
DAV:  15    -0.988657074163E+02   -0.73579E-06   -0.31915E-09   108   0.210E-04
  31 F= -.98865707E+02 E0= -.98865707E+02  d E =-.227044E-10
       N       E                     dE             d eps       ncg     rms          rms(c)
DAV:   1    -0.988637729928E+02    0.19337E-02   -0.19531E-01    96   0.136E+00    0.147E-01
DAV:   2    -0.988648838126E+02   -0.11108E-02   -0.13272E-02   120   0.334E-01    0.788E-02
DAV:   3    -0.988648422892E+02    0.41523E-04   -0.24650E-04   144   0.526E-02    0.437E-02
DAV:   4    -0.988648120804E+02    0.30209E-04   -0.55719E-05   120   0.310E-02    0.957E-03
DAV:   5    -0.988648039719E+02    0.81086E-05   -0.16552E-05   132   0.157E-02    0.572E-03
DAV:   6    -0.988648065505E+02   -0.25786E-05   -0.31394E-06   132   0.636E-03    0.348E-03
DAV:   7    -0.988648166792E+02   -0.10129E-04   -0.11922E-06   108   0.394E-03    0.129E-03
DAV:   8    -0.988648281507E+02   -0.11472E-04   -0.84650E-07   120   0.298E-03    0.937E-04
DAV:   9    -0.988648445672E+02   -0.16417E-04   -0.12908E-06   108   0.282E-03    0.451E-04
DAV:  10    -0.988648521451E+02   -0.75778E-05   -0.45264E-07   108   0.172E-03    0.341E-04
DAV:  11    -0.988648570498E+02   -0.49048E-05   -0.21961E-07    96   0.104E-03    0.199E-04
DAV:  12    -0.988648601754E+02   -0.31256E-05   -0.12648E-07    96   0.720E-04    0.123E-04
DAV:  13    -0.988648616755E+02   -0.15001E-05   -0.39107E-08   108   0.432E-04    0.738E-05
DAV:  14    -0.988648624839E+02   -0.80850E-06   -0.14998E-08    84   0.278E-04
  32 F= -.98864862E+02 E0= -.98864862E+02  d E =-.187820E-10
       N       E                     dE             d eps       ncg     rms          rms(c)
DAV:   1    -0.988633497271E+02    0.15119E-02   -0.38740E-01    96   0.174E+00    0.207E-01
DAV:   2    -0.988648208951E+02   -0.14712E-02   -0.18140E-02   132   0.407E-01    0.120E-01
DAV:   3    -0.988646897582E+02    0.13114E-03   -0.30784E-04   132   0.665E-02    0.611E-02
DAV:   4    -0.988646441465E+02    0.45612E-04   -0.14431E-04   132   0.450E-02    0.119E-02
DAV:   5    -0.988646339467E+02    0.10200E-04   -0.23525E-05   132   0.187E-02    0.753E-03
DAV:   6    -0.988646366650E+02   -0.27183E-05   -0.75813E-06   132   0.836E-03    0.391E-03
DAV:   7    -0.988646500461E+02   -0.13381E-04   -0.16191E-06   132   0.410E-03    0.184E-03
DAV:   8    -0.988646714041E+02   -0.21358E-04   -0.12886E-06   108   0.295E-03    0.105E-03
DAV:   9    -0.988646902109E+02   -0.18807E-04   -0.99656E-07   120   0.214E-03    0.815E-04
DAV:  10    -0.988647095449E+02   -0.19334E-04   -0.11077E-06   120   0.199E-03    0.367E-04
DAV:  11    -0.988647149845E+02   -0.54395E-05   -0.90329E-08   108   0.796E-04    0.255E-04
DAV:  12    -0.988647221773E+02   -0.71928E-05   -0.22353E-07    96   0.960E-04    0.130E-04
DAV:  13    -0.988647238606E+02   -0.16832E-05   -0.25150E-08   108   0.411E-04    0.944E-05
DAV:  14    -0.988647253620E+02   -0.15015E-05   -0.98389E-09    96   0.309E-04    0.436E-05
DAV:  15    -0.988647259279E+02   -0.56581E-06   -0.80551E-10   108   0.184E-04
  33 F= -.98864726E+02 E0= -.98864726E+02  d E =-.955356E-11
       N       E                     dE             d eps       ncg     rms          rms(c)
DAV:   1    -0.988650344245E+02   -0.30906E-03   -0.19900E-01    96   0.127E+00    0.135E-01
DAV:   2    -0.988658060855E+02   -0.77166E-03   -0.92881E-03   144   0.288E-01    0.784E-02
DAV:   3    -0.988657509659E+02    0.55120E-04   -0.15860E-04   132   0.458E-02    0.411E-02
DAV:   4    -0.988657277581E+02    0.23208E-04   -0.65085E-05   132   0.309E-02    0.813E-03
DAV:   5    -0.988657231837E+02    0.45744E-05   -0.12697E-05   132   0.135E-02    0.505E-03
DAV:   6    -0.988657268484E+02   -0.36647E-05   -0.33793E-06   132   0.574E-03    0.257E-03
DAV:   7    -0.988657351921E+02   -0.83436E-05   -0.75440E-07   120   0.274E-03    0.118E-03
DAV:   8    -0.988657456598E+02   -0.10468E-04   -0.68006E-07   120   0.209E-03    0.686E-04
DAV:   9    -0.988657561141E+02   -0.10454E-04   -0.69471E-07   120   0.184E-03    0.450E-04
DAV:  10    -0.988657654289E+02   -0.93148E-05   -0.80584E-07   120   0.172E-03    0.243E-04
DAV:  11    -0.988657676886E+02   -0.22597E-05   -0.50265E-08   108   0.672E-04    0.158E-04
DAV:  12    -0.988657704023E+02   -0.27137E-05   -0.10116E-07   108   0.676E-04    0.882E-05
DAV:  13    -0.988657713811E+02   -0.97882E-06   -0.26561E-08   108   0.363E-04
  34 F= -.98865771E+02 E0= -.98865771E+02  d E =-.949090E-11
       N       E                     dE             d eps       ncg     rms          rms(c)
DAV:   1    -0.988646372819E+02    0.11331E-02   -0.41135E-01    96   0.177E+00    0.200E-01
DAV:   2    -0.988659591974E+02   -0.13219E-02   -0.15699E-02   132   0.364E-01    0.860E-02
DAV:   3    -0.988658995067E+02    0.59691E-04   -0.33337E-04   132   0.639E-02    0.447E-02
DAV:   4    -0.988658814602E+02    0.18047E-04   -0.80881E-05   132   0.367E-02    0.124E-02
DAV:   5    -0.988658780637E+02    0.33964E-05   -0.20827E-05   132   0.180E-02    0.721E-03
DAV:   6    -0.988658787364E+02   -0.67268E-06   -0.41319E-06   132   0.732E-03
  35 F= -.98865879E+02 E0= -.98865879E+02  d E =-.246574E-10
       N       E                     dE             d eps       ncg     rms          rms(c)
DAV:   1    -0.988649478153E+02    0.93025E-03   -0.20476E-01    96   0.123E+00    0.134E-01
DAV:   2    -0.988655925224E+02   -0.64471E-03   -0.75840E-03   144   0.255E-01    0.607E-02
DAV:   3    -0.988655726658E+02    0.19857E-04   -0.16502E-04   132   0.441E-02    0.308E-02
DAV:   4    -0.988655742611E+02   -0.15953E-05   -0.42482E-05   120   0.257E-02    0.816E-03
DAV:   5    -0.988655752876E+02   -0.10265E-05   -0.84588E-06   132   0.114E-02    0.474E-03
DAV:   6    -0.988655768918E+02   -0.16042E-05   -0.18501E-06   132   0.483E-03    0.245E-03
DAV:   7    -0.988655793859E+02   -0.24940E-05   -0.28052E-07   108   0.222E-03    0.806E-04
DAV:   8    -0.988655819478E+02   -0.25619E-05   -0.15732E-07   108   0.158E-03    0.486E-04
DAV:   9    -0.988655860867E+02   -0.41389E-05   -0.22206E-07    96   0.159E-03    0.195E-04
DAV:  10    -0.988655883247E+02   -0.22380E-05   -0.14520E-07   108   0.108E-03    0.196E-04
DAV:  11    -0.988655895293E+02   -0.12046E-05   -0.23438E-08    96   0.523E-04    0.122E-04
DAV:  12    -0.988655907386E+02   -0.12093E-05   -0.27048E-08    96   0.406E-04    0.636E-05
DAV:  13    -0.988655914138E+02   -0.67521E-06   -0.11721E-08    96   0.261E-04
  36 F= -.98865591E+02 E0= -.98865591E+02  d E =-.986229E-11
       N       E                     dE             d eps       ncg     rms          rms(c)
DAV:   1    -0.988644014742E+02    0.11893E-02   -0.40276E-01    96   0.176E+00    0.208E-01
DAV:   2    -0.988656885244E+02   -0.12871E-02   -0.15680E-02   132   0.376E-01    0.947E-02
DAV:   3    -0.988656142631E+02    0.74261E-04   -0.33237E-04   132   0.652E-02    0.480E-02
DAV:   4    -0.988655924330E+02    0.21830E-04   -0.99260E-05   132   0.391E-02    0.122E-02
DAV:   5    -0.988655877344E+02    0.46986E-05   -0.20457E-05   132   0.175E-02    0.703E-03
DAV:   6    -0.988655902876E+02   -0.25532E-05   -0.42419E-06   132   0.702E-03    0.369E-03
DAV:   7    -0.988655980497E+02   -0.77621E-05   -0.68297E-07   108   0.329E-03    0.133E-03
DAV:   8    -0.988656070276E+02   -0.89779E-05   -0.63947E-07   120   0.256E-03    0.826E-04
DAV:   9    -0.988656199543E+02   -0.12927E-04   -0.92231E-07   108   0.268E-03    0.410E-04
DAV:  10    -0.988656270142E+02   -0.70599E-05   -0.44654E-07   108   0.177E-03    0.311E-04
DAV:  11    -0.988656299141E+02   -0.28999E-05   -0.10274E-07   108   0.878E-04    0.217E-04
DAV:  12    -0.988656333071E+02   -0.33931E-05   -0.11709E-07    96   0.748E-04    0.106E-04
DAV:  13    -0.988656346414E+02   -0.13343E-05   -0.37972E-08   108   0.418E-04    0.889E-05
DAV:  14    -0.988656356745E+02   -0.10331E-05   -0.18504E-08    96   0.305E-04    0.375E-05
DAV:  15    -0.988656360530E+02   -0.37845E-06   -0.12708E-10   108   0.173E-04
  37 F= -.98865636E+02 E0= -.98865636E+02  d E =-.208420E-10
       N       E                     dE             d eps       ncg     rms          rms(c)
DAV:   1    -0.988644301553E+02    0.12055E-02   -0.20061E-01    96   0.131E+00    0.158E-01
DAV:   2    -0.988654491627E+02   -0.10190E-02   -0.12149E-02   144   0.318E-01    0.711E-02
DAV:   3    -0.988654027572E+02    0.46406E-04   -0.24773E-04   144   0.547E-02    0.391E-02
DAV:   4    -0.988653852592E+02    0.17498E-04   -0.63375E-05   132   0.312E-02    0.103E-02
DAV:   5    -0.988653815375E+02    0.37217E-05   -0.15254E-05   132   0.150E-02    0.589E-03
DAV:   6    -0.988653824291E+02   -0.89163E-06   -0.26249E-06   132   0.590E-03
  38 F= -.98865382E+02 E0= -.98865382E+02  d E =-.113119E-10
       N       E                     dE             d eps       ncg     rms          rms(c)
DAV:   1    -0.988639730496E+02    0.14085E-02   -0.40770E-01    96   0.180E+00    0.215E-01
DAV:   2    -0.988653982475E+02   -0.14252E-02   -0.16905E-02   144   0.404E-01    0.992E-02
DAV:   3    -0.988653305369E+02    0.67711E-04   -0.29780E-04   132   0.625E-02    0.519E-02
DAV:   4    -0.988653040844E+02    0.26452E-04   -0.10909E-04   132   0.410E-02    0.115E-02
DAV:   5    -0.988652972315E+02    0.68529E-05   -0.23113E-05   132   0.183E-02    0.687E-03
DAV:   6    -0.988652980805E+02   -0.84905E-06   -0.47609E-06   132   0.749E-03
  39 F= -.98865298E+02 E0= -.98865298E+02  d E =-.221135E-10
       N       E                     dE             d eps       ncg     rms          rms(c)
DAV:   1    -0.988644515593E+02    0.84567E-03   -0.20755E-01    96   0.127E+00    0.137E-01
DAV:   2    -0.988650356504E+02   -0.58409E-03   -0.69853E-03   132   0.248E-01    0.592E-02
DAV:   3    -0.988650163053E+02    0.19345E-04   -0.13980E-04   132   0.416E-02    0.302E-02
DAV:   4    -0.988650165922E+02   -0.28686E-06   -0.37131E-05   132   0.251E-02    0.770E-03
DAV:   5    -0.988650194129E+02   -0.28208E-05   -0.91895E-06   132   0.117E-02    0.453E-03
DAV:   6    -0.988650230631E+02   -0.36502E-05   -0.19361E-06   132   0.481E-03    0.244E-03
DAV:   7    -0.988650276477E+02   -0.45846E-05   -0.28718E-07   108   0.200E-03    0.101E-03
DAV:   8    -0.988650329483E+02   -0.53006E-05   -0.32841E-07   108   0.172E-03    0.504E-04
DAV:   9    -0.988650394902E+02   -0.65419E-05   -0.47100E-07    96   0.185E-03    0.298E-04
DAV:  10    -0.988650432120E+02   -0.37218E-05   -0.27041E-07   108   0.125E-03    0.196E-04
DAV:  11    -0.988650448367E+02   -0.16246E-05   -0.36029E-08   108   0.590E-04    0.144E-04
DAV:  12    -0.988650465601E+02   -0.17234E-05   -0.47617E-08   108   0.520E-04    0.775E-05
DAV:  13    -0.988650472497E+02   -0.68965E-06   -0.12865E-08   108   0.281E-04
  40 F= -.98865047E+02 E0= -.98865047E+02  d E =-.150496E-10
       N       E                     dE             d eps       ncg     rms          rms(c)
DAV:   1    -0.988634272191E+02    0.16193E-02   -0.39588E-01    96   0.177E+00    0.190E-01
DAV:   2    -0.988649898243E+02   -0.15626E-02   -0.19009E-02   132   0.414E-01    0.115E-01
DAV:   3    -0.988648767893E+02    0.11303E-03   -0.28777E-04   132   0.634E-02    0.605E-02
DAV:   4    -0.988648273583E+02    0.49431E-04   -0.13740E-04   132   0.456E-02    0.111E-02
DAV:   5    -0.988648169186E+02    0.10440E-04   -0.28742E-05   132   0.202E-02    0.734E-03
DAV:   6    -0.988648194609E+02   -0.25423E-05   -0.71258E-06   132   0.827E-03    0.406E-03
DAV:   7    -0.988648321944E+02   -0.12733E-04   -0.13702E-06   120   0.402E-03    0.183E-03
DAV:   8    -0.988648516864E+02   -0.19492E-04   -0.14013E-06   120   0.316E-03    0.111E-03
DAV:   9    -0.988648713219E+02   -0.19636E-04   -0.10577E-06   120   0.235E-03    0.770E-04
DAV:  10    -0.988648882307E+02   -0.16909E-04   -0.87998E-07    96   0.192E-03    0.360E-04
DAV:  11    -0.988648937266E+02   -0.54959E-05   -0.16825E-07   108   0.947E-04    0.245E-04
DAV:  12    -0.988649007977E+02   -0.70711E-05   -0.23277E-07    96   0.976E-04    0.129E-04
DAV:  13    -0.988649030728E+02   -0.22751E-05   -0.52303E-08   108   0.496E-04    0.911E-05
DAV:  14    -0.988649047559E+02   -0.16831E-05   -0.18776E-08    96   0.321E-04    0.427E-05
DAV:  15    -0.988649054788E+02   -0.72286E-06   -0.25475E-09   108   0.202E-04
  41 F= -.98864905E+02 E0= -.98864905E+02  d E =-.143200E-10
       N       E                     dE             d eps       ncg     rms          rms(c)
DAV:   1    -0.988654145937E+02   -0.50984E-03   -0.20171E-01    96   0.128E+00    0.129E-01
DAV:   2    -0.988661193652E+02   -0.70477E-03   -0.84436E-03   144   0.276E-01    0.680E-02
DAV:   3    -0.988660832187E+02    0.36146E-04   -0.14552E-04   132   0.436E-02    0.359E-02
DAV:   4    -0.988660652442E+02    0.17975E-04   -0.46930E-05   132   0.285E-02    0.751E-03
DAV:   5    -0.988660620840E+02    0.31602E-05   -0.11572E-05   132   0.131E-02    0.504E-03
DAV:   6    -0.988660635720E+02   -0.14880E-05   -0.24865E-06   132   0.553E-03    0.269E-03
DAV:   7    -0.988660687337E+02   -0.51617E-05   -0.58332E-07   108   0.284E-03    0.119E-03
DAV:   8    -0.988660765329E+02   -0.77993E-05   -0.57924E-07    96   0.227E-03    0.635E-04
DAV:   9    -0.988660854059E+02   -0.88730E-05   -0.69165E-07   108   0.201E-03    0.450E-04
DAV:  10    -0.988660916079E+02   -0.62020E-05   -0.37747E-07   108   0.146E-03    0.231E-04
DAV:  11    -0.988660936132E+02   -0.20053E-05   -0.73195E-08   108   0.690E-04    0.189E-04
DAV:  12    -0.988660962876E+02   -0.26744E-05   -0.10246E-07    96   0.699E-04    0.875E-05
DAV:  13    -0.988660970098E+02   -0.72222E-06   -0.18450E-08   108   0.333E-04
  42 F= -.98866097E+02 E0= -.98866097E+02  d E =-.135890E-10
       N       E                     dE             d eps       ncg     rms          rms(c)
DAV:   1    -0.988645750491E+02    0.15212E-02   -0.41044E-01    96   0.180E+00    0.174E-01
DAV:   2    -0.988657899572E+02   -0.12149E-02   -0.14595E-02   132   0.355E-01    0.790E-02
DAV:   3    -0.988657467934E+02    0.43164E-04   -0.29414E-04   132   0.607E-02    0.392E-02
DAV:   4    -0.988657326618E+02    0.14132E-04   -0.66629E-05   144   0.357E-02    0.104E-02
DAV:   5    -0.988657303104E+02    0.23514E-05   -0.17653E-05   132   0.163E-02    0.618E-03
DAV:   6    -0.988657322307E+02   -0.19203E-05   -0.33895E-06   132   0.642E-03    0.326E-03
DAV:   7    -0.988657367889E+02   -0.45583E-05   -0.39015E-07   108   0.275E-03    0.129E-03
DAV:   8    -0.988657429324E+02   -0.61434E-05   -0.38801E-07   108   0.241E-03    0.715E-04
DAV:   9    -0.988657529245E+02   -0.99922E-05   -0.78475E-07    96   0.289E-03    0.354E-04
DAV:  10    -0.988657576994E+02   -0.47749E-05   -0.41459E-07   108   0.176E-03    0.362E-04
DAV:  11    -0.988657591613E+02   -0.14619E-05   -0.29644E-08   108   0.652E-04    0.293E-04
DAV:  12    -0.988657619340E+02   -0.27727E-05   -0.75622E-08    96   0.731E-04    0.998E-05
DAV:  13    -0.988657631492E+02   -0.12151E-05   -0.40450E-08    96   0.455E-04    0.133E-04
DAV:  14    -0.988657637533E+02   -0.60413E-06   -0.18173E-09   108   0.246E-04
  43 F= -.98865764E+02 E0= -.98865764E+02  d E =-.162818E-10
       N       E                     dE             d eps       ncg     rms          rms(c)
DAV:   1    -0.988646873750E+02    0.10758E-02   -0.20105E-01   120   0.128E+00    0.134E-01
DAV:   2    -0.988656533470E+02   -0.96597E-03   -0.11404E-02   120   0.295E-01    0.616E-02
DAV:   3    -0.988656348230E+02    0.18524E-04   -0.19583E-04   144   0.448E-02    0.339E-02
DAV:   4    -0.988656233168E+02    0.11506E-04   -0.38245E-05   120   0.234E-02    0.844E-03
DAV:   5    -0.988656195592E+02    0.37577E-05   -0.75121E-06   132   0.112E-02    0.427E-03
DAV:   6    -0.988656198172E+02   -0.25803E-06   -0.23569E-06   120   0.584E-03
  44 F= -.98865620E+02 E0= -.98865620E+02  d E =-.344487E-10
       N       E                     dE             d eps       ncg     rms          rms(c)
DAV:   1    -0.988641951004E+02    0.14245E-02   -0.41091E-01    96   0.168E+00    0.177E-01
DAV:   2    -0.988655901192E+02   -0.13950E-02   -0.16437E-02   144   0.378E-01    0.904E-02
DAV:   3    -0.988655415363E+02    0.48583E-04   -0.25680E-04   132   0.570E-02    0.480E-02
DAV:   4    -0.988655149107E+02    0.26626E-04   -0.89983E-05   120   0.405E-02    0.100E-02
DAV:   5    -0.988655086198E+02    0.62908E-05   -0.27115E-05   132   0.195E-02    0.621E-03
DAV:   6    -0.988655097008E+02   -0.10809E-05   -0.48526E-06   120   0.742E-03    0.347E-03
DAV:   7    -0.988655153159E+02   -0.56152E-05   -0.71324E-07   108   0.317E-03    0.171E-03
DAV:   8    -0.988655240043E+02   -0.86884E-05   -0.71338E-07   108   0.266E-03    0.765E-04
DAV:   9    -0.988655346752E+02   -0.10671E-04   -0.78234E-07   120   0.243E-03    0.537E-04
DAV:  10    -0.988655428880E+02   -0.82128E-05   -0.59611E-07   108   0.186E-03    0.297E-04
DAV:  11    -0.988655469011E+02   -0.40131E-05   -0.12484E-07   108   0.992E-04    0.171E-04
DAV:  12    -0.988655491734E+02   -0.22723E-05   -0.71423E-08    84   0.568E-04    0.116E-04
DAV:  13    -0.988655509237E+02   -0.17503E-05   -0.47531E-08    96   0.433E-04    0.639E-05
DAV:  14    -0.988655515902E+02   -0.66647E-06   -0.63484E-09   108   0.224E-04
  45 F= -.98865552E+02 E0= -.98865552E+02  d E =-.190663E-10
       N       E                     dE             d eps       ncg     rms          rms(c)
DAV:   1    -0.988642420916E+02    0.13088E-02   -0.19834E-01    96   0.120E+00    0.136E-01
DAV:   2    -0.988650111575E+02   -0.76907E-03   -0.95478E-03   132   0.285E-01    0.822E-02
DAV:   3    -0.988649501614E+02    0.60996E-04   -0.14190E-04   132   0.438E-02    0.418E-02
DAV:   4    -0.988649222383E+02    0.27923E-04   -0.65680E-05   132   0.310E-02    0.778E-03
DAV:   5    -0.988649160230E+02    0.62152E-05   -0.13334E-05   132   0.136E-02    0.476E-03
DAV:   6    -0.988649175727E+02   -0.15497E-05   -0.38161E-06   132   0.566E-03    0.253E-03
DAV:   7    -0.988649250233E+02   -0.74506E-05   -0.61674E-07   108   0.258E-03    0.129E-03
DAV:   8    -0.988649381141E+02   -0.13091E-04   -0.91660E-07   108   0.227E-03    0.725E-04
DAV:   9    -0.988649496734E+02   -0.11559E-04   -0.58286E-07   120   0.167E-03    0.555E-04
DAV:  10    -0.988649603490E+02   -0.10676E-04   -0.49828E-07    96   0.141E-03    0.231E-04
DAV:  11    -0.988649637414E+02   -0.33924E-05   -0.97921E-08   108   0.669E-04    0.181E-04
DAV:  12    -0.988649679622E+02   -0.42208E-05   -0.11181E-07    96   0.688E-04    0.878E-05
DAV:  13    -0.988649693035E+02   -0.13413E-05   -0.25843E-08   108   0.363E-04    0.609E-05
DAV:  14    -0.988649704230E+02   -0.11195E-05   -0.88527E-09    96   0.257E-04    0.325E-05
DAV:  15    -0.988649708007E+02   -0.37768E-06    0.19193E-09   108   0.147E-04
  46 F= -.98864971E+02 E0= -.98864971E+02  d E =-.217596E-10
       N       E                     dE             d eps       ncg     rms          rms(c)
DAV:   1    -0.988637288677E+02    0.12416E-02   -0.39796E-01   108   0.170E+00    0.187E-01
DAV:   2    -0.988652032986E+02   -0.14744E-02   -0.18051E-02   120   0.391E-01    0.109E-01
DAV:   3    -0.988651022251E+02    0.10107E-03   -0.27722E-04   132   0.596E-02    0.572E-02
DAV:   4    -0.988650536281E+02    0.48597E-04   -0.11517E-04   120   0.416E-02    0.107E-02
DAV:   5    -0.988650477088E+02    0.59193E-05   -0.24719E-05   132   0.185E-02    0.674E-03
DAV:   6    -0.988650563162E+02   -0.86073E-05   -0.72087E-06   132   0.802E-03    0.357E-03
DAV:   7    -0.988650734959E+02   -0.17180E-04   -0.18093E-06   120   0.398E-03    0.186E-03
DAV:   8    -0.988650970436E+02   -0.23548E-04   -0.19565E-06   120   0.309E-03    0.953E-04
DAV:   9    -0.988651159527E+02   -0.18909E-04   -0.14919E-06   108   0.250E-03    0.750E-04
DAV:  10    -0.988651338884E+02   -0.17936E-04   -0.17984E-06   120   0.244E-03    0.318E-04
DAV:  11    -0.988651387305E+02   -0.48421E-05   -0.13660E-07   108   0.914E-04    0.223E-04
DAV:  12    -0.988651429826E+02   -0.42521E-05   -0.16295E-07    96   0.809E-04    0.110E-04
DAV:  13    -0.988651445919E+02   -0.16093E-05   -0.49019E-08    96   0.439E-04    0.702E-05
DAV:  14    -0.988651454714E+02   -0.87954E-06   -0.41836E-09   108   0.242E-04
  47 F= -.98865145E+02 E0= -.98865145E+02  d E =-.136062E-10
       N       E                     dE             d eps       ncg     rms          rms(c)
DAV:   1    -0.988649923034E+02    0.15229E-03   -0.19907E-01   108   0.118E+00    0.134E-01
DAV:   2    -0.988657446322E+02   -0.75233E-03   -0.93010E-03   132   0.277E-01    0.796E-02
DAV:   3    -0.988656884491E+02    0.56183E-04   -0.14559E-04   132   0.422E-02    0.408E-02
DAV:   4    -0.988656616131E+02    0.26836E-04   -0.60530E-05   120   0.295E-02    0.766E-03
DAV:   5    -0.988656555225E+02    0.60906E-05   -0.13670E-05   132   0.136E-02    0.462E-03
DAV:   6    -0.988656571603E+02   -0.16378E-05   -0.35176E-06   120   0.543E-03    0.269E-03
DAV:   7    -0.988656645720E+02   -0.74116E-05   -0.58871E-07   108   0.257E-03    0.128E-03
DAV:   8    -0.988656768388E+02   -0.12267E-04   -0.88436E-07    96   0.231E-03    0.774E-04
DAV:   9    -0.988656881733E+02   -0.11334E-04   -0.57183E-07   108   0.170E-03    0.572E-04
DAV:  10    -0.988656983929E+02   -0.10220E-04   -0.46964E-07    96   0.139E-03    0.248E-04
DAV:  11    -0.988657016983E+02   -0.33054E-05   -0.85329E-08   108   0.655E-04    0.184E-04
DAV:  12    -0.988657061535E+02   -0.44552E-05   -0.12489E-07    84   0.712E-04    0.998E-05
DAV:  13    -0.988657075442E+02   -0.13907E-05   -0.25473E-08    96   0.359E-04    0.649E-05
DAV:  14    -0.988657087208E+02   -0.11767E-05   -0.10685E-08    96   0.264E-04    0.325E-05
DAV:  15    -0.988657091351E+02   -0.41426E-06    0.14709E-09    96   0.150E-04
  48 F= -.98865709E+02 E0= -.98865709E+02  d E =-.121774E-10
       N       E                     dE             d eps       ncg     rms          rms(c)
DAV:   1    -0.988644275397E+02    0.12812E-02   -0.40963E-01    96   0.167E+00    0.173E-01
DAV:   2    -0.988656714197E+02   -0.12439E-02   -0.15102E-02   144   0.359E-01    0.868E-02
DAV:   3    -0.988656150757E+02    0.56344E-04   -0.26164E-04   132   0.582E-02    0.439E-02
DAV:   4    -0.988655878158E+02    0.27260E-04   -0.76150E-05   132   0.382E-02    0.967E-03
DAV:   5    -0.988655838169E+02    0.39989E-05   -0.23565E-05   132   0.185E-02    0.625E-03
DAV:   6    -0.988655874307E+02   -0.36138E-05   -0.42479E-06   132   0.683E-03    0.366E-03
DAV:   7    -0.988655954543E+02   -0.80235E-05   -0.55831E-07   108   0.289E-03    0.178E-03
DAV:   8    -0.988656081323E+02   -0.12678E-04   -0.10091E-06   120   0.298E-03    0.899E-04
DAV:   9    -0.988656222381E+02   -0.14106E-04   -0.10373E-06   120   0.273E-03    0.620E-04
DAV:  10    -0.988656325485E+02   -0.10310E-04   -0.73238E-07   120   0.205E-03    0.425E-04
DAV:  11    -0.988656366582E+02   -0.41098E-05   -0.10406E-07   108   0.995E-04    0.205E-04
DAV:  12    -0.988656399107E+02   -0.32524E-05   -0.10700E-07   108   0.699E-04    0.182E-04
DAV:  13    -0.988656416161E+02   -0.17055E-05   -0.42944E-08   108   0.435E-04    0.841E-05
DAV:  14    -0.988656424753E+02   -0.85920E-06   -0.68216E-09   108   0.243E-04
  49 F= -.98865642E+02 E0= -.98865642E+02  d E =-.290395E-10
       N       E                     dE             d eps       ncg     rms          rms(c)
DAV:   1    -0.988637054096E+02    0.19362E-02   -0.19577E-01    96   0.133E+00    0.141E-01
DAV:   2    -0.988647608324E+02   -0.10554E-02   -0.13044E-02   132   0.337E-01    0.758E-02
DAV:   3    -0.988647301610E+02    0.30671E-04   -0.23259E-04   144   0.492E-02    0.426E-02
DAV:   4    -0.988647047865E+02    0.25374E-04   -0.47888E-05   132   0.285E-02    0.887E-03
DAV:   5    -0.988646969698E+02    0.78167E-05   -0.12913E-05   132   0.139E-02    0.505E-03
DAV:   6    -0.988646977562E+02   -0.78642E-06   -0.32362E-06   132   0.665E-03
  50 F= -.98864698E+02 E0= -.98864698E+02  d E =-.164914E-10
       N       E                     dE             d eps       ncg     rms          rms(c)
DAV:   1    -0.988630776472E+02    0.16193E-02   -0.40157E-01    96   0.186E+00    0.195E-01
DAV:   2    -0.988645800341E+02   -0.15024E-02   -0.18289E-02   132   0.438E-01    0.116E-01
DAV:   3    -0.988645062864E+02    0.73748E-04   -0.25527E-04   132   0.544E-02    0.602E-02
DAV:   4    -0.988644290534E+02    0.77233E-04   -0.96254E-05   132   0.349E-02    0.102E-02
DAV:   5    -0.988644203618E+02    0.86916E-05   -0.14758E-05   132   0.156E-02    0.581E-03
DAV:   6    -0.988644343040E+02   -0.13942E-04   -0.10438E-05   132   0.107E-02    0.308E-03
DAV:   7    -0.988644570320E+02   -0.22728E-04   -0.33888E-06   132   0.613E-03    0.214E-03
DAV:   8    -0.988644852049E+02   -0.28173E-04   -0.21745E-06   108   0.352E-03    0.994E-04
DAV:   9    -0.988645108645E+02   -0.25660E-04   -0.26116E-06   108   0.346E-03    0.823E-04
DAV:  10    -0.988645319499E+02   -0.21085E-04   -0.22550E-06   108   0.292E-03    0.308E-04
DAV:  11    -0.988645364187E+02   -0.44689E-05   -0.14497E-07   108   0.981E-04    0.280E-04
DAV:  12    -0.988645407340E+02   -0.43153E-05   -0.17842E-07    96   0.856E-04    0.112E-04
DAV:  13    -0.988645422351E+02   -0.15011E-05   -0.38897E-08   108   0.415E-04    0.715E-05
DAV:  14    -0.988645432632E+02   -0.10280E-05   -0.91588E-09    96   0.289E-04    0.416E-05
DAV:  15    -0.988645436592E+02   -0.39603E-06    0.11329E-09   108   0.166E-04
  51 F= -.98864544E+02 E0= -.98864544E+02  d E =-.170783E-10
       N       E                     dE             d eps       ncg     rms          rms(c)
DAV:   1    -0.988651761872E+02   -0.63292E-03   -0.20391E-01   120   0.129E+00    0.130E-01
DAV:   2    -0.988658810032E+02   -0.70482E-03   -0.86289E-03   108   0.296E-01    0.724E-02
DAV:   3    -0.988658475942E+02    0.33409E-04   -0.14478E-04   132   0.413E-02    0.377E-02
DAV:   4    -0.988658239706E+02    0.23624E-04   -0.44188E-05   132   0.280E-02    0.672E-03
DAV:   5    -0.988658194332E+02    0.45374E-05   -0.13275E-05   132   0.137E-02    0.456E-03
DAV:   6    -0.988658207006E+02   -0.12674E-05   -0.35907E-06   132   0.605E-03    0.264E-03
DAV:   7    -0.988658261266E+02   -0.54260E-05   -0.54753E-07   108   0.312E-03    0.140E-03
DAV:   8    -0.988658374443E+02   -0.11318E-04   -0.98152E-07    96   0.303E-03    0.801E-04
DAV:   9    -0.988658481083E+02   -0.10664E-04   -0.73724E-07   108   0.226E-03    0.616E-04
DAV:  10    -0.988658567981E+02   -0.86898E-05   -0.37444E-07    84   0.150E-03    0.314E-04
DAV:  11    -0.988658605873E+02   -0.37892E-05   -0.76504E-08   108   0.696E-04    0.218E-04
DAV:  12    -0.988658645257E+02   -0.39384E-05   -0.10719E-07    84   0.709E-04    0.162E-04
DAV:  13    -0.988658656923E+02   -0.11666E-05   -0.17023E-08   108   0.344E-04    0.878E-05
DAV:  14    -0.988658667157E+02   -0.10234E-05   -0.90218E-09    96   0.269E-04    0.457E-05
DAV:  15    -0.988658671079E+02   -0.39222E-06    0.11936E-09   108   0.160E-04
  52 F= -.98865867E+02 E0= -.98865867E+02  d E =-.110676E-10
       N       E                     dE             d eps       ncg     rms          rms(c)
DAV:   1    -0.988645055403E+02    0.13612E-02   -0.41407E-01   120   0.178E+00    0.170E-01
DAV:   2    -0.988658828785E+02   -0.13773E-02   -0.16401E-02   132   0.374E-01    0.818E-02
DAV:   3    -0.988658625921E+02    0.20286E-04   -0.30979E-04   132   0.602E-02    0.434E-02
DAV:   4    -0.988658481144E+02    0.14478E-04   -0.67908E-05   156   0.405E-02    0.889E-03
DAV:   5    -0.988658464357E+02    0.16787E-05   -0.30599E-05   144   0.204E-02    0.648E-03
DAV:   6    -0.988658477982E+02   -0.13625E-05   -0.34010E-06   132   0.604E-03    0.427E-03
DAV:   7    -0.988658522955E+02   -0.44973E-05   -0.58392E-07   108   0.326E-03    0.169E-03
DAV:   8    -0.988658591476E+02   -0.68522E-05   -0.99921E-07   108   0.361E-03    0.112E-03
DAV:   9    -0.988658702114E+02   -0.11064E-04   -0.97002E-07   108   0.337E-03    0.578E-04
DAV:  10    -0.988658748816E+02   -0.46702E-05   -0.41356E-07   108   0.193E-03    0.609E-04
DAV:  11    -0.988658763636E+02   -0.14821E-05   -0.28835E-08   108   0.689E-04    0.429E-04
DAV:  12    -0.988658807522E+02   -0.43886E-05   -0.15612E-07   108   0.101E-03    0.206E-04
DAV:  13    -0.988658820181E+02   -0.12659E-05   -0.38778E-08   108   0.502E-04    0.205E-04
DAV:  14    -0.988658831547E+02   -0.11366E-05   -0.18870E-08   108   0.353E-04    0.743E-05
DAV:  15    -0.988658837287E+02   -0.57401E-06   -0.55808E-09   108   0.226E-04
  53 F= -.98865884E+02 E0= -.98865884E+02  d E =-.314649E-10
       N       E                     dE             d eps       ncg     rms          rms(c)
DAV:   1    -0.988634828277E+02    0.24003E-02   -0.20410E-01   108   0.129E+00    0.131E-01
DAV:   2    -0.988642804523E+02   -0.79762E-03   -0.95468E-03   120   0.306E-01    0.706E-02
DAV:   3    -0.988642556817E+02    0.24771E-04   -0.15173E-04   132   0.428E-02    0.396E-02
DAV:   4    -0.988642410346E+02    0.14647E-04   -0.46113E-05   120   0.313E-02    0.688E-03
DAV:   5    -0.988642379252E+02    0.31094E-05   -0.18572E-05   132   0.158E-02    0.544E-03
DAV:   6    -0.988642380212E+02   -0.96003E-07   -0.28655E-06   132   0.535E-03
  54 F= -.98864238E+02 E0= -.98864238E+02  d E =-.135555E-10
       N       E                     dE             d eps       ncg     rms          rms(c)
DAV:   1    -0.988626790068E+02    0.15589E-02   -0.40299E-01   120   0.182E+00    0.199E-01
DAV:   2    -0.988644161627E+02   -0.17372E-02   -0.20790E-02   132   0.464E-01    0.130E-01
DAV:   3    -0.988643187071E+02    0.97456E-04   -0.28773E-04   132   0.584E-02    0.722E-02
DAV:   4    -0.988642575154E+02    0.61192E-04   -0.15893E-04   120   0.460E-02    0.110E-02
DAV:   5    -0.988642470543E+02    0.10461E-04   -0.30215E-05   132   0.200E-02    0.740E-03
DAV:   6    -0.988642542066E+02   -0.71523E-05   -0.11926E-05   132   0.951E-03    0.400E-03
DAV:   7    -0.988642745788E+02   -0.20372E-04   -0.24717E-06   132   0.479E-03    0.206E-03
DAV:   8    -0.988643069406E+02   -0.32362E-04   -0.36954E-06   108   0.430E-03    0.117E-03
DAV:   9    -0.988643283516E+02   -0.21411E-04   -0.18316E-06   120   0.289E-03    0.875E-04
DAV:  10    -0.988643484601E+02   -0.20109E-04   -0.19334E-06   108   0.273E-03    0.477E-04
DAV:  11    -0.988643547882E+02   -0.63280E-05   -0.27553E-07   108   0.119E-03    0.347E-04
DAV:  12    -0.988643593092E+02   -0.45211E-05   -0.23234E-07    96   0.994E-04    0.140E-04
DAV:  13    -0.988643608225E+02   -0.15132E-05   -0.40038E-08   108   0.483E-04    0.110E-04
DAV:  14    -0.988643617966E+02   -0.97416E-06   -0.93888E-09    96   0.297E-04
  55 F= -.98864362E+02 E0= -.98864362E+02  d E =-.145026E-10
       N       E                     dE             d eps       ncg     rms          rms(c)
DAV:   1    -0.988644094140E+02   -0.48592E-04   -0.19987E-01    96   0.133E+00    0.141E-01
DAV:   2    -0.988654927881E+02   -0.10834E-02   -0.13345E-02   144   0.354E-01    0.834E-02
DAV:   3    -0.988654480367E+02    0.44751E-04   -0.22431E-04   132   0.505E-02    0.493E-02
DAV:   4    -0.988654098442E+02    0.38193E-04   -0.71209E-05   132   0.366E-02    0.873E-03
DAV:   5    -0.988654013621E+02    0.84820E-05   -0.26161E-05   132   0.185E-02    0.662E-03
DAV:   6    -0.988654018951E+02   -0.53301E-06   -0.40168E-06   132   0.648E-03
  56 F= -.98865402E+02 E0= -.98865402E+02  d E =-.686234E-11
       N       E                     dE             d eps       ncg     rms          rms(c)
DAV:   1    -0.988639876562E+02    0.14137E-02   -0.40879E-01   120   0.172E+00    0.180E-01
DAV:   2    -0.988654144260E+02   -0.14268E-02   -0.16890E-02   120   0.378E-01    0.958E-02
DAV:   3    -0.988653948252E+02    0.19601E-04   -0.31101E-04   144   0.594E-02    0.510E-02
DAV:   4    -0.988653858951E+02    0.89302E-05   -0.79362E-05   120   0.392E-02    0.915E-03
DAV:   5    -0.988653843400E+02    0.15551E-05   -0.26086E-05   132   0.189E-02    0.702E-03
DAV:   6    -0.988653860384E+02   -0.16985E-05   -0.47250E-06   120   0.679E-03    0.415E-03
DAV:   7    -0.988653912069E+02   -0.51685E-05   -0.75921E-07   108   0.381E-03    0.190E-03
DAV:   8    -0.988654005628E+02   -0.93559E-05   -0.13341E-06   108   0.382E-03    0.110E-03
DAV:   9    -0.988654113012E+02   -0.10738E-04   -0.69149E-07   108   0.262E-03    0.663E-04
DAV:  10    -0.988654182207E+02   -0.69195E-05   -0.37601E-07    96   0.160E-03    0.393E-04
DAV:  11    -0.988654236381E+02   -0.54174E-05   -0.14568E-07    96   0.906E-04    0.214E-04
DAV:  12    -0.988654267443E+02   -0.31062E-05   -0.76712E-08   108   0.585E-04    0.184E-04
DAV:  13    -0.988654291429E+02   -0.23986E-05   -0.53755E-08    96   0.460E-04    0.775E-05
DAV:  14    -0.988654300009E+02   -0.85795E-06   -0.69761E-09   108   0.247E-04
  57 F= -.98865430E+02 E0= -.98865430E+02  d E =-.346710E-10
       N       E                     dE             d eps       ncg     rms          rms(c)
DAV:   1    -0.988642931538E+02    0.11360E-02   -0.20711E-01   120   0.120E+00    0.117E-01
DAV:   2    -0.988649226063E+02   -0.62945E-03   -0.75790E-03   132   0.235E-01    0.570E-02
DAV:   3    -0.988649135507E+02    0.90555E-05   -0.13953E-04   132   0.417E-02    0.303E-02
DAV:   4    -0.988649064897E+02    0.70611E-05   -0.30931E-05   132   0.285E-02    0.598E-03
DAV:   5    -0.988649058283E+02    0.66141E-06   -0.15756E-05   132   0.145E-02    0.507E-03
DAV:   6    -0.988649062252E+02   -0.39690E-06   -0.13301E-06   120   0.369E-03
  58 F= -.98864906E+02 E0= -.98864906E+02  d E =-.135842E-10
       N       E                     dE             d eps       ncg     rms          rms(c)
DAV:   1    -0.988633274026E+02    0.15784E-02   -0.40314E-01   120   0.176E+00    0.194E-01
DAV:   2    -0.988648997897E+02   -0.15724E-02   -0.19074E-02   132   0.415E-01    0.112E-01
DAV:   3    -0.988648273750E+02    0.72415E-04   -0.30157E-04   132   0.590E-02    0.589E-02
DAV:   4    -0.988647744488E+02    0.52926E-04   -0.96102E-05   132   0.390E-02    0.104E-02
DAV:   5    -0.988647697139E+02    0.47350E-05   -0.21350E-05   132   0.175E-02    0.681E-03
DAV:   6    -0.988647801565E+02   -0.10443E-04   -0.82433E-06   132   0.868E-03    0.355E-03
DAV:   7    -0.988647984036E+02   -0.18247E-04   -0.22261E-06   132   0.481E-03    0.207E-03
DAV:   8    -0.988648257007E+02   -0.27297E-04   -0.24768E-06   120   0.371E-03    0.975E-04
DAV:   9    -0.988648450136E+02   -0.19313E-04   -0.17835E-06   120   0.294E-03    0.857E-04
DAV:  10    -0.988648636769E+02   -0.18663E-04   -0.19167E-06   120   0.268E-03    0.316E-04
DAV:  11    -0.988648686869E+02   -0.50099E-05   -0.19086E-07   108   0.104E-03    0.306E-04
DAV:  12    -0.988648735029E+02   -0.48160E-05   -0.25789E-07    96   0.993E-04    0.104E-04
DAV:  13    -0.988648744928E+02   -0.98995E-06   -0.33848E-08   108   0.400E-04
  59 F= -.98864874E+02 E0= -.98864874E+02  d E =-.194573E-10
       N       E                     dE             d eps       ncg     rms          rms(c)
DAV:   1    -0.988637102234E+02    0.11633E-02   -0.20128E-01   108   0.129E+00    0.133E-01
DAV:   2    -0.988644835685E+02   -0.77335E-03   -0.96492E-03   132   0.299E-01    0.768E-02
DAV:   3    -0.988644459815E+02    0.37587E-04   -0.14527E-04   132   0.392E-02    0.411E-02
DAV:   4    -0.988644119625E+02    0.34019E-04   -0.38557E-05   132   0.235E-02    0.733E-03
DAV:   5    -0.988644045196E+02    0.74429E-05   -0.72792E-06   132   0.110E-02    0.408E-03
DAV:   6    -0.988644066639E+02   -0.21443E-05   -0.38557E-06   132   0.742E-03    0.206E-03
DAV:   7    -0.988644157690E+02   -0.91051E-05   -0.19016E-06   132   0.470E-03    0.161E-03
DAV:   8    -0.988644275494E+02   -0.11780E-04   -0.45268E-07   108   0.191E-03    0.802E-04
DAV:   9    -0.988644423530E+02   -0.14804E-04   -0.11276E-06   120   0.235E-03    0.638E-04
DAV:  10    -0.988644537019E+02   -0.11349E-04   -0.45917E-07   108   0.157E-03    0.254E-04
DAV:  11    -0.988644601608E+02   -0.64590E-05   -0.25666E-07   108   0.100E-03    0.262E-04
DAV:  12    -0.988644642619E+02   -0.41011E-05   -0.64880E-08   108   0.590E-04    0.114E-04
DAV:  13    -0.988644664934E+02   -0.22315E-05   -0.35395E-08   108   0.410E-04    0.657E-05
DAV:  14    -0.988644675002E+02   -0.10067E-05   -0.63579E-09   108   0.236E-04    0.434E-05
DAV:  15    -0.988644680773E+02   -0.57717E-06    0.92719E-10   108   0.163E-04
  60 F= -.98864468E+02 E0= -.98864468E+02  d E =-.192670E-10
       N       E                     dE             d eps       ncg     rms          rms(c)
DAV:   1    -0.988630505190E+02    0.14170E-02   -0.40343E-01   108   0.181E+00    0.197E-01
DAV:   2    -0.988645118317E+02   -0.14613E-02   -0.18389E-02   144   0.415E-01    0.122E-01
DAV:   3    -0.988643968799E+02    0.11495E-03   -0.25772E-04   132   0.555E-02    0.626E-02
DAV:   4    -0.988643183183E+02    0.78562E-04   -0.10318E-04   132   0.374E-02    0.109E-02
DAV:   5    -0.988643180660E+02    0.25221E-06   -0.17036E-05   132   0.163E-02    0.671E-03
DAV:   6    -0.988643425268E+02   -0.24461E-04   -0.12379E-05   132   0.107E-02    0.346E-03
DAV:   7    -0.988643736496E+02   -0.31123E-04   -0.40135E-06   132   0.625E-03    0.233E-03
DAV:   8    -0.988644164999E+02   -0.42850E-04   -0.40870E-06   120   0.453E-03    0.110E-03
DAV:   9    -0.988644467239E+02   -0.30224E-04   -0.31614E-06   120   0.372E-03    0.887E-04
DAV:  10    -0.988644692198E+02   -0.22496E-04   -0.22575E-06   120   0.291E-03    0.354E-04
DAV:  11    -0.988644757859E+02   -0.65661E-05   -0.28967E-07   108   0.123E-03    0.302E-04
DAV:  12    -0.988644804100E+02   -0.46241E-05   -0.20566E-07    96   0.913E-04    0.124E-04
DAV:  13    -0.988644818667E+02   -0.14567E-05   -0.37045E-08   108   0.434E-04    0.794E-05
DAV:  14    -0.988644829352E+02   -0.10685E-05   -0.11475E-08    96   0.322E-04    0.433E-05
DAV:  15    -0.988644832952E+02   -0.36004E-06    0.90994E-10   108   0.165E-04
  61 F= -.98864483E+02 E0= -.98864483E+02  d E =-.105966E-10
       N       E                     dE             d eps       ncg     rms          rms(c)
DAV:   1    -0.988674459482E+02   -0.29630E-02   -0.23818E-01    96   0.172E+00    0.151E-01
DAV:   2    -0.988678226861E+02   -0.37674E-03   -0.64509E-03   132   0.264E-01    0.876E-02
DAV:   3    -0.988677407228E+02    0.81963E-04   -0.19590E-04   132   0.498E-02    0.382E-02
DAV:   4    -0.988677216043E+02    0.19118E-04   -0.77318E-05   132   0.302E-02    0.903E-03
DAV:   5    -0.988677173319E+02    0.42724E-05   -0.89610E-06   132   0.114E-02    0.616E-03
DAV:   6    -0.988677186231E+02   -0.12912E-05   -0.35472E-06   132   0.640E-03    0.226E-03
DAV:   7    -0.988677234744E+02   -0.48513E-05   -0.77781E-07   108   0.355E-03    0.132E-03
DAV:   8    -0.988677317265E+02   -0.82521E-05   -0.48955E-07    96   0.215E-03    0.783E-04
DAV:   9    -0.988677410094E+02   -0.92829E-05   -0.53176E-07   108   0.191E-03    0.407E-04
DAV:  10    -0.988677491634E+02   -0.81539E-05   -0.47126E-07   108   0.150E-03    0.332E-04
DAV:  11    -0.988677534180E+02   -0.42547E-05   -0.12116E-07   108   0.940E-04    0.227E-04
DAV:  12    -0.988677554687E+02   -0.20507E-05   -0.36921E-08   108   0.496E-04    0.152E-04
DAV:  13    -0.988677565289E+02   -0.10602E-05   -0.11302E-08   108   0.303E-04    0.654E-05
DAV:  14    -0.988677575238E+02   -0.99486E-06   -0.75817E-09    84   0.239E-04
  62 F= -.98867758E+02 E0= -.98867758E+02  d E =-.130666E-10
       N       E                     dE             d eps       ncg     rms          rms(c)
DAV:   1    -0.988681362568E+02   -0.37973E-03   -0.55014E-01    96   0.257E+00    0.229E-01
DAV:   2    -0.988678150500E+02    0.32121E-03   -0.35716E-03   120   0.206E-01    0.122E-01
DAV:   3    -0.988675959343E+02    0.21912E-03   -0.52902E-04   132   0.712E-02    0.362E-02
DAV:   4    -0.988675973876E+02   -0.14534E-05   -0.11500E-04   132   0.337E-02    0.127E-02
DAV:   5    -0.988675989359E+02   -0.15483E-05   -0.62968E-06   132   0.997E-03    0.646E-03
DAV:   6    -0.988676024146E+02   -0.34786E-05   -0.33317E-06   132   0.614E-03    0.159E-03
DAV:   7    -0.988676047101E+02   -0.22955E-05   -0.46398E-07   108   0.272E-03    0.906E-04
DAV:   8    -0.988676083230E+02   -0.36129E-05   -0.17283E-07    96   0.145E-03    0.333E-04
DAV:   9    -0.988676106686E+02   -0.23457E-05   -0.10168E-07   108   0.102E-03    0.308E-04
DAV:  10    -0.988676138680E+02   -0.31994E-05   -0.15287E-07    96   0.997E-04    0.110E-04
DAV:  11    -0.988676150154E+02   -0.11474E-05   -0.50781E-08   108   0.599E-04    0.105E-04
DAV:  12    -0.988676157093E+02   -0.69388E-06   -0.68383E-09   108   0.307E-04
  63 F= -.98867616E+02 E0= -.98867616E+02  d E =-.127243E-10
       N       E                     dE             d eps       ncg     rms          rms(c)
DAV:   1    -0.988670068014E+02    0.60821E-03   -0.28979E-01    96   0.186E+00    0.211E-01
DAV:   2    -0.988667581730E+02    0.24863E-03   -0.23994E-03   120   0.169E-01    0.103E-01
DAV:   3    -0.988666054909E+02    0.15268E-03   -0.38056E-04   132   0.602E-02    0.363E-02
DAV:   4    -0.988665976746E+02    0.78164E-05   -0.11085E-04   120   0.318E-02    0.135E-02
DAV:   5    -0.988665958211E+02    0.18535E-05   -0.52147E-06   132   0.972E-03    0.514E-03
DAV:   6    -0.988665968963E+02   -0.10752E-05   -0.27914E-06   132   0.593E-03    0.201E-03
DAV:   7    -0.988665986992E+02   -0.18029E-05   -0.56073E-07   108   0.281E-03    0.842E-04
DAV:   8    -0.988666012510E+02   -0.25518E-05   -0.16969E-07    96   0.151E-03    0.519E-04
DAV:   9    -0.988666035213E+02   -0.22702E-05   -0.14161E-07   108   0.121E-03    0.462E-04
DAV:  10    -0.988666068105E+02   -0.32892E-05   -0.19031E-07    84   0.105E-03    0.137E-04
DAV:  11    -0.988666076395E+02   -0.82899E-06   -0.24431E-08   108   0.489E-04
  64 F= -.98866608E+02 E0= -.98866608E+02  d E =-.131326E-10
       N       E                     dE             d eps       ncg     rms          rms(c)
DAV:   1    -0.988672096796E+02   -0.60287E-03   -0.56795E-01    96   0.261E+00    0.278E-01
DAV:   2    -0.988667247115E+02    0.48497E-03   -0.42143E-03   120   0.232E-01    0.136E-01
DAV:   3    -0.988664410722E+02    0.28364E-03   -0.66706E-04   132   0.761E-02    0.475E-02
DAV:   4    -0.988664256769E+02    0.15395E-04   -0.16232E-04   132   0.388E-02    0.178E-02
DAV:   5    -0.988664278228E+02   -0.21459E-05   -0.95447E-06   132   0.133E-02    0.673E-03
DAV:   6    -0.988664341525E+02   -0.63298E-05   -0.50145E-06   132   0.759E-03    0.256E-03
[...]
DAV:  10    -0.988663712013E+02   -0.34541E-05   -0.18214E-07   108   0.105E-03    0.191E-04
DAV:  11    -0.988663731962E+02   -0.19949E-05   -0.88987E-08    96   0.614E-04    0.120E-04
DAV:  12    -0.988663747096E+02   -0.15134E-05   -0.46399E-08    96   0.449E-04    0.761E-05
DAV:  13    -0.988663753917E+02   -0.68209E-06   -0.14952E-08   108   0.294E-04
 129 F= -.98866375E+02 E0= -.98866375E+02  d E =-.120623E-10
       N       E                     dE             d eps       ncg     rms          rms(c)
DAV:   1    -0.988683669312E+02   -0.19922E-02   -0.26746E-01    96   0.158E+00    0.132E-01
DAV:   2    -0.988683010370E+02    0.65894E-04   -0.16551E-03   120   0.132E-01    0.732E-02
DAV:   3    -0.988682220616E+02    0.78975E-04   -0.23765E-04   132   0.417E-02    0.163E-02
DAV:   4    -0.988682200192E+02    0.20425E-05   -0.33276E-05   120   0.173E-02    0.708E-03
DAV:   5    -0.988682195525E+02    0.46667E-06   -0.25668E-06   120   0.592E-03
 130 F= -.98868220E+02 E0= -.98868220E+02  d E =-.165333E-10
       N       E                     dE             d eps       ncg     rms          rms(c)
DAV:   1    -0.988685670193E+02   -0.34700E-03   -0.52228E-01    96   0.222E+00    0.156E-01
DAV:   2    -0.988684626935E+02    0.10433E-03   -0.20186E-03   120   0.148E-01    0.903E-02
DAV:   3    -0.988683755154E+02    0.87178E-04   -0.33217E-04   120   0.573E-02    0.124E-02
DAV:   4    -0.988683817830E+02   -0.62676E-05   -0.51356E-05   132   0.233E-02    0.745E-03
DAV:   5    -0.988683824233E+02   -0.64029E-06   -0.14219E-06   120   0.422E-03
 131 F= -.98868382E+02 E0= -.98868382E+02  d E =-.108482E-10
       N       E                     dE             d eps       ncg     rms          rms(c)
DAV:   1    -0.988678878814E+02    0.49390E-03   -0.26172E-01    96   0.162E+00    0.110E-01
DAV:   2    -0.988678316101E+02    0.56271E-04   -0.10294E-03   132   0.105E-01    0.637E-02
DAV:   3    -0.988677854729E+02    0.46137E-04   -0.17745E-04   120   0.397E-02    0.857E-03
DAV:   4    -0.988677882308E+02   -0.27579E-05   -0.24861E-05   132   0.163E-02    0.510E-03
DAV:   5    -0.988677887398E+02   -0.50902E-06   -0.84315E-07   108   0.324E-03
 132 F= -.98867789E+02 E0= -.98867789E+02  d E =-.153898E-10
       N       E                     dE             d eps       ncg     rms          rms(c)
DAV:   1    -0.988681877047E+02   -0.39947E-03   -0.52804E-01    96   0.224E+00    0.168E-01
DAV:   2    -0.988680681083E+02    0.11960E-03   -0.23404E-03   120   0.164E-01    0.949E-02
DAV:   3    -0.988679547093E+02    0.11340E-03   -0.40591E-04   120   0.600E-02    0.164E-02
DAV:   4    -0.988679578476E+02   -0.31383E-05   -0.61351E-05   132   0.255E-02    0.916E-03
DAV:   5    -0.988679573442E+02    0.50340E-06   -0.27692E-06   120   0.586E-03
 133 F= -.98867957E+02 E0= -.98867957E+02  d E =-.110713E-10
       N       E                     dE             d eps       ncg     rms          rms(c)
DAV:   1    -0.988679047429E+02    0.53105E-04   -0.27040E-01    96   0.202E+00    0.144E-01
DAV:   2    -0.988678580604E+02    0.46682E-04   -0.19186E-03   120   0.160E-01    0.780E-02
DAV:   3    -0.988677858511E+02    0.72209E-04   -0.17621E-04   120   0.421E-02    0.237E-02
DAV:   4    -0.988677856071E+02    0.24398E-06   -0.46097E-05   132   0.209E-02    0.656E-03
DAV:   5    -0.988677849598E+02    0.64731E-06   -0.27752E-06   132   0.630E-03
 134 F= -.98867785E+02 E0= -.98867785E+02  d E =-.136800E-10
       N       E                     dE             d eps       ncg     rms          rms(c)
DAV:   1    -0.988679851871E+02   -0.19958E-03   -0.55203E-01    96   0.266E+00    0.233E-01
DAV:   2    -0.988676494204E+02    0.33577E-03   -0.32615E-03   120   0.201E-01    0.120E-01
DAV:   3    -0.988674361171E+02    0.21330E-03   -0.47486E-04   132   0.632E-02    0.369E-02
DAV:   4    -0.988674300686E+02    0.60486E-05   -0.97674E-05   132   0.301E-02    0.118E-02
DAV:   5    -0.988674304097E+02   -0.34116E-06   -0.61492E-06   132   0.977E-03
 135 F= -.98867430E+02 E0= -.98867430E+02  d E =-.118131E-10
       N       E                     dE             d eps       ncg     rms          rms(c)
DAV:   1    -0.988671111857E+02    0.31888E-03   -0.28946E-01    96   0.192E+00    0.211E-01
DAV:   2    -0.988668602138E+02    0.25097E-03   -0.24192E-03   132   0.179E-01    0.102E-01
DAV:   3    -0.988667204948E+02    0.13972E-03   -0.39943E-04   132   0.630E-02    0.359E-02
DAV:   4    -0.988667207300E+02   -0.23527E-06   -0.11486E-04   120   0.336E-02    0.144E-02
DAV:   5    -0.988667192221E+02    0.15079E-05   -0.52864E-06   132   0.948E-03    0.569E-03
DAV:   6    -0.988667193760E+02   -0.15386E-06   -0.27497E-06   108   0.590E-03
 136 F= -.98866719E+02 E0= -.98866719E+02  d E =-.124909E-10
       N       E                     dE             d eps       ncg     rms          rms(c)
DAV:   1    -0.988672552306E+02   -0.53601E-03   -0.57184E-01   108   0.269E+00    0.273E-01
DAV:   2    -0.988667473049E+02    0.50793E-03   -0.47024E-03   120   0.252E-01    0.137E-01
DAV:   3    -0.988664489763E+02    0.29833E-03   -0.77540E-04   132   0.906E-02    0.465E-02
DAV:   4    -0.988664485923E+02    0.38394E-06   -0.21002E-04   132   0.467E-02    0.201E-02
DAV:   5    -0.988664480783E+02    0.51399E-06   -0.85265E-06   132   0.117E-02
 137 F= -.98866448E+02 E0= -.98866448E+02  d E =-.132331E-10
       N       E                     dE             d eps       ncg     rms          rms(c)
DAV:   1    -0.988681973121E+02   -0.17487E-02   -0.28845E-01   108   0.192E+00    0.202E-01
DAV:   2    -0.988679380673E+02    0.25924E-03   -0.23584E-03   120   0.179E-01    0.101E-01
DAV:   3    -0.988677946907E+02    0.14338E-03   -0.40039E-04   132   0.649E-02    0.331E-02
DAV:   4    -0.988677969856E+02   -0.22950E-05   -0.11040E-04   132   0.336E-02    0.143E-02
DAV:   5    -0.988677958198E+02    0.11659E-05   -0.47294E-06   120   0.909E-03    0.543E-03
DAV:   6    -0.988677961622E+02   -0.34245E-06   -0.27084E-06   132   0.583E-03
 138 F= -.98867796E+02 E0= -.98867796E+02  d E =-.138013E-10
       N       E                     dE             d eps       ncg     rms          rms(c)
DAV:   1    -0.988681704130E+02   -0.37459E-03   -0.55099E-01    96   0.266E+00    0.227E-01
DAV:   2    -0.988678595893E+02    0.31082E-03   -0.34838E-03   120   0.207E-01    0.120E-01
DAV:   3    -0.988676586607E+02    0.20093E-03   -0.49041E-04   132   0.671E-02    0.355E-02
DAV:   4    -0.988676585781E+02    0.82586E-07   -0.10169E-04   132   0.317E-02    0.119E-02
DAV:   5    -0.988676587438E+02   -0.16575E-06   -0.59166E-06   132   0.974E-03
 139 F= -.98867659E+02 E0= -.98867659E+02  d E =-.120981E-10
       N       E                     dE             d eps       ncg     rms          rms(c)
DAV:   1    -0.988675928747E+02    0.65703E-04   -0.27700E-01    96   0.193E+00    0.168E-01
DAV:   2    -0.988674876911E+02    0.10518E-03   -0.19319E-03   120   0.148E-01    0.879E-02
DAV:   3    -0.988673970854E+02    0.90606E-04   -0.25764E-04   120   0.448E-02    0.274E-02
DAV:   4    -0.988673932864E+02    0.37990E-05   -0.43273E-05   120   0.192E-02    0.102E-02
DAV:   5    -0.988673915908E+02    0.16956E-05   -0.25771E-06   132   0.738E-03    0.464E-03
DAV:   6    -0.988673916651E+02   -0.74379E-07   -0.22758E-06   120   0.544E-03
 140 F= -.98867392E+02 E0= -.98867392E+02  d E =-.137542E-10
       N       E                     dE             d eps       ncg     rms          rms(c)
DAV:   1    -0.988678832128E+02   -0.49162E-03   -0.55603E-01    96   0.262E+00    0.244E-01
DAV:   2    -0.988674984347E+02    0.38478E-03   -0.33972E-03   120   0.204E-01    0.124E-01
DAV:   3    -0.988672756749E+02    0.22276E-03   -0.52817E-04   132   0.666E-02    0.392E-02
DAV:   4    -0.988672675606E+02    0.81143E-05   -0.10855E-04   132   0.318E-02    0.143E-02
DAV:   5    -0.988672674817E+02    0.78872E-07   -0.71270E-06   132   0.110E-02
 141 F= -.98867267E+02 E0= -.98867267E+02  d E =-.117723E-10
       N       E                     dE             d eps       ncg     rms          rms(c)
DAV:   1    -0.988665355682E+02    0.73199E-03   -0.27200E-01    96   0.185E+00    0.139E-01
DAV:   2    -0.988664010425E+02    0.13453E-03   -0.14757E-03   132   0.135E-01    0.783E-02
DAV:   3    -0.988663158382E+02    0.85204E-04   -0.25789E-04   120   0.510E-02    0.166E-02
DAV:   4    -0.988663207720E+02   -0.49337E-05   -0.46618E-05   132   0.226E-02    0.804E-03
DAV:   5    -0.988663215267E+02   -0.75473E-06   -0.11575E-06   108   0.450E-03
 142 F= -.98866322E+02 E0= -.98866322E+02  d E =-.126058E-10
       N       E                     dE             d eps       ncg     rms          rms(c)
DAV:   1    -0.988671161253E+02   -0.79535E-03   -0.57959E-01   108   0.269E+00    0.286E-01
DAV:   2    -0.988665599703E+02    0.55616E-03   -0.47501E-03   120   0.255E-01    0.142E-01
DAV:   3    -0.988662556086E+02    0.30436E-03   -0.80667E-04   120   0.929E-02    0.462E-02
DAV:   4    -0.988662573235E+02   -0.17149E-05   -0.22098E-04   120   0.471E-02    0.192E-02
DAV:   5    -0.988662547839E+02    0.25397E-05   -0.84744E-06   132   0.123E-02    0.803E-03
DAV:   6    -0.988662550707E+02   -0.28680E-06   -0.52178E-06   132   0.816E-03
 143 F= -.98866255E+02 E0= -.98866255E+02  d E =-.132886E-10
       N       E                     dE             d eps       ncg     rms          rms(c)
DAV:   1    -0.988686597977E+02   -0.24050E-02   -0.28124E-01   108   0.187E+00    0.169E-01
DAV:   2    -0.988684416315E+02    0.21817E-03   -0.19426E-03   120   0.159E-01    0.895E-02
DAV:   3    -0.988683267816E+02    0.11485E-03   -0.32679E-04   132   0.591E-02    0.259E-02
DAV:   4    -0.988683319041E+02   -0.51225E-05   -0.79342E-05   132   0.289E-02    0.124E-02
DAV:   5    -0.988683320434E+02   -0.13934E-06   -0.28461E-06   132   0.682E-03
 144 F= -.98868332E+02 E0= -.98868332E+02  d E =-.129709E-10
       N       E                     dE             d eps       ncg     rms          rms(c)
DAV:   1    -0.988686856878E+02   -0.35378E-03   -0.54127E-01    96   0.259E+00    0.200E-01
DAV:   2    -0.988683950082E+02    0.29068E-03   -0.26881E-03   120   0.179E-01    0.112E-01
DAV:   3    -0.988682242992E+02    0.17071E-03   -0.45312E-04   132   0.649E-02    0.228E-02
DAV:   4    -0.988682304461E+02   -0.61468E-05   -0.71763E-05   132   0.271E-02    0.880E-03
DAV:   5    -0.988682308488E+02   -0.40273E-06   -0.29059E-06   132   0.625E-03
 145 F= -.98868231E+02 E0= -.98868231E+02  d E =-.127025E-10
       N       E                     dE             d eps       ncg     rms          rms(c)
DAV:   1    -0.988675295861E+02    0.70086E-03   -0.27016E-01   120   0.201E+00    0.134E-01
DAV:   2    -0.988674768808E+02    0.52705E-04   -0.19275E-03   120   0.160E-01    0.762E-02
DAV:   3    -0.988674008477E+02    0.76033E-04   -0.22854E-04   120   0.501E-02    0.186E-02
DAV:   4    -0.988674045512E+02   -0.37035E-05   -0.53380E-05   132   0.234E-02    0.756E-03
DAV:   5    -0.988674043959E+02    0.15531E-06   -0.15942E-06   108   0.515E-03
 146 F= -.98867404E+02 E0= -.98867404E+02  d E =-.135997E-10
       N       E                     dE             d eps       ncg     rms          rms(c)
DAV:   1    -0.988678977771E+02   -0.49323E-03   -0.53583E-01   108   0.261E+00    0.178E-01
DAV:   2    -0.988677718923E+02    0.12588E-03   -0.32884E-03   120   0.198E-01    0.100E-01
DAV:   3    -0.988676163426E+02    0.15555E-03   -0.46279E-04   120   0.683E-02    0.222E-02
DAV:   4    -0.988676200828E+02   -0.37402E-05   -0.10356E-04   132   0.328E-02    0.109E-02
DAV:   5    -0.988676190306E+02    0.10521E-05   -0.29644E-06   132   0.635E-03    0.673E-03
DAV:   6    -0.988676198165E+02   -0.78585E-06   -0.32575E-06   120   0.628E-03
 147 F= -.98867620E+02 E0= -.98867620E+02  d E =-.118900E-10
       N       E                     dE             d eps       ncg     rms          rms(c)
DAV:   1    -0.988664413936E+02    0.11776E-02   -0.26428E-01    96   0.185E+00    0.112E-01
DAV:   2    -0.988663795867E+02    0.61807E-04   -0.10434E-03   120   0.109E-01    0.640E-02
DAV:   3    -0.988663211981E+02    0.58389E-04   -0.17772E-04   120   0.397E-02    0.995E-03
DAV:   4    -0.988663237105E+02   -0.25124E-05   -0.24178E-05   132   0.163E-02    0.550E-03
DAV:   5    -0.988663251085E+02   -0.13981E-05   -0.10529E-06    96   0.365E-03    0.333E-03
DAV:   6    -0.988663280174E+02   -0.29089E-05   -0.76847E-07    96   0.311E-03    0.673E-04
DAV:   7    -0.988663300834E+02   -0.20660E-05   -0.27102E-07   108   0.178E-03    0.596E-04
DAV:   8    -0.988663334457E+02   -0.33622E-05   -0.21666E-07    96   0.156E-03    0.260E-04
DAV:   9    -0.988663352569E+02   -0.18112E-05   -0.12288E-07   108   0.964E-04    0.209E-04
DAV:  10    -0.988663371538E+02   -0.18969E-05   -0.62435E-08    96   0.634E-04    0.108E-04
DAV:  11    -0.988663381097E+02   -0.95590E-06   -0.33221E-08   108   0.392E-04
 148 F= -.98866338E+02 E0= -.98866338E+02  d E =-.129779E-10
       N       E                     dE             d eps       ncg     rms          rms(c)
DAV:   1    -0.988667221396E+02   -0.38499E-03   -0.54467E-01   108   0.263E+00    0.203E-01
DAV:   2    -0.988666084397E+02    0.11370E-03   -0.40282E-03   108   0.227E-01    0.111E-01
DAV:   3    -0.988664151627E+02    0.19328E-03   -0.52923E-04   132   0.667E-02    0.297E-02
DAV:   4    -0.988664069551E+02    0.82076E-05   -0.10545E-04   132   0.304E-02    0.122E-02
DAV:   5    -0.988664045783E+02    0.23768E-05   -0.57119E-06   132   0.941E-03    0.650E-03
DAV:   6    -0.988664068751E+02   -0.22968E-05   -0.48352E-06   132   0.831E-03    0.193E-03
DAV:   7    -0.988664112187E+02   -0.43436E-05   -0.18730E-06   132   0.460E-03    0.169E-03
DAV:   8    -0.988664168778E+02   -0.56591E-05   -0.27084E-07   108   0.158E-03    0.664E-04
DAV:   9    -0.988664220902E+02   -0.52125E-05   -0.28009E-07   108   0.134E-03    0.409E-04
DAV:  10    -0.988664285898E+02   -0.64996E-05   -0.36288E-07    96   0.142E-03    0.181E-04
DAV:  11    -0.988664317353E+02   -0.31454E-05   -0.10737E-07   108   0.822E-04    0.170E-04
DAV:  12    -0.988664332523E+02   -0.15170E-05   -0.14472E-08   108   0.388E-04    0.979E-05
DAV:  13    -0.988664349562E+02   -0.17039E-05   -0.27602E-08    84   0.378E-04    0.470E-05
DAV:  14    -0.988664356312E+02   -0.67499E-06   -0.30906E-09    96   0.206E-04
 149 F= -.98866436E+02 E0= -.98866436E+02  d E =-.125937E-10
       N       E                     dE             d eps       ncg     rms          rms(c)
DAV:   1    -0.988684519160E+02   -0.20170E-02   -0.26618E-01    96   0.189E+00    0.128E-01
DAV:   2    -0.988683741351E+02    0.77781E-04   -0.15178E-03   120   0.139E-01    0.714E-02
DAV:   3    -0.988683002602E+02    0.73875E-04   -0.22186E-04   132   0.451E-02    0.159E-02
DAV:   4    -0.988683011833E+02   -0.92302E-06   -0.41974E-05   132   0.205E-02    0.774E-03
DAV:   5    -0.988683016067E+02   -0.42339E-06   -0.16737E-06   108   0.495E-03
 150 F= -.98868302E+02 E0= -.98868302E+02  d E =-.147832E-10
       N       E                     dE             d eps       ncg     rms          rms(c)
DAV:   1    -0.988685421800E+02   -0.24100E-03   -0.52689E-01    96   0.264E+00    0.159E-01
DAV:   2    -0.988684154436E+02    0.12674E-03   -0.20664E-03   120   0.161E-01    0.923E-02
DAV:   3    -0.988683043162E+02    0.11113E-03   -0.37662E-04   132   0.603E-02    0.116E-02
DAV:   4    -0.988683110822E+02   -0.67661E-05   -0.57863E-05   120   0.250E-02    0.715E-03
DAV:   5    -0.988683123230E+02   -0.12408E-05   -0.18881E-06   120   0.473E-03    0.474E-03
DAV:   6    -0.988683161030E+02   -0.37800E-05   -0.16639E-06   108   0.407E-03    0.920E-04
DAV:   7    -0.988683185642E+02   -0.24612E-05   -0.33949E-07   108   0.200E-03    0.819E-04
DAV:   8    -0.988683222010E+02   -0.36368E-05   -0.18678E-07    96   0.162E-03    0.382E-04
DAV:   9    -0.988683254905E+02   -0.32896E-05   -0.21366E-07   108   0.151E-03    0.295E-04
DAV:  10    -0.988683280890E+02   -0.25984E-05   -0.12833E-07    96   0.942E-04    0.152E-04
DAV:  11    -0.988683291603E+02   -0.10713E-05   -0.26564E-08   108   0.410E-04    0.101E-04
DAV:  12    -0.988683299684E+02   -0.80812E-06   -0.15778E-08    96   0.304E-04
 151 F= -.98868330E+02 E0= -.98868330E+02  d E =-.111473E-10
       N       E                     dE             d eps       ncg     rms          rms(c)
DAV:   1    -0.988662711894E+02    0.20580E-02   -0.26709E-01   108   0.193E+00    0.131E-01
DAV:   2    -0.988662172856E+02    0.53904E-04   -0.19385E-03   120   0.160E-01    0.711E-02
DAV:   3    -0.988661375305E+02    0.79755E-04   -0.22539E-04   132   0.498E-02    0.192E-02
DAV:   4    -0.988661395215E+02   -0.19910E-05   -0.65236E-05   132   0.250E-02    0.747E-03
DAV:   5    -0.988661398429E+02   -0.32143E-06   -0.26683E-06   132   0.590E-03
 152 F= -.98866140E+02 E0= -.98866140E+02  d E =-.137176E-10
       N       E                     dE             d eps       ncg     rms          rms(c)
DAV:   1    -0.988664637035E+02   -0.32418E-03   -0.54602E-01    96   0.269E+00    0.207E-01
DAV:   2    -0.988663702404E+02    0.93463E-04   -0.46510E-03   120   0.251E-01    0.114E-01
DAV:   3    -0.988661610072E+02    0.20923E-03   -0.57684E-04   120   0.773E-02    0.313E-02
DAV:   4    -0.988661611755E+02   -0.16839E-06   -0.15913E-04   120   0.384E-02    0.124E-02
DAV:   5    -0.988661588098E+02    0.23657E-05   -0.54900E-06   132   0.942E-03    0.694E-03
DAV:   6    -0.988661595423E+02   -0.73249E-06   -0.52790E-06   120   0.864E-03
 153 F= -.98866160E+02 E0= -.98866160E+02  d E =-.122957E-10
       N       E                     dE             d eps       ncg     rms          rms(c)
DAV:   1    -0.988682074422E+02   -0.20486E-02   -0.26895E-01   108   0.193E+00    0.140E-01
DAV:   2    -0.988681675908E+02    0.39851E-04   -0.20165E-03   120   0.155E-01    0.760E-02
DAV:   3    -0.988680907358E+02    0.76855E-04   -0.22607E-04   120   0.433E-02    0.220E-02
DAV:   4    -0.988680888201E+02    0.19158E-05   -0.44574E-05   132   0.199E-02    0.797E-03
DAV:   5    -0.988680879423E+02    0.87776E-06   -0.28039E-06   108   0.648E-03
 154 F= -.98868088E+02 E0= -.98868088E+02  d E =-.127286E-10
       N       E                     dE             d eps       ncg     rms          rms(c)
DAV:   1    -0.988686158279E+02   -0.52701E-03   -0.53159E-01    96   0.262E+00    0.160E-01
DAV:   2    -0.988685107282E+02    0.10510E-03   -0.20948E-03   120   0.156E-01    0.923E-02
DAV:   3    -0.988684029194E+02    0.10781E-03   -0.35833E-04   120   0.575E-02    0.138E-02
DAV:   4    -0.988684058490E+02   -0.29296E-05   -0.50438E-05   132   0.233E-02    0.757E-03
DAV:   5    -0.988684052112E+02    0.63789E-06   -0.17481E-06   108   0.480E-03
 155 F= -.98868405E+02 E0= -.98868405E+02  d E =-.127795E-10
       N       E                     dE             d eps       ncg     rms          rms(c)
DAV:   1    -0.988678154233E+02    0.59043E-03   -0.26424E-01    96   0.190E+00    0.115E-01
DAV:   2    -0.988677494667E+02    0.65957E-04   -0.11104E-03   132   0.120E-01    0.667E-02
DAV:   3    -0.988676980815E+02    0.51385E-04   -0.19058E-04   144   0.455E-02    0.877E-03
DAV:   4    -0.988677017659E+02   -0.36844E-05   -0.32769E-05   120   0.188E-02    0.589E-03
DAV:   5    -0.988677021813E+02   -0.41536E-06   -0.77655E-07   108   0.335E-03
 156 F= -.98867702E+02 E0= -.98867702E+02  d E =-.159833E-10
       N       E                     dE             d eps       ncg     rms          rms(c)
DAV:   1    -0.988681255512E+02   -0.42379E-03   -0.52830E-01    96   0.269E+00    0.173E-01
DAV:   2    -0.988680237475E+02    0.10180E-03   -0.27216E-03   120   0.185E-01    0.974E-02
DAV:   3    -0.988678905485E+02    0.13320E-03   -0.37484E-04   120   0.589E-02    0.202E-02
DAV:   4    -0.988678904431E+02    0.10538E-06   -0.63781E-05   132   0.249E-02    0.907E-03
DAV:   5    -0.988678903309E+02    0.11224E-06   -0.33016E-06   120   0.645E-03
 157 F= -.98867890E+02 E0= -.98867890E+02  d E =-.104160E-10
