       N       E                     dE             d eps       ncg     rms          rms(c)
DAV:   1     0.210491007134E+03    0.21049E+03   -0.10457E+04   116   0.546E+02
DAV:   2    -0.232373273482E+02   -0.23373E+03   -0.21820E+03   144   0.103E+02
DAV:   3    -0.989315569634E+02   -0.75694E+02   -0.75517E+02   112   0.554E+01
DAV:   4    -0.103267962236E+03   -0.43364E+01   -0.43194E+01   104   0.184E+01
DAV:   5    -0.103333752218E+03   -0.65790E-01   -0.65720E-01   128   0.248E+00    0.142E+01
DAV:   6    -0.100214854211E+03    0.31189E+01   -0.15408E+00    96   0.449E+00    0.820E+00
DAV:   7    -0.985871056453E+02    0.16277E+01   -0.39205E+00   104   0.657E+00    0.121E+00
DAV:   8    -0.985300302372E+02    0.57075E-01   -0.26585E-01   112   0.214E+00    0.590E-01
DAV:   9    -0.984944102646E+02    0.35620E-01   -0.65615E-02   120   0.724E-01    0.325E-01
DAV:  10    -0.984948773929E+02   -0.46713E-03   -0.25442E-03   112   0.192E-01    0.135E-01
DAV:  11    -0.984946737852E+02    0.20361E-03   -0.67723E-03   104   0.237E-01    0.868E-02
DAV:  12    -0.984993952268E+02   -0.47214E-02   -0.11404E-03   102   0.977E-02    0.581E-02
DAV:  13    -0.985039291623E+02   -0.45339E-02   -0.15142E-03   112   0.103E-01    0.337E-02
DAV:  14    -0.985079019970E+02   -0.39728E-02   -0.31483E-04   112   0.519E-02    0.156E-02
DAV:  15    -0.985119776241E+02   -0.40756E-02   -0.45235E-04   112   0.551E-02    0.130E-02
DAV:  16    -0.985133678613E+02   -0.13902E-02   -0.90467E-05   112   0.246E-02    0.559E-03
DAV:  17    -0.985143333325E+02   -0.96547E-03   -0.83228E-05   112   0.216E-02    0.336E-03
DAV:  18    -0.985146189525E+02   -0.28562E-03   -0.10322E-05   104   0.870E-03    0.195E-03
DAV:  19    -0.985147382982E+02   -0.11935E-03   -0.40331E-06   104   0.527E-03    0.170E-03
DAV:  20    -0.985147831368E+02   -0.44839E-04   -0.85434E-07    88   0.310E-03    0.557E-04
DAV:  21    -0.985148027402E+02   -0.19603E-04   -0.62820E-07    88   0.202E-03    0.437E-04
DAV:  22    -0.985148100953E+02   -0.73552E-05   -0.16232E-07    88   0.116E-03    0.141E-04
DAV:  23    -0.985148130299E+02   -0.29346E-05   -0.75113E-08    88   0.689E-04    0.104E-04
DAV:  24    -0.985148148608E+02   -0.18309E-05   -0.25705E-08    88   0.417E-04    0.385E-05
DAV:  25    -0.985148153908E+02   -0.53006E-06   -0.75783E-09    88   0.234E-04
   1 F= -.98514815E+02 E0= -.98514815E+02  d E =-.985148E+02
       N       E                     dE             d eps       ncg     rms          rms(c)
DAV:   1    -0.986091126979E+02   -0.94298E-01   -0.45452E+00    84   0.821E+00    0.983E-01
DAV:   2    -0.986363536639E+02   -0.27241E-01   -0.30124E-01   120   0.203E+00    0.506E-01
DAV:   3    -0.986335129005E+02    0.28408E-02   -0.90053E-03   120   0.380E-01    0.277E-01
DAV:   4    -0.986329312853E+02    0.58162E-03   -0.51496E-03   112   0.252E-01    0.573E-02
DAV:   5    -0.986328191906E+02    0.11209E-03   -0.69719E-04   112   0.102E-01    0.393E-02
DAV:   6    -0.986328270739E+02   -0.78833E-05   -0.79534E-05   112   0.298E-02    0.262E-02
DAV:   7    -0.986329491269E+02   -0.12205E-03   -0.33809E-05   112   0.237E-02    0.590E-03
DAV:   8    -0.986330247330E+02   -0.75606E-04   -0.25204E-05   112   0.179E-02    0.748E-03
DAV:   9    -0.986330809955E+02   -0.56263E-04   -0.35848E-06   112   0.687E-03    0.568E-03
DAV:  10    -0.986332166417E+02   -0.13565E-03   -0.83368E-06   112   0.669E-03    0.266E-03
DAV:  11    -0.986332724711E+02   -0.55829E-04   -0.31851E-06   104   0.441E-03    0.139E-03
DAV:  12    -0.986333296478E+02   -0.57177E-04   -0.32073E-06   104   0.398E-03    0.857E-04
DAV:  13    -0.986333406344E+02   -0.10987E-04   -0.25905E-07    88   0.158E-03    0.677E-04
DAV:  14    -0.986333604561E+02   -0.19822E-04   -0.61532E-07    86   0.171E-03    0.385E-04
DAV:  15    -0.986333631821E+02   -0.27260E-05   -0.73308E-08    88   0.700E-04    0.422E-04
DAV:  16    -0.986333681755E+02   -0.49934E-05   -0.81289E-08    88   0.719E-04    0.186E-04
DAV:  17    -0.986333688631E+02   -0.68762E-06   -0.13134E-08    88   0.334E-04
   2 F= -.98633369E+02 E0= -.98633369E+02  d E =-.118553E+00
       N       E                     dE             d eps       ncg     rms          rms(c)
DAV:   1    -0.986366880826E+02   -0.33199E-02   -0.98435E-02    84   0.122E+00    0.135E-01
DAV:   2    -0.986372844399E+02   -0.59636E-03   -0.67065E-03   120   0.302E-01    0.778E-02
DAV:   3    -0.986372154774E+02    0.68962E-04   -0.20889E-04   120   0.580E-02    0.421E-02
DAV:   4    -0.986371995655E+02    0.15912E-04   -0.11921E-04   112   0.383E-02    0.941E-03
DAV:   5    -0.986371949168E+02    0.46487E-05   -0.15758E-05   112   0.153E-02    0.607E-03
DAV:   6    -0.986371968153E+02   -0.18985E-05   -0.20236E-06   104   0.475E-03    0.379E-03
DAV:   7    -0.986372054126E+02   -0.85973E-05   -0.10417E-06    88   0.409E-03    0.832E-04
DAV:   8    -0.986372095622E+02   -0.41496E-05   -0.84616E-07    88   0.304E-03    0.121E-03
DAV:   9    -0.986372121706E+02   -0.26084E-05   -0.13267E-07    88   0.141E-03    0.767E-04
DAV:  10    -0.986372198460E+02   -0.76754E-05   -0.56910E-07    86   0.170E-03    0.457E-04
DAV:  11    -0.986372220189E+02   -0.21730E-05   -0.13667E-07    88   0.847E-04    0.273E-04
DAV:  12    -0.986372246403E+02   -0.26214E-05   -0.16079E-07    88   0.878E-04    0.116E-04
DAV:  13    -0.986372251536E+02   -0.51323E-06   -0.25831E-08    88   0.414E-04
   3 F= -.98637225E+02 E0= -.98637225E+02  d E =-.122410E+00
       N       E                     dE             d eps       ncg     rms          rms(c)
DAV:   1    -0.986539656451E+02   -0.16741E-01   -0.58131E-01   102   0.326E+00    0.272E-01
DAV:   2    -0.986562383716E+02   -0.22727E-02   -0.28045E-02   120   0.573E-01    0.127E-01
DAV:   3    -0.986559955823E+02    0.24279E-03   -0.81227E-04   120   0.109E-01    0.694E-02
DAV:   4    -0.986559402943E+02    0.55288E-04   -0.34172E-04   112   0.657E-02    0.182E-02
DAV:   5    -0.986559442898E+02   -0.39955E-05   -0.45874E-05   112   0.264E-02    0.118E-02
DAV:   6    -0.986559535659E+02   -0.92761E-05   -0.43765E-06   112   0.779E-03    0.551E-03
DAV:   7    -0.986559686244E+02   -0.15058E-04   -0.19329E-06   104   0.527E-03    0.121E-03
DAV:   8    -0.986559803126E+02   -0.11688E-04   -0.68763E-07    88   0.292E-03    0.103E-03
DAV:   9    -0.986559916968E+02   -0.11384E-04   -0.53729E-07    88   0.215E-03    0.440E-04
DAV:  10    -0.986560021317E+02   -0.10435E-04   -0.78530E-07    96   0.200E-03    0.321E-04
DAV:  11    -0.986560064696E+02   -0.43379E-05   -0.16465E-07    88   0.115E-03    0.210E-04
DAV:  12    -0.986560079911E+02   -0.15215E-05   -0.54477E-08    88   0.568E-04    0.128E-04
DAV:  13    -0.986560091552E+02   -0.11641E-05   -0.22011E-08    88   0.401E-04    0.754E-05
DAV:  14    -0.986560100337E+02   -0.87847E-06   -0.23776E-08    88   0.353E-04
   4 F= -.98656010E+02 E0= -.98656010E+02  d E =-.187849E-01
       N       E                     dE             d eps       ncg     rms          rms(c)
DAV:   1    -0.986562489424E+02   -0.23979E-03   -0.11175E-02   104   0.451E-01    0.376E-02
DAV:   2    -0.986562907507E+02   -0.41808E-04   -0.53732E-04   120   0.794E-02    0.175E-02
DAV:   3    -0.986562853336E+02    0.54170E-05   -0.15591E-05   120   0.150E-02    0.953E-03
DAV:   4    -0.986562831760E+02    0.21577E-05   -0.65632E-06   112   0.909E-03    0.249E-03
DAV:   5    -0.986562828251E+02    0.35089E-06   -0.79710E-07    88   0.364E-03
   5 F= -.98656283E+02 E0= -.98656283E+02  d E =-.190577E-01
       N       E                     dE             d eps       ncg     rms          rms(c)
DAV:   1    -0.986660946269E+02   -0.98115E-02   -0.25697E-01    84   0.223E+00    0.142E-01
DAV:   2    -0.986665618575E+02   -0.46723E-03   -0.71721E-03   120   0.327E-01    0.821E-02
DAV:   3    -0.986664583494E+02    0.10351E-03   -0.30434E-04   120   0.707E-02    0.387E-02
DAV:   4    -0.986664577521E+02    0.59736E-06   -0.11637E-04   112   0.383E-02    0.111E-02
DAV:   5    -0.986664603373E+02   -0.25852E-05   -0.75218E-06   112   0.116E-02    0.443E-03
DAV:   6    -0.986664631482E+02   -0.28110E-05   -0.25063E-06   112   0.553E-03    0.167E-03
DAV:   7    -0.986664667336E+02   -0.35854E-05   -0.29242E-07    88   0.224E-03    0.575E-04
DAV:   8    -0.986664695802E+02   -0.28465E-05   -0.13765E-07    88   0.133E-03    0.469E-04
DAV:   9    -0.986664733268E+02   -0.37467E-05   -0.14889E-07    80   0.107E-03    0.197E-04
DAV:  10    -0.986664766622E+02   -0.33354E-05   -0.19263E-07    88   0.103E-03    0.205E-04
DAV:  11    -0.986664777012E+02   -0.10390E-05   -0.33598E-08    88   0.545E-04    0.101E-04
DAV:  12    -0.986664787080E+02   -0.10068E-05   -0.27068E-08    88   0.378E-04    0.817E-05
DAV:  13    -0.986664794449E+02   -0.73690E-06   -0.16538E-08    88   0.277E-04
   6 F= -.98666479E+02 E0= -.98666479E+02  d E =-.101966E-01
       N       E                     dE             d eps       ncg     rms          rms(c)
DAV:   1    -0.986756540628E+02   -0.91754E-02   -0.20564E+00    84   0.632E+00    0.398E-01
DAV:   2    -0.986794858655E+02   -0.38318E-02   -0.57562E-02   120   0.928E-01    0.234E-01
DAV:   3    -0.986786889396E+02    0.79693E-03   -0.24193E-03   120   0.199E-01    0.110E-01
DAV:   4    -0.986786965925E+02   -0.76529E-05   -0.95024E-04   112   0.109E-01    0.320E-02
DAV:   5    -0.986787073580E+02   -0.10765E-04   -0.62592E-05   104   0.335E-02    0.128E-02
DAV:   6    -0.986787231403E+02   -0.15782E-04   -0.20596E-05   112   0.158E-02    0.471E-03
DAV:   7    -0.986787428422E+02   -0.19702E-04   -0.25821E-06    96   0.637E-03    0.174E-03
DAV:   8    -0.986787578608E+02   -0.15019E-04   -0.90161E-07    88   0.339E-03    0.132E-03
DAV:   9    -0.986787777270E+02   -0.19866E-04   -0.11855E-06    96   0.283E-03    0.573E-04
DAV:  10    -0.986787958131E+02   -0.18086E-04   -0.13883E-06   104   0.276E-03    0.571E-04
DAV:  11    -0.986788021606E+02   -0.63475E-05   -0.19349E-07    88   0.139E-03    0.239E-04
DAV:  12    -0.986788066562E+02   -0.44956E-05   -0.14923E-07    88   0.884E-04    0.198E-04
DAV:  13    -0.986788101263E+02   -0.34700E-05   -0.70643E-08    88   0.624E-04    0.124E-04
DAV:  14    -0.986788127969E+02   -0.26706E-05   -0.88796E-08    88   0.607E-04    0.692E-05
DAV:  15    -0.986788133405E+02   -0.54360E-06   -0.84064E-09    88   0.234E-04
   7 F= -.98678813E+02 E0= -.98678813E+02  d E =-.225305E-01
       N       E                     dE             d eps       ncg     rms          rms(c)
DAV:   1    -0.986852571721E+02   -0.64444E-02   -0.16672E-01    84   0.184E+00    0.113E-01
DAV:   2    -0.986854264719E+02   -0.16930E-03   -0.32615E-03   120   0.225E-01    0.637E-02
DAV:   3    -0.986853542973E+02    0.72175E-04   -0.17255E-04   120   0.544E-02    0.271E-02
DAV:   4    -0.986853533908E+02    0.90653E-06   -0.73900E-05   112   0.308E-02    0.826E-03
DAV:   5    -0.986853569877E+02   -0.35969E-05   -0.65969E-06   112   0.104E-02    0.363E-03
DAV:   6    -0.986853589139E+02   -0.19262E-05   -0.10679E-06    88   0.380E-03    0.141E-03
DAV:   7    -0.986853615120E+02   -0.25981E-05   -0.20343E-07    86   0.186E-03    0.493E-04
DAV:   8    -0.986853639745E+02   -0.24625E-05   -0.13774E-07    86   0.128E-03    0.314E-04
DAV:   9    -0.986853660526E+02   -0.20781E-05   -0.65033E-08    88   0.811E-04    0.114E-04
DAV:  10    -0.986853678713E+02   -0.18186E-05   -0.76125E-08    88   0.640E-04    0.135E-04
DAV:  11    -0.986853684741E+02   -0.60280E-06   -0.15450E-08    88   0.379E-04
   8 F= -.98685368E+02 E0= -.98685368E+02  d E =-.655513E-02
       N       E                     dE             d eps       ncg     rms          rms(c)
DAV:   1    -0.986902762126E+02   -0.49083E-02   -0.10705E+00    84   0.465E+00    0.285E-01
DAV:   2    -0.986914090528E+02   -0.11328E-02   -0.21106E-02   120   0.570E-01    0.162E-01
DAV:   3    -0.986909671673E+02    0.44189E-03   -0.11167E-03   120   0.138E-01    0.689E-02
DAV:   4    -0.986909796498E+02   -0.12482E-04   -0.48259E-04   120   0.783E-02    0.214E-02
DAV:   5    -0.986909971881E+02   -0.17538E-04   -0.42623E-05   112   0.263E-02    0.944E-03
DAV:   6    -0.986910071930E+02   -0.10005E-04   -0.76994E-06   112   0.968E-03    0.357E-03
DAV:   7    -0.986910179098E+02   -0.10717E-04   -0.61347E-07    86   0.330E-03    0.140E-03
DAV:   8    -0.986910283087E+02   -0.10399E-04   -0.62660E-07    88   0.271E-03    0.717E-04
DAV:   9    -0.986910369970E+02   -0.86883E-05   -0.30400E-07    88   0.171E-03    0.348E-04
DAV:  10    -0.986910441274E+02   -0.71304E-05   -0.35823E-07    88   0.142E-03    0.290E-04
DAV:  11    -0.986910468375E+02   -0.27101E-05   -0.96006E-08    88   0.865E-04    0.151E-04
DAV:  12    -0.986910494907E+02   -0.26532E-05   -0.11098E-07    88   0.767E-04    0.729E-05
DAV:  13    -0.986910500686E+02   -0.57790E-06   -0.16742E-08    88   0.333E-04
   9 F= -.98691050E+02 E0= -.98691050E+02  d E =-.122367E-01
       N       E                     dE             d eps       ncg     rms          rms(c)
DAV:   1    -0.986911765081E+02   -0.12702E-03   -0.19015E-02    84   0.619E-01    0.381E-02
DAV:   2    -0.986911992201E+02   -0.22712E-04   -0.37270E-04   120   0.762E-02    0.215E-02
DAV:   3    -0.986911937260E+02    0.54942E-05   -0.19897E-05   120   0.184E-02    0.907E-03
DAV:   4    -0.986911948253E+02   -0.10993E-05   -0.84099E-06   112   0.104E-02    0.276E-03
DAV:   5    -0.986911949802E+02   -0.15491E-06   -0.65883E-07    80   0.341E-03
  10 F= -.98691195E+02 E0= -.98691195E+02  d E =-.123816E-01
       N       E                     dE             d eps       ncg     rms          rms(c)
DAV:   1    -0.986932456720E+02   -0.20508E-02   -0.44033E-02    84   0.930E-01    0.616E-02
DAV:   2    -0.986933153503E+02   -0.69678E-04   -0.10789E-03   120   0.129E-01    0.327E-02
DAV:   3    -0.986932990758E+02    0.16275E-04   -0.52835E-05   120   0.299E-02    0.151E-02
DAV:   4    -0.986932973097E+02    0.17661E-05   -0.19771E-05   112   0.165E-02    0.460E-03
DAV:   5    -0.986932969554E+02    0.35423E-06   -0.15843E-06    88   0.570E-03
  11 F= -.98693297E+02 E0= -.98693297E+02  d E =-.210198E-02
       N       E                     dE             d eps       ncg     rms          rms(c)
DAV:   1    -0.986943098216E+02   -0.10125E-02   -0.11394E-01    84   0.150E+00    0.989E-02
DAV:   2    -0.986944879145E+02   -0.17809E-03   -0.28080E-03   120   0.209E-01    0.526E-02
DAV:   3    -0.986944431600E+02    0.44754E-04   -0.13625E-04   120   0.481E-02    0.245E-02
DAV:   4    -0.986944387878E+02    0.43722E-05   -0.51344E-05   120   0.266E-02    0.742E-03
DAV:   5    -0.986944399251E+02   -0.11374E-05   -0.45909E-06   112   0.936E-03    0.380E-03
DAV:   6    -0.986944428138E+02   -0.28887E-05   -0.16225E-06    96   0.463E-03    0.140E-03
DAV:   7    -0.986944469209E+02   -0.41071E-05   -0.33664E-07    88   0.235E-03    0.603E-04
DAV:   8    -0.986944513528E+02   -0.44319E-05   -0.19394E-07    88   0.146E-03    0.498E-04
DAV:   9    -0.986944565429E+02   -0.51901E-05   -0.26656E-07    86   0.133E-03    0.195E-04
DAV:  10    -0.986944602931E+02   -0.37502E-05   -0.23174E-07    88   0.110E-03    0.180E-04
DAV:  11    -0.986944622567E+02   -0.19636E-05   -0.80069E-08    88   0.708E-04    0.112E-04
DAV:  12    -0.986944628646E+02   -0.60786E-06   -0.17557E-08    96   0.350E-04
  12 F= -.98694463E+02 E0= -.98694463E+02  d E =-.326788E-02
       N       E                     dE             d eps       ncg     rms          rms(c)
DAV:   1    -0.986950859139E+02   -0.62366E-03   -0.13564E-02    84   0.525E-01    0.308E-02
DAV:   2    -0.986951064191E+02   -0.20505E-04   -0.32394E-04   120   0.706E-02    0.191E-02
DAV:   3    -0.986951040366E+02    0.23825E-05   -0.11700E-05   120   0.134E-02    0.935E-03
DAV:   4    -0.986951035531E+02    0.48345E-06   -0.35606E-06   112   0.681E-03
  13 F= -.98695104E+02 E0= -.98695104E+02  d E =-.640689E-03
       N       E                     dE             d eps       ncg     rms          rms(c)
DAV:   1    -0.986954633425E+02   -0.35931E-03   -0.37303E-02    84   0.870E-01    0.514E-02
DAV:   2    -0.986955183546E+02   -0.55012E-04   -0.89916E-04   120   0.118E-01    0.319E-02
DAV:   3    -0.986955095387E+02    0.88159E-05   -0.32204E-05   128   0.222E-02    0.156E-02
DAV:   4    -0.986955066017E+02    0.29370E-05   -0.96792E-06   112   0.114E-02    0.245E-03
DAV:   5    -0.986955061391E+02    0.46266E-06   -0.12490E-06    96   0.460E-03
  14 F= -.98695506E+02 E0= -.98695506E+02  d E =-.104327E-02
       N       E                     dE             d eps       ncg     rms          rms(c)
DAV:   1    -0.986960347307E+02   -0.52813E-03   -0.14116E-02    84   0.539E-01    0.361E-02
DAV:   2    -0.986960635264E+02   -0.28796E-04   -0.49155E-04   120   0.800E-02    0.196E-02
DAV:   3    -0.986960601770E+02    0.33494E-05   -0.20045E-05   128   0.173E-02    0.107E-02
DAV:   4    -0.986960600094E+02    0.16753E-06   -0.48153E-06   112   0.922E-03
  15 F= -.98696060E+02 E0= -.98696060E+02  d E =-.553870E-03
       N       E                     dE             d eps       ncg     rms          rms(c)
DAV:   1    -0.986962339159E+02   -0.17374E-03   -0.16573E-02    84   0.584E-01    0.397E-02
DAV:   2    -0.986962675399E+02   -0.33624E-04   -0.58027E-04   120   0.866E-02    0.213E-02
DAV:   3    -0.986962630965E+02    0.44434E-05   -0.23230E-05   128   0.185E-02    0.116E-02
DAV:   4    -0.986962623580E+02    0.73851E-06   -0.56339E-06   120   0.986E-03
  16 F= -.98696262E+02 E0= -.98696262E+02  d E =-.756219E-03
