       N       E                     dE             d eps       ncg     rms          rms(c)
DAV:   1     0.249291098522E+03    0.24929E+03   -0.10133E+04   120   0.484E+02
DAV:   2    -0.202012824193E+02   -0.26949E+03   -0.25523E+03   156   0.917E+01
DAV:   3    -0.100120635129E+03   -0.79919E+02   -0.79696E+02   120   0.555E+01
DAV:   4    -0.103998637052E+03   -0.38780E+01   -0.38638E+01   120   0.175E+01
DAV:   5    -0.104064479134E+03   -0.65842E-01   -0.65706E-01   156   0.251E+00    0.146E+01
DAV:   6    -0.100740644009E+03    0.33238E+01   -0.15340E+00   120   0.429E+00    0.838E+00
DAV:   7    -0.990752087009E+02    0.16654E+01   -0.41633E+00   120   0.629E+00    0.129E+00
DAV:   8    -0.990185489626E+02    0.56660E-01   -0.36166E-01   132   0.228E+00    0.703E-01
DAV:   9    -0.989831615543E+02    0.35387E-01   -0.59613E-02   144   0.678E-01    0.367E-01
DAV:  10    -0.989812017771E+02    0.19598E-02   -0.42772E-03   132   0.215E-01    0.145E-01
DAV:  11    -0.989802921341E+02    0.90964E-03   -0.64163E-03   120   0.222E-01    0.114E-01
DAV:  12    -0.989871744451E+02   -0.68823E-02   -0.22094E-03   120   0.126E-01    0.497E-02
DAV:  13    -0.989897568053E+02   -0.25824E-02   -0.14940E-03   120   0.111E-01    0.472E-02
DAV:  14    -0.989928704648E+02   -0.31137E-02   -0.24512E-04   132   0.577E-02    0.205E-02
DAV:  15    -0.989971651889E+02   -0.42947E-02   -0.47881E-04   108   0.527E-02    0.132E-02
DAV:  16    -0.989992297041E+02   -0.20645E-02   -0.18558E-04   132   0.349E-02    0.834E-03
DAV:  17    -0.990001136874E+02   -0.88398E-03   -0.63449E-05   108   0.182E-02    0.626E-03
DAV:  18    -0.990004708369E+02   -0.35715E-03   -0.12384E-05   132   0.864E-03    0.171E-03
DAV:  19    -0.990006196257E+02   -0.14879E-03   -0.46845E-06   132   0.505E-03    0.146E-03
DAV:  20    -0.990006864108E+02   -0.66785E-04   -0.15416E-06    96   0.325E-03    0.652E-04
DAV:  21    -0.990007028509E+02   -0.16440E-04   -0.27477E-07   108   0.155E-03    0.422E-04
DAV:  22    -0.990007131584E+02   -0.10308E-04   -0.20841E-07    96   0.106E-03    0.242E-04
DAV:  23    -0.990007177742E+02   -0.46158E-05   -0.78585E-08   108   0.656E-04    0.110E-04
DAV:  24    -0.990007209993E+02   -0.32251E-05   -0.48344E-08    84   0.503E-04    0.110E-04
DAV:  25    -0.990007216268E+02   -0.62749E-06   -0.94884E-10   120   0.216E-04
   1 F= -.99000722E+02 E0= -.99000722E+02  d E =-.365775E-10
       N       E                     dE             d eps       ncg     rms          rms(c)
DAV:   1    -0.989963433127E+02    0.43777E-02   -0.84759E-02    96   0.889E-01    0.106E-01
DAV:   2    -0.989968729832E+02   -0.52967E-03   -0.54109E-03   120   0.243E-01    0.755E-02
DAV:   3    -0.989968576105E+02    0.15373E-04   -0.12489E-04   144   0.421E-02    0.435E-02
DAV:   4    -0.989968431757E+02    0.14435E-04   -0.45617E-05   120   0.263E-02    0.655E-03
DAV:   5    -0.989968411319E+02    0.20438E-05   -0.97567E-06   132   0.115E-02    0.449E-03
DAV:   6    -0.989968432672E+02   -0.21353E-05   -0.17913E-06   120   0.468E-03    0.278E-03
DAV:   7    -0.989968525248E+02   -0.92576E-05   -0.11354E-06   120   0.418E-03    0.105E-03
DAV:   8    -0.989968642276E+02   -0.11703E-04   -0.11280E-06    96   0.344E-03    0.954E-04
DAV:   9    -0.989968722957E+02   -0.80681E-05   -0.40459E-07   108   0.191E-03    0.685E-04
DAV:  10    -0.989968790264E+02   -0.67307E-05   -0.43905E-07    84   0.134E-03    0.239E-04
DAV:  11    -0.989968820847E+02   -0.30583E-05   -0.14953E-07    96   0.788E-04    0.159E-04
DAV:  12    -0.989968844745E+02   -0.23899E-05   -0.74646E-08    96   0.609E-04    0.807E-05
DAV:  13    -0.989968858276E+02   -0.13531E-05   -0.55807E-08    96   0.467E-04    0.757E-05
DAV:  14    -0.989968862729E+02   -0.44524E-06   -0.10378E-09    96   0.217E-04
   2 F= -.98996886E+02 E0= -.98996886E+02  d E =-.368827E-10
       N       E                     dE             d eps       ncg     rms          rms(c)
DAV:   1    -0.989946872053E+02    0.21986E-02   -0.33603E-01    96   0.173E+00    0.210E-01
DAV:   2    -0.989967507016E+02   -0.20635E-02   -0.21113E-02   144   0.483E-01    0.150E-01
DAV:   3    -0.989966999684E+02    0.50733E-04   -0.46266E-04   132   0.825E-02    0.825E-02
DAV:   4    -0.989966803626E+02    0.19606E-04   -0.18913E-04   132   0.533E-02    0.130E-02
DAV:   5    -0.989966703226E+02    0.10040E-04   -0.39096E-05   144   0.238E-02    0.870E-03
DAV:   6    -0.989966721028E+02   -0.17802E-05   -0.79806E-06   120   0.934E-03    0.565E-03
DAV:   7    -0.989966888564E+02   -0.16754E-04   -0.26872E-06   132   0.683E-03    0.212E-03
DAV:   8    -0.989967110115E+02   -0.22155E-04   -0.20611E-06   120   0.600E-03    0.170E-03
DAV:   9    -0.989967310069E+02   -0.19995E-04   -0.16385E-06   132   0.383E-03    0.185E-03
DAV:  10    -0.989967419885E+02   -0.10982E-04   -0.18739E-07   108   0.133E-03    0.905E-04
DAV:  11    -0.989967565786E+02   -0.14590E-04   -0.82677E-07    96   0.176E-03    0.359E-04
DAV:  12    -0.989967640485E+02   -0.74699E-05   -0.16220E-07   108   0.852E-04    0.322E-04
DAV:  13    -0.989967699510E+02   -0.59024E-05   -0.14194E-07    96   0.715E-04    0.172E-04
DAV:  14    -0.989967725756E+02   -0.26247E-05   -0.30991E-08   108   0.404E-04    0.819E-05
DAV:  15    -0.989967740357E+02   -0.14601E-05   -0.10161E-08    84   0.290E-04    0.455E-05
DAV:  16    -0.989967745492E+02   -0.51350E-06    0.84384E-10   108   0.166E-04
   3 F= -.98996775E+02 E0= -.98996775E+02  d E =-.355171E-10
       N       E                     dE             d eps       ncg     rms          rms(c)
DAV:   1    -0.989946955701E+02    0.20785E-02   -0.17404E-01    96   0.123E+00    0.160E-01
DAV:   2    -0.989959173194E+02   -0.12217E-02   -0.12380E-02   144   0.371E-01    0.115E-01
DAV:   3    -0.989958677841E+02    0.49535E-04   -0.25723E-04   132   0.642E-02    0.656E-02
DAV:   4    -0.989958615382E+02    0.62459E-05   -0.15901E-04   132   0.483E-02    0.109E-02
DAV:   5    -0.989958587335E+02    0.28047E-05   -0.41313E-05   132   0.228E-02    0.801E-03
DAV:   6    -0.989958609437E+02   -0.22102E-05   -0.69192E-06   132   0.778E-03    0.515E-03
DAV:   7    -0.989958723160E+02   -0.11372E-04   -0.14973E-06   132   0.420E-03    0.216E-03
DAV:   8    -0.989958888410E+02   -0.16525E-04   -0.17540E-06   108   0.384E-03    0.912E-04
DAV:   9    -0.989959023574E+02   -0.13516E-04   -0.13180E-06   120   0.275E-03    0.119E-03
DAV:  10    -0.989959147307E+02   -0.12373E-04   -0.93844E-07    84   0.224E-03    0.329E-04
DAV:  11    -0.989959187578E+02   -0.40270E-05   -0.26889E-07   108   0.111E-03    0.230E-04
DAV:  12    -0.989959225344E+02   -0.37766E-05   -0.13529E-07    96   0.788E-04    0.133E-04
DAV:  13    -0.989959242868E+02   -0.17524E-05   -0.68039E-08   108   0.517E-04    0.133E-04
DAV:  14    -0.989959255104E+02   -0.12236E-05   -0.23934E-08    96   0.344E-04    0.612E-05
DAV:  15    -0.989959259395E+02   -0.42917E-06   -0.96119E-10   108   0.195E-04
   4 F= -.98995926E+02 E0= -.98995926E+02  d E =-.421815E-10
       N       E                     dE             d eps       ncg     rms          rms(c)
DAV:   1    -0.989928945511E+02    0.30310E-02   -0.35003E-01    96   0.173E+00    0.257E-01
DAV:   2    -0.989958612855E+02   -0.29667E-02   -0.29902E-02   132   0.569E-01    0.186E-01
DAV:   3    -0.989956913406E+02    0.16994E-03   -0.62627E-04   144   0.102E-01    0.103E-01
DAV:   4    -0.989956944601E+02   -0.31195E-05   -0.49816E-04   132   0.835E-02    0.177E-02
DAV:   5    -0.989956840684E+02    0.10392E-04   -0.13243E-04   132   0.405E-02    0.124E-02
DAV:   6    -0.989956851461E+02   -0.10777E-05   -0.16209E-05   132   0.107E-02    0.790E-03
DAV:   7    -0.989957047910E+02   -0.19645E-04   -0.18718E-06   132   0.427E-03    0.362E-03
DAV:   8    -0.989957357529E+02   -0.30962E-04   -0.50242E-06   120   0.643E-03    0.202E-03
DAV:   9    -0.989957550990E+02   -0.19346E-04   -0.19591E-06   132   0.348E-03    0.225E-03
DAV:  10    -0.989957763993E+02   -0.21300E-04   -0.16038E-06   120   0.311E-03    0.566E-04
DAV:  11    -0.989957816802E+02   -0.52809E-05   -0.21576E-07   108   0.135E-03    0.367E-04
DAV:  12    -0.989957912003E+02   -0.95201E-05   -0.38577E-07    96   0.124E-03    0.221E-04
DAV:  13    -0.989957937124E+02   -0.25122E-05   -0.76468E-08   108   0.538E-04    0.236E-04
DAV:  14    -0.989957962987E+02   -0.25862E-05   -0.35232E-08   108   0.441E-04    0.130E-04
DAV:  15    -0.989957971933E+02   -0.89469E-06   -0.10950E-08   108   0.280E-04
   5 F= -.98995797E+02 E0= -.98995797E+02  d E =-.336178E-10
       N       E                     dE             d eps       ncg     rms          rms(c)
DAV:   1    -0.989961128798E+02   -0.31658E-03   -0.17242E-01    96   0.123E+00    0.165E-01
DAV:   2    -0.989974811770E+02   -0.13683E-02   -0.13825E-02   144   0.391E-01    0.124E-01
DAV:   3    -0.989974143996E+02    0.66777E-04   -0.28136E-04   156   0.677E-02    0.722E-02
DAV:   4    -0.989974110968E+02    0.33028E-05   -0.21697E-04   120   0.570E-02    0.120E-02
DAV:   5    -0.989974077672E+02    0.33296E-05   -0.64519E-05   132   0.284E-02    0.897E-03
DAV:   6    -0.989974070946E+02    0.67258E-06   -0.89834E-06   120   0.892E-03
   6 F= -.98997407E+02 E0= -.98997407E+02  d E =-.422163E-10
       N       E                     dE             d eps       ncg     rms          rms(c)
DAV:   1    -0.989955544674E+02    0.18533E-02   -0.33430E-01    96   0.170E+00    0.199E-01
DAV:   2    -0.989973549886E+02   -0.18005E-02   -0.18078E-02   132   0.447E-01    0.125E-01
DAV:   3    -0.989973700485E+02   -0.15060E-04   -0.46664E-04   132   0.847E-02    0.644E-02
DAV:   4    -0.989974002825E+02   -0.30234E-04   -0.15102E-04   132   0.519E-02    0.127E-02
DAV:   5    -0.989973970063E+02    0.32762E-05   -0.39200E-05   144   0.238E-02    0.901E-03
DAV:   6    -0.989973974521E+02   -0.44578E-06   -0.62193E-06   132   0.808E-03
   7 F= -.98997397E+02 E0= -.98997397E+02  d E =-.376585E-10
       N       E                     dE             d eps       ncg     rms          rms(c)
DAV:   1    -0.989948383246E+02    0.25587E-02   -0.16836E-01    96   0.128E+00    0.158E-01
DAV:   2    -0.989962009735E+02   -0.13626E-02   -0.13944E-02   144   0.400E-01    0.112E-01
DAV:   3    -0.989961602543E+02    0.40719E-04   -0.31892E-04   144   0.717E-02    0.675E-02
DAV:   4    -0.989961698382E+02   -0.95839E-05   -0.17685E-04   120   0.565E-02    0.114E-02
DAV:   5    -0.989961682935E+02    0.15447E-05   -0.63740E-05   132   0.290E-02    0.960E-03
DAV:   6    -0.989961655750E+02    0.27185E-05   -0.59669E-06   132   0.838E-03    0.661E-03
DAV:   7    -0.989961683791E+02   -0.28041E-05   -0.23974E-06   132   0.582E-03    0.273E-03
DAV:   8    -0.989961757809E+02   -0.74017E-05   -0.66512E-07   108   0.375E-03    0.788E-04
DAV:   9    -0.989961841118E+02   -0.83309E-05   -0.67514E-07   108   0.262E-03    0.116E-03
DAV:  10    -0.989961948233E+02   -0.10711E-04   -0.51930E-07    96   0.192E-03    0.367E-04
DAV:  11    -0.989961981752E+02   -0.33520E-05   -0.15122E-07   108   0.964E-04    0.262E-04
DAV:  12    -0.989962020624E+02   -0.38872E-05   -0.10195E-07    84   0.744E-04    0.116E-04
DAV:  13    -0.989962046073E+02   -0.25449E-05   -0.78020E-08    96   0.589E-04    0.126E-04
DAV:  14    -0.989962059972E+02   -0.13899E-05   -0.22568E-08    96   0.351E-04    0.898E-05
DAV:  15    -0.989962066613E+02   -0.66417E-06   -0.42328E-09    84   0.221E-04
   8 F= -.98996207E+02 E0= -.98996207E+02  d E =-.401769E-10
       N       E                     dE             d eps       ncg     rms          rms(c)
DAV:   1    -0.989935110852E+02    0.26949E-02   -0.34415E-01    96   0.177E+00    0.236E-01
DAV:   2    -0.989962704027E+02   -0.27593E-02   -0.27868E-02   132   0.560E-01    0.175E-01
DAV:   3    -0.989961473124E+02    0.12309E-03   -0.58077E-04   132   0.976E-02    0.100E-01
DAV:   4    -0.989961399594E+02    0.73530E-05   -0.41347E-04   132   0.791E-02    0.169E-02
DAV:   5    -0.989961352562E+02    0.47032E-05   -0.11981E-04   132   0.389E-02    0.128E-02
DAV:   6    -0.989961372438E+02   -0.19876E-05   -0.16337E-05   132   0.117E-02    0.840E-03
DAV:   7    -0.989961572330E+02   -0.19989E-04   -0.36930E-06   132   0.634E-03    0.347E-03
DAV:   8    -0.989961861866E+02   -0.28954E-04   -0.30777E-06   132   0.505E-03    0.122E-03
DAV:   9    -0.989962112757E+02   -0.25089E-04   -0.26082E-06   132   0.373E-03    0.185E-03
DAV:  10    -0.989962302853E+02   -0.19010E-04   -0.14221E-06   108   0.280E-03    0.644E-04
DAV:  11    -0.989962381706E+02   -0.78852E-05   -0.40341E-07   108   0.146E-03    0.277E-04
DAV:  12    -0.989962444072E+02   -0.62367E-05   -0.31969E-07    84   0.110E-03    0.244E-04
DAV:  13    -0.989962463889E+02   -0.19817E-05   -0.50209E-08   108   0.481E-04    0.185E-04
DAV:  14    -0.989962481089E+02   -0.17200E-05   -0.33119E-08   108   0.415E-04    0.796E-05
DAV:  15    -0.989962487843E+02   -0.67538E-06   -0.71676E-09   108   0.251E-04
   9 F= -.98996249E+02 E0= -.98996249E+02  d E =-.344153E-10
       N       E                     dE             d eps       ncg     rms          rms(c)
DAV:   1    -0.989955339114E+02    0.71420E-03   -0.17410E-01    96   0.123E+00    0.181E-01
DAV:   2    -0.989969526378E+02   -0.14187E-02   -0.14334E-02   144   0.400E-01    0.130E-01
DAV:   3    -0.989968754930E+02    0.77145E-04   -0.31027E-04   144   0.716E-02    0.720E-02
DAV:   4    -0.989968745191E+02    0.97389E-06   -0.23298E-04   132   0.569E-02    0.123E-02
DAV:   5    -0.989968683020E+02    0.62172E-05   -0.60541E-05   132   0.273E-02    0.880E-03
DAV:   6    -0.989968687695E+02   -0.46754E-06   -0.90686E-06   132   0.784E-03
  10 F= -.98996869E+02 E0= -.98996869E+02  d E =-.434223E-10
       N       E                     dE             d eps       ncg     rms          rms(c)
DAV:   1    -0.989944192753E+02    0.24490E-02   -0.34196E-01    96   0.174E+00    0.222E-01
DAV:   2    -0.989966751191E+02   -0.22558E-02   -0.22679E-02   144   0.509E-01    0.151E-01
DAV:   3    -0.989966308994E+02    0.44220E-04   -0.52768E-04   144   0.924E-02    0.789E-02
DAV:   4    -0.989966573250E+02   -0.26426E-04   -0.27722E-04   132   0.632E-02    0.151E-02
DAV:   5    -0.989966488264E+02    0.84986E-05   -0.61427E-05   144   0.289E-02    0.102E-02
DAV:   6    -0.989966468616E+02    0.19648E-05   -0.10674E-05   132   0.984E-03    0.632E-03
DAV:   7    -0.989966521131E+02   -0.52515E-05   -0.14541E-06   132   0.468E-03    0.271E-03
DAV:   8    -0.989966620138E+02   -0.99007E-05   -0.18554E-06   132   0.499E-03    0.130E-03
DAV:   9    -0.989966711658E+02   -0.91520E-05   -0.74503E-07   108   0.268E-03    0.123E-03
DAV:  10    -0.989966834741E+02   -0.12308E-04   -0.71547E-07    96   0.209E-03    0.401E-04
DAV:  11    -0.989966885186E+02   -0.50446E-05   -0.20057E-07   108   0.115E-03    0.298E-04
DAV:  12    -0.989966938692E+02   -0.53505E-05   -0.11116E-07    96   0.789E-04    0.147E-04
DAV:  13    -0.989966967956E+02   -0.29264E-05   -0.84315E-08   108   0.562E-04    0.156E-04
DAV:  14    -0.989966986872E+02   -0.18916E-05   -0.22657E-08    96   0.352E-04    0.834E-05
DAV:  15    -0.989966995073E+02   -0.82008E-06   -0.51566E-09   108   0.229E-04
  11 F= -.98996700E+02 E0= -.98996700E+02  d E =-.346348E-10
       N       E                     dE             d eps       ncg     rms          rms(c)
DAV:   1    -0.989959597394E+02    0.73895E-03   -0.17312E-01    96   0.126E+00    0.158E-01
DAV:   2    -0.989970992796E+02   -0.11395E-02   -0.11702E-02   144   0.363E-01    0.115E-01
DAV:   3    -0.989970578648E+02    0.41415E-04   -0.25602E-04   132   0.617E-02    0.643E-02
DAV:   4    -0.989970386113E+02    0.19254E-04   -0.12781E-04   132   0.413E-02    0.104E-02
DAV:   5    -0.989970372422E+02    0.13691E-05   -0.23369E-05   132   0.171E-02    0.699E-03
DAV:   6    -0.989970431095E+02   -0.58674E-05   -0.69489E-06   132   0.829E-03    0.418E-03
DAV:   7    -0.989970607849E+02   -0.17675E-04   -0.23043E-06   132   0.515E-03    0.161E-03
DAV:   8    -0.989970813757E+02   -0.20591E-04   -0.17650E-06   120   0.405E-03    0.984E-04
DAV:   9    -0.989970993243E+02   -0.17949E-04   -0.18482E-06   132   0.313E-03    0.101E-03
DAV:  10    -0.989971126099E+02   -0.13286E-04   -0.10689E-06   108   0.223E-03    0.358E-04
DAV:  11    -0.989971154913E+02   -0.28814E-05   -0.10252E-07   108   0.825E-04    0.264E-04
DAV:  12    -0.989971195499E+02   -0.40586E-05   -0.18684E-07   108   0.881E-04    0.121E-04
DAV:  13    -0.989971210908E+02   -0.15409E-05   -0.57889E-08   108   0.498E-04    0.950E-05
DAV:  14    -0.989971221225E+02   -0.10317E-05   -0.13760E-08    96   0.308E-04    0.487E-05
DAV:  15    -0.989971225014E+02   -0.37888E-06   -0.65302E-10   108   0.175E-04
  12 F= -.98997123E+02 E0= -.98997123E+02  d E =-.381549E-10
       N       E                     dE             d eps       ncg     rms          rms(c)
DAV:   1    -0.989951220037E+02    0.20001E-02   -0.33504E-01    96   0.172E+00    0.203E-01
DAV:   2    -0.989970334750E+02   -0.19115E-02   -0.19516E-02   144   0.469E-01    0.140E-01
DAV:   3    -0.989970019752E+02    0.31500E-04   -0.45787E-04   132   0.825E-02    0.750E-02
DAV:   4    -0.989969954873E+02    0.64878E-05   -0.15947E-04   132   0.515E-02    0.128E-02
DAV:   5    -0.989969865863E+02    0.89010E-05   -0.37554E-05   144   0.237E-02    0.866E-03
DAV:   6    -0.989969886272E+02   -0.20410E-05   -0.68263E-06   120   0.866E-03    0.575E-03
DAV:   7    -0.989970020191E+02   -0.13392E-04   -0.18580E-06   132   0.586E-03    0.214E-03
DAV:   8    -0.989970192174E+02   -0.17198E-04   -0.17671E-06   120   0.562E-03    0.168E-03
DAV:   9    -0.989970349507E+02   -0.15733E-04   -0.12165E-06   120   0.363E-03    0.157E-03
DAV:  10    -0.989970457215E+02   -0.10771E-04   -0.32172E-07   108   0.153E-03    0.799E-04
DAV:  11    -0.989970584060E+02   -0.12685E-04   -0.67779E-07    84   0.172E-03    0.329E-04
DAV:  12    -0.989970647376E+02   -0.63317E-05   -0.21292E-07   108   0.935E-04    0.296E-04
DAV:  13    -0.989970699860E+02   -0.52484E-05   -0.13961E-07   108   0.726E-04    0.158E-04
DAV:  14    -0.989970721514E+02   -0.21654E-05   -0.34591E-08   108   0.428E-04    0.999E-05
DAV:  15    -0.989970737439E+02   -0.15926E-05   -0.20390E-08    96   0.347E-04    0.631E-05
DAV:  16    -0.989970742034E+02   -0.45947E-06    0.79266E-10   108   0.177E-04
  13 F= -.98997074E+02 E0= -.98997074E+02  d E =-.337560E-10
       N       E                     dE             d eps       ncg     rms          rms(c)
DAV:   1    -0.989962629685E+02    0.81078E-03   -0.16461E-01    96   0.127E+00    0.153E-01
DAV:   2    -0.989974522575E+02   -0.11893E-02   -0.12311E-02   132   0.367E-01    0.998E-02
DAV:   3    -0.989974290128E+02    0.23245E-04   -0.29642E-04   144   0.682E-02    0.601E-02
DAV:   4    -0.989974262556E+02    0.27571E-05   -0.10651E-04   132   0.459E-02    0.117E-02
DAV:   5    -0.989974242236E+02    0.20320E-05   -0.37302E-05   144   0.231E-02    0.830E-03
DAV:   6    -0.989974254497E+02   -0.12261E-05   -0.38535E-06   132   0.684E-03    0.599E-03
DAV:   7    -0.989974335447E+02   -0.80950E-05   -0.13756E-06   120   0.459E-03    0.210E-03
DAV:   8    -0.989974420380E+02   -0.84933E-05   -0.10856E-06   120   0.345E-03    0.103E-03
DAV:   9    -0.989974509247E+02   -0.88867E-05   -0.33897E-07   108   0.199E-03    0.618E-04
DAV:  10    -0.989974600070E+02   -0.90823E-05   -0.70387E-07    96   0.199E-03    0.414E-04
DAV:  11    -0.989974633049E+02   -0.32979E-05   -0.16191E-07   108   0.108E-03    0.317E-04
DAV:  12    -0.989974665316E+02   -0.32267E-05   -0.10749E-07    96   0.798E-04    0.189E-04
DAV:  13    -0.989974682969E+02   -0.17653E-05   -0.46505E-08    96   0.491E-04    0.115E-04
DAV:  14    -0.989974699024E+02   -0.16056E-05   -0.43904E-08    84   0.443E-04    0.805E-05
DAV:  15    -0.989974703996E+02   -0.49720E-06   -0.37582E-09   108   0.230E-04
  14 F= -.98997470E+02 E0= -.98997470E+02  d E =-.399049E-10
       N       E                     dE             d eps       ncg     rms          rms(c)
DAV:   1    -0.989954492965E+02    0.20206E-02   -0.33620E-01    96   0.172E+00    0.201E-01
DAV:   2    -0.989973530638E+02   -0.19038E-02   -0.19306E-02   132   0.465E-01    0.127E-01
DAV:   3    -0.989973408340E+02    0.12230E-04   -0.49782E-04   144   0.882E-02    0.664E-02
DAV:   4    -0.989973551618E+02   -0.14328E-04   -0.17673E-04   132   0.567E-02    0.132E-02
DAV:   5    -0.989973500282E+02    0.51336E-05   -0.50677E-05   144   0.266E-02    0.101E-02
DAV:   6    -0.989973496267E+02    0.40149E-06   -0.79307E-06   132   0.894E-03
  15 F= -.98997350E+02 E0= -.98997350E+02  d E =-.341205E-10
       N       E                     dE             d eps       ncg     rms          rms(c)
DAV:   1    -0.989956304487E+02    0.17196E-02   -0.17229E-01    96   0.128E+00    0.156E-01
DAV:   2    -0.989967729817E+02   -0.11425E-02   -0.11381E-02   144   0.358E-01    0.113E-01
DAV:   3    -0.989967615108E+02    0.11471E-04   -0.25133E-04   132   0.619E-02    0.619E-02
DAV:   4    -0.989967640853E+02   -0.25745E-05   -0.13670E-04   120   0.425E-02    0.104E-02
DAV:   5    -0.989967601170E+02    0.39683E-05   -0.26667E-05   132   0.184E-02    0.733E-03
DAV:   6    -0.989967608412E+02   -0.72426E-06   -0.62922E-06   132   0.736E-03
  16 F= -.98996761E+02 E0= -.98996761E+02  d E =-.468094E-10
       N       E                     dE             d eps       ncg     rms          rms(c)
DAV:   1    -0.989943968506E+02    0.23633E-02   -0.34030E-01    96   0.174E+00    0.218E-01
DAV:   2    -0.989965590125E+02   -0.21622E-02   -0.21743E-02   144   0.492E-01    0.154E-01
DAV:   3    -0.989965208017E+02    0.38211E-04   -0.47567E-04   132   0.853E-02    0.807E-02
DAV:   4    -0.989965219319E+02   -0.11302E-05   -0.23787E-04   132   0.568E-02    0.142E-02
DAV:   5    -0.989965084407E+02    0.13491E-04   -0.44672E-05   144   0.248E-02    0.910E-03
DAV:   6    -0.989965044070E+02    0.40337E-05   -0.97148E-06   132   0.971E-03    0.561E-03
DAV:   7    -0.989965107078E+02   -0.63009E-05   -0.19500E-06   132   0.553E-03    0.224E-03
DAV:   8    -0.989965216556E+02   -0.10948E-04   -0.18140E-06   132   0.529E-03    0.137E-03
DAV:   9    -0.989965351214E+02   -0.13466E-04   -0.12639E-06   120   0.319E-03    0.130E-03
DAV:  10    -0.989965477423E+02   -0.12621E-04   -0.52580E-07   108   0.188E-03    0.439E-04
DAV:  11    -0.989965547541E+02   -0.70117E-05   -0.27896E-07   108   0.114E-03    0.307E-04
DAV:  12    -0.989965617560E+02   -0.70019E-05   -0.18244E-07   108   0.893E-04    0.177E-04
DAV:  13    -0.989965646507E+02   -0.28947E-05   -0.57941E-08   108   0.518E-04    0.134E-04
DAV:  14    -0.989965667020E+02   -0.20513E-05   -0.22373E-08   108   0.357E-04    0.657E-05
DAV:  15    -0.989965676430E+02   -0.94105E-06   -0.50771E-09   108   0.233E-04
  17 F= -.98996568E+02 E0= -.98996568E+02  d E =-.330819E-10
       N       E                     dE             d eps       ncg     rms          rms(c)
DAV:   1    -0.989945832855E+02    0.19834E-02   -0.17498E-01    96   0.122E+00    0.172E-01
DAV:   2    -0.989959686379E+02   -0.13854E-02   -0.14069E-02   132   0.395E-01    0.125E-01
DAV:   3    -0.989959010018E+02    0.67636E-04   -0.29339E-04   144   0.700E-02    0.699E-02
DAV:   4    -0.989958985094E+02    0.24924E-05   -0.21658E-04   132   0.551E-02    0.119E-02
DAV:   5    -0.989958937173E+02    0.47921E-05   -0.58527E-05   132   0.269E-02    0.872E-03
DAV:   6    -0.989958943338E+02   -0.61646E-06   -0.78273E-06   132   0.771E-03
  18 F= -.98995894E+02 E0= -.98995894E+02  d E =-.427209E-10
       N       E                     dE             d eps       ncg     rms          rms(c)
DAV:   1    -0.989932844771E+02    0.26092E-02   -0.34567E-01    96   0.173E+00    0.239E-01
DAV:   2    -0.989960855529E+02   -0.28011E-02   -0.28099E-02   132   0.556E-01    0.181E-01
DAV:   3    -0.989959767567E+02    0.10880E-03   -0.57781E-04   132   0.974E-02    0.103E-01
DAV:   4    -0.989959870610E+02   -0.10304E-04   -0.44273E-04   132   0.784E-02    0.169E-02
DAV:   5    -0.989959810101E+02    0.60509E-05   -0.11518E-04   132   0.374E-02    0.128E-02
DAV:   6    -0.989959818812E+02   -0.87111E-06   -0.17316E-05   132   0.115E-02    0.845E-03
DAV:   7    -0.989960002669E+02   -0.18386E-04   -0.33597E-06   132   0.589E-03    0.344E-03
DAV:   8    -0.989960254580E+02   -0.25191E-04   -0.29916E-06   132   0.484E-03    0.117E-03
DAV:   9    -0.989960468463E+02   -0.21388E-04   -0.26337E-06   132   0.367E-03    0.190E-03
DAV:  10    -0.989960623205E+02   -0.15474E-04   -0.11676E-06   120   0.257E-03    0.695E-04
DAV:  11    -0.989960694951E+02   -0.71746E-05   -0.43008E-07   108   0.147E-03    0.288E-04
DAV:  12    -0.989960748549E+02   -0.53598E-05   -0.30148E-07   108   0.106E-03    0.226E-04
DAV:  13    -0.989960764842E+02   -0.16292E-05   -0.50788E-08   108   0.466E-04    0.215E-04
DAV:  14    -0.989960779071E+02   -0.14229E-05   -0.28975E-08   108   0.397E-04    0.957E-05
DAV:  15    -0.989960785664E+02   -0.65923E-06   -0.10225E-08    96   0.272E-04
  19 F= -.98996079E+02 E0= -.98996079E+02  d E =-.354647E-10
       N       E                     dE             d eps       ncg     rms          rms(c)
DAV:   1    -0.989966879405E+02   -0.61003E-03   -0.18496E-01    96   0.131E+00    0.165E-01
DAV:   2    -0.989979869790E+02   -0.12990E-02   -0.13785E-02   144   0.394E-01    0.102E-01
DAV:   3    -0.989979386666E+02    0.48312E-04   -0.28189E-04   144   0.668E-02    0.596E-02
DAV:   4    -0.989979324753E+02    0.61913E-05   -0.14405E-04   132   0.486E-02    0.109E-02
DAV:   5    -0.989979305926E+02    0.18828E-05   -0.39985E-05   132   0.232E-02    0.811E-03
DAV:   6    -0.989979289767E+02    0.16158E-05   -0.42266E-06   132   0.724E-03    0.488E-03
DAV:   7    -0.989979331100E+02   -0.41332E-05   -0.21406E-06   132   0.509E-03    0.170E-03
DAV:   8    -0.989979405880E+02   -0.74780E-05   -0.40619E-07   108   0.265E-03    0.698E-04
DAV:   9    -0.989979481443E+02   -0.75563E-05   -0.42206E-07   108   0.180E-03    0.866E-04
DAV:  10    -0.989979578665E+02   -0.97221E-05   -0.53405E-07   108   0.163E-03    0.252E-04
DAV:  11    -0.989979604212E+02   -0.25547E-05   -0.87395E-08   108   0.728E-04    0.162E-04
DAV:  12    -0.989979633768E+02   -0.29556E-05   -0.74994E-08   108   0.607E-04    0.104E-04
DAV:  13    -0.989979648704E+02   -0.14937E-05   -0.27990E-08   108   0.385E-04    0.726E-05
DAV:  14    -0.989979660832E+02   -0.12128E-05   -0.18072E-08    96   0.303E-04    0.344E-05
DAV:  15    -0.989979663431E+02   -0.25982E-06    0.28544E-09   108   0.134E-04
  20 F= -.98997966E+02 E0= -.98997966E+02  d E =-.320645E-10
       N       E                     dE             d eps       ncg     rms          rms(c)
DAV:   1    -0.989966233441E+02    0.13427E-02   -0.41172E-01    96   0.180E+00    0.214E-01
DAV:   2    -0.989979323095E+02   -0.13090E-02   -0.15760E-02   144   0.380E-01    0.873E-02
DAV:   3    -0.989978691575E+02    0.63152E-04   -0.35956E-04   132   0.655E-02    0.452E-02
DAV:   4    -0.989978524581E+02    0.16699E-04   -0.83224E-05   132   0.367E-02    0.135E-02
DAV:   5    -0.989978495085E+02    0.29497E-05   -0.19440E-05   144   0.176E-02    0.741E-03
DAV:   6    -0.989978507658E+02   -0.12574E-05   -0.38093E-06   132   0.711E-03    0.398E-03
DAV:   7    -0.989978546597E+02   -0.38938E-05   -0.42062E-07   108   0.290E-03    0.135E-03
DAV:   8    -0.989978595603E+02   -0.49006E-05   -0.34109E-07   108   0.238E-03    0.737E-04
DAV:   9    -0.989978682160E+02   -0.86557E-05   -0.62407E-07   108   0.281E-03    0.334E-04
DAV:  10    -0.989978721288E+02   -0.39129E-05   -0.36643E-07   108   0.175E-03    0.358E-04
DAV:  11    -0.989978736591E+02   -0.15303E-05   -0.36890E-08   108   0.731E-04    0.293E-04
DAV:  12    -0.989978761169E+02   -0.24578E-05   -0.64993E-08   108   0.688E-04    0.103E-04
DAV:  13    -0.989978773136E+02   -0.11967E-05   -0.33640E-08   108   0.430E-04    0.146E-04
DAV:  14    -0.989978780771E+02   -0.76352E-06   -0.61352E-09   108   0.275E-04
  21 F= -.98997878E+02 E0= -.98997878E+02  d E =-.436297E-10
       N       E                     dE             d eps       ncg     rms          rms(c)
DAV:   1    -0.989974595956E+02    0.41772E-03   -0.20611E-01   108   0.130E+00    0.135E-01
DAV:   2    -0.989980288325E+02   -0.56924E-03   -0.69074E-03   120   0.247E-01    0.590E-02
DAV:   3    -0.989980013004E+02    0.27532E-04   -0.14890E-04   144   0.428E-02    0.298E-02
DAV:   4    -0.989979944127E+02    0.68877E-05   -0.37187E-05   132   0.249E-02    0.798E-03
DAV:   5    -0.989979932655E+02    0.11472E-05   -0.89077E-06   132   0.118E-02    0.464E-03
DAV:   6    -0.989979939382E+02   -0.67276E-06   -0.19040E-06   132   0.484E-03
  22 F= -.98997994E+02 E0= -.98997994E+02  d E =-.282416E-10
       N       E                     dE             d eps       ncg     rms          rms(c)
DAV:   1    -0.989966105155E+02    0.13827E-02   -0.40895E-01    96   0.177E+00    0.200E-01
DAV:   2    -0.989979251851E+02   -0.13147E-02   -0.15549E-02   132   0.374E-01    0.868E-02
DAV:   3    -0.989978731569E+02    0.52028E-04   -0.33038E-04   120   0.634E-02    0.447E-02
DAV:   4    -0.989978621414E+02    0.11015E-04   -0.85522E-05   132   0.364E-02    0.121E-02
DAV:   5    -0.989978587918E+02    0.33496E-05   -0.18950E-05   132   0.169E-02    0.700E-03
DAV:   6    -0.989978589846E+02   -0.19280E-06   -0.38409E-06   132   0.704E-03
  23 F= -.98997859E+02 E0= -.98997859E+02  d E =-.805877E-10
       N       E                     dE             d eps       ncg     rms          rms(c)
DAV:   1    -0.989961026348E+02    0.17562E-02   -0.20276E-01    96   0.126E+00    0.137E-01
DAV:   2    -0.989968318218E+02   -0.72919E-03   -0.86591E-03   144   0.277E-01    0.701E-02
DAV:   3    -0.989967957188E+02    0.36103E-04   -0.16289E-04   120   0.448E-02    0.375E-02
DAV:   4    -0.989967859889E+02    0.97300E-05   -0.55209E-05   120   0.286E-02    0.837E-03
DAV:   5    -0.989967851313E+02    0.85757E-06   -0.12073E-05   144   0.132E-02    0.526E-03
DAV:   6    -0.989967884986E+02   -0.33674E-05   -0.25306E-06   120   0.513E-03    0.287E-03
DAV:   7    -0.989967949867E+02   -0.64880E-05   -0.55230E-07    96   0.249E-03    0.111E-03
DAV:   8    -0.989968021975E+02   -0.72108E-05   -0.52991E-07   120   0.190E-03    0.677E-04
DAV:   9    -0.989968119543E+02   -0.97568E-05   -0.70150E-07    96   0.186E-03    0.321E-04
DAV:  10    -0.989968173849E+02   -0.54305E-05   -0.34751E-07    96   0.125E-03    0.228E-04
DAV:  11    -0.989968200953E+02   -0.27104E-05   -0.10910E-07   108   0.750E-04    0.127E-04
DAV:  12    -0.989968220764E+02   -0.19811E-05   -0.74090E-08    84   0.546E-04    0.817E-05
DAV:  13    -0.989968228901E+02   -0.81379E-06   -0.12593E-08   108   0.277E-04
  24 F= -.98996823E+02 E0= -.98996823E+02  d E =-.472979E-10
       N       E                     dE             d eps       ncg     rms          rms(c)
DAV:   1    -0.989952701563E+02    0.15519E-02   -0.39238E-01    96   0.172E+00    0.201E-01
DAV:   2    -0.989967856193E+02   -0.15155E-02   -0.18685E-02   132   0.403E-01    0.126E-01
DAV:   3    -0.989966408222E+02    0.14480E-03   -0.31922E-04   132   0.675E-02    0.643E-02
DAV:   4    -0.989965929737E+02    0.47848E-04   -0.15942E-04   132   0.468E-02    0.118E-02
DAV:   5    -0.989965807554E+02    0.12218E-04   -0.26981E-05   132   0.196E-02    0.733E-03
DAV:   6    -0.989965842274E+02   -0.34721E-05   -0.79878E-06   132   0.791E-03    0.409E-03
DAV:   7    -0.989966003484E+02   -0.16121E-04   -0.16316E-06   120   0.392E-03    0.183E-03
DAV:   8    -0.989966243480E+02   -0.24000E-04   -0.15167E-06   120   0.307E-03    0.121E-03
DAV:   9    -0.989966460727E+02   -0.21725E-04   -0.10896E-06   108   0.216E-03    0.806E-04
DAV:  10    -0.989966656773E+02   -0.19605E-04   -0.10826E-06   120   0.194E-03    0.396E-04
DAV:  11    -0.989966718398E+02   -0.61625E-05   -0.95605E-08   108   0.821E-04    0.259E-04
DAV:  12    -0.989966799202E+02   -0.80805E-05   -0.26447E-07   108   0.101E-03    0.141E-04
DAV:  13    -0.989966816559E+02   -0.17356E-05   -0.26110E-08   108   0.429E-04    0.890E-05
DAV:  14    -0.989966834349E+02   -0.17790E-05   -0.16844E-08    84   0.340E-04    0.451E-05
DAV:  15    -0.989966839379E+02   -0.50303E-06   -0.39897E-11   108   0.175E-04
  25 F= -.98996684E+02 E0= -.98996684E+02  d E =-.312862E-10
       N       E                     dE             d eps       ncg     rms          rms(c)
DAV:   1    -0.989954721189E+02    0.12113E-02   -0.18609E-01    96   0.130E+00    0.146E-01
DAV:   2    -0.989965127213E+02   -0.10406E-02   -0.12924E-02   120   0.352E-01    0.928E-02
DAV:   3    -0.989964489035E+02    0.63818E-04   -0.19248E-04   132   0.475E-02    0.545E-02
DAV:   4    -0.989964070947E+02    0.41809E-04   -0.81762E-05   132   0.349E-02    0.886E-03
DAV:   5    -0.989963979593E+02    0.91354E-05   -0.17956E-05   132   0.157E-02    0.561E-03
DAV:   6    -0.989964005288E+02   -0.25695E-05   -0.48838E-06   132   0.709E-03    0.321E-03
DAV:   7    -0.989964135161E+02   -0.12987E-04   -0.19568E-06   132   0.443E-03    0.153E-03
DAV:   8    -0.989964352561E+02   -0.21740E-04   -0.16100E-06   108   0.309E-03    0.909E-04
DAV:   9    -0.989964509063E+02   -0.15650E-04   -0.91679E-07   120   0.218E-03    0.688E-04
DAV:  10    -0.989964661735E+02   -0.15267E-04   -0.98310E-07   120   0.195E-03    0.349E-04
DAV:  11    -0.989964705060E+02   -0.43325E-05   -0.10248E-07   108   0.762E-04    0.288E-04
DAV:  12    -0.989964759002E+02   -0.53942E-05   -0.18250E-07    96   0.928E-04    0.135E-04
DAV:  13    -0.989964770605E+02   -0.11603E-05   -0.26341E-08   108   0.422E-04    0.101E-04
DAV:  14    -0.989964781301E+02   -0.10696E-05   -0.57873E-09    96   0.277E-04    0.339E-05
DAV:  15    -0.989964787173E+02   -0.58712E-06   -0.20688E-09    96   0.195E-04
  26 F= -.98996479E+02 E0= -.98996479E+02  d E =-.352865E-10
       N       E                     dE             d eps       ncg     rms          rms(c)
DAV:   1    -0.989949416002E+02    0.15365E-02   -0.40480E-01   120   0.183E+00    0.203E-01
DAV:   2    -0.989966095644E+02   -0.16680E-02   -0.20463E-02   120   0.441E-01    0.126E-01
DAV:   3    -0.989965004554E+02    0.10911E-03   -0.30381E-04   132   0.599E-02    0.674E-02
DAV:   4    -0.989964381990E+02    0.62256E-04   -0.13834E-04   132   0.451E-02    0.108E-02
DAV:   5    -0.989964346375E+02    0.35615E-05   -0.32076E-05   132   0.205E-02    0.755E-03
DAV:   6    -0.989964466235E+02   -0.11986E-04   -0.11521E-05   132   0.929E-03    0.420E-03
DAV:   7    -0.989964699250E+02   -0.23301E-04   -0.18743E-06   132   0.427E-03    0.222E-03
DAV:   8    -0.989965103044E+02   -0.40379E-04   -0.46903E-06   108   0.475E-03    0.123E-03
DAV:   9    -0.989965324070E+02   -0.22103E-04   -0.16380E-06   120   0.283E-03    0.956E-04
DAV:  10    -0.989965550894E+02   -0.22682E-04   -0.19245E-06   120   0.274E-03    0.369E-04
DAV:  11    -0.989965629018E+02   -0.78124E-05   -0.31332E-07   108   0.124E-03    0.359E-04
DAV:  12    -0.989965690913E+02   -0.61894E-05   -0.29808E-07   108   0.109E-03    0.121E-04
DAV:  13    -0.989965706320E+02   -0.15407E-05   -0.38593E-08   108   0.451E-04    0.900E-05
DAV:  14    -0.989965720082E+02   -0.13763E-05   -0.14171E-08   108   0.325E-04    0.505E-05
DAV:  15    -0.989965725477E+02   -0.53942E-06   -0.24726E-09   108   0.199E-04
  27 F= -.98996573E+02 E0= -.98996573E+02  d E =-.452444E-10
       N       E                     dE             d eps       ncg     rms          rms(c)
DAV:   1    -0.989961373641E+02    0.43464E-03   -0.20247E-01    96   0.132E+00    0.131E-01
DAV:   2    -0.989969567441E+02   -0.81938E-03   -0.10075E-02   108   0.299E-01    0.759E-02
DAV:   3    -0.989969232390E+02    0.33505E-04   -0.15813E-04   132   0.398E-02    0.411E-02
DAV:   4    -0.989968940143E+02    0.29225E-04   -0.43064E-05   132   0.258E-02    0.731E-03
DAV:   5    -0.989968870631E+02    0.69512E-05   -0.10568E-05   132   0.125E-02    0.453E-03
DAV:   6    -0.989968880769E+02   -0.10138E-05   -0.36358E-06   132   0.628E-03    0.245E-03
DAV:   7    -0.989968949496E+02   -0.68728E-05   -0.11717E-06   120   0.394E-03    0.143E-03
DAV:   8    -0.989969078862E+02   -0.12937E-04   -0.84092E-07    96   0.285E-03    0.759E-04
DAV:   9    -0.989969199750E+02   -0.12089E-04   -0.85540E-07    96   0.227E-03    0.615E-04
DAV:  10    -0.989969313189E+02   -0.11344E-04   -0.50403E-07    96   0.158E-03    0.267E-04
DAV:  11    -0.989969368993E+02   -0.55804E-05   -0.14667E-07   108   0.804E-04    0.248E-04
DAV:  12    -0.989969406471E+02   -0.37478E-05   -0.60390E-08    96   0.533E-04    0.119E-04
DAV:  13    -0.989969429281E+02   -0.22810E-05   -0.33878E-08   108   0.400E-04    0.589E-05
DAV:  14    -0.989969440632E+02   -0.11351E-05   -0.78575E-09    96   0.251E-04    0.456E-05
DAV:  15    -0.989969444404E+02   -0.37716E-06    0.21303E-09   108   0.142E-04
  28 F= -.98996944E+02 E0= -.98996944E+02  d E =-.436182E-10
       N       E                     dE             d eps       ncg     rms          rms(c)
DAV:   1    -0.989953377696E+02    0.16063E-02   -0.40505E-01    96   0.180E+00    0.190E-01
DAV:   2    -0.989969861488E+02   -0.16484E-02   -0.20389E-02   144   0.422E-01    0.115E-01
DAV:   3    -0.989968988121E+02    0.87337E-04   -0.30211E-04   132   0.550E-02    0.634E-02
DAV:   4    -0.989968218072E+02    0.77005E-04   -0.99786E-05   132   0.374E-02    0.106E-02
DAV:   5    -0.989968188793E+02    0.29279E-05   -0.19861E-05   132   0.172E-02    0.682E-03
DAV:   6    -0.989968371344E+02   -0.18255E-04   -0.95453E-06   132   0.101E-02    0.340E-03
DAV:   7    -0.989968649328E+02   -0.27798E-04   -0.45951E-06   132   0.666E-03    0.236E-03
DAV:   8    -0.989969020011E+02   -0.37068E-04   -0.29812E-06   120   0.423E-03    0.111E-03
DAV:   9    -0.989969316777E+02   -0.29677E-04   -0.30823E-06   120   0.387E-03    0.919E-04
DAV:  10    -0.989969552061E+02   -0.23528E-04   -0.24714E-06   120   0.316E-03    0.333E-04
DAV:  11    -0.989969612331E+02   -0.60270E-05   -0.24300E-07   108   0.121E-03    0.346E-04
DAV:  12    -0.989969656227E+02   -0.43896E-05   -0.16867E-07   108   0.842E-04    0.132E-04
DAV:  13    -0.989969675452E+02   -0.19225E-05   -0.54629E-08   108   0.480E-04    0.865E-05
DAV:  14    -0.989969686250E+02   -0.10798E-05   -0.11715E-08   108   0.309E-04    0.495E-05
DAV:  15    -0.989969690662E+02   -0.44125E-06   -0.61465E-10   108   0.180E-04
  29 F= -.98996969E+02 E0= -.98996969E+02  d E =-.355564E-10
       N       E                     dE             d eps       ncg     rms          rms(c)
DAV:   1    -0.989968443992E+02    0.12423E-03   -0.20140E-01   120   0.125E+00    0.127E-01
DAV:   2    -0.989976730005E+02   -0.82860E-03   -0.98823E-03   120   0.277E-01    0.671E-02
DAV:   3    -0.989976545155E+02    0.18485E-04   -0.16421E-04   132   0.429E-02    0.364E-02
DAV:   4    -0.989976407671E+02    0.13748E-04   -0.41010E-05   132   0.295E-02    0.694E-03
DAV:   5    -0.989976377120E+02    0.30551E-05   -0.16403E-05   132   0.149E-02    0.522E-03
DAV:   6    -0.989976380349E+02   -0.32295E-06   -0.23642E-06   132   0.477E-03
  30 F= -.98997638E+02 E0= -.98997638E+02  d E =-.245969E-10
       N       E                     dE             d eps       ncg     rms          rms(c)
DAV:   1    -0.989963283730E+02    0.13093E-02   -0.40473E-01   120   0.167E+00    0.171E-01
DAV:   2    -0.989977651807E+02   -0.14368E-02   -0.17233E-02   108   0.372E-01    0.922E-02
DAV:   3    -0.989977375322E+02    0.27649E-04   -0.28378E-04   132   0.568E-02    0.497E-02
DAV:   4    -0.989977193795E+02    0.18153E-04   -0.72086E-05   120   0.385E-02    0.895E-03
DAV:   5    -0.989977174117E+02    0.19678E-05   -0.26850E-05   144   0.191E-02    0.688E-03
DAV:   6    -0.989977200615E+02   -0.26498E-05   -0.37839E-06   132   0.628E-03    0.434E-03
DAV:   7    -0.989977277045E+02   -0.76430E-05   -0.78691E-07   108   0.408E-03    0.177E-03
DAV:   8    -0.989977398961E+02   -0.12192E-04   -0.16331E-06   120   0.446E-03    0.138E-03
DAV:   9    -0.989977556909E+02   -0.15795E-04   -0.12280E-06   108   0.331E-03    0.667E-04
DAV:  10    -0.989977619458E+02   -0.62550E-05   -0.25980E-07    96   0.159E-03    0.552E-04
DAV:  11    -0.989977676573E+02   -0.57115E-05   -0.13086E-07    96   0.915E-04    0.203E-04
DAV:  12    -0.989977725885E+02   -0.49312E-05   -0.16537E-07    96   0.813E-04    0.247E-04
DAV:  13    -0.989977743091E+02   -0.17206E-05   -0.20689E-08   108   0.403E-04    0.825E-05
DAV:  14    -0.989977759732E+02   -0.16641E-05   -0.36289E-08    84   0.377E-04    0.496E-05
DAV:  15    -0.989977765852E+02   -0.61204E-06   -0.89605E-10   108   0.187E-04
  31 F= -.98997777E+02 E0= -.98997777E+02  d E =-.795630E-10
       N       E                     dE             d eps       ncg     rms          rms(c)
DAV:   1    -0.989959456441E+02    0.18303E-02   -0.19535E-01    96   0.133E+00    0.143E-01
DAV:   2    -0.989970096680E+02   -0.10640E-02   -0.12793E-02   120   0.328E-01    0.772E-02
DAV:   3    -0.989969711399E+02    0.38528E-04   -0.24304E-04   144   0.515E-02    0.433E-02
DAV:   4    -0.989969398876E+02    0.31252E-04   -0.52250E-05   132   0.310E-02    0.904E-03
DAV:   5    -0.989969320991E+02    0.77885E-05   -0.18310E-05   144   0.164E-02    0.563E-03
DAV:   6    -0.989969347395E+02   -0.26404E-05   -0.30878E-06   132   0.605E-03    0.369E-03
DAV:   7    -0.989969446264E+02   -0.98869E-05   -0.95929E-07   120   0.356E-03    0.146E-03
DAV:   8    -0.989969571377E+02   -0.12511E-04   -0.10000E-06   108   0.318E-03    0.983E-04
DAV:   9    -0.989969741089E+02   -0.16971E-04   -0.14346E-06   108   0.304E-03    0.550E-04
DAV:  10    -0.989969818382E+02   -0.77293E-05   -0.47124E-07   108   0.180E-03    0.441E-04
DAV:  11    -0.989969860471E+02   -0.42088E-05   -0.15973E-07    96   0.980E-04    0.210E-04
DAV:  12    -0.989969895723E+02   -0.35252E-05   -0.14908E-07    96   0.792E-04    0.162E-04
DAV:  13    -0.989969909074E+02   -0.13351E-05   -0.31849E-08   108   0.404E-04    0.906E-05
DAV:  14    -0.989969918674E+02   -0.96000E-06   -0.22456E-08    84   0.315E-04
  32 F= -.98996992E+02 E0= -.98996992E+02  d E =-.450058E-10
       N       E                     dE             d eps       ncg     rms          rms(c)
DAV:   1    -0.989954302011E+02    0.15607E-02   -0.39460E-01    96   0.175E+00    0.204E-01
DAV:   2    -0.989969962441E+02   -0.15660E-02   -0.19070E-02   132   0.418E-01    0.121E-01
DAV:   3    -0.989968648702E+02    0.13137E-03   -0.33657E-04   132   0.688E-02    0.621E-02
DAV:   4    -0.989968180160E+02    0.46854E-04   -0.15516E-04   132   0.466E-02    0.122E-02
DAV:   5    -0.989968070641E+02    0.10952E-04   -0.26946E-05   132   0.196E-02    0.768E-03
DAV:   6    -0.989968098287E+02   -0.27646E-05   -0.72672E-06   132   0.813E-03    0.415E-03
DAV:   7    -0.989968237041E+02   -0.13875E-04   -0.16266E-06   132   0.414E-03    0.179E-03
DAV:   8    -0.989968439593E+02   -0.20255E-04   -0.11644E-06   120   0.290E-03    0.114E-03
DAV:   9    -0.989968643868E+02   -0.20427E-04   -0.10759E-06   120   0.224E-03    0.743E-04
DAV:  10    -0.989968827655E+02   -0.18379E-04   -0.10762E-06   120   0.197E-03    0.410E-04
DAV:  11    -0.989968883206E+02   -0.55551E-05   -0.83380E-08   108   0.831E-04    0.237E-04
DAV:  12    -0.989968955500E+02   -0.72294E-05   -0.23388E-07   108   0.966E-04    0.133E-04
DAV:  13    -0.989968973707E+02   -0.18207E-05   -0.25613E-08   108   0.414E-04    0.931E-05
DAV:  14    -0.989968989548E+02   -0.15841E-05   -0.11790E-08    84   0.304E-04    0.424E-05
DAV:  15    -0.989968995600E+02   -0.60523E-06   -0.92829E-10   108   0.179E-04
  33 F= -.98996900E+02 E0= -.98996900E+02  d E =-.323807E-10
       N       E                     dE             d eps       ncg     rms          rms(c)
DAV:   1    -0.989973007940E+02   -0.40184E-03   -0.20036E-01    96   0.126E+00    0.134E-01
DAV:   2    -0.989980499694E+02   -0.74918E-03   -0.90323E-03   144   0.288E-01    0.778E-02
DAV:   3    -0.989979950329E+02    0.54937E-04   -0.15746E-04   132   0.466E-02    0.405E-02
DAV:   4    -0.989979723897E+02    0.22643E-04   -0.65970E-05   132   0.314E-02    0.796E-03
DAV:   5    -0.989979683317E+02    0.40580E-05   -0.12382E-05   132   0.134E-02    0.530E-03
DAV:   6    -0.989979716065E+02   -0.32749E-05   -0.32724E-06   132   0.580E-03    0.271E-03
DAV:   7    -0.989979797860E+02   -0.81795E-05   -0.77035E-07   108   0.297E-03    0.116E-03
DAV:   8    -0.989979901726E+02   -0.10387E-04   -0.80442E-07   120   0.226E-03    0.764E-04
DAV:   9    -0.989980022252E+02   -0.12053E-04   -0.88187E-07   108   0.207E-03    0.407E-04
DAV:  10    -0.989980099215E+02   -0.76963E-05   -0.52384E-07   108   0.150E-03    0.265E-04
DAV:  11    -0.989980127411E+02   -0.28196E-05   -0.11561E-07   108   0.787E-04    0.147E-04
DAV:  12    -0.989980156718E+02   -0.29308E-05   -0.14197E-07    96   0.750E-04    0.816E-05
DAV:  13    -0.989980164228E+02   -0.75092E-06   -0.18336E-08   108   0.332E-04
  34 F= -.98998016E+02 E0= -.98998016E+02  d E =-.334592E-10
       N       E                     dE             d eps       ncg     rms          rms(c)
DAV:   1    -0.989966143116E+02    0.14014E-02   -0.41019E-01   120   0.179E+00    0.200E-01
DAV:   2    -0.989979795181E+02   -0.13652E-02   -0.16230E-02   132   0.379E-01    0.859E-02
DAV:   3    -0.989979213421E+02    0.58176E-04   -0.35146E-04   132   0.649E-02    0.448E-02
DAV:   4    -0.989979041268E+02    0.17215E-04   -0.85456E-05   132   0.370E-02    0.126E-02
DAV:   5    -0.989979008429E+02    0.32839E-05   -0.20139E-05   132   0.177E-02    0.750E-03
DAV:   6    -0.989979016634E+02   -0.82054E-06   -0.40715E-06   132   0.730E-03
  35 F= -.98997902E+02 E0= -.98997902E+02  d E =-.642633E-10
       N       E                     dE             d eps       ncg     rms          rms(c)
DAV:   1    -0.989972029709E+02    0.69787E-03   -0.20519E-01   108   0.129E+00    0.133E-01
DAV:   2    -0.989977881179E+02   -0.58515E-03   -0.69537E-03   120   0.256E-01    0.605E-02
DAV:   3    -0.989977676704E+02    0.20447E-04   -0.15189E-04   144   0.433E-02    0.302E-02
DAV:   4    -0.989977692288E+02   -0.15584E-05   -0.39746E-05   120   0.250E-02    0.811E-03
DAV:   5    -0.989977701287E+02   -0.89987E-06   -0.80482E-06   132   0.111E-02
  36 F= -.98997770E+02 E0= -.98997770E+02  d E =-.294485E-10
       N       E                     dE             d eps       ncg     rms          rms(c)
DAV:   1    -0.989962659359E+02    0.15033E-02   -0.40767E-01    96   0.180E+00    0.214E-01
DAV:   2    -0.989976662657E+02   -0.14003E-02   -0.16681E-02   132   0.400E-01    0.960E-02
DAV:   3    -0.989976031768E+02    0.63089E-04   -0.34819E-04   132   0.666E-02    0.495E-02
DAV:   4    -0.989975857543E+02    0.17422E-04   -0.98464E-05   120   0.388E-02    0.125E-02
DAV:   5    -0.989975786504E+02    0.71039E-05   -0.20063E-05   144   0.172E-02    0.690E-03
DAV:   6    -0.989975784622E+02    0.18828E-06   -0.39111E-06   132   0.696E-03
  37 F= -.98997578E+02 E0= -.98997578E+02  d E =-.657339E-10
       N       E                     dE             d eps       ncg     rms          rms(c)
DAV:   1    -0.989965485581E+02    0.10301E-02   -0.19838E-01    96   0.130E+00    0.161E-01
DAV:   2    -0.989976456736E+02   -0.10971E-02   -0.12851E-02   132   0.319E-01    0.724E-02
DAV:   3    -0.989976075642E+02    0.38109E-04   -0.26260E-04   144   0.557E-02    0.397E-02
DAV:   4    -0.989976014801E+02    0.60841E-05   -0.67111E-05   120   0.311E-02    0.106E-02
DAV:   5    -0.989976000554E+02    0.14247E-05   -0.13719E-05   132   0.143E-02    0.596E-03
DAV:   6    -0.989976003534E+02   -0.29798E-06   -0.25397E-06   120   0.600E-03
  38 F= -.98997600E+02 E0= -.98997600E+02  d E =-.270355E-10
       N       E                     dE             d eps       ncg     rms          rms(c)
DAV:   1    -0.989960523213E+02    0.15477E-02   -0.40355E-01    96   0.179E+00    0.214E-01
DAV:   2    -0.989975352631E+02   -0.14829E-02   -0.17578E-02   132   0.404E-01    0.102E-01
DAV:   3    -0.989974642441E+02    0.71019E-04   -0.34251E-04   108   0.663E-02    0.531E-02
DAV:   4    -0.989974388939E+02    0.25350E-04   -0.11030E-04   120   0.402E-02    0.123E-02
DAV:   5    -0.989974310841E+02    0.78098E-05   -0.21172E-05   132   0.176E-02    0.698E-03
DAV:   6    -0.989974313691E+02   -0.28504E-06   -0.45153E-06   132   0.734E-03
  39 F= -.98997431E+02 E0= -.98997431E+02  d E =-.802259E-10
       N       E                     dE             d eps       ncg     rms          rms(c)
DAV:   1    -0.989965683164E+02    0.86277E-03   -0.20552E-01    96   0.127E+00    0.136E-01
DAV:   2    -0.989971808613E+02   -0.61254E-03   -0.73146E-03   144   0.256E-01    0.613E-02
DAV:   3    -0.989971581571E+02    0.22704E-04   -0.15184E-04   120   0.429E-02    0.315E-02
DAV:   4    -0.989971582813E+02   -0.12418E-06   -0.40881E-05   120   0.256E-02    0.844E-03
DAV:   5    -0.989971605532E+02   -0.22719E-05   -0.94704E-06   120   0.119E-02    0.494E-03
DAV:   6    -0.989971638685E+02   -0.33153E-05   -0.20350E-06   132   0.491E-03    0.256E-03
DAV:   7    -0.989971683265E+02   -0.44580E-05   -0.32187E-07    96   0.206E-03    0.937E-04
DAV:   8    -0.989971730023E+02   -0.46758E-05   -0.30087E-07   108   0.168E-03    0.523E-04
DAV:   9    -0.989971791553E+02   -0.61531E-05   -0.44677E-07    96   0.177E-03    0.248E-04
DAV:  10    -0.989971825875E+02   -0.34321E-05   -0.21573E-07    96   0.120E-03    0.197E-04
DAV:  11    -0.989971842495E+02   -0.16621E-05   -0.50366E-08   108   0.631E-04    0.122E-04
DAV:  12    -0.989971859574E+02   -0.17078E-05   -0.59295E-08    84   0.525E-04    0.720E-05
DAV:  13    -0.989971864329E+02   -0.47553E-06   -0.53267E-09   108   0.233E-04
  40 F= -.98997186E+02 E0= -.98997186E+02  d E =-.409744E-10
       N       E                     dE             d eps       ncg     rms          rms(c)
DAV:   1    -0.989956171949E+02    0.15688E-02   -0.39625E-01    96   0.174E+00    0.191E-01
DAV:   2    -0.989971840628E+02   -0.15669E-02   -0.18893E-02   120   0.405E-01    0.115E-01
DAV:   3    -0.989970700467E+02    0.11402E-03   -0.34740E-04   144   0.686E-02    0.597E-02
DAV:   4    -0.989970252868E+02    0.44760E-04   -0.14481E-04   132   0.449E-02    0.114E-02
DAV:   5    -0.989970153313E+02    0.99555E-05   -0.25970E-05   132   0.192E-02    0.761E-03
DAV:   6    -0.989970172587E+02   -0.19274E-05   -0.69792E-06   132   0.799E-03    0.391E-03
DAV:   7    -0.989970295343E+02   -0.12276E-04   -0.16210E-06   132   0.409E-03    0.176E-03
DAV:   8    -0.989970479620E+02   -0.18428E-04   -0.10475E-06   120   0.273E-03    0.107E-03
DAV:   9    -0.989970662027E+02   -0.18241E-04   -0.96073E-07   120   0.213E-03    0.735E-04
DAV:  10    -0.989970842316E+02   -0.18029E-04   -0.11022E-06   120   0.199E-03    0.410E-04
DAV:  11    -0.989970894159E+02   -0.51843E-05   -0.84002E-08   108   0.816E-04    0.246E-04
DAV:  12    -0.989970962775E+02   -0.68617E-05   -0.21509E-07    96   0.939E-04    0.127E-04
DAV:  13    -0.989970981906E+02   -0.19131E-05   -0.31363E-08   108   0.418E-04    0.101E-04
DAV:  14    -0.989970996887E+02   -0.14981E-05   -0.95787E-09    84   0.299E-04    0.386E-05
DAV:  15    -0.989971002566E+02   -0.56798E-06   -0.90687E-10    96   0.178E-04
  41 F= -.98997100E+02 E0= -.98997100E+02  d E =-.374878E-10
       N       E                     dE             d eps       ncg     rms          rms(c)
DAV:   1    -0.989972957538E+02   -0.19607E-03   -0.20212E-01    96   0.126E+00    0.137E-01
DAV:   2    -0.989980293283E+02   -0.73357E-03   -0.87331E-03   144   0.289E-01    0.702E-02
DAV:   3    -0.989979890457E+02    0.40283E-04   -0.16593E-04   132   0.464E-02    0.375E-02
DAV:   4    -0.989979722385E+02    0.16807E-04   -0.55858E-05   132   0.296E-02    0.842E-03
DAV:   5    -0.989979691725E+02    0.30659E-05   -0.12436E-05   144   0.135E-02    0.549E-03
DAV:   6    -0.989979706993E+02   -0.15268E-05   -0.24765E-06   132   0.553E-03    0.296E-03
DAV:   7    -0.989979757467E+02   -0.50473E-05   -0.60617E-07   108   0.292E-03    0.112E-03
DAV:   8    -0.989979820710E+02   -0.63243E-05   -0.44092E-07   108   0.209E-03    0.671E-04
DAV:   9    -0.989979918259E+02   -0.97549E-05   -0.76785E-07   108   0.213E-03    0.334E-04
DAV:  10    -0.989979971832E+02   -0.53573E-05   -0.33689E-07   108   0.140E-03    0.233E-04
DAV:  11    -0.989979996731E+02   -0.24899E-05   -0.90473E-08    96   0.764E-04    0.154E-04
DAV:  12    -0.989980018740E+02   -0.22010E-05   -0.82359E-08   108   0.607E-04    0.789E-05
DAV:  13    -0.989980026313E+02   -0.75728E-06   -0.13535E-08    96   0.296E-04
  42 F= -.98998003E+02 E0= -.98998003E+02  d E =-.327604E-10
       N       E                     dE             d eps       ncg     rms          rms(c)
DAV:   1    -0.989966238755E+02    0.13780E-02   -0.41274E-01    96   0.180E+00    0.214E-01
DAV:   2    -0.989978971496E+02   -0.12733E-02   -0.15412E-02   144   0.377E-01    0.868E-02
DAV:   3    -0.989978370678E+02    0.60082E-04   -0.35620E-04   132   0.660E-02    0.445E-02
DAV:   4    -0.989978222421E+02    0.14826E-04   -0.80435E-05   144   0.364E-02    0.132E-02
DAV:   5    -0.989978193114E+02    0.29308E-05   -0.18921E-05   144   0.173E-02    0.718E-03
DAV:   6    -0.989978204476E+02   -0.11363E-05   -0.35277E-06   132   0.675E-03    0.381E-03
DAV:   7    -0.989978241885E+02   -0.37408E-05   -0.36100E-07   108   0.274E-03    0.131E-03
DAV:   8    -0.989978289238E+02   -0.47354E-05   -0.31727E-07   108   0.228E-03    0.706E-04
DAV:   9    -0.989978376331E+02   -0.87093E-05   -0.63165E-07   108   0.281E-03    0.338E-04
DAV:  10    -0.989978415807E+02   -0.39476E-05   -0.36309E-07   108   0.173E-03    0.354E-04
DAV:  11    -0.989978430687E+02   -0.14880E-05   -0.34976E-08   108   0.705E-04    0.303E-04
DAV:  12    -0.989978453990E+02   -0.23304E-05   -0.56225E-08   108   0.659E-04    0.992E-05
DAV:  13    -0.989978466775E+02   -0.12784E-05   -0.37730E-08    96   0.451E-04    0.146E-04
DAV:  14    -0.989978473792E+02   -0.70170E-06   -0.44661E-09   108   0.266E-04
  43 F= -.98997847E+02 E0= -.98997847E+02  d E =-.453903E-10
       N       E                     dE             d eps       ncg     rms          rms(c)
DAV:   1    -0.989967220141E+02    0.11247E-02   -0.19949E-01    96   0.130E+00    0.148E-01
DAV:   2    -0.989976984615E+02   -0.97645E-03   -0.11544E-02   132   0.292E-01    0.645E-02
DAV:   3    -0.989976741222E+02    0.24339E-04   -0.21831E-04   132   0.473E-02    0.355E-02
DAV:   4    -0.989976624393E+02    0.11683E-04   -0.42639E-05   120   0.245E-02    0.938E-03
DAV:   5    -0.989976594560E+02    0.29833E-05   -0.79595E-06   144   0.113E-02    0.537E-03
DAV:   6    -0.989976599151E+02   -0.45909E-06   -0.20584E-06   108   0.566E-03
  44 F= -.98997660E+02 E0= -.98997660E+02  d E =-.627134E-10
       N       E                     dE             d eps       ncg     rms          rms(c)
DAV:   1    -0.989964346353E+02    0.12248E-02   -0.40103E-01    96   0.159E+00    0.175E-01
DAV:   2    -0.989978113975E+02   -0.13768E-02   -0.16384E-02   108   0.353E-01    0.886E-02
DAV:   3    -0.989977685418E+02    0.42856E-04   -0.28570E-04   132   0.589E-02    0.451E-02
DAV:   4    -0.989977437421E+02    0.24800E-04   -0.80714E-05   120   0.379E-02    0.979E-03
DAV:   5    -0.989977375162E+02    0.62259E-05   -0.22448E-05   132   0.180E-02    0.591E-03
DAV:   6    -0.989977387709E+02   -0.12546E-05   -0.42352E-06   132   0.687E-03    0.324E-03
DAV:   7    -0.989977446770E+02   -0.59061E-05   -0.66968E-07   108   0.308E-03    0.156E-03
DAV:   8    -0.989977540224E+02   -0.93454E-05   -0.77549E-07   108   0.265E-03    0.753E-04
DAV:   9    -0.989977645561E+02   -0.10534E-04   -0.76513E-07   108   0.235E-03    0.533E-04
DAV:  10    -0.989977726841E+02   -0.81280E-05   -0.57124E-07   108   0.177E-03    0.283E-04
DAV:  11    -0.989977762308E+02   -0.35468E-05   -0.94532E-08    96   0.877E-04    0.171E-04
DAV:  12    -0.989977789027E+02   -0.26718E-05   -0.92499E-08    84   0.615E-04    0.110E-04
DAV:  13    -0.989977803013E+02   -0.13986E-05   -0.33558E-08   108   0.375E-04    0.593E-05
DAV:  14    -0.989977810259E+02   -0.72463E-06   -0.49767E-09    84   0.219E-04
  45 F= -.98997781E+02 E0= -.98997781E+02  d E =-.573108E-10
       N       E                     dE             d eps       ncg     rms          rms(c)
DAV:   1    -0.989963550654E+02    0.14252E-02   -0.19774E-01    96   0.113E+00    0.135E-01
DAV:   2    -0.989971055770E+02   -0.75051E-03   -0.93054E-03   120   0.247E-01    0.823E-02
DAV:   3    -0.989970435075E+02    0.62069E-04   -0.13839E-04   120   0.412E-02    0.418E-02
DAV:   4    -0.989970143543E+02    0.29153E-04   -0.63926E-05   120   0.294E-02    0.763E-03
DAV:   5    -0.989970077307E+02    0.66235E-05   -0.14194E-05   144   0.136E-02    0.451E-03
DAV:   6    -0.989970092348E+02   -0.15041E-05   -0.34511E-06   120   0.485E-03    0.258E-03
DAV:   7    -0.989970172233E+02   -0.79885E-05   -0.57097E-07   108   0.231E-03    0.124E-03
DAV:   8    -0.989970303742E+02   -0.13151E-04   -0.96787E-07   108   0.222E-03    0.780E-04
DAV:   9    -0.989970420686E+02   -0.11694E-04   -0.56974E-07   108   0.163E-03    0.506E-04
DAV:  10    -0.989970521386E+02   -0.10070E-04   -0.46710E-07    96   0.135E-03    0.254E-04
DAV:  11    -0.989970553109E+02   -0.31723E-05   -0.77384E-08   108   0.634E-04    0.177E-04
DAV:  12    -0.989970598142E+02   -0.45033E-05   -0.13274E-07    84   0.721E-04    0.869E-05
DAV:  13    -0.989970610724E+02   -0.12582E-05   -0.22867E-08    96   0.344E-04    0.606E-05
DAV:  14    -0.989970621996E+02   -0.11272E-05   -0.86438E-09    96   0.249E-04    0.300E-05
DAV:  15    -0.989970626261E+02   -0.42650E-06    0.17249E-09    96   0.148E-04
  46 F= -.98997063E+02 E0= -.98997063E+02  d E =-.596756E-10
       N       E                     dE             d eps       ncg     rms          rms(c)
DAV:   1    -0.989959339462E+02    0.11283E-02   -0.39724E-01    96   0.157E+00    0.187E-01
DAV:   2    -0.989973838089E+02   -0.14499E-02   -0.17842E-02   108   0.350E-01    0.107E-01
DAV:   3    -0.989972892396E+02    0.94569E-04   -0.30516E-04   132   0.608E-02    0.548E-02
DAV:   4    -0.989972414033E+02    0.47836E-04   -0.10864E-04   132   0.402E-02    0.103E-02
DAV:   5    -0.989972367047E+02    0.46986E-05   -0.25722E-05   132   0.186E-02    0.627E-03
DAV:   6    -0.989972454447E+02   -0.87399E-05   -0.65298E-06   132   0.720E-03    0.348E-03
DAV:   7    -0.989972627083E+02   -0.17264E-04   -0.15399E-06   120   0.361E-03    0.179E-03
DAV:   8    -0.989972864999E+02   -0.23792E-04   -0.20659E-06   120   0.309E-03    0.944E-04
DAV:   9    -0.989973049431E+02   -0.18443E-04   -0.14436E-06   108   0.244E-03    0.748E-04
DAV:  10    -0.989973222464E+02   -0.17303E-04   -0.16412E-06   120   0.231E-03    0.311E-04
DAV:  11    -0.989973275029E+02   -0.52564E-05   -0.16096E-07   108   0.925E-04    0.228E-04
DAV:  12    -0.989973314942E+02   -0.39913E-05   -0.14328E-07   108   0.746E-04    0.107E-04
DAV:  13    -0.989973332505E+02   -0.17563E-05   -0.52622E-08   108   0.441E-04    0.653E-05
DAV:  14    -0.989973341103E+02   -0.85978E-06   -0.40416E-09   108   0.230E-04
  47 F= -.98997334E+02 E0= -.98997334E+02  d E =-.429868E-10
       N       E                     dE             d eps       ncg     rms          rms(c)
DAV:   1    -0.989970413700E+02    0.29188E-03   -0.19786E-01    96   0.113E+00    0.133E-01
DAV:   2    -0.989977783354E+02   -0.73697E-03   -0.91089E-03   120   0.250E-01    0.800E-02
DAV:   3    -0.989977200248E+02    0.58311E-04   -0.13658E-04   120   0.409E-02    0.407E-02
DAV:   4    -0.989976918049E+02    0.28220E-04   -0.58813E-05   120   0.288E-02    0.746E-03
DAV:   5    -0.989976856377E+02    0.61673E-05   -0.14163E-05   144   0.136E-02    0.453E-03
DAV:   6    -0.989976869346E+02   -0.12969E-05   -0.32969E-06   108   0.491E-03    0.270E-03
DAV:   7    -0.989976944856E+02   -0.75511E-05   -0.58320E-07    96   0.241E-03    0.129E-03
DAV:   8    -0.989977072449E+02   -0.12759E-04   -0.94768E-07    96   0.224E-03    0.770E-04
DAV:   9    -0.989977190626E+02   -0.11818E-04   -0.60599E-07   108   0.168E-03    0.550E-04
DAV:  10    -0.989977289601E+02   -0.98974E-05   -0.43817E-07    84   0.133E-03    0.238E-04
DAV:  11    -0.989977326691E+02   -0.37090E-05   -0.95308E-08   108   0.672E-04    0.172E-04
DAV:  12    -0.989977368577E+02   -0.41886E-05   -0.11656E-07    84   0.668E-04    0.938E-05
DAV:  13    -0.989977381641E+02   -0.13064E-05   -0.19642E-08    96   0.327E-04    0.566E-05
DAV:  14    -0.989977392626E+02   -0.10986E-05   -0.95796E-09    84   0.245E-04    0.316E-05
DAV:  15    -0.989977396793E+02   -0.41670E-06    0.23530E-09    96   0.140E-04
  48 F= -.98997740E+02 E0= -.98997740E+02  d E =-.670961E-10
       N       E                     dE             d eps       ncg     rms          rms(c)
DAV:   1    -0.989965035421E+02    0.12357E-02   -0.40155E-01    96   0.158E+00    0.172E-01
DAV:   2    -0.989978175469E+02   -0.13140E-02   -0.15911E-02   108   0.348E-01    0.875E-02
DAV:   3    -0.989977633513E+02    0.54196E-04   -0.30354E-04   132   0.605E-02    0.447E-02
DAV:   4    -0.989977360026E+02    0.27349E-04   -0.77949E-05   120   0.380E-02    0.956E-03
DAV:   5    -0.989977322610E+02    0.37416E-05   -0.22832E-05   144   0.180E-02    0.598E-03
DAV:   6    -0.989977358483E+02   -0.35873E-05   -0.42135E-06   132   0.674E-03    0.327E-03
DAV:   7    -0.989977445272E+02   -0.86789E-05   -0.72435E-07   108   0.316E-03    0.162E-03
DAV:   8    -0.989977580404E+02   -0.13513E-04   -0.10607E-06    96   0.294E-03    0.825E-04
DAV:   9    -0.989977716311E+02   -0.13591E-04   -0.97302E-07   108   0.257E-03    0.584E-04
DAV:  10    -0.989977822051E+02   -0.10574E-04   -0.73966E-07   108   0.195E-03    0.307E-04
DAV:  11    -0.989977860527E+02   -0.38476E-05   -0.92845E-08   108   0.884E-04    0.197E-04
DAV:  12    -0.989977896610E+02   -0.36083E-05   -0.13280E-07    84   0.734E-04    0.119E-04
DAV:  13    -0.989977910216E+02   -0.13606E-05   -0.32279E-08    96   0.378E-04    0.712E-05
DAV:  14    -0.989977918887E+02   -0.86714E-06   -0.52972E-09   108   0.231E-04
  49 F= -.98997792E+02 E0= -.98997792E+02  d E =-.511248E-10
       N       E                     dE             d eps       ncg     rms          rms(c)
DAV:   1    -0.989956205518E+02    0.21705E-02   -0.19511E-01    96   0.131E+00    0.142E-01
DAV:   2    -0.989967394922E+02   -0.11189E-02   -0.13766E-02   120   0.330E-01    0.768E-02
DAV:   3    -0.989967084164E+02    0.31076E-04   -0.23672E-04   144   0.489E-02    0.438E-02
DAV:   4    -0.989966826165E+02    0.25800E-04   -0.50566E-05   120   0.295E-02    0.911E-03
DAV:   5    -0.989966747170E+02    0.78996E-05   -0.15069E-05   132   0.148E-02    0.524E-03
DAV:   6    -0.989966751814E+02   -0.46439E-06   -0.30066E-06   132   0.626E-03
  50 F= -.98996675E+02 E0= -.98996675E+02  d E =-.595622E-10
       N       E                     dE             d eps       ncg     rms          rms(c)
DAV:   1    -0.989952091732E+02    0.14655E-02   -0.40377E-01    96   0.181E+00    0.192E-01
DAV:   2    -0.989968423787E+02   -0.16332E-02   -0.19729E-02   132   0.427E-01    0.119E-01
DAV:   3    -0.989967715826E+02    0.70796E-04   -0.27918E-04   108   0.533E-02    0.645E-02
DAV:   4    -0.989966924411E+02    0.79142E-04   -0.10816E-04   120   0.359E-02    0.107E-02
DAV:   5    -0.989966810945E+02    0.11347E-04   -0.15709E-05   132   0.155E-02    0.628E-03
DAV:   6    -0.989966933786E+02   -0.12284E-04   -0.10605E-05   132   0.107E-02    0.311E-03
DAV:   7    -0.989967165974E+02   -0.23219E-04   -0.42357E-06   132   0.635E-03    0.221E-03
DAV:   8    -0.989967456073E+02   -0.29010E-04   -0.21828E-06    96   0.354E-03    0.103E-03
DAV:   9    -0.989967719273E+02   -0.26320E-04   -0.26641E-06   108   0.345E-03    0.828E-04
DAV:  10    -0.989967924327E+02   -0.20505E-04   -0.20484E-06    96   0.279E-03    0.303E-04
DAV:  11    -0.989967979285E+02   -0.54957E-05   -0.21569E-07   108   0.110E-03    0.297E-04
DAV:  12    -0.989968019230E+02   -0.39945E-05   -0.15821E-07    84   0.792E-04    0.128E-04
DAV:  13    -0.989968037382E+02   -0.18152E-05   -0.47471E-08    96   0.447E-04    0.769E-05
DAV:  14    -0.989968047306E+02   -0.99242E-06   -0.81782E-09    96   0.280E-04
  51 F= -.98996805E+02 E0= -.98996805E+02  d E =-.308641E-10
       N       E                     dE             d eps       ncg     rms          rms(c)
DAV:   1    -0.989971427367E+02   -0.33900E-03   -0.20210E-01    96   0.126E+00    0.131E-01
DAV:   2    -0.989979852158E+02   -0.84248E-03   -0.10224E-02   120   0.289E-01    0.744E-02
DAV:   3    -0.989979579919E+02    0.27224E-04   -0.18235E-04   144   0.434E-02    0.407E-02
DAV:   4    -0.989979349964E+02    0.22996E-04   -0.46709E-05   132   0.284E-02    0.717E-03
DAV:   5    -0.989979300826E+02    0.49137E-05   -0.13742E-05   132   0.138E-02    0.511E-03
DAV:   6    -0.989979305445E+02   -0.46183E-06   -0.31648E-06   132   0.565E-03
  52 F= -.98997931E+02 E0= -.98997931E+02  d E =-.248350E-10
       N       E                     dE             d eps       ncg     rms          rms(c)
DAV:   1    -0.989964444304E+02    0.14857E-02   -0.40612E-01   120   0.164E+00    0.170E-01
DAV:   2    -0.989979645088E+02   -0.15201E-02   -0.17903E-02   120   0.355E-01    0.827E-02
DAV:   3    -0.989979613714E+02    0.31374E-05   -0.30194E-04   132   0.595E-02    0.450E-02
DAV:   4    -0.989979614710E+02   -0.99617E-07   -0.65260E-05   120   0.408E-02    0.852E-03
DAV:   5    -0.989979641265E+02   -0.26555E-05   -0.32640E-05   144   0.208E-02    0.715E-03
DAV:   6    -0.989979658325E+02   -0.17061E-05   -0.25845E-06   132   0.509E-03    0.538E-03
DAV:   7    -0.989979702682E+02   -0.44356E-05   -0.66493E-07    96   0.309E-03    0.216E-03
DAV:   8    -0.989979756194E+02   -0.53512E-05   -0.10464E-06   108   0.360E-03    0.135E-03
DAV:   9    -0.989979858985E+02   -0.10279E-04   -0.88489E-07    96   0.349E-03    0.873E-04
DAV:  10    -0.989979887735E+02   -0.28749E-05   -0.31960E-07    96   0.182E-03    0.851E-04
DAV:  11    -0.989979901970E+02   -0.14236E-05   -0.28954E-08   108   0.669E-04    0.556E-04
DAV:  12    -0.989979943126E+02   -0.41156E-05   -0.14039E-07    96   0.897E-04    0.164E-04
DAV:  13    -0.989979958513E+02   -0.15387E-05   -0.37801E-08   108   0.484E-04    0.223E-04
DAV:  14    -0.989979972033E+02   -0.13520E-05   -0.23909E-08    96   0.355E-04    0.142E-04
DAV:  15    -0.989979977018E+02   -0.49851E-06   -0.35523E-09   108   0.213E-04
  53 F= -.98997998E+02 E0= -.98997998E+02  d E =-.814675E-10
       N       E                     dE             d eps       ncg     rms          rms(c)
DAV:   1    -0.989955536702E+02    0.24435E-02   -0.20204E-01    96   0.120E+00    0.128E-01
DAV:   2    -0.989963824625E+02   -0.82879E-03   -0.99502E-03   132   0.297E-01    0.692E-02
DAV:   3    -0.989963608576E+02    0.21605E-04   -0.16639E-04   132   0.440E-02    0.372E-02
DAV:   4    -0.989963478999E+02    0.12958E-04   -0.43952E-05   132   0.298E-02    0.706E-03
DAV:   5    -0.989963444370E+02    0.34629E-05   -0.15677E-05   132   0.146E-02    0.512E-03
DAV:   6    -0.989963447234E+02   -0.28639E-06   -0.24873E-06   132   0.495E-03
  54 F= -.98996345E+02 E0= -.98996345E+02  d E =-.420786E-10
       N       E                     dE             d eps       ncg     rms          rms(c)
DAV:   1    -0.989948858305E+02    0.14586E-02   -0.40477E-01   120   0.182E+00    0.201E-01
DAV:   2    -0.989965818635E+02   -0.16960E-02   -0.20440E-02   120   0.440E-01    0.128E-01
DAV:   3    -0.989964843256E+02    0.97538E-04   -0.28254E-04   120   0.582E-02    0.703E-02
DAV:   4    -0.989964257468E+02    0.58579E-04   -0.15188E-04   120   0.457E-02    0.109E-02
DAV:   5    -0.989964175556E+02    0.81912E-05   -0.30753E-05   132   0.204E-02    0.758E-03
DAV:   6    -0.989964251401E+02   -0.75845E-05   -0.12129E-05   132   0.949E-03    0.410E-03
DAV:   7    -0.989964444063E+02   -0.19266E-04   -0.20760E-06   132   0.458E-03    0.218E-03
DAV:   8    -0.989964779165E+02   -0.33510E-04   -0.39906E-06   108   0.451E-03    0.116E-03
DAV:   9    -0.989964974576E+02   -0.19541E-04   -0.15757E-06   120   0.277E-03    0.897E-04
DAV:  10    -0.989965176104E+02   -0.20153E-04   -0.18534E-06   108   0.269E-03    0.425E-04
DAV:  11    -0.989965246166E+02   -0.70062E-05   -0.33289E-07    96   0.127E-03    0.318E-04
DAV:  12    -0.989965295067E+02   -0.48901E-05   -0.27094E-07    84   0.104E-03    0.149E-04
DAV:  13    -0.989965309799E+02   -0.14732E-05   -0.39822E-08    96   0.477E-04    0.882E-05
DAV:  14    -0.989965320432E+02   -0.10633E-05   -0.13877E-08    84   0.320E-04    0.478E-05
DAV:  15    -0.989965324207E+02   -0.37745E-06    0.44285E-11   108   0.172E-04
  55 F= -.98996532E+02 E0= -.98996532E+02  d E =-.432426E-10
       N       E                     dE             d eps       ncg     rms          rms(c)
DAV:   1    -0.989963134375E+02    0.21861E-03   -0.19875E-01    96   0.132E+00    0.144E-01
DAV:   2    -0.989975619615E+02   -0.12485E-02   -0.15271E-02   120   0.366E-01    0.833E-02
DAV:   3    -0.989975194581E+02    0.42503E-04   -0.23797E-04   144   0.520E-02    0.500E-02
DAV:   4    -0.989974818626E+02    0.37596E-04   -0.72988E-05   132   0.370E-02    0.879E-03
DAV:   5    -0.989974731419E+02    0.87207E-05   -0.27483E-05   132   0.190E-02    0.670E-03
DAV:   6    -0.989974733256E+02   -0.18369E-06   -0.40680E-06   132   0.665E-03
  56 F= -.98997473E+02 E0= -.98997473E+02  d E =-.254928E-10
       N       E                     dE             d eps       ncg     rms          rms(c)
DAV:   1    -0.989959722055E+02    0.15009E-02   -0.40360E-01   120   0.171E+00    0.177E-01
DAV:   2    -0.989975851598E+02   -0.16130E-02   -0.18990E-02   120   0.393E-01    0.985E-02
DAV:   3    -0.989975633149E+02    0.21845E-04   -0.29581E-04   132   0.583E-02    0.541E-02
DAV:   4    -0.989975554050E+02    0.79099E-05   -0.88446E-05   120   0.411E-02    0.944E-03
DAV:   5    -0.989975535985E+02    0.18065E-05   -0.29811E-05   144   0.201E-02    0.710E-03
DAV:   6    -0.989975551834E+02   -0.15849E-05   -0.45952E-06   132   0.669E-03    0.434E-03
DAV:   7    -0.989975605911E+02   -0.54078E-05   -0.86724E-07   108   0.397E-03    0.187E-03
DAV:   8    -0.989975695852E+02   -0.89941E-05   -0.14577E-06   120   0.401E-03    0.120E-03
DAV:   9    -0.989975807351E+02   -0.11150E-04   -0.74580E-07    96   0.279E-03    0.625E-04
DAV:  10    -0.989975867776E+02   -0.60425E-05   -0.34205E-07   108   0.160E-03    0.435E-04
DAV:  11    -0.989975921993E+02   -0.54218E-05   -0.13216E-07    84   0.903E-04    0.190E-04
DAV:  12    -0.989975954312E+02   -0.32319E-05   -0.96508E-08    96   0.630E-04    0.203E-04
DAV:  13    -0.989975975338E+02   -0.21025E-05   -0.34886E-08    96   0.407E-04    0.785E-05
DAV:  14    -0.989975986242E+02   -0.10904E-05   -0.13078E-08    96   0.285E-04    0.457E-05
DAV:  15    -0.989975993488E+02   -0.72459E-06   -0.40579E-09    96   0.206E-04
  57 F= -.98997599E+02 E0= -.98997599E+02  d E =-.734791E-10
       N       E                     dE             d eps       ncg     rms          rms(c)
DAV:   1    -0.989962605319E+02    0.13381E-02   -0.20232E-01   120   0.120E+00    0.119E-01
DAV:   2    -0.989969955061E+02   -0.73497E-03   -0.87523E-03   108   0.252E-01    0.571E-02
DAV:   3    -0.989969875506E+02    0.79556E-05   -0.14717E-04   132   0.420E-02    0.307E-02
DAV:   4    -0.989969805806E+02    0.69700E-05   -0.31953E-05   120   0.288E-02    0.614E-03
DAV:   5    -0.989969796727E+02    0.90795E-06   -0.16619E-05   132   0.150E-02    0.504E-03
DAV:   6    -0.989969800178E+02   -0.34516E-06   -0.13933E-06   120   0.376E-03
  58 F= -.98996980E+02 E0= -.98996980E+02  d E =-.397396E-10
       N       E                     dE             d eps       ncg     rms          rms(c)
DAV:   1    -0.989953573930E+02    0.16223E-02   -0.40526E-01    96   0.181E+00    0.191E-01
DAV:   2    -0.989970717878E+02   -0.17144E-02   -0.20601E-02   144   0.426E-01    0.115E-01
DAV:   3    -0.989969994951E+02    0.72293E-04   -0.31650E-04   132   0.587E-02    0.633E-02
DAV:   4    -0.989969472694E+02    0.52226E-04   -0.11635E-04   132   0.430E-02    0.103E-02
DAV:   5    -0.989969431343E+02    0.41350E-05   -0.28964E-05   132   0.199E-02    0.753E-03
DAV:   6    -0.989969511431E+02   -0.80087E-05   -0.82822E-06   132   0.853E-03    0.415E-03
DAV:   7    -0.989969689319E+02   -0.17789E-04   -0.24399E-06   120   0.509E-03    0.212E-03
DAV:   8    -0.989969978599E+02   -0.28928E-04   -0.30013E-06   108   0.432E-03    0.110E-03
DAV:   9    -0.989970167911E+02   -0.18931E-04   -0.17375E-06   120   0.307E-03    0.911E-04
DAV:  10    -0.989970333804E+02   -0.16589E-04   -0.14049E-06   108   0.247E-03    0.353E-04
DAV:  11    -0.989970402588E+02   -0.68784E-05   -0.34392E-07   108   0.127E-03    0.314E-04
DAV:  12    -0.989970448825E+02   -0.46237E-05   -0.26015E-07   108   0.979E-04    0.136E-04
DAV:  13    -0.989970465429E+02   -0.16603E-05   -0.49920E-08   108   0.470E-04    0.739E-05
DAV:  14    -0.989970474888E+02   -0.94590E-06   -0.10225E-08   108   0.287E-04
  59 F= -.98997047E+02 E0= -.98997047E+02  d E =-.484313E-10
       N       E                     dE             d eps       ncg     rms          rms(c)
DAV:   1    -0.989957356395E+02    0.13109E-02   -0.20175E-01    96   0.129E+00    0.134E-01
DAV:   2    -0.989965552201E+02   -0.81958E-03   -0.10174E-02   120   0.306E-01    0.762E-02
DAV:   3    -0.989965196877E+02    0.35532E-04   -0.15524E-04   132   0.395E-02    0.407E-02
DAV:   4    -0.989964858834E+02    0.33804E-04   -0.38931E-05   132   0.235E-02    0.732E-03
DAV:   5    -0.989964782744E+02    0.76090E-05   -0.78851E-06   132   0.113E-02    0.408E-03
DAV:   6    -0.989964805281E+02   -0.22537E-05   -0.39449E-06   132   0.709E-03    0.213E-03
DAV:   7    -0.989964894422E+02   -0.89141E-05   -0.17319E-06   132   0.455E-03    0.156E-03
DAV:   8    -0.989965024615E+02   -0.13019E-04   -0.57151E-07    96   0.215E-03    0.748E-04
DAV:   9    -0.989965164398E+02   -0.13978E-04   -0.97485E-07    96   0.223E-03    0.629E-04
DAV:  10    -0.989965296311E+02   -0.13191E-04   -0.69813E-07    96   0.173E-03    0.247E-04
DAV:  11    -0.989965345327E+02   -0.49016E-05   -0.14293E-07   108   0.849E-04    0.264E-04
DAV:  12    -0.989965380872E+02   -0.35545E-05   -0.42370E-08    84   0.541E-04    0.119E-04
DAV:  13    -0.989965405457E+02   -0.24584E-05   -0.45179E-08    96   0.444E-04    0.750E-05
DAV:  14    -0.989965415765E+02   -0.10309E-05   -0.51072E-09   108   0.252E-04    0.451E-05
DAV:  15    -0.989965420565E+02   -0.48000E-06    0.20647E-09   108   0.153E-04
  60 F= -.98996542E+02 E0= -.98996542E+02  d E =-.494323E-10
       N       E                     dE             d eps       ncg     rms          rms(c)
DAV:   1    -0.989951018330E+02    0.14397E-02   -0.40434E-01   108   0.182E+00    0.194E-01
DAV:   2    -0.989967281358E+02   -0.16263E-02   -0.20191E-02   132   0.432E-01    0.125E-01
DAV:   3    -0.989966150349E+02    0.11310E-03   -0.28157E-04   132   0.559E-02    0.682E-02
DAV:   4    -0.989965355897E+02    0.79445E-04   -0.12598E-04   120   0.406E-02    0.111E-02
DAV:   5    -0.989965335888E+02    0.20008E-05   -0.21764E-05   132   0.178E-02    0.717E-03
DAV:   6    -0.989965546787E+02   -0.21090E-04   -0.12982E-05   132   0.109E-02    0.361E-03
DAV:   7    -0.989965853191E+02   -0.30640E-04   -0.44838E-06   132   0.647E-03    0.238E-03
DAV:   8    -0.989966293112E+02   -0.43992E-04   -0.43204E-06   120   0.480E-03    0.113E-03
DAV:   9    -0.989966592343E+02   -0.29923E-04   -0.30913E-06   108   0.377E-03    0.910E-04
DAV:  10    -0.989966823964E+02   -0.23162E-04   -0.23172E-06   120   0.299E-03    0.428E-04
DAV:  11    -0.989966889643E+02   -0.65679E-05   -0.28733E-07   108   0.124E-03    0.289E-04
DAV:  12    -0.989966938349E+02   -0.48707E-05   -0.23105E-07    96   0.970E-04    0.183E-04
DAV:  13    -0.989966955720E+02   -0.17371E-05   -0.42491E-08   108   0.505E-04    0.787E-05
DAV:  14    -0.989966966493E+02   -0.10772E-05   -0.13453E-08    96   0.337E-04    0.717E-05
DAV:  15    -0.989966970262E+02   -0.37697E-06    0.13342E-09   108   0.185E-04
  61 F= -.98996697E+02 E0= -.98996697E+02  d E =-.327846E-10
       N       E                     dE             d eps       ncg     rms          rms(c)
DAV:   1    -0.989995322384E+02   -0.28356E-02   -0.24030E-01    96   0.174E+00    0.151E-01
DAV:   2    -0.989999648371E+02   -0.43260E-03   -0.70461E-03   120   0.280E-01    0.883E-02
DAV:   3    -0.989998833719E+02    0.81465E-04   -0.19560E-04   144   0.499E-02    0.407E-02
DAV:   4    -0.989998628903E+02    0.20482E-04   -0.86426E-05   132   0.321E-02    0.857E-03
DAV:   5    -0.989998586897E+02    0.42006E-05   -0.12001E-05   132   0.132E-02    0.617E-03
DAV:   6    -0.989998598224E+02   -0.11327E-05   -0.33581E-06   120   0.606E-03    0.259E-03
DAV:   7    -0.989998647915E+02   -0.49691E-05   -0.69704E-07   108   0.344E-03    0.119E-03
DAV:   8    -0.989998729697E+02   -0.81782E-05   -0.61287E-07   108   0.257E-03    0.934E-04
DAV:   9    -0.989998834821E+02   -0.10512E-04   -0.66070E-07   108   0.226E-03    0.341E-04
DAV:  10    -0.989998899168E+02   -0.64347E-05   -0.35029E-07   108   0.143E-03    0.391E-04
DAV:  11    -0.989998940736E+02   -0.41568E-05   -0.87803E-08   108   0.890E-04    0.156E-04
DAV:  12    -0.989998964296E+02   -0.23560E-05   -0.57791E-08    96   0.555E-04    0.143E-04
DAV:  13    -0.989998978376E+02   -0.14080E-05   -0.16326E-08    96   0.349E-04    0.556E-05
DAV:  14    -0.989998986579E+02   -0.82024E-06   -0.54520E-09    96   0.225E-04
  62 F= -.98999899E+02 E0= -.98999899E+02  d E =-.361406E-10
       N       E                     dE             d eps       ncg     rms          rms(c)
DAV:   1    -0.990002408125E+02   -0.34297E-03   -0.55696E-01    96   0.255E+00    0.229E-01
DAV:   2    -0.989999087518E+02    0.33206E-03   -0.35463E-03   132   0.192E-01    0.122E-01
DAV:   3    -0.989996898237E+02    0.21893E-03   -0.54532E-04   144   0.686E-02    0.363E-02
DAV:   4    -0.989996907503E+02   -0.92654E-06   -0.11355E-04   144   0.330E-02    0.128E-02
DAV:   5    -0.989996922638E+02   -0.15136E-05   -0.66826E-06   132   0.101E-02    0.656E-03
DAV:   6    -0.989996957899E+02   -0.35261E-05   -0.33505E-06   132   0.602E-03    0.161E-03
DAV:   7    -0.989996981040E+02   -0.23140E-05   -0.40538E-07   108   0.255E-03    0.910E-04
DAV:   8    -0.989997017831E+02   -0.36792E-05   -0.17517E-07    84   0.149E-03    0.335E-04
DAV:   9    -0.989997040668E+02   -0.22837E-05   -0.99737E-08   108   0.101E-03    0.302E-04
DAV:  10    -0.989997072820E+02   -0.32153E-05   -0.15339E-07    84   0.989E-04    0.120E-04
DAV:  11    -0.989997083985E+02   -0.11165E-05   -0.48626E-08    96   0.589E-04    0.111E-04
DAV:  12    -0.989997091218E+02   -0.72329E-06   -0.70922E-09    84   0.304E-04
  63 F= -.98999709E+02 E0= -.98999709E+02  d E =-.353504E-10
       N       E                     dE             d eps       ncg     rms          rms(c)
DAV:   1    -0.989991609100E+02    0.54749E-03   -0.29064E-01   108   0.182E+00    0.210E-01
DAV:   2    -0.989989135739E+02    0.24734E-03   -0.24159E-03   108   0.160E-01    0.103E-01
DAV:   3    -0.989987592115E+02    0.15436E-03   -0.40736E-04   132   0.592E-02    0.356E-02
DAV:   4    -0.989987519654E+02    0.72461E-05   -0.10656E-04   120   0.301E-02    0.139E-02
DAV:   5    -0.989987500487E+02    0.19167E-05   -0.53540E-06   132   0.941E-03    0.492E-03
DAV:   6    -0.989987511770E+02   -0.11283E-05   -0.29761E-06   132   0.582E-03    0.194E-03
DAV:   7    -0.989987528782E+02   -0.17012E-05   -0.56755E-07   108   0.270E-03    0.885E-04
DAV:   8    -0.989987555357E+02   -0.26576E-05   -0.17859E-07    96   0.147E-03    0.481E-04
DAV:   9    -0.989987576878E+02   -0.21520E-05   -0.13671E-07   108   0.119E-03    0.483E-04
[...]
DAV:  10    -0.989983118639E+02   -0.31250E-05   -0.15436E-07   108   0.101E-03    0.197E-04
DAV:  11    -0.989983140793E+02   -0.22154E-05   -0.95010E-08    84   0.640E-04    0.126E-04
DAV:  12    -0.989983157565E+02   -0.16772E-05   -0.58483E-08    96   0.488E-04    0.852E-05
DAV:  13    -0.989983164324E+02   -0.67599E-06   -0.12465E-08   108   0.287E-04
 129 F= -.98998316E+02 E0= -.98998316E+02  d E =-.341551E-10
       N       E                     dE             d eps       ncg     rms          rms(c)
DAV:   1    -0.990005005147E+02   -0.21848E-02   -0.26783E-01    96   0.151E+00    0.132E-01
DAV:   2    -0.990004544107E+02    0.46104E-04   -0.17608E-03   108   0.125E-01    0.733E-02
DAV:   3    -0.990003735346E+02    0.80876E-04   -0.23390E-04   132   0.406E-02    0.174E-02
DAV:   4    -0.990003713095E+02    0.22251E-05   -0.35417E-05   132   0.178E-02    0.720E-03
DAV:   5    -0.990003707354E+02    0.57407E-06   -0.24699E-06   120   0.608E-03
 130 F= -.99000371E+02 E0= -.99000371E+02  d E =-.533146E-10
       N       E                     dE             d eps       ncg     rms          rms(c)
DAV:   1    -0.990006662693E+02   -0.29496E-03   -0.52294E-01    96   0.226E+00    0.155E-01
DAV:   2    -0.990005615879E+02    0.10468E-03   -0.19749E-03   120   0.141E-01    0.906E-02
DAV:   3    -0.990004730688E+02    0.88519E-04   -0.35546E-04   120   0.576E-02    0.111E-02
DAV:   4    -0.990004788578E+02   -0.57890E-05   -0.50047E-05   132   0.235E-02    0.752E-03
DAV:   5    -0.990004794607E+02   -0.60291E-06   -0.14280E-06    96   0.426E-03
 131 F= -.99000479E+02 E0= -.99000479E+02  d E =-.314094E-10
       N       E                     dE             d eps       ncg     rms          rms(c)
DAV:   1    -0.989999509227E+02    0.52794E-03   -0.26192E-01    96   0.155E+00    0.110E-01
DAV:   2    -0.989998980428E+02    0.52880E-04   -0.10308E-03   120   0.100E-01    0.638E-02
DAV:   3    -0.989998516519E+02    0.46391E-04   -0.17683E-04   120   0.388E-02    0.838E-03
DAV:   4    -0.989998541531E+02   -0.25013E-05   -0.23009E-05   132   0.154E-02    0.496E-03
DAV:   5    -0.989998546791E+02   -0.52595E-06   -0.92866E-07   108   0.334E-03
 132 F= -.98999855E+02 E0= -.98999855E+02  d E =-.487984E-10
       N       E                     dE             d eps       ncg     rms          rms(c)
DAV:   1    -0.990002893501E+02   -0.43520E-03   -0.52851E-01    96   0.212E+00    0.168E-01
DAV:   2    -0.990001915820E+02    0.97768E-04   -0.24395E-03   120   0.157E-01    0.955E-02
DAV:   3    -0.990000751462E+02    0.11644E-03   -0.40589E-04   120   0.594E-02    0.165E-02
DAV:   4    -0.990000780054E+02   -0.28592E-05   -0.61089E-05   132   0.250E-02    0.913E-03
DAV:   5    -0.990000774721E+02    0.53330E-06   -0.30307E-06   108   0.602E-03
 133 F= -.99000077E+02 E0= -.99000077E+02  d E =-.342223E-10
       N       E                     dE             d eps       ncg     rms          rms(c)
DAV:   1    -0.989999456947E+02    0.13231E-03   -0.27143E-01    96   0.193E+00    0.143E-01
DAV:   2    -0.989998994910E+02    0.46204E-04   -0.18874E-03   120   0.153E-01    0.785E-02
DAV:   3    -0.989998241022E+02    0.75389E-04   -0.18061E-04   120   0.418E-02    0.233E-02
DAV:   4    -0.989998247052E+02   -0.60294E-06   -0.46708E-05   132   0.207E-02    0.659E-03
DAV:   5    -0.989998240983E+02    0.60685E-06   -0.28501E-06   132   0.626E-03
 134 F= -.98999824E+02 E0= -.98999824E+02  d E =-.440854E-10
       N       E                     dE             d eps       ncg     rms          rms(c)
DAV:   1    -0.990001542273E+02   -0.32952E-03   -0.55527E-01    96   0.238E+00    0.232E-01
DAV:   2    -0.989998559026E+02    0.29832E-03   -0.34554E-03   120   0.182E-01    0.122E-01
DAV:   3    -0.989996341888E+02    0.22171E-03   -0.48018E-04   132   0.606E-02    0.375E-02
DAV:   4    -0.989996285343E+02    0.56545E-05   -0.10712E-04   144   0.301E-02    0.116E-02
DAV:   5    -0.989996286598E+02   -0.12548E-06   -0.69702E-06   120   0.102E-02
 135 F= -.98999629E+02 E0= -.98999629E+02  d E =-.383328E-10
       N       E                     dE             d eps       ncg     rms          rms(c)
DAV:   1    -0.989992492591E+02    0.37928E-03   -0.29126E-01    96   0.169E+00    0.208E-01
DAV:   2    -0.989989875378E+02    0.26172E-03   -0.23124E-03   120   0.156E-01    0.103E-01
DAV:   3    -0.989988467848E+02    0.14075E-03   -0.43589E-04   120   0.601E-02    0.346E-02
DAV:   4    -0.989988476847E+02   -0.89993E-06   -0.10682E-04   120   0.309E-02    0.146E-02
DAV:   5    -0.989988462371E+02    0.14476E-05   -0.47006E-06   108   0.870E-03    0.506E-03
DAV:   6    -0.989988464833E+02   -0.24622E-06   -0.28191E-06   132   0.569E-03
 136 F= -.98998846E+02 E0= -.98998846E+02  d E =-.379625E-10
       N       E                     dE             d eps       ncg     rms          rms(c)
DAV:   1    -0.989994067663E+02   -0.56053E-03   -0.57233E-01    96   0.239E+00    0.270E-01
DAV:   2    -0.989988761193E+02    0.53065E-03   -0.45704E-03   120   0.208E-01    0.138E-01
DAV:   3    -0.989985783064E+02    0.29781E-03   -0.86235E-04   132   0.816E-02    0.448E-02
DAV:   4    -0.989985788385E+02   -0.53203E-06   -0.18427E-04   132   0.409E-02    0.193E-02
DAV:   5    -0.989985781091E+02    0.72933E-06   -0.75663E-06   132   0.103E-02
 137 F= -.98998578E+02 E0= -.98998578E+02  d E =-.399436E-10
       N       E                     dE             d eps       ncg     rms          rms(c)
DAV:   1    -0.990003585386E+02   -0.17797E-02   -0.28923E-01   108   0.169E+00    0.203E-01
DAV:   2    -0.990000833331E+02    0.27521E-03   -0.22519E-03   120   0.157E-01    0.101E-01
DAV:   3    -0.989999414199E+02    0.14191E-03   -0.45045E-04   132   0.635E-02    0.324E-02
DAV:   4    -0.989999440613E+02   -0.26414E-05   -0.10276E-04   108   0.315E-02    0.141E-02
DAV:   5    -0.989999431648E+02    0.89651E-06   -0.39765E-06   132   0.815E-03
 138 F= -.98999943E+02 E0= -.98999943E+02  d E =-.408043E-10
       N       E                     dE             d eps       ncg     rms          rms(c)
DAV:   1    -0.990002581622E+02   -0.31410E-03   -0.55520E-01    96   0.253E+00    0.227E-01
DAV:   2    -0.989999570451E+02    0.30112E-03   -0.34694E-03   120   0.188E-01    0.121E-01
DAV:   3    -0.989997497641E+02    0.20728E-03   -0.51084E-04   132   0.657E-02    0.357E-02
DAV:   4    -0.989997507056E+02   -0.94148E-06   -0.10315E-04   132   0.312E-02    0.118E-02
DAV:   5    -0.989997508828E+02   -0.17719E-06   -0.65226E-06   132   0.995E-03
 139 F= -.98999751E+02 E0= -.98999751E+02  d E =-.397078E-10
       N       E                     dE             d eps       ncg     rms          rms(c)
DAV:   1    -0.989998167233E+02   -0.66018E-04   -0.27820E-01    96   0.183E+00    0.167E-01
DAV:   2    -0.989997076151E+02    0.10911E-03   -0.18586E-03   120   0.137E-01    0.876E-02
DAV:   3    -0.989996137270E+02    0.93888E-04   -0.25127E-04   120   0.430E-02    0.272E-02
DAV:   4    -0.989996097034E+02    0.40236E-05   -0.40957E-05   144   0.180E-02    0.100E-02
DAV:   5    -0.989996080102E+02    0.16932E-05   -0.27284E-06   120   0.710E-03    0.473E-03
DAV:   6    -0.989996081022E+02   -0.91960E-07   -0.21791E-06   132   0.524E-03
 140 F= -.98999608E+02 E0= -.98999608E+02  d E =-.389887E-10
       N       E                     dE             d eps       ncg     rms          rms(c)
DAV:   1    -0.989999762165E+02   -0.36821E-03   -0.55596E-01    96   0.236E+00    0.242E-01
DAV:   2    -0.989996184098E+02    0.35781E-03   -0.34488E-03   120   0.185E-01    0.125E-01
DAV:   3    -0.989993924644E+02    0.22595E-03   -0.52991E-04   120   0.631E-02    0.390E-02
DAV:   4    -0.989993831271E+02    0.93373E-05   -0.10411E-04   132   0.295E-02    0.125E-02
DAV:   5    -0.989993828819E+02    0.24521E-06   -0.66695E-06   120   0.104E-02
 141 F= -.98999383E+02 E0= -.98999383E+02  d E =-.426882E-10
       N       E                     dE             d eps       ncg     rms          rms(c)
DAV:   1    -0.989984779110E+02    0.90522E-03   -0.27258E-01    96   0.163E+00    0.139E-01
DAV:   2    -0.989983426276E+02    0.13528E-03   -0.15032E-03   120   0.120E-01    0.789E-02
DAV:   3    -0.989982556398E+02    0.86988E-04   -0.28250E-04   120   0.490E-02    0.163E-02
DAV:   4    -0.989982605954E+02   -0.49556E-05   -0.44985E-05   132   0.209E-02    0.760E-03
DAV:   5    -0.989982615026E+02   -0.90720E-06   -0.11920E-06    96   0.436E-03
 142 F= -.98998262E+02 E0= -.98998262E+02  d E =-.414162E-10
       N       E                     dE             d eps       ncg     rms          rms(c)
DAV:   1    -0.989993442426E+02   -0.10836E-02   -0.58085E-01    96   0.223E+00    0.286E-01
DAV:   2    -0.989987903596E+02    0.55388E-03   -0.46892E-03   120   0.216E-01    0.143E-01
DAV:   3    -0.989984810806E+02    0.30928E-03   -0.89720E-04   120   0.868E-02    0.465E-02
DAV:   4    -0.989984820054E+02   -0.92479E-06   -0.21507E-04   120   0.423E-02    0.192E-02
DAV:   5    -0.989984796387E+02    0.23666E-05   -0.83356E-06   132   0.112E-02    0.825E-03
DAV:   6    -0.989984798567E+02   -0.21796E-06   -0.52140E-06   132   0.783E-03
 143 F= -.98998480E+02 E0= -.98998480E+02  d E =-.360052E-10
       N       E                     dE             d eps       ncg     rms          rms(c)
DAV:   1    -0.990007615770E+02   -0.22819E-02   -0.28143E-01    96   0.160E+00    0.170E-01
DAV:   2    -0.990005347514E+02    0.22683E-03   -0.18540E-03   120   0.140E-01    0.900E-02
DAV:   3    -0.990004182001E+02    0.11655E-03   -0.35339E-04   132   0.580E-02    0.250E-02
DAV:   4    -0.990004233541E+02   -0.51539E-05   -0.78019E-05   132   0.278E-02    0.112E-02
DAV:   5    -0.990004234537E+02   -0.99616E-07   -0.26806E-06   132   0.635E-03
 144 F= -.99000423E+02 E0= -.99000423E+02  d E =-.429324E-10
       N       E                     dE             d eps       ncg     rms          rms(c)
DAV:   1    -0.990008157620E+02   -0.39241E-03   -0.54223E-01    96   0.247E+00    0.200E-01
DAV:   2    -0.990005404995E+02    0.27526E-03   -0.27927E-03   108   0.180E-01    0.113E-01
DAV:   3    -0.990003623950E+02    0.17810E-03   -0.48265E-04   120   0.684E-02    0.221E-02
DAV:   4    -0.990003694023E+02   -0.70073E-05   -0.78950E-05   132   0.287E-02    0.911E-03
DAV:   5    -0.990003698272E+02   -0.42491E-06   -0.31117E-06   108   0.653E-03
 145 F= -.99000370E+02 E0= -.99000370E+02  d E =-.406081E-10
       N       E                     dE             d eps       ncg     rms          rms(c)
DAV:   1    -0.989996618546E+02    0.70755E-03   -0.27058E-01    96   0.201E+00    0.135E-01
DAV:   2    -0.989995990141E+02    0.62841E-04   -0.18455E-03   120   0.158E-01    0.763E-02
DAV:   3    -0.989995211735E+02    0.77841E-04   -0.23634E-04   120   0.510E-02    0.179E-02
DAV:   4    -0.989995246898E+02   -0.35163E-05   -0.51074E-05   144   0.232E-02    0.727E-03
DAV:   5    -0.989995244693E+02    0.22050E-06   -0.16871E-06   108   0.534E-03
 146 F= -.98999524E+02 E0= -.98999524E+02  d E =-.439827E-10
       N       E                     dE             d eps       ncg     rms          rms(c)
DAV:   1    -0.989999506332E+02   -0.42594E-03   -0.53669E-01    96   0.261E+00    0.179E-01
DAV:   2    -0.989998221318E+02    0.12850E-03   -0.32965E-03   120   0.189E-01    0.101E-01
DAV:   3    -0.989996598919E+02    0.16224E-03   -0.51105E-04   120   0.677E-02    0.202E-02
DAV:   4    -0.989996636331E+02   -0.37412E-05   -0.99217E-05   132   0.311E-02    0.106E-02
DAV:   5    -0.989996624543E+02    0.11788E-05   -0.35382E-06   120   0.648E-03    0.617E-03
DAV:   6    -0.989996633915E+02   -0.93725E-06   -0.30214E-06   120   0.561E-03
 147 F= -.98999663E+02 E0= -.98999663E+02  d E =-.347975E-10
       N       E                     dE             d eps       ncg     rms          rms(c)
DAV:   1    -0.989986913042E+02    0.97115E-03   -0.26466E-01    96   0.183E+00    0.112E-01
DAV:   2    -0.989986311374E+02    0.60167E-04   -0.10749E-03   132   0.103E-01    0.642E-02
DAV:   3    -0.989985710857E+02    0.60052E-04   -0.17453E-04   132   0.387E-02    0.101E-02
DAV:   4    -0.989985738195E+02   -0.27339E-05   -0.26043E-05   132   0.161E-02    0.521E-03
DAV:   5    -0.989985752972E+02   -0.14776E-05   -0.10850E-06    96   0.374E-03    0.299E-03
DAV:   6    -0.989985781514E+02   -0.28543E-05   -0.84468E-07   108   0.308E-03    0.666E-04
DAV:   7    -0.989985803589E+02   -0.22074E-05   -0.26006E-07   108   0.173E-03    0.549E-04
DAV:   8    -0.989985837222E+02   -0.33633E-05   -0.22387E-07    96   0.150E-03    0.286E-04
DAV:   9    -0.989985855646E+02   -0.18425E-05   -0.11825E-07   108   0.923E-04    0.198E-04
DAV:  10    -0.989985874935E+02   -0.19289E-05   -0.66302E-08    96   0.602E-04    0.110E-04
DAV:  11    -0.989985885074E+02   -0.10139E-05   -0.33730E-08    96   0.374E-04    0.762E-05
DAV:  12    -0.989985892683E+02   -0.76081E-06   -0.16574E-08    96   0.285E-04
 148 F= -.98998589E+02 E0= -.98998589E+02  d E =-.348733E-10
       N       E                     dE             d eps       ncg     rms          rms(c)
DAV:   1    -0.989987538696E+02   -0.16536E-03   -0.54344E-01   108   0.250E+00    0.206E-01
DAV:   2    -0.989986932125E+02    0.60657E-04   -0.44487E-03   108   0.206E-01    0.110E-01
DAV:   3    -0.989985020905E+02    0.19112E-03   -0.45596E-04   132   0.574E-02    0.337E-02
DAV:   4    -0.989984877830E+02    0.14308E-04   -0.10330E-04   132   0.274E-02    0.109E-02
DAV:   5    -0.989984851959E+02    0.25870E-05   -0.71620E-06   132   0.101E-02    0.501E-03
DAV:   6    -0.989984879335E+02   -0.27376E-05   -0.45314E-06   132   0.688E-03    0.193E-03
DAV:   7    -0.989984926685E+02   -0.47350E-05   -0.10080E-06   108   0.347E-03    0.118E-03
DAV:   8    -0.989984988570E+02   -0.61885E-05   -0.44726E-07   108   0.220E-03    0.680E-04
DAV:   9    -0.989985049249E+02   -0.60679E-05   -0.36806E-07   108   0.162E-03    0.343E-04
DAV:  10    -0.989985105770E+02   -0.56521E-05   -0.28070E-07    96   0.119E-03    0.218E-04
DAV:  11    -0.989985135538E+02   -0.29768E-05   -0.63513E-08   108   0.622E-04    0.148E-04
DAV:  12    -0.989985164509E+02   -0.28971E-05   -0.63598E-08    84   0.506E-04    0.110E-04
DAV:  13    -0.989985171038E+02   -0.65290E-06   -0.48988E-09   108   0.228E-04
 149 F= -.98998517E+02 E0= -.98998517E+02  d E =-.371560E-10
       N       E                     dE             d eps       ncg     rms          rms(c)
DAV:   1    -0.990004863541E+02   -0.19699E-02   -0.26658E-01    96   0.177E+00    0.128E-01
DAV:   2    -0.990004095525E+02    0.76802E-04   -0.14759E-03   120   0.135E-01    0.714E-02
DAV:   3    -0.990003336807E+02    0.75872E-04   -0.22520E-04   144   0.451E-02    0.154E-02
DAV:   4    -0.990003341591E+02   -0.47841E-06   -0.39152E-05   132   0.195E-02    0.693E-03
DAV:   5    -0.990003346178E+02   -0.45866E-06   -0.20120E-06   132   0.509E-03
 150 F= -.99000335E+02 E0= -.99000335E+02  d E =-.507387E-10
       N       E                     dE             d eps       ncg     rms          rms(c)
DAV:   1    -0.990007472342E+02   -0.41308E-03   -0.52491E-01    96   0.259E+00    0.161E-01
DAV:   2    -0.990006151160E+02    0.13212E-03   -0.21040E-03   108   0.157E-01    0.923E-02
DAV:   3    -0.990005028100E+02    0.11231E-03   -0.37057E-04   132   0.595E-02    0.127E-02
DAV:   4    -0.990005098073E+02   -0.69973E-05   -0.58969E-05   132   0.245E-02    0.706E-03
DAV:   5    -0.990005113254E+02   -0.15182E-05   -0.22110E-06   132   0.493E-03    0.441E-03
DAV:   6    -0.990005151285E+02   -0.38031E-05   -0.13299E-06   108   0.365E-03    0.956E-04
DAV:   7    -0.990005179645E+02   -0.28360E-05   -0.33612E-07   108   0.198E-03    0.778E-04
DAV:   8    -0.990005226484E+02   -0.46840E-05   -0.26960E-07    96   0.201E-03    0.301E-04
DAV:   9    -0.990005251860E+02   -0.25376E-05   -0.19531E-07    96   0.133E-03    0.306E-04
DAV:  10    -0.990005272141E+02   -0.20281E-05   -0.64111E-08    96   0.733E-04    0.159E-04
DAV:  11    -0.990005286761E+02   -0.14621E-05   -0.45790E-08    96   0.473E-04    0.113E-04
DAV:  12    -0.990005294174E+02   -0.74125E-06   -0.15153E-08    96   0.300E-04
 151 F= -.99000529E+02 E0= -.99000529E+02  d E =-.304188E-10
       N       E                     dE             d eps       ncg     rms          rms(c)
DAV:   1    -0.989984697317E+02    0.20589E-02   -0.26711E-01    96   0.186E+00    0.130E-01
DAV:   2    -0.989984156009E+02    0.54131E-04   -0.18840E-03   120   0.144E-01    0.715E-02
DAV:   3    -0.989983325078E+02    0.83093E-04   -0.23068E-04   144   0.481E-02    0.186E-02
DAV:   4    -0.989983343858E+02   -0.18780E-05   -0.65514E-05   132   0.241E-02    0.735E-03
DAV:   5    -0.989983345526E+02   -0.16680E-06   -0.25737E-06   132   0.565E-03
 152 F= -.98998335E+02 E0= -.98998335E+02  d E =-.427954E-10
       N       E                     dE             d eps       ncg     rms          rms(c)
DAV:   1    -0.989985398519E+02   -0.20547E-03   -0.54656E-01    96   0.246E+00    0.208E-01
DAV:   2    -0.989984331644E+02    0.10669E-03   -0.45149E-03   120   0.213E-01    0.114E-01
DAV:   3    -0.989982250181E+02    0.20815E-03   -0.56279E-04   120   0.687E-02    0.307E-02
DAV:   4    -0.989982225752E+02    0.24429E-05   -0.14100E-04   120   0.339E-02    0.120E-02
DAV:   5    -0.989982201314E+02    0.24438E-05   -0.53966E-06   132   0.854E-03    0.689E-03
DAV:   6    -0.989982207174E+02   -0.58595E-06   -0.52158E-06   120   0.791E-03
 153 F= -.98998221E+02 E0= -.98998221E+02  d E =-.414431E-10
       N       E                     dE             d eps       ncg     rms          rms(c)
DAV:   1    -0.990004563540E+02   -0.22362E-02   -0.26998E-01    96   0.174E+00    0.141E-01
DAV:   2    -0.990004064198E+02    0.49934E-04   -0.19624E-03   132   0.143E-01    0.759E-02
DAV:   3    -0.990003291171E+02    0.77303E-04   -0.23256E-04   132   0.409E-02    0.207E-02
DAV:   4    -0.990003266666E+02    0.24505E-05   -0.38346E-05   132   0.183E-02    0.773E-03
DAV:   5    -0.990003254961E+02    0.11705E-05   -0.32404E-06   132   0.662E-03    0.336E-03
DAV:   6    -0.990003263518E+02   -0.85567E-06   -0.17380E-06   132   0.411E-03
 154 F= -.99000326E+02 E0= -.99000326E+02  d E =-.414010E-10
       N       E                     dE             d eps       ncg     rms          rms(c)
DAV:   1    -0.990006360095E+02   -0.31051E-03   -0.53310E-01    96   0.253E+00    0.161E-01
DAV:   2    -0.990005252176E+02    0.11079E-03   -0.21574E-03   120   0.150E-01    0.926E-02
DAV:   3    -0.990004141819E+02    0.11104E-03   -0.37239E-04   120   0.555E-02    0.144E-02
DAV:   4    -0.990004173897E+02   -0.32079E-05   -0.54439E-05   132   0.233E-02    0.725E-03
DAV:   5    -0.990004168510E+02    0.53875E-06   -0.20597E-06   132   0.504E-03
 155 F= -.99000417E+02 E0= -.99000417E+02  d E =-.377588E-10
       N       E                     dE             d eps       ncg     rms          rms(c)
DAV:   1    -0.989999349773E+02    0.48241E-03   -0.26460E-01    96   0.180E+00    0.116E-01
DAV:   2    -0.989998644816E+02    0.70496E-04   -0.10853E-03   132   0.109E-01    0.669E-02
DAV:   3    -0.989998104461E+02    0.54035E-04   -0.20104E-04   132   0.446E-02    0.878E-03
DAV:   4    -0.989998145322E+02   -0.40861E-05   -0.34738E-05   132   0.189E-02    0.551E-03
DAV:   5    -0.989998150313E+02   -0.49905E-06   -0.93446E-07   108   0.355E-03
 156 F= -.98999815E+02 E0= -.98999815E+02  d E =-.470366E-10
       N       E                     dE             d eps       ncg     rms          rms(c)
DAV:   1    -0.990002792335E+02   -0.46470E-03   -0.52616E-01   108   0.255E+00    0.175E-01
DAV:   2    -0.990001516201E+02    0.12761E-03   -0.26186E-03   120   0.168E-01    0.973E-02
DAV:   3    -0.990000187910E+02    0.13283E-03   -0.37588E-04   120   0.559E-02    0.206E-02
DAV:   4    -0.990000185974E+02    0.19356E-06   -0.58342E-05   132   0.236E-02    0.869E-03
DAV:   5    -0.990000188215E+02   -0.22403E-06   -0.40335E-06   120   0.679E-03
 157 F= -.99000019E+02 E0= -.99000019E+02  d E =-.340214E-10
