       N       E                     dE             d eps       ncg     rms          rms(c)
DAV:   1     0.210070635628E+03    0.21007E+03   -0.10462E+04   116   0.546E+02
DAV:   2    -0.234566864934E+02   -0.23353E+03   -0.21819E+03   144   0.103E+02
DAV:   3    -0.990570034018E+02   -0.75600E+02   -0.75425E+02   112   0.554E+01
DAV:   4    -0.103403877891E+03   -0.43469E+01   -0.43298E+01   104   0.183E+01
DAV:   5    -0.103470195398E+03   -0.66318E-01   -0.66253E-01   136   0.245E+00    0.143E+01
DAV:   6    -0.100331158810E+03    0.31390E+01   -0.15859E+00   112   0.452E+00    0.824E+00
DAV:   7    -0.986954224838E+02    0.16357E+01   -0.39378E+00   112   0.660E+00    0.120E+00
DAV:   8    -0.986396411521E+02    0.55781E-01   -0.27652E-01   112   0.216E+00    0.594E-01
DAV:   9    -0.986043945856E+02    0.35247E-01   -0.68100E-02   120   0.734E-01    0.315E-01
DAV:  10    -0.986044020957E+02   -0.75101E-05   -0.24111E-03   112   0.195E-01    0.142E-01
DAV:  11    -0.986043367687E+02    0.65327E-04   -0.64912E-03   104   0.236E-01    0.834E-02
DAV:  12    -0.986090668706E+02   -0.47301E-02   -0.12090E-03   104   0.999E-02    0.544E-02
DAV:  13    -0.986135084474E+02   -0.44416E-02   -0.16527E-03   112   0.105E-01    0.346E-02
DAV:  14    -0.986178986530E+02   -0.43902E-02   -0.35791E-04   112   0.564E-02    0.145E-02
DAV:  15    -0.986218417101E+02   -0.39431E-02   -0.44408E-04   104   0.547E-02    0.134E-02
DAV:  16    -0.986230357575E+02   -0.11940E-02   -0.72441E-05   112   0.228E-02    0.592E-03
DAV:  17    -0.986240179129E+02   -0.98216E-03   -0.82720E-05   104   0.216E-02    0.313E-03
DAV:  18    -0.986243095550E+02   -0.29164E-03   -0.10922E-05   104   0.876E-03    0.182E-03
DAV:  19    -0.986244148889E+02   -0.10533E-03   -0.30078E-06    96   0.455E-03    0.142E-03
DAV:  20    -0.986244641271E+02   -0.49238E-04   -0.96781E-07    88   0.314E-03    0.577E-04
DAV:  21    -0.986244827671E+02   -0.18640E-04   -0.57894E-07    80   0.194E-03    0.481E-04
DAV:  22    -0.986244903697E+02   -0.76026E-05   -0.16860E-07    88   0.128E-03    0.211E-04
DAV:  23    -0.986244931476E+02   -0.27779E-05   -0.69301E-08    88   0.705E-04    0.137E-04
DAV:  24    -0.986244951615E+02   -0.20139E-05   -0.27748E-08    88   0.437E-04    0.557E-05
DAV:  25    -0.986244958103E+02   -0.64880E-06   -0.10305E-08    88   0.265E-04
   1 F= -.98624496E+02 E0= -.98624496E+02  d E =-.986245E+02
       N       E                     dE             d eps       ncg     rms          rms(c)
DAV:   1    -0.987584642718E+02   -0.13397E+00   -0.50694E+00    84   0.898E+00    0.104E+00
DAV:   2    -0.987831497773E+02   -0.24686E-01   -0.29025E-01   120   0.203E+00    0.505E-01
DAV:   3    -0.987799992355E+02    0.31505E-02   -0.97944E-03   120   0.392E-01    0.263E-01
DAV:   4    -0.987793545585E+02    0.64468E-03   -0.49791E-03   112   0.248E-01    0.624E-02
DAV:   5    -0.987792037643E+02    0.15079E-03   -0.54547E-04   112   0.952E-02    0.382E-02
DAV:   6    -0.987792065521E+02   -0.27878E-05   -0.10197E-04   120   0.360E-02    0.235E-02
DAV:   7    -0.987793143767E+02   -0.10782E-03   -0.40397E-05   110   0.277E-02    0.636E-03
DAV:   8    -0.987793763733E+02   -0.61997E-04   -0.20773E-05   112   0.179E-02    0.842E-03
DAV:   9    -0.987794265577E+02   -0.50184E-04   -0.26886E-06   112   0.591E-03    0.605E-03
DAV:  10    -0.987795770145E+02   -0.15046E-03   -0.11753E-05   112   0.820E-03    0.375E-03
DAV:  11    -0.987796155519E+02   -0.38537E-04   -0.16608E-06    96   0.408E-03    0.187E-03
DAV:  12    -0.987796881981E+02   -0.72646E-04   -0.47440E-06   104   0.548E-03    0.159E-03
DAV:  13    -0.987796971343E+02   -0.89362E-05   -0.35198E-07    96   0.244E-03    0.735E-04
DAV:  14    -0.987797197735E+02   -0.22639E-04   -0.46424E-07    78   0.215E-03    0.705E-04
DAV:  15    -0.987797298726E+02   -0.10099E-04   -0.28504E-07    88   0.135E-03    0.471E-04
DAV:  16    -0.987797360439E+02   -0.61713E-05   -0.80691E-08    88   0.854E-04    0.178E-04
DAV:  17    -0.987797377136E+02   -0.16697E-05   -0.28501E-08    88   0.497E-04    0.183E-04
DAV:  18    -0.987797391499E+02   -0.14363E-05   -0.18988E-08    80   0.363E-04    0.730E-05
DAV:  19    -0.987797394713E+02   -0.32142E-06   -0.39909E-09    88   0.182E-04
   2 F= -.98779739E+02 E0= -.98779739E+02  d E =-.155244E+00
       N       E                     dE             d eps       ncg     rms          rms(c)
DAV:   1    -0.987798575505E+02   -0.11840E-03   -0.39439E-03    84   0.250E-01    0.274E-02
DAV:   2    -0.987798758815E+02   -0.18331E-04   -0.22556E-04   120   0.568E-02    0.146E-02
DAV:   3    -0.987798727489E+02    0.31326E-05   -0.81842E-06   120   0.114E-02    0.736E-03
DAV:   4    -0.987798716991E+02    0.10498E-05   -0.39775E-06   112   0.702E-03    0.196E-03
DAV:   5    -0.987798713872E+02    0.31197E-06   -0.38431E-07    88   0.265E-03
   3 F= -.98779871E+02 E0= -.98779871E+02  d E =-.155376E+00
       N       E                     dE             d eps       ncg     rms          rms(c)
DAV:   1    -0.988103089962E+02   -0.30437E-01   -0.10068E+00    92   0.438E+00    0.379E-01
DAV:   2    -0.988135131556E+02   -0.32042E-02   -0.42207E-02   120   0.717E-01    0.170E-01
DAV:   3    -0.988130874829E+02    0.42567E-03   -0.16616E-03   120   0.152E-01    0.900E-02
DAV:   4    -0.988129927773E+02    0.94706E-04   -0.51621E-04   112   0.791E-02    0.272E-02
DAV:   5    -0.988129985398E+02   -0.57625E-05   -0.47649E-05   120   0.293E-02    0.152E-02
DAV:   6    -0.988130175152E+02   -0.18975E-04   -0.11726E-05   112   0.133E-02    0.644E-03
DAV:   7    -0.988130450388E+02   -0.27524E-04   -0.41734E-06   112   0.753E-03    0.216E-03
DAV:   8    -0.988130612506E+02   -0.16212E-04   -0.55059E-07    88   0.292E-03    0.127E-03
DAV:   9    -0.988130868634E+02   -0.25613E-04   -0.21228E-06    88   0.403E-03    0.850E-04
DAV:  10    -0.988130975483E+02   -0.10685E-04   -0.60932E-07    88   0.236E-03    0.461E-04
DAV:  11    -0.988131055399E+02   -0.79917E-05   -0.44486E-07    88   0.165E-03    0.320E-04
DAV:  12    -0.988131097954E+02   -0.42555E-05   -0.15415E-07    88   0.102E-03    0.183E-04
DAV:  13    -0.988131119103E+02   -0.21149E-05   -0.61509E-08    88   0.627E-04    0.141E-04
DAV:  14    -0.988131134521E+02   -0.15418E-05   -0.47916E-08    88   0.534E-04    0.650E-05
DAV:  15    -0.988131137993E+02   -0.34713E-06   -0.66289E-09    88   0.250E-04
   4 F= -.98813114E+02 E0= -.98813114E+02  d E =-.332424E-01
       N       E                     dE             d eps       ncg     rms          rms(c)
DAV:   1    -0.988136889944E+02   -0.57554E-03   -0.26186E-02    92   0.705E-01    0.602E-02
DAV:   2    -0.988137703897E+02   -0.81395E-04   -0.11070E-03   120   0.116E-01    0.274E-02
DAV:   3    -0.988137579213E+02    0.12468E-04   -0.44239E-05   120   0.249E-02    0.143E-02
DAV:   4    -0.988137535587E+02    0.43626E-05   -0.13390E-05   112   0.127E-02    0.453E-03
DAV:   5    -0.988137526950E+02    0.86365E-06   -0.11036E-06    88   0.472E-03
   5 F= -.98813753E+02 E0= -.98813753E+02  d E =-.338813E-01
       N       E                     dE             d eps       ncg     rms          rms(c)
DAV:   1    -0.988271017232E+02   -0.13348E-01   -0.35033E-01    84   0.265E+00    0.174E-01
DAV:   2    -0.988277810072E+02   -0.67928E-03   -0.10934E-02   120   0.390E-01    0.980E-02
DAV:   3    -0.988276222634E+02    0.15874E-03   -0.45657E-04   120   0.829E-02    0.492E-02
DAV:   4    -0.988276003351E+02    0.21928E-04   -0.17187E-04   112   0.459E-02    0.135E-02
DAV:   5    -0.988276010679E+02   -0.73272E-06   -0.10469E-05   112   0.144E-02    0.614E-03
DAV:   6    -0.988276083498E+02   -0.72820E-05   -0.43154E-06   104   0.791E-03    0.259E-03
DAV:   7    -0.988276211568E+02   -0.12807E-04   -0.13234E-06    80   0.434E-03    0.119E-03
DAV:   8    -0.988276280703E+02   -0.69135E-05   -0.34383E-07    88   0.202E-03    0.101E-03
DAV:   9    -0.988276417404E+02   -0.13670E-04   -0.73343E-07    80   0.210E-03    0.570E-04
DAV:  10    -0.988276481935E+02   -0.64530E-05   -0.41368E-07    88   0.146E-03    0.521E-04
DAV:  11    -0.988276510942E+02   -0.29008E-05   -0.73654E-08    88   0.906E-04    0.150E-04
DAV:  12    -0.988276551273E+02   -0.40331E-05   -0.16927E-07    80   0.922E-04    0.138E-04
DAV:  13    -0.988276572451E+02   -0.21177E-05   -0.74032E-08    88   0.582E-04    0.155E-04
DAV:  14    -0.988276580678E+02   -0.82273E-06   -0.16732E-08    88   0.331E-04
   6 F= -.98827658E+02 E0= -.98827658E+02  d E =-.139054E-01
       N       E                     dE             d eps       ncg     rms          rms(c)
DAV:   1    -0.988351080323E+02   -0.74508E-02   -0.99919E-01    84   0.448E+00    0.294E-01
DAV:   2    -0.988370810200E+02   -0.19730E-02   -0.31263E-02   120   0.660E-01    0.166E-01
DAV:   3    -0.988366401486E+02    0.44087E-03   -0.12977E-03   120   0.140E-01    0.833E-02
DAV:   4    -0.988365820191E+02    0.58130E-04   -0.49018E-04   112   0.777E-02    0.230E-02
DAV:   5    -0.988365816691E+02    0.35003E-06   -0.29868E-05   112   0.242E-02    0.104E-02
DAV:   6    -0.988365977335E+02   -0.16064E-04   -0.12151E-05   104   0.132E-02    0.438E-03
DAV:   7    -0.988366274888E+02   -0.29755E-04   -0.41181E-06   112   0.726E-03    0.230E-03
DAV:   8    -0.988366422382E+02   -0.14749E-04   -0.47548E-07    88   0.248E-03    0.163E-03
DAV:   9    -0.988366749265E+02   -0.32688E-04   -0.22315E-06    88   0.343E-03    0.924E-04
DAV:  10    -0.988366874976E+02   -0.12571E-04   -0.60719E-07    88   0.199E-03    0.772E-04
DAV:  11    -0.988366991961E+02   -0.11699E-04   -0.48841E-07    88   0.208E-03    0.653E-04
DAV:  12    -0.988367051367E+02   -0.59405E-05   -0.27976E-07    88   0.138E-03    0.240E-04
DAV:  13    -0.988367067507E+02   -0.16140E-05   -0.31531E-08    96   0.554E-04    0.127E-04
DAV:  14    -0.988367103766E+02   -0.36260E-05   -0.10614E-07    88   0.719E-04    0.798E-05
DAV:  15    -0.988367111744E+02   -0.79783E-06   -0.17246E-08    88   0.317E-04
   7 F= -.98836711E+02 E0= -.98836711E+02  d E =-.229585E-01
       N       E                     dE             d eps       ncg     rms          rms(c)
DAV:   1    -0.988452166905E+02   -0.85063E-02   -0.18443E-01    84   0.196E+00    0.120E-01
DAV:   2    -0.988454277558E+02   -0.21107E-03   -0.37815E-03   120   0.245E-01    0.670E-02
DAV:   3    -0.988453518486E+02    0.75907E-04   -0.19565E-04   120   0.576E-02    0.296E-02
DAV:   4    -0.988453529991E+02   -0.11505E-05   -0.85654E-05   120   0.329E-02    0.875E-03
DAV:   5    -0.988453554815E+02   -0.24824E-05   -0.74158E-06   104   0.112E-02    0.360E-03
DAV:   6    -0.988453568359E+02   -0.13544E-05   -0.11935E-06    88   0.397E-03    0.146E-03
DAV:   7    -0.988453587701E+02   -0.19342E-05   -0.23021E-07    80   0.194E-03    0.435E-04
DAV:   8    -0.988453602624E+02   -0.14922E-05   -0.11826E-07    88   0.126E-03    0.311E-04
DAV:   9    -0.988453614574E+02   -0.11951E-05   -0.36896E-08    88   0.751E-04    0.121E-04
DAV:  10    -0.988453629254E+02   -0.14679E-05   -0.56555E-08    80   0.633E-04    0.130E-04
DAV:  11    -0.988453633176E+02   -0.39223E-06   -0.97497E-09    88   0.341E-04
   8 F= -.98845363E+02 E0= -.98845363E+02  d E =-.865214E-02
       N       E                     dE             d eps       ncg     rms          rms(c)
DAV:   1    -0.988562334748E+02   -0.10871E-01   -0.16573E+00    84   0.586E+00    0.358E-01
DAV:   2    -0.988581938214E+02   -0.19603E-02   -0.34281E-02   120   0.735E-01    0.202E-01
DAV:   3    -0.988575363941E+02    0.65743E-03   -0.17588E-03   120   0.173E-01    0.892E-02
DAV:   4    -0.988575650333E+02   -0.28639E-04   -0.78222E-04   120   0.992E-02    0.267E-02
DAV:   5    -0.988575812363E+02   -0.16203E-04   -0.67709E-05   104   0.338E-02    0.111E-02
DAV:   6    -0.988575905708E+02   -0.93345E-05   -0.12225E-05   112   0.121E-02    0.444E-03
DAV:   7    -0.988576011034E+02   -0.10533E-04   -0.91902E-07    88   0.385E-03    0.154E-03
DAV:   8    -0.988576102311E+02   -0.91277E-05   -0.74719E-07    88   0.306E-03    0.838E-04
DAV:   9    -0.988576166854E+02   -0.64543E-05   -0.20900E-07    88   0.189E-03    0.438E-04
DAV:  10    -0.988576249357E+02   -0.82503E-05   -0.42080E-07    88   0.168E-03    0.285E-04
DAV:  11    -0.988576273465E+02   -0.24108E-05   -0.89046E-08    88   0.877E-04    0.171E-04
DAV:  12    -0.988576306226E+02   -0.32762E-05   -0.13170E-07    80   0.828E-04    0.973E-05
DAV:  13    -0.988576314669E+02   -0.84429E-06   -0.27438E-08    88   0.422E-04
   9 F= -.98857631E+02 E0= -.98857631E+02  d E =-.209203E-01
       N       E                     dE             d eps       ncg     rms          rms(c)
DAV:   1    -0.988577285390E+02   -0.97916E-04   -0.18003E-02    84   0.611E-01    0.374E-02
DAV:   2    -0.988577480746E+02   -0.19536E-04   -0.37103E-04   112   0.767E-02    0.209E-02
DAV:   3    -0.988577397970E+02    0.82776E-05   -0.18825E-05   120   0.180E-02    0.924E-03
DAV:   4    -0.988577395436E+02    0.25335E-06   -0.83781E-06   120   0.103E-02
  10 F= -.98857740E+02 E0= -.98857740E+02  d E =-.210284E-01
       N       E                     dE             d eps       ncg     rms          rms(c)
DAV:   1    -0.988613839191E+02   -0.36441E-02   -0.89642E-02    84   0.134E+00    0.894E-02
DAV:   2    -0.988615519416E+02   -0.16802E-03   -0.25542E-03   120   0.188E-01    0.460E-02
DAV:   3    -0.988615179844E+02    0.33957E-04   -0.99873E-05   120   0.391E-02    0.237E-02
DAV:   4    -0.988615116237E+02    0.63606E-05   -0.39809E-05   112   0.236E-02    0.614E-03
DAV:   5    -0.988615114886E+02    0.13516E-06   -0.42627E-06   120   0.941E-03
  11 F= -.98861511E+02 E0= -.98861511E+02  d E =-.377194E-02
       N       E                     dE             d eps       ncg     rms          rms(c)
DAV:   1    -0.988633290667E+02   -0.18174E-02   -0.30600E-01    84   0.247E+00    0.165E-01
DAV:   2    -0.988639189974E+02   -0.58993E-03   -0.88201E-03   120   0.349E-01    0.848E-02
DAV:   3    -0.988638048842E+02    0.11411E-03   -0.34105E-04   128   0.721E-02    0.439E-02
DAV:   4    -0.988637845708E+02    0.20313E-04   -0.13577E-04   120   0.436E-02    0.114E-02
DAV:   5    -0.988637857233E+02   -0.11525E-05   -0.14921E-05   120   0.177E-02    0.652E-03
DAV:   6    -0.988637906245E+02   -0.49012E-05   -0.40407E-06   112   0.843E-03    0.334E-03
DAV:   7    -0.988637998042E+02   -0.91797E-05   -0.89779E-07    88   0.460E-03    0.106E-03
DAV:   8    -0.988638078845E+02   -0.80803E-05   -0.53159E-07    88   0.333E-03    0.929E-04
DAV:   9    -0.988638184263E+02   -0.10542E-04   -0.55709E-07    80   0.271E-03    0.355E-04
DAV:  10    -0.988638252042E+02   -0.67780E-05   -0.46425E-07    88   0.206E-03    0.284E-04
DAV:  11    -0.988638283657E+02   -0.31614E-05   -0.14363E-07    88   0.127E-03    0.227E-04
DAV:  12    -0.988638303272E+02   -0.19616E-05   -0.68260E-08    88   0.676E-04    0.197E-04
DAV:  13    -0.988638319891E+02   -0.16619E-05   -0.48293E-08    88   0.520E-04    0.104E-04
DAV:  14    -0.988638332613E+02   -0.12721E-05   -0.44959E-08    88   0.472E-04    0.390E-05
DAV:  15    -0.988638336707E+02   -0.40939E-06   -0.88977E-09    88   0.237E-04
  12 F= -.98863834E+02 E0= -.98863834E+02  d E =-.609413E-02
       N       E                     dE             d eps       ncg     rms          rms(c)
DAV:   1    -0.988654903538E+02   -0.16571E-02   -0.69296E-02    84   0.121E+00    0.713E-02
DAV:   2    -0.988655901873E+02   -0.99833E-04   -0.15938E-03   120   0.159E-01    0.416E-02
DAV:   3    -0.988655681527E+02    0.22035E-04   -0.60801E-05   120   0.311E-02    0.207E-02
DAV:   4    -0.988655609553E+02    0.71974E-05   -0.25066E-05   112   0.181E-02    0.400E-03
DAV:   5    -0.988655596000E+02    0.13552E-05   -0.22344E-06    96   0.691E-03    0.250E-03
DAV:   6    -0.988655596262E+02   -0.26209E-07   -0.85719E-07    88   0.444E-03
  13 F= -.98865560E+02 E0= -.98865560E+02  d E =-.172596E-02
       N       E                     dE             d eps       ncg     rms          rms(c)
DAV:   1    -0.988658275447E+02   -0.26794E-03   -0.33356E-02    84   0.838E-01    0.493E-02
DAV:   2    -0.988658742561E+02   -0.46711E-04   -0.77406E-04   120   0.111E-01    0.289E-02
DAV:   3    -0.988658617111E+02    0.12545E-04   -0.29361E-05   120   0.216E-02    0.145E-02
DAV:   4    -0.988658579857E+02    0.37253E-05   -0.12193E-05   120   0.127E-02    0.281E-03
DAV:   5    -0.988658587543E+02   -0.76859E-06   -0.10958E-06    88   0.498E-03
  14 F= -.98865859E+02 E0= -.98865859E+02  d E =-.202508E-02
       N       E                     dE             d eps       ncg     rms          rms(c)
DAV:   1    -0.988669704665E+02   -0.11125E-02   -0.35876E-02    84   0.842E-01    0.596E-02
DAV:   2    -0.988670677372E+02   -0.97271E-04   -0.13984E-03   120   0.133E-01    0.309E-02
DAV:   3    -0.988670613840E+02    0.63532E-05   -0.45689E-05   128   0.251E-02    0.173E-02
DAV:   4    -0.988670622441E+02   -0.86013E-06   -0.11388E-05   112   0.120E-02    0.391E-03
DAV:   5    -0.988670633594E+02   -0.11152E-05   -0.10978E-06    88   0.426E-03    0.198E-03
DAV:   6    -0.988670649449E+02   -0.15856E-05   -0.39080E-07    88   0.263E-03    0.882E-04
DAV:   7    -0.988670670628E+02   -0.21179E-05   -0.19253E-07    88   0.156E-03    0.364E-04
DAV:   8    -0.988670689903E+02   -0.19275E-05   -0.66336E-08    88   0.845E-04    0.229E-04
DAV:   9    -0.988670710940E+02   -0.21037E-05   -0.82390E-08    88   0.702E-04    0.122E-04
DAV:  10    -0.988670726324E+02   -0.15383E-05   -0.70000E-08    88   0.592E-04    0.922E-05
DAV:  11    -0.988670734040E+02   -0.77164E-06   -0.22052E-08    88   0.378E-04
  15 F= -.98867073E+02 E0= -.98867073E+02  d E =-.121465E-02
       N       E                     dE             d eps       ncg     rms          rms(c)
DAV:   1    -0.988673460736E+02   -0.27344E-03   -0.18818E-02    84   0.610E-01    0.432E-02
DAV:   2    -0.988673959934E+02   -0.49920E-04   -0.73350E-04   120   0.959E-02    0.225E-02
DAV:   3    -0.988673916330E+02    0.43605E-05   -0.23933E-05   120   0.182E-02    0.125E-02
DAV:   4    -0.988673906542E+02    0.97875E-06   -0.60339E-06   112   0.871E-03
  16 F= -.98867391E+02 E0= -.98867391E+02  d E =-.153190E-02
       N       E                     dE             d eps       ncg     rms          rms(c)
DAV:   1    -0.988679087009E+02   -0.51707E-03   -0.16875E-02    84   0.579E-01    0.480E-02
DAV:   2    -0.988679311317E+02   -0.22431E-04   -0.46353E-04   120   0.787E-02    0.227E-02
DAV:   3    -0.988679258192E+02    0.53125E-05   -0.26609E-05   120   0.190E-02    0.112E-02
DAV:   4    -0.988679254599E+02    0.35928E-06   -0.57649E-06   112   0.929E-03
  17 F= -.98867925E+02 E0= -.98867925E+02  d E =-.534806E-03
       N       E                     dE             d eps       ncg     rms          rms(c)
DAV:   1    -0.988680160758E+02   -0.90257E-04   -0.71928E-03    84   0.378E-01    0.320E-02
DAV:   2    -0.988680264587E+02   -0.10383E-04   -0.20402E-04   120   0.520E-02    0.148E-02
DAV:   3    -0.988680241787E+02    0.22800E-05   -0.10834E-05   120   0.122E-02    0.739E-03
DAV:   4    -0.988680241670E+02    0.11646E-07   -0.23951E-06   112   0.611E-03
  18 F= -.98868024E+02 E0= -.98868024E+02  d E =-.633513E-03
       N       E                     dE             d eps       ncg     rms          rms(c)
DAV:   1    -0.988681161683E+02   -0.91990E-04   -0.13723E-02    84   0.503E-01    0.422E-02
DAV:   2    -0.988681814743E+02   -0.65306E-04   -0.82872E-04   112   0.105E-01    0.230E-02
DAV:   3    -0.988681771947E+02    0.42797E-05   -0.23760E-05   120   0.190E-02    0.131E-02
DAV:   4    -0.988681760611E+02    0.11335E-05   -0.65739E-06   112   0.103E-02    0.323E-03
DAV:   5    -0.988681759876E+02    0.73491E-07   -0.92001E-07    88   0.440E-03
  19 F= -.98868176E+02 E0= -.98868176E+02  d E =-.151821E-03
       N       E                     dE             d eps       ncg     rms          rms(c)
DAV:   1    -0.988681860384E+02   -0.99773E-05   -0.62682E-04    84   0.108E-01    0.871E-03
DAV:   2    -0.988681895877E+02   -0.35493E-05   -0.35821E-05   112   0.218E-02    0.500E-03
DAV:   3    -0.988681902224E+02   -0.63464E-06   -0.10203E-06    96   0.408E-03
  20 F= -.98868190E+02 E0= -.98868190E+02  d E =-.166055E-03
