       N       E                     dE             d eps       ncg     rms          rms(c)
DAV:   1     0.251437885508E+03    0.25144E+03   -0.10103E+04   120   0.484E+02
DAV:   2    -0.177546610298E+02   -0.26919E+03   -0.25548E+03   156   0.918E+01
DAV:   3    -0.984583774565E+02   -0.80704E+02   -0.80482E+02   120   0.561E+01
DAV:   4    -0.102373371792E+03   -0.39150E+01   -0.39022E+01   132   0.176E+01
DAV:   5    -0.102422024712E+03   -0.48653E-01   -0.48599E-01   144   0.214E+00    0.141E+01
DAV:   6    -0.992678098811E+02    0.31542E+01   -0.14956E+00   108   0.418E+00    0.802E+00
DAV:   7    -0.976927598994E+02    0.15750E+01   -0.38277E+00   120   0.599E+00    0.125E+00
DAV:   8    -0.976303100344E+02    0.62450E-01   -0.32183E-01   132   0.213E+00    0.634E-01
DAV:   9    -0.975972531427E+02    0.33057E-01   -0.55281E-02   144   0.639E-01    0.332E-01
DAV:  10    -0.975955842835E+02    0.16689E-02   -0.35764E-03   132   0.187E-01    0.134E-01
DAV:  11    -0.975949268837E+02    0.65740E-03   -0.62377E-03   120   0.212E-01    0.110E-01
DAV:  12    -0.976012730288E+02   -0.63461E-02   -0.15173E-03   108   0.105E-01    0.506E-02
DAV:  13    -0.976044475553E+02   -0.31745E-02   -0.17498E-03   120   0.112E-01    0.478E-02
DAV:  14    -0.976075032681E+02   -0.30557E-02   -0.22711E-04   120   0.518E-02    0.190E-02
DAV:  15    -0.976116827296E+02   -0.41795E-02   -0.46322E-04    96   0.540E-02    0.140E-02
DAV:  16    -0.976136573042E+02   -0.19746E-02   -0.17568E-04   132   0.343E-02    0.669E-03
DAV:  17    -0.976143644465E+02   -0.70714E-03   -0.42931E-05   132   0.150E-02    0.519E-03
DAV:  18    -0.976147705270E+02   -0.40608E-03   -0.18779E-05   108   0.101E-02    0.233E-03
DAV:  19    -0.976148904436E+02   -0.11992E-03   -0.36518E-06   132   0.485E-03    0.213E-03
DAV:  20    -0.976149471738E+02   -0.56730E-04   -0.10929E-06    84   0.302E-03    0.634E-04
DAV:  21    -0.976149671323E+02   -0.19959E-04   -0.49243E-07   108   0.183E-03    0.603E-04
DAV:  22    -0.976149813520E+02   -0.14220E-04   -0.24981E-07    84   0.127E-03    0.226E-04
DAV:  23    -0.976149861306E+02   -0.47786E-05   -0.12168E-07   108   0.732E-04    0.147E-04
DAV:  24    -0.976149902685E+02   -0.41379E-05   -0.79440E-08    84   0.573E-04    0.881E-05
DAV:  25    -0.976149907261E+02   -0.45761E-06   -0.34503E-09   108   0.232E-04
   1 F= -.97614991E+02 E0= -.97614991E+02  d E =-.125825E-10
       N       E                     dE             d eps       ncg     rms          rms(c)
DAV:   1    -0.976114681166E+02    0.35222E-02   -0.81470E-02    96   0.780E-01    0.922E-02
DAV:   2    -0.976118412580E+02   -0.37314E-03   -0.39149E-03   108   0.194E-01    0.503E-02
DAV:   3    -0.976118406693E+02    0.58867E-06   -0.13119E-04   156   0.421E-02    0.240E-02
DAV:   4    -0.976118434509E+02   -0.27816E-05   -0.24490E-05   120   0.192E-02    0.627E-03
DAV:   5    -0.976118425618E+02    0.88909E-06   -0.53401E-06   144   0.857E-03
   2 F= -.97611843E+02 E0= -.97611843E+02  d E =-.108629E-10
       N       E                     dE             d eps       ncg     rms          rms(c)
DAV:   1    -0.976106627595E+02    0.11807E-02   -0.33191E-01    96   0.159E+00    0.189E-01
DAV:   2    -0.976121838530E+02   -0.15211E-02   -0.15793E-02   120   0.380E-01    0.102E-01
DAV:   3    -0.976121863064E+02   -0.24534E-05   -0.47427E-04   132   0.793E-02    0.518E-02
DAV:   4    -0.976122033062E+02   -0.17000E-04   -0.95498E-05   120   0.383E-02    0.131E-02
DAV:   5    -0.976121994557E+02    0.38506E-05   -0.21154E-05   132   0.175E-02    0.625E-03
DAV:   6    -0.976121994973E+02   -0.41610E-07   -0.56641E-06   120   0.768E-03
   3 F= -.97612199E+02 E0= -.97612199E+02  d E =-.156449E-10
       N       E                     dE             d eps       ncg     rms          rms(c)
DAV:   1    -0.976112841632E+02    0.91529E-03   -0.16451E-01    96   0.113E+00    0.131E-01
DAV:   2    -0.976119971097E+02   -0.71295E-03   -0.73979E-03   132   0.275E-01    0.703E-02
DAV:   3    -0.976120052259E+02   -0.81161E-05   -0.23408E-04   144   0.575E-02    0.330E-02
DAV:   4    -0.976120164208E+02   -0.11195E-04   -0.43775E-05   120   0.260E-02    0.914E-03
DAV:   5    -0.976120155650E+02    0.85581E-06   -0.82710E-06   132   0.114E-02
   4 F= -.97612016E+02 E0= -.97612016E+02  d E =-.115796E-10
       N       E                     dE             d eps       ncg     rms          rms(c)
DAV:   1    -0.976104618366E+02    0.15546E-02   -0.32941E-01    96   0.164E+00    0.190E-01
DAV:   2    -0.976119442282E+02   -0.14824E-02   -0.15406E-02   120   0.399E-01    0.104E-01
DAV:   3    -0.976119458330E+02   -0.16047E-05   -0.45549E-04   120   0.811E-02    0.508E-02
DAV:   4    -0.976119620602E+02   -0.16227E-04   -0.10785E-04   120   0.403E-02    0.138E-02
DAV:   5    -0.976119573002E+02    0.47600E-05   -0.19292E-05   132   0.175E-02    0.683E-03
DAV:   6    -0.976119571944E+02    0.10586E-06   -0.61249E-06   120   0.835E-03
   5 F= -.97611957E+02 E0= -.97611957E+02  d E =-.131907E-10
       N       E                     dE             d eps       ncg     rms          rms(c)
DAV:   1    -0.976096870585E+02    0.22702E-02   -0.16577E-01    96   0.117E+00    0.143E-01
DAV:   2    -0.976105912767E+02   -0.90422E-03   -0.94021E-03   120   0.310E-01    0.881E-02
DAV:   3    -0.976105744398E+02    0.16837E-04   -0.27736E-04   132   0.635E-02    0.462E-02
DAV:   4    -0.976105824931E+02   -0.80533E-05   -0.91710E-05   120   0.355E-02    0.101E-02
DAV:   5    -0.976105816953E+02    0.79778E-06   -0.19121E-05   132   0.160E-02    0.666E-03
DAV:   6    -0.976105836269E+02   -0.19316E-05   -0.37939E-06   132   0.614E-03    0.382E-03
DAV:   7    -0.976105889021E+02   -0.52752E-05   -0.58866E-07    96   0.271E-03    0.151E-03
DAV:   8    -0.976105949831E+02   -0.60810E-05   -0.43982E-07   108   0.193E-03    0.596E-04
DAV:   9    -0.976106019856E+02   -0.70025E-05   -0.39939E-07    96   0.170E-03    0.548E-04
DAV:  10    -0.976106084431E+02   -0.64574E-05   -0.54182E-07   120   0.153E-03    0.260E-04
DAV:  11    -0.976106108267E+02   -0.23837E-05   -0.75442E-08   108   0.754E-04    0.182E-04
DAV:  12    -0.976106126152E+02   -0.17885E-05   -0.48555E-08    96   0.501E-04    0.959E-05
DAV:  13    -0.976106138544E+02   -0.12392E-05   -0.27862E-08   108   0.362E-04    0.840E-05
DAV:  14    -0.976106144630E+02   -0.60858E-06   -0.43309E-09    96   0.205E-04
   6 F= -.97610614E+02 E0= -.97610614E+02  d E =-.159348E-10
       N       E                     dE             d eps       ncg     rms          rms(c)
DAV:   1    -0.976084699220E+02    0.21439E-02   -0.33801E-01    96   0.161E+00    0.248E-01
DAV:   2    -0.976107106103E+02   -0.22407E-02   -0.24048E-02   120   0.469E-01    0.164E-01
DAV:   3    -0.976105702480E+02    0.14036E-03   -0.65280E-04   132   0.968E-02    0.862E-02
DAV:   4    -0.976105663106E+02    0.39374E-05   -0.36889E-04   120   0.644E-02    0.151E-02
DAV:   5    -0.976105579331E+02    0.83775E-05   -0.62333E-05   132   0.267E-02    0.114E-02
DAV:   6    -0.976105583472E+02   -0.41408E-06   -0.11671E-05   120   0.874E-03    0.765E-03
DAV:   7    -0.976105707595E+02   -0.12412E-04   -0.12382E-06   120   0.362E-03    0.321E-03
DAV:   8    -0.976105913500E+02   -0.20590E-04   -0.18490E-06   120   0.403E-03    0.126E-03
DAV:   9    -0.976106079510E+02   -0.16601E-04   -0.12159E-06   120   0.244E-03    0.151E-03
DAV:  10    -0.976106314125E+02   -0.23461E-04   -0.13731E-06   120   0.242E-03    0.656E-04
DAV:  11    -0.976106353939E+02   -0.39814E-05   -0.87646E-08   108   0.840E-04    0.433E-04
DAV:  12    -0.976106446177E+02   -0.92238E-05   -0.29331E-07    96   0.110E-03    0.241E-04
DAV:  13    -0.976106470564E+02   -0.24387E-05   -0.62922E-08   108   0.517E-04    0.227E-04
DAV:  14    -0.976106493015E+02   -0.22451E-05   -0.22152E-08    84   0.401E-04    0.736E-05
DAV:  15    -0.976106501840E+02   -0.88248E-06   -0.94852E-09   108   0.256E-04
   7 F= -.97610650E+02 E0= -.97610650E+02  d E =-.108097E-10
       N       E                     dE             d eps       ncg     rms          rms(c)
DAV:   1    -0.976091126936E+02    0.15366E-02   -0.16715E-01    96   0.124E+00    0.158E-01
DAV:   2    -0.976104817145E+02   -0.13690E-02   -0.14313E-02   132   0.384E-01    0.122E-01
DAV:   3    -0.976104070023E+02    0.74712E-04   -0.31924E-04   144   0.698E-02    0.705E-02
DAV:   4    -0.976103925038E+02    0.14498E-04   -0.19497E-04   120   0.529E-02    0.128E-02
DAV:   5    -0.976103894787E+02    0.30251E-05   -0.53679E-05   132   0.250E-02    0.839E-03
DAV:   6    -0.976103876483E+02    0.18304E-05   -0.68812E-06   132   0.831E-03    0.537E-03
DAV:   7    -0.976103974985E+02   -0.98503E-05   -0.28038E-06   120   0.564E-03    0.217E-03
DAV:   8    -0.976104136256E+02   -0.16127E-04   -0.11927E-06   108   0.388E-03    0.979E-04
DAV:   9    -0.976104270515E+02   -0.13426E-04   -0.94546E-07   120   0.256E-03    0.141E-03
DAV:  10    -0.976104403199E+02   -0.13268E-04   -0.66009E-07   120   0.174E-03    0.510E-04
DAV:  11    -0.976104458638E+02   -0.55439E-05   -0.20296E-07   108   0.945E-04    0.306E-04
DAV:  12    -0.976104505334E+02   -0.46696E-05   -0.12859E-07    96   0.783E-04    0.137E-04
DAV:  13    -0.976104527715E+02   -0.22381E-05   -0.58388E-08   108   0.513E-04    0.112E-04
DAV:  14    -0.976104541337E+02   -0.13621E-05   -0.13637E-08    96   0.319E-04    0.747E-05
DAV:  15    -0.976104547651E+02   -0.63141E-06   -0.41785E-09   108   0.206E-04
   8 F= -.97610455E+02 E0= -.97610455E+02  d E =-.102189E-10
       N       E                     dE             d eps       ncg     rms          rms(c)
DAV:   1    -0.976087314532E+02    0.17227E-02   -0.34227E-01    96   0.167E+00    0.226E-01
DAV:   2    -0.976108163014E+02   -0.20848E-02   -0.21450E-02   132   0.464E-01    0.160E-01
DAV:   3    -0.976107470766E+02    0.69225E-04   -0.51547E-04   132   0.860E-02    0.833E-02
DAV:   4    -0.976107236693E+02    0.23407E-04   -0.22932E-04   132   0.526E-02    0.145E-02
DAV:   5    -0.976107230511E+02    0.61823E-06   -0.34024E-05   132   0.206E-02    0.935E-03
DAV:   6    -0.976107382579E+02   -0.15207E-04   -0.14703E-05   132   0.110E-02    0.516E-03
DAV:   7    -0.976107699803E+02   -0.31722E-04   -0.39423E-06   120   0.625E-03    0.211E-03
DAV:   8    -0.976108051556E+02   -0.35175E-04   -0.33600E-06   108   0.481E-03    0.133E-03
DAV:   9    -0.976108384859E+02   -0.33330E-04   -0.39083E-06   132   0.418E-03    0.106E-03
DAV:  10    -0.976108571057E+02   -0.18620E-04   -0.15089E-06   132   0.257E-03    0.465E-04
DAV:  11    -0.976108652634E+02   -0.81577E-05   -0.37597E-07    96   0.124E-03    0.300E-04
DAV:  12    -0.976108696874E+02   -0.44239E-05   -0.19703E-07   108   0.842E-04    0.180E-04
DAV:  13    -0.976108726316E+02   -0.29442E-05   -0.10580E-07    96   0.629E-04    0.811E-05
DAV:  14    -0.976108734244E+02   -0.79279E-06   -0.75296E-09   108   0.271E-04
   9 F= -.97610873E+02 E0= -.97610873E+02  d E =-.169696E-10
       N       E                     dE             d eps       ncg     rms          rms(c)
DAV:   1    -0.976109259873E+02   -0.53356E-04   -0.16807E-01    96   0.116E+00    0.151E-01
DAV:   2    -0.976119113522E+02   -0.98536E-03   -0.10050E-02   132   0.319E-01    0.102E-01
DAV:   3    -0.976118875058E+02    0.23846E-04   -0.24013E-04   132   0.605E-02    0.525E-02
DAV:   4    -0.976118887753E+02   -0.12695E-05   -0.11322E-04   132   0.407E-02    0.103E-02
DAV:   5    -0.976118848600E+02    0.39154E-05   -0.25371E-05   132   0.186E-02    0.682E-03
DAV:   6    -0.976118844001E+02    0.45990E-06   -0.55676E-06   132   0.709E-03
  10 F= -.97611884E+02 E0= -.97611884E+02  d E =-.128843E-10
       N       E                     dE             d eps       ncg     rms          rms(c)
DAV:   1    -0.976104929151E+02    0.13919E-02   -0.33306E-01    96   0.159E+00    0.197E-01
DAV:   2    -0.976119285045E+02   -0.14356E-02   -0.14248E-02   132   0.374E-01    0.111E-01
DAV:   3    -0.976119671360E+02   -0.38631E-04   -0.44526E-04   132   0.790E-02    0.579E-02
DAV:   4    -0.976119983198E+02   -0.31184E-04   -0.11527E-04   132   0.484E-02    0.117E-02
DAV:   5    -0.976119995317E+02   -0.12119E-05   -0.36425E-05   132   0.224E-02    0.824E-03
DAV:   6    -0.976120010574E+02   -0.15256E-05   -0.54187E-06   132   0.730E-03    0.456E-03
DAV:   7    -0.976120047079E+02   -0.36505E-05   -0.65554E-07   108   0.337E-03    0.209E-03
DAV:   8    -0.976120105285E+02   -0.58207E-05   -0.74903E-07    96   0.344E-03    0.886E-04
DAV:   9    -0.976120162170E+02   -0.56885E-05   -0.38409E-07   108   0.237E-03    0.690E-04
DAV:  10    -0.976120225699E+02   -0.63529E-05   -0.33118E-07    96   0.203E-03    0.317E-04
DAV:  11    -0.976120252857E+02   -0.27158E-05   -0.14293E-07   108   0.121E-03    0.301E-04
DAV:  12    -0.976120269978E+02   -0.17121E-05   -0.23794E-08    96   0.517E-04    0.178E-04
DAV:  13    -0.976120298793E+02   -0.28815E-05   -0.97998E-08    96   0.648E-04    0.114E-04
DAV:  14    -0.976120307519E+02   -0.87261E-06   -0.17123E-08   108   0.314E-04
  11 F= -.97612031E+02 E0= -.97612031E+02  d E =-.135154E-10
       N       E                     dE             d eps       ncg     rms          rms(c)
DAV:   1    -0.976094025318E+02    0.26273E-02   -0.16820E-01    96   0.115E+00    0.149E-01
DAV:   2    -0.976103453180E+02   -0.94279E-03   -0.95538E-03   132   0.307E-01    0.951E-02
DAV:   3    -0.976103308084E+02    0.14510E-04   -0.25300E-04   144   0.607E-02    0.498E-02
DAV:   4    -0.976103384138E+02   -0.76055E-05   -0.10712E-04   132   0.421E-02    0.107E-02
DAV:   5    -0.976103361860E+02    0.22278E-05   -0.30619E-05   132   0.201E-02    0.743E-03
DAV:   6    -0.976103350471E+02    0.11389E-05   -0.55091E-06   132   0.733E-03    0.392E-03
DAV:   7    -0.976103376290E+02   -0.25820E-05   -0.13112E-06   120   0.425E-03    0.174E-03
DAV:   8    -0.976103429964E+02   -0.53674E-05   -0.52337E-07    84   0.269E-03    0.750E-04
DAV:   9    -0.976103496115E+02   -0.66151E-05   -0.47399E-07    96   0.217E-03    0.716E-04
DAV:  10    -0.976103582909E+02   -0.86794E-05   -0.51353E-07    96   0.192E-03    0.330E-04
DAV:  11    -0.976103614488E+02   -0.31579E-05   -0.13689E-07   108   0.103E-03    0.190E-04
DAV:  12    -0.976103639966E+02   -0.25477E-05   -0.59174E-08    84   0.608E-04    0.128E-04
DAV:  13    -0.976103657883E+02   -0.17918E-05   -0.40938E-08    96   0.460E-04    0.724E-05
DAV:  14    -0.976103667689E+02   -0.98058E-06   -0.12583E-08    96   0.282E-04
  12 F= -.97610367E+02 E0= -.97610367E+02  d E =-.144547E-10
       N       E                     dE             d eps       ncg     rms          rms(c)
DAV:   1    -0.976075183211E+02    0.28475E-02   -0.34719E-01    96   0.163E+00    0.240E-01
DAV:   2    -0.976102267630E+02   -0.27084E-02   -0.27452E-02   132   0.511E-01    0.180E-01
DAV:   3    -0.976101024406E+02    0.12432E-03   -0.59750E-04   156   0.930E-02    0.104E-01
DAV:   4    -0.976100901207E+02    0.12320E-04   -0.43373E-04   132   0.744E-02    0.173E-02
DAV:   5    -0.976100861403E+02    0.39804E-05   -0.11753E-04   132   0.359E-02    0.126E-02
DAV:   6    -0.976100889547E+02   -0.28144E-05   -0.21900E-05   132   0.127E-02    0.784E-03
DAV:   7    -0.976101111299E+02   -0.22175E-04   -0.58633E-06   132   0.707E-03    0.311E-03
DAV:   8    -0.976101448519E+02   -0.33722E-04   -0.33846E-06   108   0.454E-03    0.124E-03
DAV:   9    -0.976101757762E+02   -0.30924E-04   -0.33821E-06   120   0.380E-03    0.154E-03
DAV:  10    -0.976101947501E+02   -0.18974E-04   -0.13786E-06   132   0.250E-03    0.700E-04
DAV:  11    -0.976102051330E+02   -0.10383E-04   -0.65332E-07    84   0.162E-03    0.316E-04
DAV:  12    -0.976102096199E+02   -0.44869E-05   -0.21102E-07    96   0.915E-04    0.219E-04
DAV:  13    -0.976102125652E+02   -0.29453E-05   -0.10897E-07    96   0.652E-04    0.113E-04
DAV:  14    -0.976102135962E+02   -0.10311E-05   -0.16054E-08   108   0.324E-04    0.565E-05
DAV:  15    -0.976102142846E+02   -0.68843E-06   -0.67284E-09    96   0.231E-04
  13 F= -.97610214E+02 E0= -.97610214E+02  d E =-.119514E-10
       N       E                     dE             d eps       ncg     rms          rms(c)
DAV:   1    -0.976098928008E+02    0.32080E-03   -0.18316E-01    96   0.127E+00    0.163E-01
DAV:   2    -0.976112578766E+02   -0.13651E-02   -0.15074E-02   132   0.384E-01    0.110E-01
DAV:   3    -0.976111978651E+02    0.60012E-04   -0.29909E-04   144   0.642E-02    0.649E-02
DAV:   4    -0.976111698449E+02    0.28020E-04   -0.14868E-04   120   0.471E-02    0.113E-02
DAV:   5    -0.976111656964E+02    0.41485E-05   -0.44720E-05   132   0.229E-02    0.795E-03
DAV:   6    -0.976111643320E+02    0.13644E-05   -0.50451E-06   108   0.775E-03    0.481E-03
DAV:   7    -0.976111744822E+02   -0.10150E-04   -0.30541E-06   144   0.595E-03    0.205E-03
DAV:   8    -0.976111926316E+02   -0.18149E-04   -0.12614E-06    96   0.402E-03    0.942E-04
DAV:   9    -0.976112098355E+02   -0.17204E-04   -0.12853E-06   108   0.313E-03    0.118E-03
DAV:  10    -0.976112235106E+02   -0.13675E-04   -0.72541E-07    96   0.206E-03    0.371E-04
DAV:  11    -0.976112292836E+02   -0.57730E-05   -0.21906E-07    96   0.104E-03    0.221E-04
DAV:  12    -0.976112329454E+02   -0.36617E-05   -0.11040E-07    96   0.678E-04    0.124E-04
DAV:  13    -0.976112354118E+02   -0.24664E-05   -0.76620E-08    96   0.547E-04    0.903E-05
DAV:  14    -0.976112365596E+02   -0.11478E-05   -0.20916E-08    96   0.339E-04    0.373E-05
DAV:  15    -0.976112369205E+02   -0.36094E-06   -0.97225E-10    96   0.176E-04
  14 F= -.97611237E+02 E0= -.97611237E+02  d E =-.186089E-10
       N       E                     dE             d eps       ncg     rms          rms(c)
DAV:   1    -0.976100453214E+02    0.11912E-02   -0.40019E-01    96   0.171E+00    0.215E-01
DAV:   2    -0.976115263873E+02   -0.14811E-02   -0.18216E-02   120   0.391E-01    0.111E-01
DAV:   3    -0.976114447913E+02    0.81596E-04   -0.32731E-04   144   0.582E-02    0.570E-02
DAV:   4    -0.976113913381E+02    0.53453E-04   -0.82638E-05   132   0.334E-02    0.114E-02
DAV:   5    -0.976113790675E+02    0.12271E-04   -0.15239E-05   132   0.154E-02    0.623E-03
DAV:   6    -0.976113827053E+02   -0.36378E-05   -0.67736E-06   132   0.895E-03    0.315E-03
DAV:   7    -0.976113983029E+02   -0.15598E-04   -0.29786E-06   108   0.589E-03    0.196E-03
DAV:   8    -0.976114198891E+02   -0.21586E-04   -0.12356E-06   108   0.336E-03    0.107E-03
DAV:   9    -0.976114409383E+02   -0.21049E-04   -0.12766E-06    96   0.268E-03    0.746E-04
DAV:  10    -0.976114596726E+02   -0.18734E-04   -0.94160E-07   108   0.200E-03    0.351E-04
DAV:  11    -0.976114691958E+02   -0.95231E-05   -0.24692E-07   108   0.111E-03    0.249E-04
DAV:  12    -0.976114751300E+02   -0.59342E-05   -0.14048E-07    84   0.748E-04    0.143E-04
DAV:  13    -0.976114774071E+02   -0.22771E-05   -0.36340E-08   108   0.435E-04    0.714E-05
DAV:  14    -0.976114787061E+02   -0.12990E-05   -0.96644E-09   108   0.287E-04    0.488E-05
DAV:  15    -0.976114791488E+02   -0.44276E-06    0.48916E-10   108   0.160E-04
  15 F= -.97611479E+02 E0= -.97611479E+02  d E =-.899820E-11
       N       E                     dE             d eps       ncg     rms          rms(c)
DAV:   1    -0.976098236997E+02    0.16550E-02   -0.20194E-01    96   0.121E+00    0.150E-01
DAV:   2    -0.976105889641E+02   -0.76526E-03   -0.93816E-03   132   0.285E-01    0.833E-02
DAV:   3    -0.976105388333E+02    0.50131E-04   -0.16139E-04   144   0.426E-02    0.429E-02
DAV:   4    -0.976105052983E+02    0.33535E-04   -0.47813E-05   120   0.269E-02    0.786E-03
DAV:   5    -0.976105011536E+02    0.41447E-05   -0.11141E-05   132   0.125E-02    0.463E-03
DAV:   6    -0.976105077029E+02   -0.65493E-05   -0.41237E-06   132   0.603E-03    0.261E-03
DAV:   7    -0.976105204651E+02   -0.12762E-04   -0.12418E-06   108   0.345E-03    0.144E-03
DAV:   8    -0.976105395533E+02   -0.19088E-04   -0.17664E-06   108   0.318E-03    0.775E-04
DAV:   9    -0.976105518198E+02   -0.12266E-04   -0.96182E-07   108   0.223E-03    0.639E-04
DAV:  10    -0.976105632114E+02   -0.11392E-04   -0.85859E-07   108   0.185E-03    0.239E-04
DAV:  11    -0.976105677666E+02   -0.45552E-05   -0.18163E-07   108   0.907E-04    0.230E-04
DAV:  12    -0.976105715808E+02   -0.38142E-05   -0.18542E-07    96   0.825E-04    0.879E-05
DAV:  13    -0.976105725836E+02   -0.10027E-05   -0.25853E-08   108   0.355E-04    0.603E-05
DAV:  14    -0.976105733893E+02   -0.80568E-06   -0.63501E-09    96   0.249E-04
  16 F= -.97610573E+02 E0= -.97610573E+02  d E =-.158700E-10
       N       E                     dE             d eps       ncg     rms          rms(c)
DAV:   1    -0.976090575535E+02    0.15150E-02   -0.40462E-01   120   0.172E+00    0.214E-01
DAV:   2    -0.976106770581E+02   -0.16195E-02   -0.19896E-02   120   0.423E-01    0.130E-01
DAV:   3    -0.976105530025E+02    0.12406E-03   -0.28943E-04   132   0.598E-02    0.681E-02
DAV:   4    -0.976104930320E+02    0.59970E-04   -0.15522E-04   132   0.456E-02    0.110E-02
DAV:   5    -0.976104850788E+02    0.79532E-05   -0.39137E-05   132   0.221E-02    0.703E-03
DAV:   6    -0.976104960561E+02   -0.10977E-04   -0.11209E-05   132   0.864E-03    0.390E-03
DAV:   7    -0.976105190835E+02   -0.23027E-04   -0.12138E-06    96   0.315E-03    0.204E-03
DAV:   8    -0.976105565435E+02   -0.37460E-04   -0.42673E-06   120   0.438E-03    0.121E-03
DAV:   9    -0.976105815895E+02   -0.25046E-04   -0.16833E-06   120   0.279E-03    0.733E-04
DAV:  10    -0.976106007864E+02   -0.19197E-04   -0.14134E-06    96   0.234E-03    0.410E-04
DAV:  11    -0.976106094783E+02   -0.86919E-05   -0.24553E-07   108   0.117E-03    0.238E-04
DAV:  12    -0.976106155772E+02   -0.60989E-05   -0.24926E-07    96   0.950E-04    0.159E-04
DAV:  13    -0.976106177259E+02   -0.21488E-05   -0.33139E-08   108   0.420E-04    0.821E-05
DAV:  14    -0.976106193308E+02   -0.16048E-05   -0.18964E-08    96   0.332E-04    0.647E-05
DAV:  15    -0.976106199918E+02   -0.66106E-06   -0.18292E-09   108   0.198E-04
  17 F= -.97610620E+02 E0= -.97610620E+02  d E =-.128516E-10
       N       E                     dE             d eps       ncg     rms          rms(c)
DAV:   1    -0.976111649743E+02   -0.54564E-03   -0.20106E-01    96   0.122E+00    0.147E-01
DAV:   2    -0.976120183050E+02   -0.85333E-03   -0.10421E-02   120   0.298E-01    0.873E-02
DAV:   3    -0.976119652935E+02    0.53012E-04   -0.16935E-04   132   0.435E-02    0.466E-02
DAV:   4    -0.976119357840E+02    0.29509E-04   -0.66144E-05   132   0.308E-02    0.763E-03
DAV:   5    -0.976119317530E+02    0.40310E-05   -0.16642E-05   132   0.147E-02    0.477E-03
DAV:   6    -0.976119371296E+02   -0.53766E-05   -0.51516E-06   132   0.609E-03    0.291E-03
DAV:   7    -0.976119485876E+02   -0.11458E-04   -0.67068E-07    96   0.264E-03    0.152E-03
DAV:   8    -0.976119677303E+02   -0.19143E-04   -0.21188E-06   108   0.316E-03    0.869E-04
DAV:   9    -0.976119793403E+02   -0.11610E-04   -0.67378E-07    84   0.201E-03    0.614E-04
DAV:  10    -0.976119923669E+02   -0.13027E-04   -0.12855E-06    96   0.210E-03    0.311E-04
DAV:  11    -0.976119970896E+02   -0.47227E-05   -0.16727E-07    96   0.106E-03    0.236E-04
DAV:  12    -0.976120001830E+02   -0.30934E-05   -0.10918E-07    84   0.726E-04    0.173E-04
DAV:  13    -0.976120016548E+02   -0.14718E-05   -0.37079E-08   108   0.433E-04    0.842E-05
DAV:  14    -0.976120024973E+02   -0.84249E-06   -0.49462E-09    84   0.254E-04
  18 F= -.97612002E+02 E0= -.97612002E+02  d E =-.103924E-10
       N       E                     dE             d eps       ncg     rms          rms(c)
DAV:   1    -0.976105214224E+02    0.14802E-02   -0.39893E-01    96   0.164E+00    0.190E-01
DAV:   2    -0.976120508999E+02   -0.15295E-02   -0.18338E-02   132   0.373E-01    0.925E-02
DAV:   3    -0.976120115219E+02    0.39378E-04   -0.31826E-04   132   0.587E-02    0.505E-02
DAV:   4    -0.976119854248E+02    0.26097E-04   -0.78616E-05   132   0.391E-02    0.957E-03
DAV:   5    -0.976119799260E+02    0.54988E-05   -0.29707E-05   132   0.201E-02    0.673E-03
DAV:   6    -0.976119812573E+02   -0.13313E-05   -0.43333E-06   132   0.677E-03    0.429E-03
DAV:   7    -0.976119882029E+02   -0.69455E-05   -0.83741E-07   108   0.386E-03    0.168E-03
DAV:   8    -0.976119986228E+02   -0.10420E-04   -0.13530E-06   120   0.399E-03    0.126E-03
DAV:   9    -0.976120146830E+02   -0.16060E-04   -0.11640E-06   108   0.333E-03    0.632E-04
DAV:  10    -0.976120221133E+02   -0.74303E-05   -0.37933E-07   108   0.183E-03    0.612E-04
DAV:  11    -0.976120271164E+02   -0.50031E-05   -0.12472E-07   108   0.975E-04    0.293E-04
DAV:  12    -0.976120325297E+02   -0.54132E-05   -0.17898E-07   108   0.899E-04    0.255E-04
DAV:  13    -0.976120341286E+02   -0.15989E-05   -0.25389E-08   108   0.413E-04    0.137E-04
DAV:  14    -0.976120360793E+02   -0.19507E-05   -0.43445E-08    96   0.400E-04    0.553E-05
DAV:  15    -0.976120367205E+02   -0.64117E-06   -0.24190E-09   108   0.198E-04
  19 F= -.97612037E+02 E0= -.97612037E+02  d E =-.213948E-10
       N       E                     dE             d eps       ncg     rms          rms(c)
DAV:   1    -0.976097358276E+02    0.23003E-02   -0.19903E-01    96   0.136E+00    0.152E-01
DAV:   2    -0.976108258627E+02   -0.10900E-02   -0.13160E-02   144   0.352E-01    0.831E-02
DAV:   3    -0.976107778176E+02    0.48045E-04   -0.23762E-04   132   0.536E-02    0.481E-02
DAV:   4    -0.976107467591E+02    0.31058E-04   -0.80368E-05   132   0.374E-02    0.949E-03
DAV:   5    -0.976107392368E+02    0.75223E-05   -0.26892E-05   132   0.186E-02    0.643E-03
DAV:   6    -0.976107399380E+02   -0.70115E-06   -0.37908E-06   132   0.651E-03
  20 F= -.97610740E+02 E0= -.97610740E+02  d E =-.135367E-10
       N       E                     dE             d eps       ncg     rms          rms(c)
DAV:   1    -0.976094386098E+02    0.13006E-02   -0.40567E-01   108   0.187E+00    0.215E-01
DAV:   2    -0.976110195890E+02   -0.15810E-02   -0.18856E-02   132   0.447E-01    0.125E-01
DAV:   3    -0.976109438213E+02    0.75768E-04   -0.27701E-04   120   0.593E-02    0.669E-02
DAV:   4    -0.976108952377E+02    0.48584E-04   -0.13546E-04   120   0.436E-02    0.110E-02
DAV:   5    -0.976108861585E+02    0.90792E-05   -0.27462E-05   132   0.193E-02    0.690E-03
DAV:   6    -0.976108918867E+02   -0.57283E-05   -0.99855E-06   120   0.928E-03    0.372E-03
DAV:   7    -0.976109075691E+02   -0.15682E-04   -0.17357E-06   120   0.438E-03    0.199E-03
DAV:   8    -0.976109325726E+02   -0.25003E-04   -0.26564E-06    96   0.391E-03    0.975E-04
DAV:   9    -0.976109483319E+02   -0.15759E-04   -0.11991E-06   108   0.252E-03    0.792E-04
DAV:  10    -0.976109653305E+02   -0.16999E-04   -0.15231E-06    96   0.245E-03    0.314E-04
DAV:  11    -0.976109703293E+02   -0.49988E-05   -0.19173E-07   108   0.102E-03    0.286E-04
DAV:  12    -0.976109752966E+02   -0.49674E-05   -0.25961E-07    96   0.103E-03    0.112E-04
DAV:  13    -0.976109764754E+02   -0.11788E-05   -0.42715E-08   108   0.458E-04    0.946E-05
DAV:  14    -0.976109775442E+02   -0.10688E-05   -0.12048E-08    96   0.310E-04    0.384E-05
DAV:  15    -0.976109780153E+02   -0.47114E-06   -0.43418E-09   108   0.211E-04
  21 F= -.97610978E+02 E0= -.97610978E+02  d E =-.130727E-10
       N       E                     dE             d eps       ncg     rms          rms(c)
DAV:   1    -0.976105450952E+02    0.43245E-03   -0.20088E-01   108   0.132E+00    0.150E-01
DAV:   2    -0.976113216892E+02   -0.77659E-03   -0.95348E-03   120   0.325E-01    0.924E-02
DAV:   3    -0.976112561590E+02    0.65530E-04   -0.13265E-04   132   0.427E-02    0.490E-02
DAV:   4    -0.976112207184E+02    0.35441E-04   -0.75148E-05   132   0.325E-02    0.768E-03
DAV:   5    -0.976112160277E+02    0.46908E-05   -0.18868E-05   132   0.158E-02    0.517E-03
DAV:   6    -0.976112217121E+02   -0.56844E-05   -0.56214E-06   132   0.629E-03    0.294E-03
DAV:   7    -0.976112349171E+02   -0.13205E-04   -0.56670E-07    96   0.220E-03    0.150E-03
DAV:   8    -0.976112568784E+02   -0.21961E-04   -0.23628E-06   108   0.320E-03    0.895E-04
DAV:   9    -0.976112725787E+02   -0.15700E-04   -0.10443E-06   108   0.219E-03    0.593E-04
DAV:  10    -0.976112832383E+02   -0.10660E-04   -0.64140E-07    96   0.166E-03    0.290E-04
DAV:  11    -0.976112881705E+02   -0.49322E-05   -0.20261E-07    96   0.900E-04    0.165E-04
DAV:  12    -0.976112918313E+02   -0.36607E-05   -0.14321E-07    96   0.728E-04    0.123E-04
DAV:  13    -0.976112928265E+02   -0.99522E-06   -0.14119E-08   108   0.312E-04
  22 F= -.97611293E+02 E0= -.97611293E+02  d E =-.104732E-10
       N       E                     dE             d eps       ncg     rms          rms(c)
DAV:   1    -0.976099980401E+02    0.12938E-02   -0.39788E-01    96   0.189E+00    0.214E-01
DAV:   2    -0.976114094645E+02   -0.14114E-02   -0.17251E-02   132   0.431E-01    0.111E-01
DAV:   3    -0.976113252616E+02    0.84203E-04   -0.30708E-04   132   0.628E-02    0.560E-02
DAV:   4    -0.976112850566E+02    0.40205E-04   -0.96157E-05   120   0.394E-02    0.111E-02
DAV:   5    -0.976112751406E+02    0.99159E-05   -0.21500E-05   132   0.183E-02    0.688E-03
DAV:   6    -0.976112781333E+02   -0.29927E-05   -0.71156E-06   132   0.855E-03    0.382E-03
DAV:   7    -0.976112892163E+02   -0.11083E-04   -0.98369E-07    84   0.422E-03    0.189E-03
DAV:   8    -0.976113089465E+02   -0.19730E-04   -0.17741E-06    96   0.413E-03    0.121E-03
DAV:   9    -0.976113274447E+02   -0.18498E-04   -0.12273E-06   108   0.302E-03    0.818E-04
DAV:  10    -0.976113401787E+02   -0.12734E-04   -0.50395E-07    96   0.180E-03    0.392E-04
DAV:  11    -0.976113469303E+02   -0.67515E-05   -0.19413E-07    96   0.983E-04    0.276E-04
DAV:  12    -0.976113540717E+02   -0.71415E-05   -0.23103E-07    96   0.975E-04    0.208E-04
DAV:  13    -0.976113559558E+02   -0.18841E-05   -0.31954E-08   108   0.436E-04    0.127E-04
DAV:  14    -0.976113578927E+02   -0.19369E-05   -0.26995E-08    96   0.368E-04    0.582E-05
DAV:  15    -0.976113585221E+02   -0.62940E-06   -0.14900E-09   108   0.203E-04
  23 F= -.97611359E+02 E0= -.97611359E+02  d E =-.143132E-10
       N       E                     dE             d eps       ncg     rms          rms(c)
DAV:   1    -0.976109070595E+02    0.45083E-03   -0.20055E-01    96   0.134E+00    0.146E-01
DAV:   2    -0.976116531091E+02   -0.74605E-03   -0.92901E-03   120   0.316E-01    0.843E-02
DAV:   3    -0.976115950249E+02    0.58084E-04   -0.13252E-04   132   0.405E-02    0.449E-02
DAV:   4    -0.976115521568E+02    0.42868E-04   -0.48845E-05   120   0.257E-02    0.767E-03
DAV:   5    -0.976115490736E+02    0.30832E-05   -0.76151E-06   132   0.115E-02    0.438E-03
DAV:   6    -0.976115602757E+02   -0.11202E-04   -0.48355E-06   120   0.790E-03    0.229E-03
DAV:   7    -0.976115778590E+02   -0.17583E-04   -0.22412E-06    96   0.497E-03    0.150E-03
DAV:   8    -0.976115983699E+02   -0.20511E-04   -0.14836E-06   108   0.314E-03    0.795E-04
DAV:   9    -0.976116157330E+02   -0.17363E-04   -0.15740E-06    96   0.276E-03    0.554E-04
DAV:  10    -0.976116281630E+02   -0.12430E-04   -0.10847E-06   108   0.212E-03    0.239E-04
DAV:  11    -0.976116328423E+02   -0.46793E-05   -0.21524E-07   108   0.102E-03    0.176E-04
DAV:  12    -0.976116352729E+02   -0.24306E-05   -0.97765E-08    96   0.624E-04    0.925E-05
DAV:  13    -0.976116363515E+02   -0.10786E-05   -0.29254E-08    96   0.378E-04    0.466E-05
DAV:  14    -0.976116369576E+02   -0.60609E-06   -0.58243E-09    96   0.250E-04
  24 F= -.97611637E+02 E0= -.97611637E+02  d E =-.108027E-10
       N       E                     dE             d eps       ncg     rms          rms(c)
DAV:   1    -0.976105404979E+02    0.10959E-02   -0.40433E-01    96   0.188E+00    0.183E-01
DAV:   2    -0.976118538511E+02   -0.13134E-02   -0.16135E-02   144   0.416E-01    0.100E-01
DAV:   3    -0.976117879593E+02    0.65892E-04   -0.26443E-04   132   0.563E-02    0.508E-02
DAV:   4    -0.976117438973E+02    0.44062E-04   -0.71184E-05   132   0.354E-02    0.959E-03
DAV:   5    -0.976117344043E+02    0.94930E-05   -0.19639E-05   132   0.178E-02    0.617E-03
DAV:   6    -0.976117377915E+02   -0.33872E-05   -0.61819E-06   132   0.886E-03    0.367E-03
DAV:   7    -0.976117498947E+02   -0.12103E-04   -0.13691E-06    96   0.500E-03    0.172E-03
DAV:   8    -0.976117673259E+02   -0.17431E-04   -0.10826E-06    96   0.388E-03    0.113E-03
DAV:   9    -0.976117887289E+02   -0.21403E-04   -0.17574E-06   108   0.350E-03    0.773E-04
DAV:  10    -0.976118030766E+02   -0.14348E-04   -0.71272E-07    96   0.223E-03    0.464E-04
DAV:  11    -0.976118085535E+02   -0.54769E-05   -0.16257E-07   108   0.962E-04    0.347E-04
DAV:  12    -0.976118160627E+02   -0.75091E-05   -0.23404E-07    96   0.104E-03    0.206E-04
DAV:  13    -0.976118178256E+02   -0.17629E-05   -0.38584E-08   108   0.472E-04    0.127E-04
DAV:  14    -0.976118198751E+02   -0.20496E-05   -0.26259E-08    84   0.396E-04    0.777E-05
DAV:  15    -0.976118206019E+02   -0.72679E-06   -0.45130E-09    96   0.239E-04
  25 F= -.97611821E+02 E0= -.97611821E+02  d E =-.164495E-10
       N       E                     dE             d eps       ncg     rms          rms(c)
DAV:   1    -0.976095817635E+02    0.22381E-02   -0.19943E-01    96   0.138E+00    0.147E-01
DAV:   2    -0.976107039912E+02   -0.11222E-02   -0.13518E-02   132   0.359E-01    0.853E-02
DAV:   3    -0.976106653849E+02    0.38606E-04   -0.20114E-04   132   0.465E-02    0.505E-02
DAV:   4    -0.976106304680E+02    0.34917E-04   -0.68275E-05   120   0.316E-02    0.861E-03
DAV:   5    -0.976106241937E+02    0.62743E-05   -0.16133E-05   132   0.149E-02    0.519E-03
DAV:   6    -0.976106281654E+02   -0.39716E-05   -0.45486E-06   132   0.756E-03    0.282E-03
DAV:   7    -0.976106406997E+02   -0.12534E-04   -0.16279E-06   108   0.461E-03    0.139E-03
DAV:   8    -0.976106589157E+02   -0.18216E-04   -0.11538E-06   108   0.327E-03    0.810E-04
DAV:   9    -0.976106748855E+02   -0.15970E-04   -0.10924E-06   108   0.261E-03    0.614E-04
DAV:  10    -0.976106882834E+02   -0.13398E-04   -0.89367E-07   108   0.200E-03    0.317E-04
DAV:  11    -0.976106921161E+02   -0.38327E-05   -0.90835E-08   108   0.774E-04    0.244E-04
DAV:  12    -0.976106968183E+02   -0.47022E-05   -0.20226E-07    84   0.924E-04    0.111E-04
DAV:  13    -0.976106976883E+02   -0.86997E-06   -0.20285E-08   108   0.371E-04
  26 F= -.97610698E+02 E0= -.97610698E+02  d E =-.133916E-10
       N       E                     dE             d eps       ncg     rms          rms(c)
DAV:   1    -0.976093687610E+02    0.13281E-02   -0.40606E-01    96   0.186E+00    0.214E-01
DAV:   2    -0.976109284469E+02   -0.15597E-02   -0.19127E-02   132   0.451E-01    0.127E-01
DAV:   3    -0.976108129862E+02    0.11546E-03   -0.27507E-04   132   0.595E-02    0.682E-02
DAV:   4    -0.976107510540E+02    0.61932E-04   -0.13809E-04   132   0.447E-02    0.110E-02
DAV:   5    -0.976107454780E+02    0.55760E-05   -0.30893E-05   132   0.203E-02    0.701E-03
DAV:   6    -0.976107577359E+02   -0.12258E-04   -0.11348E-05   132   0.955E-03    0.395E-03
DAV:   7    -0.976107809991E+02   -0.23263E-04   -0.18014E-06    96   0.430E-03    0.214E-03
DAV:   8    -0.976108191690E+02   -0.38170E-04   -0.42897E-06   108   0.466E-03    0.115E-03
DAV:   9    -0.976108403412E+02   -0.21172E-04   -0.15007E-06   108   0.277E-03    0.873E-04
DAV:  10    -0.976108626520E+02   -0.22311E-04   -0.19733E-06    96   0.278E-03    0.347E-04
DAV:  11    -0.976108692547E+02   -0.66026E-05   -0.22034E-07   108   0.111E-03    0.320E-04
DAV:  12    -0.976108759272E+02   -0.66725E-05   -0.31579E-07    84   0.113E-03    0.121E-04
DAV:  13    -0.976108773335E+02   -0.14063E-05   -0.43376E-08   108   0.467E-04    0.986E-05
DAV:  14    -0.976108788721E+02   -0.15386E-05   -0.17532E-08    96   0.351E-04    0.438E-05
DAV:  15    -0.976108794689E+02   -0.59685E-06   -0.53303E-09   108   0.223E-04
  27 F= -.97610879E+02 E0= -.97610879E+02  d E =-.134279E-10
       N       E                     dE             d eps       ncg     rms          rms(c)
DAV:   1    -0.976104551147E+02    0.42376E-03   -0.20133E-01    96   0.134E+00    0.151E-01
DAV:   2    -0.976111809811E+02   -0.72587E-03   -0.88594E-03   132   0.316E-01    0.786E-02
DAV:   3    -0.976111360651E+02    0.44916E-04   -0.13561E-04   132   0.412E-02    0.415E-02
DAV:   4    -0.976111078573E+02    0.28208E-04   -0.46463E-05   132   0.263E-02    0.783E-03
DAV:   5    -0.976111012052E+02    0.66520E-05   -0.98833E-06   132   0.126E-02    0.450E-03
DAV:   6    -0.976111022658E+02   -0.10606E-05   -0.34721E-06   120   0.688E-03    0.237E-03
DAV:   7    -0.976111095544E+02   -0.72886E-05   -0.12036E-06   120   0.431E-03    0.136E-03
DAV:   8    -0.976111213608E+02   -0.11806E-04   -0.70126E-07    96   0.293E-03    0.749E-04
DAV:   9    -0.976111322500E+02   -0.10889E-04   -0.72761E-07    96   0.222E-03    0.569E-04
DAV:  10    -0.976111424238E+02   -0.10174E-04   -0.43451E-07    96   0.150E-03    0.240E-04
DAV:  11    -0.976111481751E+02   -0.57513E-05   -0.15725E-07   108   0.833E-04    0.202E-04
DAV:  12    -0.976111521413E+02   -0.39662E-05   -0.67809E-08    96   0.558E-04    0.878E-05
DAV:  13    -0.976111541886E+02   -0.20473E-05   -0.32407E-08   108   0.393E-04    0.535E-05
DAV:  14    -0.976111552817E+02   -0.10931E-05   -0.77003E-09   108   0.254E-04    0.342E-05
DAV:  15    -0.976111556093E+02   -0.32761E-06    0.24252E-09   108   0.137E-04
  28 F= -.97611156E+02 E0= -.97611156E+02  d E =-.152524E-10
       N       E                     dE             d eps       ncg     rms          rms(c)
DAV:   1    -0.976095967984E+02    0.15585E-02   -0.39825E-01    96   0.190E+00    0.217E-01
DAV:   2    -0.976111380218E+02   -0.15412E-02   -0.18884E-02   132   0.454E-01    0.118E-01
DAV:   3    -0.976110340575E+02    0.10396E-03   -0.27938E-04   132   0.594E-02    0.639E-02
DAV:   4    -0.976109600207E+02    0.74037E-04   -0.10271E-04   132   0.383E-02    0.115E-02
DAV:   5    -0.976109550397E+02    0.49810E-05   -0.17799E-05   132   0.169E-02    0.697E-03
DAV:   6    -0.976109713982E+02   -0.16359E-04   -0.83895E-06   132   0.103E-02    0.347E-03
DAV:   7    -0.976109995858E+02   -0.28188E-04   -0.42229E-06   108   0.684E-03    0.213E-03
DAV:   8    -0.976110353572E+02   -0.35771E-04   -0.31248E-06   108   0.466E-03    0.113E-03
DAV:   9    -0.976110608862E+02   -0.25529E-04   -0.23914E-06   108   0.356E-03    0.833E-04
DAV:  10    -0.976110808114E+02   -0.19925E-04   -0.17556E-06   108   0.272E-03    0.367E-04
DAV:  11    -0.976110878786E+02   -0.70672E-05   -0.31261E-07   108   0.124E-03    0.265E-04
DAV:  12    -0.976110933259E+02   -0.54473E-05   -0.28125E-07    96   0.103E-03    0.149E-04
DAV:  13    -0.976110949694E+02   -0.16436E-05   -0.54446E-08    96   0.509E-04    0.773E-05
DAV:  14    -0.976110959983E+02   -0.10289E-05   -0.13262E-08    96   0.328E-04    0.489E-05
DAV:  15    -0.976110963207E+02   -0.32234E-06    0.76803E-10   108   0.167E-04
  29 F= -.97611096E+02 E0= -.97611096E+02  d E =-.969190E-11
       N       E                     dE             d eps       ncg     rms          rms(c)
DAV:   1    -0.976113004209E+02   -0.20442E-03   -0.19934E-01    96   0.132E+00    0.146E-01
DAV:   2    -0.976119715233E+02   -0.67110E-03   -0.81173E-03   132   0.286E-01    0.695E-02
DAV:   3    -0.976119439525E+02    0.27571E-04   -0.15490E-04   132   0.448E-02    0.355E-02
DAV:   4    -0.976119312480E+02    0.12705E-04   -0.41387E-05   120   0.283E-02    0.749E-03
DAV:   5    -0.976119285187E+02    0.27293E-05   -0.13265E-05   132   0.138E-02    0.508E-03
DAV:   6    -0.976119293734E+02   -0.85474E-06   -0.21807E-06   120   0.492E-03
  30 F= -.97611929E+02 E0= -.97611929E+02  d E =-.125074E-10
       N       E                     dE             d eps       ncg     rms          rms(c)
DAV:   1    -0.976107988501E+02    0.11297E-02   -0.40611E-01    96   0.186E+00    0.187E-01
DAV:   2    -0.976121031763E+02   -0.13043E-02   -0.15634E-02   144   0.397E-01    0.916E-02
DAV:   3    -0.976120665117E+02    0.36665E-04   -0.27999E-04   120   0.589E-02    0.476E-02
DAV:   4    -0.976120487145E+02    0.17797E-04   -0.71905E-05   120   0.382E-02    0.947E-03
DAV:   5    -0.976120461095E+02    0.26050E-05   -0.25624E-05   132   0.191E-02    0.692E-03
DAV:   6    -0.976120484783E+02   -0.23688E-05   -0.40639E-06   132   0.671E-03    0.457E-03
DAV:   7    -0.976120556178E+02   -0.71396E-05   -0.67641E-07   108   0.364E-03    0.190E-03
DAV:   8    -0.976120661478E+02   -0.10530E-04   -0.11541E-06    84   0.384E-03    0.116E-03
DAV:   9    -0.976120826445E+02   -0.16497E-04   -0.14574E-06   108   0.358E-03    0.724E-04
DAV:  10    -0.976120897676E+02   -0.71231E-05   -0.39688E-07   108   0.196E-03    0.677E-04
DAV:  11    -0.976120924387E+02   -0.26711E-05   -0.59310E-08    96   0.792E-04    0.426E-04
DAV:  12    -0.976120987487E+02   -0.63101E-05   -0.23383E-07    96   0.111E-03    0.295E-04
DAV:  13    -0.976120996584E+02   -0.90964E-06   -0.25899E-08   108   0.469E-04
  31 F= -.97612100E+02 E0= -.97612100E+02  d E =-.150403E-10
       N       E                     dE             d eps       ncg     rms          rms(c)
DAV:   1    -0.976103007226E+02    0.17980E-02   -0.19690E-01    96   0.133E+00    0.139E-01
DAV:   2    -0.976112907823E+02   -0.99006E-03   -0.11974E-02   132   0.320E-01    0.766E-02
DAV:   3    -0.976112499538E+02    0.40829E-04   -0.20508E-04   144   0.480E-02    0.420E-02
DAV:   4    -0.976112194955E+02    0.30458E-04   -0.47402E-05   120   0.294E-02    0.867E-03
DAV:   5    -0.976112123758E+02    0.71197E-05   -0.16596E-05   132   0.155E-02    0.510E-03
DAV:   6    -0.976112161092E+02   -0.37334E-05   -0.33478E-06   108   0.615E-03    0.323E-03
DAV:   7    -0.976112272322E+02   -0.11123E-04   -0.10217E-06   108   0.337E-03    0.133E-03
DAV:   8    -0.976112402767E+02   -0.13044E-04   -0.90110E-07   120   0.278E-03    0.882E-04
DAV:   9    -0.976112569308E+02   -0.16654E-04   -0.14045E-06   108   0.278E-03    0.517E-04
DAV:  10    -0.976112654991E+02   -0.85683E-05   -0.54775E-07   108   0.178E-03    0.366E-04
DAV:  11    -0.976112696247E+02   -0.41256E-05   -0.17319E-07    96   0.961E-04    0.192E-04
DAV:  12    -0.976112727723E+02   -0.31476E-05   -0.13744E-07    96   0.740E-04    0.141E-04
DAV:  13    -0.976112738195E+02   -0.10471E-05   -0.23057E-08   108   0.362E-04    0.804E-05
DAV:  14    -0.976112746427E+02   -0.82326E-06   -0.15516E-08    96   0.278E-04
  32 F= -.97611275E+02 E0= -.97611275E+02  d E =-.113054E-10
       N       E                     dE             d eps       ncg     rms          rms(c)
DAV:   1    -0.976096148354E+02    0.16590E-02   -0.39089E-01    96   0.164E+00    0.191E-01
DAV:   2    -0.976111146763E+02   -0.14998E-02   -0.18720E-02   132   0.366E-01    0.117E-01
DAV:   3    -0.976109933043E+02    0.12137E-03   -0.28297E-04   132   0.600E-02    0.580E-02
DAV:   4    -0.976109433875E+02    0.49917E-04   -0.12207E-04   132   0.411E-02    0.108E-02
DAV:   5    -0.976109328612E+02    0.10526E-04   -0.24591E-05   132   0.181E-02    0.640E-03
DAV:   6    -0.976109372083E+02   -0.43472E-05   -0.74820E-06   132   0.729E-03    0.359E-03
DAV:   7    -0.976109524345E+02   -0.15226E-04   -0.12529E-06   108   0.336E-03    0.183E-03
DAV:   8    -0.976109776146E+02   -0.25180E-04   -0.16872E-06   108   0.298E-03    0.100E-03
DAV:   9    -0.976109987514E+02   -0.21137E-04   -0.11784E-06    96   0.219E-03    0.794E-04
DAV:  10    -0.976110177649E+02   -0.19013E-04   -0.10431E-06   108   0.192E-03    0.320E-04
DAV:  11    -0.976110237581E+02   -0.59932E-05   -0.10257E-07   108   0.809E-04    0.238E-04
DAV:  12    -0.976110302091E+02   -0.64510E-05   -0.18069E-07    84   0.847E-04    0.123E-04
DAV:  13    -0.976110320365E+02   -0.18274E-05   -0.23444E-08   108   0.384E-04    0.673E-05
DAV:  14    -0.976110334349E+02   -0.13984E-05   -0.90677E-09    84   0.276E-04    0.477E-05
DAV:  15    -0.976110338966E+02   -0.46170E-06    0.19740E-09   108   0.146E-04
  33 F= -.97611034E+02 E0= -.97611034E+02  d E =-.205556E-10
       N       E                     dE             d eps       ncg     rms          rms(c)
DAV:   1    -0.976116346412E+02   -0.60121E-03   -0.19972E-01   108   0.116E+00    0.133E-01
DAV:   2    -0.976123427292E+02   -0.70809E-03   -0.87306E-03   120   0.257E-01    0.744E-02
DAV:   3    -0.976122925606E+02    0.50169E-04   -0.14610E-04   132   0.427E-02    0.371E-02
DAV:   4    -0.976122689456E+02    0.23615E-04   -0.50697E-05   132   0.280E-02    0.741E-03
DAV:   5    -0.976122652537E+02    0.36920E-05   -0.10951E-05   132   0.126E-02    0.440E-03
DAV:   6    -0.976122694572E+02   -0.42035E-05   -0.33189E-06   132   0.559E-03    0.215E-03
DAV:   7    -0.976122779943E+02   -0.85371E-05   -0.75309E-07   120   0.273E-03    0.124E-03
DAV:   8    -0.976122909216E+02   -0.12927E-04   -0.92371E-07   108   0.216E-03    0.597E-04
DAV:   9    -0.976123014800E+02   -0.10558E-04   -0.74476E-07   108   0.181E-03    0.496E-04
DAV:  10    -0.976123111393E+02   -0.96594E-05   -0.79646E-07   108   0.168E-03    0.197E-04
DAV:  11    -0.976123135939E+02   -0.24545E-05   -0.58203E-08   108   0.654E-04    0.168E-04
DAV:  12    -0.976123162247E+02   -0.26309E-05   -0.91237E-08    84   0.632E-04    0.751E-05
DAV:  13    -0.976123170093E+02   -0.78453E-06   -0.18999E-08    96   0.314E-04
  34 F= -.97612317E+02 E0= -.97612317E+02  d E =-.309364E-10
       N       E                     dE             d eps       ncg     rms          rms(c)
DAV:   1    -0.976111384650E+02    0.11778E-02   -0.41175E-01    96   0.167E+00    0.167E-01
DAV:   2    -0.976122820474E+02   -0.11436E-02   -0.13742E-02   132   0.328E-01    0.765E-02
DAV:   3    -0.976122402816E+02    0.41766E-04   -0.26791E-04   132   0.575E-02    0.380E-02
DAV:   4    -0.976122218528E+02    0.18429E-04   -0.62317E-05   132   0.360E-02    0.946E-03
DAV:   5    -0.976122187014E+02    0.31515E-05   -0.21314E-05   144   0.177E-02    0.556E-03
DAV:   6    -0.976122205121E+02   -0.18107E-05   -0.39866E-06   132   0.686E-03    0.313E-03
DAV:   7    -0.976122247208E+02   -0.42087E-05   -0.35017E-07   108   0.247E-03    0.157E-03
DAV:   8    -0.976122320813E+02   -0.73605E-05   -0.60288E-07    96   0.279E-03    0.750E-04
DAV:   9    -0.976122408669E+02   -0.87856E-05   -0.67855E-07    96   0.262E-03    0.481E-04
DAV:  10    -0.976122469898E+02   -0.61229E-05   -0.44946E-07    96   0.180E-03    0.394E-04
DAV:  11    -0.976122497247E+02   -0.27349E-05   -0.56092E-08   108   0.893E-04    0.170E-04
DAV:  12    -0.976122525782E+02   -0.28535E-05   -0.83319E-08    84   0.670E-04    0.153E-04
DAV:  13    -0.976122538258E+02   -0.12476E-05   -0.22725E-08    96   0.355E-04    0.814E-05
DAV:  14    -0.976122550554E+02   -0.12297E-05   -0.24287E-08    96   0.323E-04    0.497E-05
DAV:  15    -0.976122553913E+02   -0.33587E-06    0.14316E-09   108   0.147E-04
  35 F= -.97612255E+02 E0= -.97612255E+02  d E =-.248483E-10
       N       E                     dE             d eps       ncg     rms          rms(c)
DAV:   1    -0.976114173486E+02    0.83771E-03   -0.20529E-01    96   0.118E+00    0.119E-01
DAV:   2    -0.976120284071E+02   -0.61106E-03   -0.73304E-03   132   0.238E-01    0.552E-02
DAV:   3    -0.976120076273E+02    0.20780E-04   -0.13952E-04   132   0.411E-02    0.280E-02
DAV:   4    -0.976119978395E+02    0.97878E-05   -0.32144E-05   132   0.260E-02    0.678E-03
DAV:   5    -0.976119959919E+02    0.18477E-05   -0.11379E-05   132   0.130E-02    0.410E-03
DAV:   6    -0.976119967904E+02   -0.79854E-06   -0.21082E-06   132   0.503E-03
  36 F= -.97611997E+02 E0= -.97611997E+02  d E =-.117405E-10
       N       E                     dE             d eps       ncg     rms          rms(c)
DAV:   1    -0.976108341902E+02    0.11618E-02   -0.40596E-01    96   0.164E+00    0.175E-01
DAV:   2    -0.976121684886E+02   -0.13343E-02   -0.15912E-02   144   0.343E-01    0.866E-02
DAV:   3    -0.976121243201E+02    0.44168E-04   -0.27000E-04   120   0.571E-02    0.448E-02
DAV:   4    -0.976121043588E+02    0.19961E-04   -0.78477E-05   132   0.375E-02    0.958E-03
DAV:   5    -0.976120995710E+02    0.47878E-05   -0.22271E-05   132   0.178E-02    0.591E-03
DAV:   6    -0.976121013724E+02   -0.18014E-05   -0.42029E-06   132   0.662E-03    0.329E-03
DAV:   7    -0.976121068582E+02   -0.54858E-05   -0.53322E-07   108   0.272E-03    0.171E-03
DAV:   8    -0.976121160353E+02   -0.91771E-05   -0.76580E-07   120   0.257E-03    0.755E-04
DAV:   9    -0.976121258233E+02   -0.97880E-05   -0.68632E-07   108   0.223E-03    0.584E-04
DAV:  10    -0.976121343177E+02   -0.84944E-05   -0.60416E-07   108   0.180E-03    0.337E-04
DAV:  11    -0.976121374523E+02   -0.31346E-05   -0.82558E-08   108   0.866E-04    0.191E-04
DAV:  12    -0.976121401556E+02   -0.27033E-05   -0.85907E-08    96   0.622E-04    0.140E-04
DAV:  13    -0.976121415443E+02   -0.13887E-05   -0.37679E-08    96   0.395E-04    0.785E-05
DAV:  14    -0.976121422220E+02   -0.67778E-06   -0.33625E-09    96   0.208E-04
  37 F= -.97612142E+02 E0= -.97612142E+02  d E =-.288727E-10
       N       E                     dE             d eps       ncg     rms          rms(c)
DAV:   1    -0.976109465590E+02    0.11950E-02   -0.19964E-01    96   0.129E+00    0.138E-01
DAV:   2    -0.976119117729E+02   -0.96521E-03   -0.11593E-02   132   0.307E-01    0.661E-02
DAV:   3    -0.976118775171E+02    0.34256E-04   -0.20414E-04   132   0.498E-02    0.364E-02
DAV:   4    -0.976118603233E+02    0.17194E-04   -0.53930E-05   120   0.303E-02    0.880E-03
DAV:   5    -0.976118560871E+02    0.42362E-05   -0.15451E-05   132   0.151E-02    0.529E-03
DAV:   6    -0.976118567994E+02   -0.71237E-06   -0.29307E-06   132   0.616E-03
  38 F= -.97611857E+02 E0= -.97611857E+02  d E =-.224030E-10
       N       E                     dE             d eps       ncg     rms          rms(c)
DAV:   1    -0.976104030277E+02    0.14531E-02   -0.40545E-01    96   0.178E+00    0.189E-01
DAV:   2    -0.976118921327E+02   -0.14891E-02   -0.17520E-02   132   0.404E-01    0.978E-02
DAV:   3    -0.976118339998E+02    0.58133E-04   -0.30207E-04   132   0.633E-02    0.519E-02
DAV:   4    -0.976118067443E+02    0.27255E-04   -0.10571E-04   120   0.416E-02    0.111E-02
DAV:   5    -0.976118004145E+02    0.63298E-05   -0.25455E-05   132   0.192E-02    0.693E-03
DAV:   6    -0.976118022639E+02   -0.18493E-05   -0.48960E-06   132   0.731E-03    0.372E-03
DAV:   7    -0.976118091189E+02   -0.68550E-05   -0.89177E-07   120   0.330E-03    0.164E-03
DAV:   8    -0.976118181596E+02   -0.90407E-05   -0.57844E-07    96   0.232E-03    0.777E-04
DAV:   9    -0.976118300215E+02   -0.11862E-04   -0.98302E-07   108   0.238E-03    0.571E-04
DAV:  10    -0.976118402108E+02   -0.10189E-04   -0.90112E-07    96   0.208E-03    0.272E-04
DAV:  11    -0.976118432394E+02   -0.30286E-05   -0.87194E-08   108   0.907E-04    0.229E-04
DAV:  12    -0.976118462878E+02   -0.30484E-05   -0.10139E-07    84   0.718E-04    0.109E-04
DAV:  13    -0.976118477962E+02   -0.15084E-05   -0.45533E-08    96   0.442E-04    0.948E-05
DAV:  14    -0.976118486016E+02   -0.80534E-06   -0.60739E-09    96   0.251E-04
  39 F= -.97611849E+02 E0= -.97611849E+02  d E =-.117943E-10
       N       E                     dE             d eps       ncg     rms          rms(c)
DAV:   1    -0.976108563025E+02    0.99149E-03   -0.20624E-01    96   0.127E+00    0.145E-01
DAV:   2    -0.976114554776E+02   -0.59918E-03   -0.72369E-03   132   0.260E-01    0.589E-02
DAV:   3    -0.976114272703E+02    0.28207E-04   -0.14529E-04   132   0.428E-02    0.301E-02
DAV:   4    -0.976114174076E+02    0.98626E-05   -0.36068E-05   132   0.250E-02    0.807E-03
DAV:   5    -0.976114149793E+02    0.24284E-05   -0.94863E-06   132   0.120E-02    0.431E-03
DAV:   6    -0.976114152098E+02   -0.23050E-06   -0.19080E-06   132   0.486E-03
  40 F= -.97611415E+02 E0= -.97611415E+02  d E =-.239310E-10
       N       E                     dE             d eps       ncg     rms          rms(c)
DAV:   1    -0.976097680813E+02    0.16469E-02   -0.39488E-01    96   0.177E+00    0.211E-01
DAV:   2    -0.976112165262E+02   -0.14484E-02   -0.17614E-02   132   0.413E-01    0.115E-01
DAV:   3    -0.976111054617E+02    0.11106E-03   -0.28784E-04   108   0.641E-02    0.584E-02
DAV:   4    -0.976110684731E+02    0.36989E-04   -0.14153E-04   132   0.446E-02    0.120E-02
DAV:   5    -0.976110583933E+02    0.10080E-04   -0.23742E-05   132   0.185E-02    0.692E-03
DAV:   6    -0.976110592147E+02   -0.82143E-06   -0.65312E-06   132   0.773E-03
  41 F= -.97611059E+02 E0= -.97611059E+02  d E =-.895758E-11
       N       E                     dE             d eps       ncg     rms          rms(c)
DAV:   1    -0.976118003097E+02   -0.74192E-03   -0.19895E-01    96   0.130E+00    0.150E-01
DAV:   2    -0.976124918931E+02   -0.69158E-03   -0.80885E-03   132   0.284E-01    0.691E-02
DAV:   3    -0.976124736640E+02    0.18229E-04   -0.13979E-04   120   0.434E-02    0.359E-02
DAV:   4    -0.976124809303E+02   -0.72663E-05   -0.49220E-05   120   0.280E-02    0.796E-03
DAV:   5    -0.976124828163E+02   -0.18860E-05   -0.10255E-05   132   0.122E-02    0.482E-03
DAV:   6    -0.976124842329E+02   -0.14166E-05   -0.20301E-06   108   0.504E-03    0.245E-03
DAV:   7    -0.976124865620E+02   -0.23291E-05   -0.39149E-07    96   0.254E-03    0.998E-04
DAV:   8    -0.976124891102E+02   -0.25481E-05   -0.22596E-07   108   0.177E-03    0.462E-04
DAV:   9    -0.976124920374E+02   -0.29272E-05   -0.18936E-07    96   0.140E-03    0.323E-04
DAV:  10    -0.976124947198E+02   -0.26824E-05   -0.15949E-07    96   0.106E-03    0.154E-04
DAV:  11    -0.976124958675E+02   -0.11477E-05   -0.31683E-08   108   0.546E-04    0.137E-04
DAV:  12    -0.976124971128E+02   -0.12453E-05   -0.29379E-08    84   0.419E-04    0.606E-05
DAV:  13    -0.976124977185E+02   -0.60578E-06   -0.11743E-08    96   0.262E-04
  42 F= -.97612498E+02 E0= -.97612498E+02  d E =-.132112E-10
       N       E                     dE             d eps       ncg     rms          rms(c)
DAV:   1    -0.976109754627E+02    0.15217E-02   -0.40757E-01    96   0.180E+00    0.177E-01
DAV:   2    -0.976121595261E+02   -0.11841E-02   -0.14273E-02   132   0.348E-01    0.786E-02
DAV:   3    -0.976121162011E+02    0.43325E-04   -0.28293E-04   132   0.597E-02    0.392E-02
DAV:   4    -0.976121013336E+02    0.14868E-04   -0.64988E-05   132   0.354E-02    0.101E-02
DAV:   5    -0.976120989760E+02    0.23575E-05   -0.18210E-05   132   0.169E-02    0.621E-03
DAV:   6    -0.976121009185E+02   -0.19424E-05   -0.35261E-06   132   0.650E-03    0.355E-03
DAV:   7    -0.976121051965E+02   -0.42781E-05   -0.32928E-07   108   0.256E-03    0.148E-03
DAV:   8    -0.976121113576E+02   -0.61611E-05   -0.42483E-07    84   0.251E-03    0.740E-04
DAV:   9    -0.976121211766E+02   -0.98189E-05   -0.77784E-07    96   0.290E-03    0.448E-04
DAV:  10    -0.976121261359E+02   -0.49594E-05   -0.43094E-07    96   0.178E-03    0.441E-04
DAV:  11    -0.976121275413E+02   -0.14054E-05   -0.29634E-08   108   0.678E-04    0.335E-04
DAV:  12    -0.976121303531E+02   -0.28118E-05   -0.80104E-08    96   0.771E-04    0.144E-04
DAV:  13    -0.976121314759E+02   -0.11228E-05   -0.34444E-08    96   0.437E-04    0.172E-04
DAV:  14    -0.976121322267E+02   -0.75086E-06   -0.53808E-09    96   0.278E-04
  43 F= -.97612132E+02 E0= -.97612132E+02  d E =-.161888E-10
       N       E                     dE             d eps       ncg     rms          rms(c)
DAV:   1    -0.976110005956E+02    0.11309E-02   -0.20002E-01    96   0.129E+00    0.145E-01
DAV:   2    -0.976120318580E+02   -0.10313E-02   -0.12088E-02   132   0.295E-01    0.625E-02
DAV:   3    -0.976120157879E+02    0.16070E-04   -0.20459E-04   132   0.457E-02    0.351E-02
DAV:   4    -0.976120055578E+02    0.10230E-04   -0.42861E-05   120   0.240E-02    0.887E-03
DAV:   5    -0.976120019878E+02    0.35700E-05   -0.73621E-06   132   0.107E-02    0.462E-03
DAV:   6    -0.976120021736E+02   -0.18583E-06   -0.22894E-06   120   0.596E-03
  44 F= -.97612002E+02 E0= -.97612002E+02  d E =-.229717E-10
       N       E                     dE             d eps       ncg     rms          rms(c)
DAV:   1    -0.976105470409E+02    0.14549E-02   -0.40779E-01    96   0.178E+00    0.189E-01
DAV:   2    -0.976119869484E+02   -0.14399E-02   -0.16954E-02   132   0.397E-01    0.934E-02
DAV:   3    -0.976119335090E+02    0.53439E-04   -0.30179E-04   132   0.628E-02    0.494E-02
DAV:   4    -0.976119089684E+02    0.24541E-04   -0.96536E-05   132   0.406E-02    0.111E-02
DAV:   5    -0.976119029057E+02    0.60627E-05   -0.25135E-05   132   0.191E-02    0.686E-03
DAV:   6    -0.976119042192E+02   -0.13135E-05   -0.45437E-06   132   0.720E-03    0.375E-03
DAV:   7    -0.976119097917E+02   -0.55725E-05   -0.69656E-07   108   0.311E-03    0.162E-03
DAV:   8    -0.976119175570E+02   -0.77653E-05   -0.60859E-07   120   0.241E-03    0.773E-04
DAV:   9    -0.976119284069E+02   -0.10850E-04   -0.77736E-07   108   0.241E-03    0.492E-04
DAV:  10    -0.976119361561E+02   -0.77492E-05   -0.55733E-07    96   0.184E-03    0.269E-04
DAV:  11    -0.976119396062E+02   -0.34501E-05   -0.15855E-07    96   0.101E-03    0.190E-04
DAV:  12    -0.976119422557E+02   -0.26495E-05   -0.95126E-08    84   0.667E-04    0.107E-04
DAV:  13    -0.976119434689E+02   -0.12132E-05   -0.30744E-08   108   0.383E-04    0.738E-05
DAV:  14    -0.976119443632E+02   -0.89428E-06   -0.17477E-08    84   0.281E-04
  45 F= -.97611944E+02 E0= -.97611944E+02  d E =-.113806E-10
       N       E                     dE             d eps       ncg     rms          rms(c)
DAV:   1    -0.976104797475E+02    0.14637E-02   -0.19609E-01    96   0.127E+00    0.137E-01
DAV:   2    -0.976112477253E+02   -0.76798E-03   -0.94446E-03   132   0.294E-01    0.834E-02
DAV:   3    -0.976111859941E+02    0.61731E-04   -0.15419E-04   132   0.467E-02    0.422E-02
DAV:   4    -0.976111607726E+02    0.25222E-04   -0.68574E-05   108   0.316E-02    0.801E-03
DAV:   5    -0.976111546505E+02    0.61221E-05   -0.11797E-05   132   0.131E-02    0.511E-03
DAV:   6    -0.976111558232E+02   -0.11727E-05   -0.38855E-06   132   0.605E-03    0.249E-03
DAV:   7    -0.976111629260E+02   -0.71028E-05   -0.79217E-07    84   0.301E-03    0.123E-03
DAV:   8    -0.976111751108E+02   -0.12185E-04   -0.82689E-07   108   0.223E-03    0.747E-04
DAV:   9    -0.976111860818E+02   -0.10971E-04   -0.51090E-07    96   0.164E-03    0.532E-04
DAV:  10    -0.976111964644E+02   -0.10383E-04   -0.58970E-07    84   0.144E-03    0.255E-04
DAV:  11    -0.976112000391E+02   -0.35748E-05   -0.89739E-08   108   0.664E-04    0.195E-04
DAV:  12    -0.976112040492E+02   -0.40101E-05   -0.90144E-08    84   0.674E-04    0.901E-05
DAV:  13    -0.976112051830E+02   -0.11337E-05   -0.19702E-08   108   0.347E-04    0.813E-05
DAV:  14    -0.976112060355E+02   -0.85257E-06   -0.15517E-09    84   0.235E-04
  46 F= -.97611206E+02 E0= -.97611206E+02  d E =-.907120E-11
       N       E                     dE             d eps       ncg     rms          rms(c)
DAV:   1    -0.976101725638E+02    0.10326E-02   -0.39149E-01    96   0.182E+00    0.218E-01
DAV:   2    -0.976116405567E+02   -0.14680E-02   -0.17881E-02   120   0.416E-01    0.112E-01
DAV:   3    -0.976115323996E+02    0.10816E-03   -0.30650E-04   144   0.646E-02    0.590E-02
DAV:   4    -0.976114871689E+02    0.45231E-04   -0.12348E-04   132   0.427E-02    0.117E-02
DAV:   5    -0.976114807256E+02    0.64433E-05   -0.23345E-05   132   0.180E-02    0.695E-03
DAV:   6    -0.976114876796E+02   -0.69540E-05   -0.60778E-06   132   0.760E-03    0.360E-03
DAV:   7    -0.976115046165E+02   -0.16937E-04   -0.18388E-06   120   0.420E-03    0.168E-03
DAV:   8    -0.976115253693E+02   -0.20753E-04   -0.15552E-06   120   0.295E-03    0.945E-04
DAV:   9    -0.976115425322E+02   -0.17163E-04   -0.12535E-06   108   0.235E-03    0.696E-04
DAV:  10    -0.976115588436E+02   -0.16311E-04   -0.15475E-06   120   0.228E-03    0.312E-04
DAV:  11    -0.976115638547E+02   -0.50111E-05   -0.14648E-07   108   0.893E-04    0.206E-04
DAV:  12    -0.976115679611E+02   -0.41064E-05   -0.16119E-07    96   0.775E-04    0.119E-04
DAV:  13    -0.976115698321E+02   -0.18710E-05   -0.55298E-08   108   0.462E-04    0.692E-05
DAV:  14    -0.976115707515E+02   -0.91940E-06   -0.63114E-09   108   0.242E-04
  47 F= -.97611571E+02 E0= -.97611571E+02  d E =-.196568E-10
       N       E                     dE             d eps       ncg     rms          rms(c)
DAV:   1    -0.976115189792E+02    0.50853E-04   -0.19737E-01    96   0.125E+00    0.143E-01
DAV:   2    -0.976122504395E+02   -0.73146E-03   -0.89869E-03   132   0.290E-01    0.809E-02
DAV:   3    -0.976121906358E+02    0.59804E-04   -0.14194E-04   132   0.449E-02    0.413E-02
DAV:   4    -0.976121662174E+02    0.24418E-04   -0.66449E-05   132   0.314E-02    0.792E-03
DAV:   5    -0.976121607932E+02    0.54243E-05   -0.13075E-05   132   0.137E-02    0.491E-03
DAV:   6    -0.976121619491E+02   -0.11559E-05   -0.34393E-06   132   0.566E-03    0.263E-03
DAV:   7    -0.976121687135E+02   -0.67644E-05   -0.65413E-07    84   0.283E-03    0.123E-03
DAV:   8    -0.976121803185E+02   -0.11605E-04   -0.84092E-07   108   0.236E-03    0.767E-04
DAV:   9    -0.976121909279E+02   -0.10609E-04   -0.50234E-07    96   0.170E-03    0.544E-04
DAV:  10    -0.976122002149E+02   -0.92870E-05   -0.49712E-07    96   0.138E-03    0.236E-04
DAV:  11    -0.976122041674E+02   -0.39525E-05   -0.95035E-08   108   0.696E-04    0.185E-04
DAV:  12    -0.976122079411E+02   -0.37737E-05   -0.79948E-08    84   0.620E-04    0.846E-05
DAV:  13    -0.976122092743E+02   -0.13332E-05   -0.20680E-08    96   0.334E-04    0.628E-05
DAV:  14    -0.976122104132E+02   -0.11389E-05   -0.83436E-09    96   0.257E-04    0.285E-05
DAV:  15    -0.976122107760E+02   -0.36279E-06    0.21441E-09    96   0.139E-04
  48 F= -.97612211E+02 E0= -.97612211E+02  d E =-.115787E-10
       N       E                     dE             d eps       ncg     rms          rms(c)
DAV:   1    -0.976106838264E+02    0.15266E-02   -0.40500E-01    96   0.181E+00    0.176E-01
DAV:   2    -0.976120082952E+02   -0.13245E-02   -0.15905E-02   144   0.377E-01    0.887E-02
DAV:   3    -0.976119472212E+02    0.61074E-04   -0.28370E-04   132   0.608E-02    0.454E-02
DAV:   4    -0.976119226183E+02    0.24603E-04   -0.84149E-05   132   0.388E-02    0.995E-03
DAV:   5    -0.976119186638E+02    0.39544E-05   -0.21320E-05   132   0.178E-02    0.632E-03
DAV:   6    -0.976119221782E+02   -0.35143E-05   -0.45315E-06   132   0.746E-03    0.319E-03
DAV:   7    -0.976119301565E+02   -0.79784E-05   -0.80553E-07   108   0.344E-03    0.155E-03
DAV:   8    -0.976119417823E+02   -0.11626E-04   -0.82181E-07    96   0.275E-03    0.792E-04
DAV:   9    -0.976119543339E+02   -0.12552E-04   -0.84715E-07   120   0.248E-03    0.531E-04
DAV:  10    -0.976119648853E+02   -0.10551E-04   -0.78558E-07   108   0.202E-03    0.284E-04
DAV:  11    -0.976119684664E+02   -0.35811E-05   -0.93617E-08   108   0.926E-04    0.195E-04
DAV:  12    -0.976119718279E+02   -0.33616E-05   -0.12091E-07    96   0.741E-04    0.104E-04
DAV:  13    -0.976119731250E+02   -0.12971E-05   -0.33183E-08   108   0.394E-04    0.759E-05
DAV:  14    -0.976119738975E+02   -0.77249E-06   -0.34833E-09    96   0.228E-04
  49 F= -.97611974E+02 E0= -.97611974E+02  d E =-.210432E-10
       N       E                     dE             d eps       ncg     rms          rms(c)
DAV:   1    -0.976108652220E+02    0.11079E-02   -0.20042E-01   120   0.133E+00    0.135E-01
DAV:   2    -0.976118986333E+02   -0.10334E-02   -0.12153E-02   132   0.320E-01    0.660E-02
DAV:   3    -0.976118817481E+02    0.16885E-04   -0.21274E-04   132   0.493E-02    0.376E-02
DAV:   4    -0.976118736723E+02    0.80758E-05   -0.53020E-05   132   0.303E-02    0.824E-03
DAV:   5    -0.976118713131E+02    0.23592E-05   -0.14543E-05   132   0.144E-02    0.520E-03
DAV:   6    -0.976118722763E+02   -0.96317E-06   -0.24146E-06   132   0.558E-03
  50 F= -.97611872E+02 E0= -.97611872E+02  d E =-.247822E-10
       N       E                     dE             d eps       ncg     rms          rms(c)
DAV:   1    -0.976108369596E+02    0.10344E-02   -0.41245E-01   120   0.186E+00    0.178E-01
DAV:   2    -0.976121473956E+02   -0.13104E-02   -0.15499E-02   120   0.378E-01    0.895E-02
DAV:   3    -0.976121180295E+02    0.29366E-04   -0.29186E-04   144   0.586E-02    0.479E-02
DAV:   4    -0.976121002520E+02    0.17777E-04   -0.79705E-05   132   0.417E-02    0.864E-03
DAV:   5    -0.976120979800E+02    0.22720E-05   -0.32468E-05   132   0.208E-02    0.678E-03
DAV:   6    -0.976120986201E+02   -0.64011E-06   -0.42819E-06   132   0.664E-03
  51 F= -.97612099E+02 E0= -.97612099E+02  d E =-.144167E-10
       N       E                     dE             d eps       ncg     rms          rms(c)
DAV:   1    -0.976104893202E+02    0.16087E-02   -0.20150E-01   120   0.132E+00    0.134E-01
DAV:   2    -0.976112191179E+02   -0.72980E-03   -0.88194E-03   132   0.309E-01    0.805E-02
DAV:   3    -0.976111911582E+02    0.27960E-04   -0.12143E-04   132   0.385E-02    0.421E-02
DAV:   4    -0.976111597638E+02    0.31394E-04   -0.49974E-05   120   0.263E-02    0.705E-03
DAV:   5    -0.976111549714E+02    0.47925E-05   -0.90555E-06   132   0.120E-02    0.414E-03
DAV:   6    -0.976111599459E+02   -0.49745E-05   -0.46298E-06   132   0.708E-03    0.224E-03
DAV:   7    -0.976111697454E+02   -0.97995E-05   -0.10870E-06   108   0.395E-03    0.136E-03
DAV:   8    -0.976111844744E+02   -0.14729E-04   -0.13004E-06   108   0.288E-03    0.664E-04
DAV:   9    -0.976111961094E+02   -0.11635E-04   -0.95589E-07   108   0.229E-03    0.541E-04
DAV:  10    -0.976112062241E+02   -0.10115E-04   -0.74717E-07    96   0.184E-03    0.231E-04
DAV:  11    -0.976112095828E+02   -0.33586E-05   -0.21138E-07   108   0.883E-04    0.169E-04
DAV:  12    -0.976112123422E+02   -0.27594E-05   -0.13138E-07    96   0.720E-04    0.864E-05
DAV:  13    -0.976112132211E+02   -0.87892E-06   -0.24576E-08   108   0.357E-04
  52 F= -.97611213E+02 E0= -.97611213E+02  d E =-.111778E-10
       N       E                     dE             d eps       ncg     rms          rms(c)
DAV:   1    -0.976101389307E+02    0.10734E-02   -0.40397E-01    96   0.189E+00    0.190E-01
DAV:   2    -0.976114063558E+02   -0.12674E-02   -0.16064E-02   132   0.409E-01    0.108E-01
DAV:   3    -0.976113171712E+02    0.89185E-04   -0.24524E-04   132   0.537E-02    0.526E-02
DAV:   4    -0.976112596546E+02    0.57517E-04   -0.75109E-05   132   0.333E-02    0.986E-03
DAV:   5    -0.976112485998E+02    0.11055E-04   -0.14198E-05   132   0.159E-02    0.564E-03
DAV:   6    -0.976112555172E+02   -0.69173E-05   -0.88647E-06   132   0.106E-02    0.291E-03
DAV:   7    -0.976112713925E+02   -0.15875E-04   -0.28348E-06   132   0.596E-03    0.216E-03
DAV:   8    -0.976112939369E+02   -0.22544E-04   -0.10978E-06    96   0.287E-03    0.101E-03
DAV:   9    -0.976113174462E+02   -0.23509E-04   -0.18235E-06   108   0.305E-03    0.881E-04
DAV:  10    -0.976113388551E+02   -0.21409E-04   -0.11799E-06   108   0.232E-03    0.302E-04
DAV:  11    -0.976113460603E+02   -0.72052E-05   -0.15954E-07   108   0.102E-03    0.331E-04
DAV:  12    -0.976113519162E+02   -0.58559E-05   -0.10514E-07    84   0.700E-04    0.135E-04
DAV:  13    -0.976113553627E+02   -0.34465E-05   -0.62272E-08    96   0.495E-04    0.787E-05
DAV:  14    -0.976113570360E+02   -0.16734E-05   -0.11608E-08    84   0.316E-04    0.524E-05
DAV:  15    -0.976113576828E+02   -0.64672E-06   -0.15610E-09   108   0.187E-04
  53 F= -.97611358E+02 E0= -.97611358E+02  d E =-.218316E-10
       N       E                     dE             d eps       ncg     rms          rms(c)
DAV:   1    -0.976099638195E+02    0.13932E-02   -0.20083E-01    96   0.126E+00    0.145E-01
DAV:   2    -0.976107310563E+02   -0.76724E-03   -0.94984E-03   132   0.316E-01    0.875E-02
DAV:   3    -0.976106730359E+02    0.58020E-04   -0.13661E-04   132   0.417E-02    0.465E-02
DAV:   4    -0.976106399288E+02    0.33107E-04   -0.64831E-05   132   0.315E-02    0.739E-03
DAV:   5    -0.976106366117E+02    0.33170E-05   -0.15890E-05   132   0.146E-02    0.502E-03
DAV:   6    -0.976106419141E+02   -0.53024E-05   -0.54705E-06   132   0.639E-03    0.300E-03
DAV:   7    -0.976106535614E+02   -0.11647E-04   -0.63343E-07   108   0.263E-03    0.158E-03
DAV:   8    -0.976106754397E+02   -0.21878E-04   -0.24572E-06    96   0.339E-03    0.895E-04
DAV:   9    -0.976106875138E+02   -0.12074E-04   -0.70658E-07   108   0.202E-03    0.644E-04
DAV:  10    -0.976106999693E+02   -0.12455E-04   -0.10616E-06    96   0.194E-03    0.325E-04
DAV:  11    -0.976107053909E+02   -0.54217E-05   -0.20825E-07    96   0.111E-03    0.247E-04
DAV:  12    -0.976107080586E+02   -0.26677E-05   -0.88871E-08   108   0.646E-04    0.190E-04
DAV:  13    -0.976107094949E+02   -0.14362E-05   -0.28473E-08    84   0.409E-04    0.767E-05
DAV:  14    -0.976107102487E+02   -0.75385E-06   -0.44779E-09    96   0.258E-04
  54 F= -.97610710E+02 E0= -.97610710E+02  d E =-.145343E-10
       N       E                     dE             d eps       ncg     rms          rms(c)
DAV:   1    -0.976091547812E+02    0.15547E-02   -0.40349E-01   120   0.180E+00    0.202E-01
DAV:   2    -0.976107280845E+02   -0.15733E-02   -0.19522E-02   120   0.455E-01    0.129E-01
DAV:   3    -0.976106088435E+02    0.11924E-03   -0.24373E-04   132   0.559E-02    0.704E-02
DAV:   4    -0.976105374786E+02    0.71365E-04   -0.14053E-04   132   0.445E-02    0.108E-02
DAV:   5    -0.976105350545E+02    0.24241E-05   -0.28481E-05   132   0.194E-02    0.738E-03
DAV:   6    -0.976105508042E+02   -0.15750E-04   -0.12995E-05   132   0.101E-02    0.405E-03
DAV:   7    -0.976105779080E+02   -0.27104E-04   -0.27852E-06   132   0.513E-03    0.228E-03
DAV:   8    -0.976106227333E+02   -0.44825E-04   -0.51702E-06   108   0.493E-03    0.120E-03
DAV:   9    -0.976106482177E+02   -0.25484E-04   -0.21117E-06   120   0.307E-03    0.904E-04
DAV:  10    -0.976106725443E+02   -0.24327E-04   -0.23579E-06    96   0.299E-03    0.465E-04
DAV:  11    -0.976106805383E+02   -0.79939E-05   -0.38237E-07   108   0.134E-03    0.315E-04
DAV:  12    -0.976106854436E+02   -0.49053E-05   -0.22742E-07    96   0.972E-04    0.171E-04
DAV:  13    -0.976106871681E+02   -0.17245E-05   -0.38280E-08   108   0.474E-04    0.899E-05
DAV:  14    -0.976106882707E+02   -0.11026E-05   -0.12248E-08    96   0.310E-04    0.484E-05
DAV:  15    -0.976106887038E+02   -0.43309E-06    0.18346E-10   108   0.173E-04
  55 F= -.97610689E+02 E0= -.97610689E+02  d E =-.133161E-10
       N       E                     dE             d eps       ncg     rms          rms(c)
DAV:   1    -0.976106494350E+02    0.38836E-04   -0.19882E-01   120   0.132E+00    0.142E-01
DAV:   2    -0.976117693555E+02   -0.11199E-02   -0.13475E-02   120   0.356E-01    0.830E-02
DAV:   3    -0.976117355109E+02    0.33845E-04   -0.18091E-04   132   0.442E-02    0.501E-02
DAV:   4    -0.976117078281E+02    0.27683E-04   -0.73208E-05   120   0.324E-02    0.767E-03
DAV:   5    -0.976117016378E+02    0.61902E-05   -0.17288E-05   132   0.149E-02    0.525E-03
DAV:   6    -0.976117034397E+02   -0.18019E-05   -0.42301E-06    96   0.655E-03    0.294E-03
DAV:   7    -0.976117130839E+02   -0.96442E-05   -0.14927E-06   108   0.398E-03    0.138E-03
DAV:   8    -0.976117291993E+02   -0.16115E-04   -0.95854E-07    96   0.263E-03    0.775E-04
DAV:   9    -0.976117429577E+02   -0.13758E-04   -0.10186E-06   108   0.217E-03    0.678E-04
DAV:  10    -0.976117554669E+02   -0.12509E-04   -0.71452E-07    96   0.187E-03    0.325E-04
DAV:  11    -0.976117590786E+02   -0.36117E-05   -0.16020E-07   108   0.850E-04    0.295E-04
DAV:  12    -0.976117630883E+02   -0.40097E-05   -0.11849E-07    96   0.804E-04    0.995E-05
DAV:  13    -0.976117645609E+02   -0.14725E-05   -0.37652E-08    96   0.455E-04    0.958E-05
DAV:  14    -0.976117656299E+02   -0.10690E-05   -0.10133E-08    96   0.282E-04    0.415E-05
DAV:  15    -0.976117661560E+02   -0.52608E-06   -0.14277E-09   108   0.194E-04
  56 F= -.97611766E+02 E0= -.97611766E+02  d E =-.246113E-10
       N       E                     dE             d eps       ncg     rms          rms(c)
DAV:   1    -0.976107058632E+02    0.10598E-02   -0.41114E-01   120   0.187E+00    0.180E-01
DAV:   2    -0.976120270432E+02   -0.13212E-02   -0.15900E-02   120   0.389E-01    0.942E-02
DAV:   3    -0.976119788140E+02    0.48229E-04   -0.29017E-04   144   0.584E-02    0.504E-02
DAV:   4    -0.976119483122E+02    0.30502E-04   -0.84720E-05   132   0.421E-02    0.897E-03
DAV:   5    -0.976119440637E+02    0.42485E-05   -0.32600E-05   132   0.210E-02    0.679E-03
DAV:   6    -0.976119451378E+02   -0.10740E-05   -0.53787E-06   132   0.744E-03    0.400E-03
DAV:   7    -0.976119518714E+02   -0.67336E-05   -0.80407E-07   108   0.400E-03    0.190E-03
DAV:   8    -0.976119663789E+02   -0.14508E-04   -0.15970E-06   108   0.407E-03    0.113E-03
DAV:   9    -0.976119815349E+02   -0.15156E-04   -0.97064E-07    96   0.298E-03    0.681E-04
DAV:  10    -0.976119905688E+02   -0.90339E-05   -0.52142E-07    96   0.185E-03    0.429E-04
DAV:  11    -0.976119979526E+02   -0.73838E-05   -0.20555E-07    84   0.111E-03    0.207E-04
DAV:  12    -0.976120012616E+02   -0.33090E-05   -0.95479E-08   108   0.646E-04    0.206E-04
DAV:  13    -0.976120037779E+02   -0.25163E-05   -0.47071E-08    84   0.446E-04    0.757E-05
DAV:  14    -0.976120048021E+02   -0.10242E-05   -0.11158E-08   108   0.273E-04    0.492E-05
DAV:  15    -0.976120055694E+02   -0.76731E-06   -0.42086E-09    84   0.205E-04
  57 F= -.97612006E+02 E0= -.97612006E+02  d E =-.137022E-10
       N       E                     dE             d eps       ncg     rms          rms(c)
DAV:   1    -0.976106130179E+02    0.13918E-02   -0.20674E-01    96   0.124E+00    0.121E-01
DAV:   2    -0.976112316068E+02   -0.61859E-03   -0.74230E-03    96   0.249E-01    0.560E-02
DAV:   3    -0.976112217453E+02    0.98615E-05   -0.14153E-04   144   0.417E-02    0.302E-02
DAV:   4    -0.976112138184E+02    0.79269E-05   -0.31280E-05   132   0.287E-02    0.550E-03
DAV:   5    -0.976112135940E+02    0.22444E-06   -0.16268E-05   132   0.148E-02    0.496E-03
DAV:   6    -0.976112140391E+02   -0.44514E-06   -0.11666E-06   108   0.370E-03
  58 F= -.97611214E+02 E0= -.97611214E+02  d E =-.229667E-10
       N       E                     dE             d eps       ncg     rms          rms(c)
DAV:   1    -0.976097376675E+02    0.14759E-02   -0.40143E-01   120   0.180E+00    0.194E-01
DAV:   2    -0.976112897045E+02   -0.15520E-02   -0.18768E-02   132   0.443E-01    0.114E-01
DAV:   3    -0.976112087303E+02    0.80974E-04   -0.26396E-04   132   0.568E-02    0.623E-02
DAV:   4    -0.976111529008E+02    0.55829E-04   -0.10650E-04   132   0.412E-02    0.101E-02
DAV:   5    -0.976111480169E+02    0.48840E-05   -0.24963E-05   132   0.188E-02    0.699E-03
DAV:   6    -0.976111572801E+02   -0.92633E-05   -0.83255E-06   132   0.885E-03    0.388E-03
DAV:   7    -0.976111761415E+02   -0.18861E-04   -0.20236E-06   120   0.485E-03    0.207E-03
DAV:   8    -0.976112060396E+02   -0.29898E-04   -0.32931E-06    96   0.457E-03    0.110E-03
DAV:   9    -0.976112240155E+02   -0.17976E-04   -0.16318E-06   108   0.305E-03    0.918E-04
DAV:  10    -0.976112404319E+02   -0.16416E-04   -0.13864E-06    96   0.248E-03    0.332E-04
DAV:  11    -0.976112467935E+02   -0.63616E-05   -0.30328E-07   108   0.121E-03    0.326E-04
DAV:  12    -0.976112515511E+02   -0.47576E-05   -0.26538E-07    84   0.998E-04    0.138E-04
DAV:  13    -0.976112531500E+02   -0.15989E-05   -0.47895E-08   108   0.464E-04    0.744E-05
DAV:  14    -0.976112541246E+02   -0.97457E-06   -0.10524E-08    96   0.285E-04
  59 F= -.97611254E+02 E0= -.97611254E+02  d E =-.109978E-10
       N       E                     dE             d eps       ncg     rms          rms(c)
DAV:   1    -0.976102440971E+02    0.10091E-02   -0.20265E-01   108   0.133E+00    0.133E-01
DAV:   2    -0.976109232797E+02   -0.67918E-03   -0.85167E-03   108   0.304E-01    0.759E-02
DAV:   3    -0.976108795824E+02    0.43697E-04   -0.11744E-04   132   0.361E-02    0.394E-02
DAV:   4    -0.976108449095E+02    0.34673E-04   -0.36630E-05   108   0.228E-02    0.682E-03
DAV:   5    -0.976108378410E+02    0.70685E-05   -0.72548E-06   132   0.112E-02    0.369E-03
DAV:   6    -0.976108412509E+02   -0.34100E-05   -0.42169E-06   108   0.753E-03    0.206E-03
DAV:   7    -0.976108514240E+02   -0.10173E-04   -0.15656E-06   120   0.441E-03    0.141E-03
DAV:   8    -0.976108638046E+02   -0.12381E-04   -0.58676E-07    84   0.220E-03    0.745E-04
DAV:   9    -0.976108781301E+02   -0.14325E-04   -0.99505E-07   108   0.219E-03    0.533E-04
DAV:  10    -0.976108907927E+02   -0.12663E-04   -0.59924E-07    84   0.166E-03    0.229E-04
DAV:  11    -0.976108953714E+02   -0.45787E-05   -0.14531E-07   108   0.811E-04    0.209E-04
DAV:  12    -0.976108996915E+02   -0.43202E-05   -0.85168E-08    84   0.603E-04    0.798E-05
DAV:  13    -0.976109010669E+02   -0.13753E-05   -0.18235E-08   108   0.319E-04    0.564E-05
DAV:  14    -0.976109021841E+02   -0.11172E-05   -0.77207E-09    84   0.236E-04    0.310E-05
DAV:  15    -0.976109025939E+02   -0.40980E-06    0.21977E-09   108   0.142E-04
  60 F= -.97610903E+02 E0= -.97610903E+02  d E =-.170066E-10
       N       E                     dE             d eps       ncg     rms          rms(c)
DAV:   1    -0.976095344206E+02    0.13678E-02   -0.40690E-01   120   0.184E+00    0.198E-01
DAV:   2    -0.976108746392E+02   -0.13402E-02   -0.17039E-02   144   0.422E-01    0.120E-01
DAV:   3    -0.976107556893E+02    0.11895E-03   -0.22806E-04   132   0.534E-02    0.602E-02
DAV:   4    -0.976106767446E+02    0.78945E-04   -0.97019E-05   132   0.359E-02    0.107E-02
DAV:   5    -0.976106773236E+02   -0.57896E-06   -0.16328E-05   132   0.159E-02    0.618E-03
DAV:   6    -0.976107040467E+02   -0.26723E-04   -0.13038E-05   132   0.112E-02    0.328E-03
DAV:   7    -0.976107353908E+02   -0.31344E-04   -0.40015E-06   132   0.638E-03    0.229E-03
DAV:   8    -0.976107777101E+02   -0.42319E-04   -0.40273E-06   108   0.452E-03    0.106E-03
DAV:   9    -0.976108070608E+02   -0.29351E-04   -0.30049E-06   120   0.365E-03    0.864E-04
DAV:  10    -0.976108294121E+02   -0.22351E-04   -0.22814E-06   108   0.295E-03    0.316E-04
DAV:  11    -0.976108362350E+02   -0.68229E-05   -0.33440E-07   108   0.130E-03    0.304E-04
DAV:  12    -0.976108403266E+02   -0.40917E-05   -0.16657E-07   108   0.841E-04    0.112E-04
DAV:  13    -0.976108417736E+02   -0.14470E-05   -0.35212E-08   108   0.414E-04    0.770E-05
DAV:  14    -0.976108428555E+02   -0.10819E-05   -0.12020E-08    96   0.322E-04    0.437E-05
DAV:  15    -0.976108431841E+02   -0.32859E-06    0.17114E-09   108   0.156E-04
  61 F= -.97610843E+02 E0= -.97610843E+02  d E =-.119726E-10
       N       E                     dE             d eps       ncg     rms          rms(c)
DAV:   1    -0.976138663688E+02   -0.30235E-02   -0.23295E-01   108   0.170E+00    0.131E-01
DAV:   2    -0.976142947008E+02   -0.42833E-03   -0.62716E-03   132   0.263E-01    0.796E-02
DAV:   3    -0.976142330529E+02    0.61648E-04   -0.14534E-04   132   0.416E-02    0.368E-02
DAV:   4    -0.976142136476E+02    0.19405E-04   -0.62034E-05   132   0.272E-02    0.719E-03
DAV:   5    -0.976142093054E+02    0.43422E-05   -0.97918E-06   120   0.117E-02    0.443E-03
DAV:   6    -0.976142108366E+02   -0.15312E-05   -0.35809E-06   132   0.571E-03    0.222E-03
DAV:   7    -0.976142161484E+02   -0.53118E-05   -0.46951E-07    96   0.274E-03    0.116E-03
DAV:   8    -0.976142251787E+02   -0.90303E-05   -0.68521E-07    96   0.242E-03    0.755E-04
[...]
DAV:   3    -0.976144240033E+02    0.11721E-03   -0.39187E-04   132   0.536E-02    0.177E-02
DAV:   4    -0.976144261873E+02   -0.21840E-05   -0.55655E-05   132   0.226E-02    0.782E-03
DAV:   5    -0.976144258150E+02    0.37228E-06   -0.35206E-06   120   0.601E-03
 133 F= -.97614426E+02 E0= -.97614426E+02  d E =-.116763E-10
       N       E                     dE             d eps       ncg     rms          rms(c)
DAV:   1    -0.976142633715E+02    0.16282E-03   -0.26528E-01    96   0.183E+00    0.122E-01
DAV:   2    -0.976142612744E+02    0.20970E-05   -0.16911E-03   120   0.134E-01    0.690E-02
DAV:   3    -0.976142061270E+02    0.55147E-04   -0.15501E-04   120   0.356E-02    0.164E-02
DAV:   4    -0.976142067705E+02   -0.64356E-06   -0.27729E-05   132   0.158E-02    0.517E-03
DAV:   5    -0.976142065113E+02    0.25920E-06   -0.22481E-06   120   0.474E-03
 134 F= -.97614207E+02 E0= -.97614207E+02  d E =-.125658E-10
       N       E                     dE             d eps       ncg     rms          rms(c)
DAV:   1    -0.976142038241E+02    0.29464E-05   -0.53153E-01    96   0.240E+00    0.177E-01
DAV:   2    -0.976140763185E+02    0.12751E-03   -0.25721E-03   120   0.160E-01    0.972E-02
DAV:   3    -0.976139423381E+02    0.13398E-03   -0.36261E-04   120   0.508E-02    0.230E-02
DAV:   4    -0.976139379703E+02    0.43678E-05   -0.50681E-05   132   0.217E-02    0.926E-03
DAV:   5    -0.976139380582E+02   -0.87907E-07   -0.42335E-06   108   0.690E-03
 135 F= -.97613938E+02 E0= -.97613938E+02  d E =-.127238E-10
       N       E                     dE             d eps       ncg     rms          rms(c)
DAV:   1    -0.976131586007E+02    0.77937E-03   -0.27217E-01   120   0.174E+00    0.146E-01
DAV:   2    -0.976131093472E+02    0.49254E-04   -0.21109E-03   120   0.152E-01    0.802E-02
DAV:   3    -0.976130211372E+02    0.88210E-04   -0.28846E-04   120   0.482E-02    0.211E-02
DAV:   4    -0.976130215204E+02   -0.38327E-06   -0.63270E-05   132   0.228E-02    0.910E-03
DAV:   5    -0.976130201287E+02    0.13917E-05   -0.26944E-06   132   0.625E-03    0.469E-03
DAV:   6    -0.976130203754E+02   -0.24675E-06   -0.23945E-06   120   0.524E-03
 136 F= -.97613020E+02 E0= -.97613020E+02  d E =-.123032E-10
       N       E                     dE             d eps       ncg     rms          rms(c)
DAV:   1    -0.976135184857E+02   -0.49836E-03   -0.54155E-01   108   0.251E+00    0.196E-01
DAV:   2    -0.976133876617E+02    0.13082E-03   -0.41794E-03   120   0.206E-01    0.108E-01
DAV:   3    -0.976131951108E+02    0.19255E-03   -0.54492E-04   120   0.665E-02    0.284E-02
DAV:   4    -0.976131928134E+02    0.22973E-05   -0.12647E-04   120   0.322E-02    0.120E-02
DAV:   5    -0.976131912552E+02    0.15582E-05   -0.42575E-06   132   0.750E-03    0.655E-03
DAV:   6    -0.976131933960E+02   -0.21408E-05   -0.41105E-06   108   0.644E-03    0.136E-03
DAV:   7    -0.976131964199E+02   -0.30238E-05   -0.10145E-06   120   0.325E-03    0.948E-04
DAV:   8    -0.976132007257E+02   -0.43058E-05   -0.27441E-07    84   0.127E-03    0.362E-04
DAV:   9    -0.976132034690E+02   -0.27433E-05   -0.13535E-07    96   0.809E-04    0.247E-04
DAV:  10    -0.976132069663E+02   -0.34973E-05   -0.22448E-07    96   0.881E-04    0.155E-04
DAV:  11    -0.976132081506E+02   -0.11844E-05   -0.45659E-08   108   0.445E-04    0.898E-05
DAV:  12    -0.976132092671E+02   -0.11165E-05   -0.31004E-08    96   0.369E-04    0.622E-05
DAV:  13    -0.976132097653E+02   -0.49816E-06   -0.84275E-09    96   0.225E-04
 137 F= -.97613210E+02 E0= -.97613210E+02  d E =-.131638E-10
       N       E                     dE             d eps       ncg     rms          rms(c)
DAV:   1    -0.976142728978E+02   -0.10636E-02   -0.27207E-01   108   0.171E+00    0.143E-01
DAV:   2    -0.976142164148E+02    0.56483E-04   -0.21603E-03   120   0.152E-01    0.789E-02
DAV:   3    -0.976141154893E+02    0.10093E-03   -0.26905E-04   132   0.479E-02    0.211E-02
DAV:   4    -0.976141138981E+02    0.15912E-05   -0.64513E-05   108   0.229E-02    0.842E-03
DAV:   5    -0.976141130603E+02    0.83779E-06   -0.25241E-06   132   0.609E-03
 138 F= -.97614113E+02 E0= -.97614113E+02  d E =-.154880E-10
       N       E                     dE             d eps       ncg     rms          rms(c)
DAV:   1    -0.976145018674E+02   -0.38797E-03   -0.52805E-01    96   0.249E+00    0.172E-01
DAV:   2    -0.976143874689E+02    0.11440E-03   -0.26305E-03   108   0.167E-01    0.974E-02
DAV:   3    -0.976142683231E+02    0.11915E-03   -0.38025E-04   132   0.560E-02    0.192E-02
DAV:   4    -0.976142714507E+02   -0.31276E-05   -0.57407E-05   132   0.231E-02    0.872E-03
DAV:   5    -0.976142714388E+02    0.11948E-07   -0.31596E-06   132   0.607E-03
 139 F= -.97614271E+02 E0= -.97614271E+02  d E =-.107594E-10
       N       E                     dE             d eps       ncg     rms          rms(c)
DAV:   1    -0.976140375237E+02    0.23393E-03   -0.26597E-01    96   0.174E+00    0.125E-01
DAV:   2    -0.976140014587E+02    0.36065E-04   -0.14748E-03   120   0.125E-01    0.705E-02
DAV:   3    -0.976139355165E+02    0.65942E-04   -0.22551E-04   120   0.376E-02    0.145E-02
DAV:   4    -0.976139339420E+02    0.15746E-05   -0.23294E-05   132   0.141E-02    0.712E-03
DAV:   5    -0.976139326632E+02    0.12787E-05   -0.22475E-06   108   0.562E-03    0.338E-03
DAV:   6    -0.976139328720E+02   -0.20877E-06   -0.18149E-06   120   0.430E-03
 140 F= -.97613933E+02 E0= -.97613933E+02  d E =-.126161E-10
       N       E                     dE             d eps       ncg     rms          rms(c)
DAV:   1    -0.976139925613E+02   -0.59898E-04   -0.53298E-01    96   0.238E+00    0.183E-01
DAV:   2    -0.976138539002E+02    0.13866E-03   -0.28242E-03   120   0.170E-01    0.998E-02
DAV:   3    -0.976137063758E+02    0.14752E-03   -0.39432E-04   120   0.520E-02    0.250E-02
DAV:   4    -0.976136987815E+02    0.75944E-05   -0.53969E-05   132   0.221E-02    0.100E-02
DAV:   5    -0.976136991500E+02   -0.36856E-06   -0.49967E-06   108   0.770E-03
 141 F= -.97613699E+02 E0= -.97613699E+02  d E =-.128157E-10
       N       E                     dE             d eps       ncg     rms          rms(c)
DAV:   1    -0.976130932650E+02    0.60552E-03   -0.26419E-01   108   0.170E+00    0.110E-01
DAV:   2    -0.976130401085E+02    0.53156E-04   -0.10928E-03   120   0.106E-01    0.642E-02
DAV:   3    -0.976129893766E+02    0.50732E-04   -0.20123E-04   120   0.425E-02    0.852E-03
DAV:   4    -0.976129942465E+02   -0.48700E-05   -0.35661E-05   132   0.186E-02    0.598E-03
DAV:   5    -0.976129952879E+02   -0.10414E-05   -0.73379E-07   108   0.319E-03    0.406E-03
DAV:   6    -0.976129983896E+02   -0.31017E-05   -0.11963E-06   108   0.371E-03    0.601E-04
DAV:   7    -0.976129997405E+02   -0.13509E-05   -0.35489E-07   108   0.199E-03    0.563E-04
DAV:   8    -0.976130014976E+02   -0.17571E-05   -0.84210E-08    96   0.100E-03    0.264E-04
DAV:   9    -0.976130032639E+02   -0.17663E-05   -0.91733E-08    96   0.803E-04    0.172E-04
DAV:  10    -0.976130045385E+02   -0.12746E-05   -0.43495E-08    96   0.547E-04    0.931E-05
DAV:  11    -0.976130053405E+02   -0.80200E-06   -0.24114E-08    96   0.335E-04
 142 F= -.97613005E+02 E0= -.97613005E+02  d E =-.121841E-10
       N       E                     dE             d eps       ncg     rms          rms(c)
DAV:   1    -0.976130256065E+02   -0.21068E-04   -0.54618E-01   108   0.242E+00    0.199E-01
DAV:   2    -0.976129107460E+02    0.11486E-03   -0.42778E-03   120   0.212E-01    0.111E-01
DAV:   3    -0.976127006960E+02    0.21005E-03   -0.56863E-04   132   0.705E-02    0.282E-02
DAV:   4    -0.976127000798E+02    0.61623E-06   -0.14156E-04   120   0.336E-02    0.120E-02
DAV:   5    -0.976126982433E+02    0.18364E-05   -0.47832E-06   132   0.820E-03    0.655E-03
DAV:   6    -0.976127004813E+02   -0.22380E-05   -0.47518E-06   108   0.739E-03    0.159E-03
DAV:   7    -0.976127044072E+02   -0.39259E-05   -0.14821E-06   132   0.383E-03    0.122E-03
DAV:   8    -0.976127097351E+02   -0.53279E-05   -0.30407E-07    96   0.141E-03    0.468E-04
DAV:   9    -0.976127133245E+02   -0.35894E-05   -0.16684E-07   108   0.912E-04    0.320E-04
DAV:  10    -0.976127183321E+02   -0.50076E-05   -0.24274E-07    96   0.951E-04    0.197E-04
DAV:  11    -0.976127203337E+02   -0.20016E-05   -0.55830E-08   108   0.522E-04    0.110E-04
DAV:  12    -0.976127223086E+02   -0.19749E-05   -0.40258E-08    96   0.407E-04    0.794E-05
DAV:  13    -0.976127229641E+02   -0.65558E-06   -0.33971E-09   108   0.208E-04
 143 F= -.97612723E+02 E0= -.97612723E+02  d E =-.130292E-10
       N       E                     dE             d eps       ncg     rms          rms(c)
DAV:   1    -0.976148273397E+02   -0.21050E-02   -0.26948E-01   108   0.177E+00    0.127E-01
DAV:   2    -0.976147449753E+02    0.82364E-04   -0.15301E-03   120   0.129E-01    0.716E-02
DAV:   3    -0.976146644565E+02    0.80519E-04   -0.24826E-04   132   0.466E-02    0.143E-02
DAV:   4    -0.976146669300E+02   -0.24735E-05   -0.52559E-05   132   0.219E-02    0.763E-03
DAV:   5    -0.976146668343E+02    0.95676E-07   -0.13528E-06   108   0.426E-03
 144 F= -.97614667E+02 E0= -.97614667E+02  d E =-.148806E-10
       N       E                     dE             d eps       ncg     rms          rms(c)
DAV:   1    -0.976149701333E+02   -0.30320E-03   -0.52639E-01    96   0.242E+00    0.160E-01
DAV:   2    -0.976148417401E+02    0.12839E-03   -0.20240E-03   120   0.147E-01    0.921E-02
DAV:   3    -0.976147324669E+02    0.10927E-03   -0.37052E-04   132   0.581E-02    0.118E-02
DAV:   4    -0.976147386518E+02   -0.61850E-05   -0.54815E-05   132   0.233E-02    0.703E-03
DAV:   5    -0.976147397456E+02   -0.10938E-05   -0.19144E-06   132   0.455E-03    0.453E-03
DAV:   6    -0.976147426443E+02   -0.28988E-05   -0.11218E-06    96   0.345E-03    0.893E-04
DAV:   7    -0.976147446535E+02   -0.20092E-05   -0.32173E-07   108   0.191E-03    0.787E-04
DAV:   8    -0.976147478640E+02   -0.32104E-05   -0.18765E-07    96   0.175E-03    0.270E-04
DAV:   9    -0.976147500632E+02   -0.21992E-05   -0.16322E-07   108   0.127E-03    0.317E-04
DAV:  10    -0.976147517152E+02   -0.16520E-05   -0.53947E-08    96   0.735E-04    0.141E-04
DAV:  11    -0.976147528361E+02   -0.11209E-05   -0.31937E-08    96   0.407E-04    0.104E-04
DAV:  12    -0.976147534653E+02   -0.62918E-06   -0.10709E-08   108   0.271E-04
 145 F= -.97614753E+02 E0= -.97614753E+02  d E =-.107767E-10
       N       E                     dE             d eps       ncg     rms          rms(c)
DAV:   1    -0.976138379515E+02    0.91488E-03   -0.26638E-01    96   0.201E+00    0.120E-01
DAV:   2    -0.976138061169E+02    0.31835E-04   -0.16433E-03   120   0.154E-01    0.689E-02
DAV:   3    -0.976137419517E+02    0.64165E-04   -0.20917E-04   120   0.492E-02    0.135E-02
DAV:   4    -0.976137449623E+02   -0.30106E-05   -0.47599E-05   120   0.231E-02    0.714E-03
DAV:   5    -0.976137447098E+02    0.25244E-06   -0.12333E-06   108   0.454E-03
 146 F= -.97613745E+02 E0= -.97613745E+02  d E =-.127066E-10
       N       E                     dE             d eps       ncg     rms          rms(c)
DAV:   1    -0.976143017220E+02   -0.55676E-03   -0.53528E-01    96   0.275E+00    0.178E-01
DAV:   2    -0.976141758760E+02    0.12585E-03   -0.33283E-03   120   0.211E-01    0.101E-01
DAV:   3    -0.976140209499E+02    0.15493E-03   -0.45917E-04   120   0.708E-02    0.206E-02
DAV:   4    -0.976140254486E+02   -0.44987E-05   -0.10294E-04   132   0.335E-02    0.107E-02
DAV:   5    -0.976140245876E+02    0.86100E-06   -0.26147E-06   132   0.628E-03
 147 F= -.97614025E+02 E0= -.97614025E+02  d E =-.129539E-10
       N       E                     dE             d eps       ncg     rms          rms(c)
DAV:   1    -0.976129207717E+02    0.11047E-02   -0.26348E-01    96   0.189E+00    0.112E-01
DAV:   2    -0.976128588279E+02    0.61944E-04   -0.10316E-03   108   0.114E-01    0.640E-02
DAV:   3    -0.976127999409E+02    0.58887E-04   -0.16864E-04   120   0.405E-02    0.102E-02
DAV:   4    -0.976128025752E+02   -0.26342E-05   -0.24534E-05   132   0.168E-02    0.562E-03
DAV:   5    -0.976128040784E+02   -0.15032E-05   -0.10265E-06   108   0.365E-03    0.341E-03
DAV:   6    -0.976128072314E+02   -0.31531E-05   -0.79634E-07   108   0.314E-03    0.663E-04
DAV:   7    -0.976128093799E+02   -0.21485E-05   -0.26296E-07   108   0.179E-03    0.596E-04
DAV:   8    -0.976128128228E+02   -0.34429E-05   -0.20895E-07    96   0.161E-03    0.255E-04
DAV:   9    -0.976128147725E+02   -0.19497E-05   -0.13972E-07   108   0.102E-03    0.219E-04
DAV:  10    -0.976128166384E+02   -0.18659E-05   -0.60087E-08    96   0.646E-04    0.118E-04
DAV:  11    -0.976128176524E+02   -0.10141E-05   -0.35814E-08   108   0.402E-04    0.718E-05
DAV:  12    -0.976128183038E+02   -0.65133E-06   -0.11597E-08    96   0.262E-04
 148 F= -.97612818E+02 E0= -.97612818E+02  d E =-.120927E-10
       N       E                     dE             d eps       ncg     rms          rms(c)
DAV:   1    -0.976129846108E+02   -0.16696E-03   -0.54247E-01    96   0.277E+00    0.203E-01
DAV:   2    -0.976129071360E+02    0.77475E-04   -0.42429E-03   120   0.234E-01    0.111E-01
DAV:   3    -0.976127109163E+02    0.19622E-03   -0.47776E-04   132   0.655E-02    0.315E-02
DAV:   4    -0.976127005360E+02    0.10380E-04   -0.99453E-05   132   0.298E-02    0.106E-02
DAV:   5    -0.976126978205E+02    0.27156E-05   -0.63802E-06   132   0.109E-02    0.469E-03
DAV:   6    -0.976127005769E+02   -0.27565E-05   -0.44104E-06   132   0.753E-03    0.192E-03
DAV:   7    -0.976127050777E+02   -0.45008E-05   -0.10319E-06    96   0.368E-03    0.120E-03
DAV:   8    -0.976127106238E+02   -0.55461E-05   -0.33774E-07    96   0.206E-03    0.642E-04
DAV:   9    -0.976127165145E+02   -0.58907E-05   -0.36493E-07    96   0.183E-03    0.384E-04
DAV:  10    -0.976127225814E+02   -0.60669E-05   -0.35857E-07    96   0.141E-03    0.175E-04
DAV:  11    -0.976127252921E+02   -0.27107E-05   -0.63267E-08   108   0.689E-04    0.145E-04
DAV:  12    -0.976127273965E+02   -0.21044E-05   -0.30420E-08    96   0.413E-04    0.716E-05
DAV:  13    -0.976127285339E+02   -0.11374E-05   -0.16725E-08    96   0.290E-04    0.427E-05
DAV:  14    -0.976127293158E+02   -0.78195E-06   -0.30791E-09    96   0.198E-04
 149 F= -.97612729E+02 E0= -.97612729E+02  d E =-.130831E-10
       N       E                     dE             d eps       ncg     rms          rms(c)
DAV:   1    -0.976149151859E+02   -0.21867E-02   -0.26562E-01    96   0.193E+00    0.129E-01
DAV:   2    -0.976148308261E+02    0.84360E-04   -0.14653E-03   120   0.144E-01    0.714E-02
DAV:   3    -0.976147572968E+02    0.73529E-04   -0.21141E-04   132   0.453E-02    0.157E-02
DAV:   4    -0.976147575956E+02   -0.29884E-06   -0.34733E-05   132   0.192E-02    0.714E-03
DAV:   5    -0.976147580620E+02   -0.46637E-06   -0.16136E-06   108   0.496E-03
 150 F= -.97614758E+02 E0= -.97614758E+02  d E =-.119745E-10
       N       E                     dE             d eps       ncg     rms          rms(c)
DAV:   1    -0.976148693230E+02   -0.11173E-03   -0.52478E-01    96   0.271E+00    0.159E-01
DAV:   2    -0.976147391226E+02    0.13020E-03   -0.20640E-03   120   0.165E-01    0.920E-02
DAV:   3    -0.976146312531E+02    0.10787E-03   -0.35530E-04   132   0.609E-02    0.119E-02
DAV:   4    -0.976146376471E+02   -0.63940E-05   -0.52114E-05   120   0.240E-02    0.747E-03
DAV:   5    -0.976146389106E+02   -0.12635E-05   -0.15605E-06   108   0.453E-03    0.510E-03
DAV:   6    -0.976146429394E+02   -0.40288E-05   -0.18229E-06   108   0.450E-03    0.878E-04
DAV:   7    -0.976146451622E+02   -0.22228E-05   -0.44152E-07   108   0.223E-03    0.826E-04
DAV:   8    -0.976146484137E+02   -0.32515E-05   -0.16707E-07    96   0.156E-03    0.419E-04
DAV:   9    -0.976146516116E+02   -0.31979E-05   -0.18482E-07   108   0.140E-03    0.239E-04
DAV:  10    -0.976146544560E+02   -0.28444E-05   -0.14713E-07    96   0.961E-04    0.135E-04
DAV:  11    -0.976146553460E+02   -0.89008E-06   -0.23585E-08   108   0.409E-04
 151 F= -.97614655E+02 E0= -.97614655E+02  d E =-.130690E-10
       N       E                     dE             d eps       ncg     rms          rms(c)
DAV:   1    -0.976127995732E+02    0.18549E-02   -0.26626E-01   108   0.200E+00    0.130E-01
DAV:   2    -0.976127496795E+02    0.49894E-04   -0.19543E-03   108   0.164E-01    0.712E-02
DAV:   3    -0.976126691339E+02    0.80546E-04   -0.21909E-04   132   0.503E-02    0.191E-02
DAV:   4    -0.976126705515E+02   -0.14177E-05   -0.58070E-05   120   0.242E-02    0.718E-03
DAV:   5    -0.976126708348E+02   -0.28329E-06   -0.23712E-06   120   0.591E-03
 152 F= -.97612671E+02 E0= -.97612671E+02  d E =-.124623E-10
       N       E                     dE             d eps       ncg     rms          rms(c)
DAV:   1    -0.976127242041E+02   -0.53653E-04   -0.54451E-01   108   0.273E+00    0.206E-01
DAV:   2    -0.976126069012E+02    0.11730E-03   -0.44123E-03   120   0.241E-01    0.114E-01
DAV:   3    -0.976123991221E+02    0.20778E-03   -0.59383E-04   120   0.776E-02    0.291E-02
DAV:   4    -0.976123987283E+02    0.39379E-06   -0.13769E-04   132   0.368E-02    0.126E-02
DAV:   5    -0.976123960944E+02    0.26339E-05   -0.52001E-06   108   0.923E-03    0.668E-03
DAV:   6    -0.976123968266E+02   -0.73220E-06   -0.47449E-06   132   0.835E-03
 153 F= -.97612397E+02 E0= -.97612397E+02  d E =-.131781E-10
       N       E                     dE             d eps       ncg     rms          rms(c)
DAV:   1    -0.976146199522E+02   -0.22239E-02   -0.26864E-01    96   0.192E+00    0.140E-01
DAV:   2    -0.976145629225E+02    0.57030E-04   -0.18703E-03   120   0.150E-01    0.764E-02
DAV:   3    -0.976144839124E+02    0.79010E-04   -0.23612E-04   120   0.441E-02    0.210E-02
DAV:   4    -0.976144817473E+02    0.21652E-05   -0.39763E-05   120   0.194E-02    0.793E-03
DAV:   5    -0.976144805643E+02    0.11830E-05   -0.30050E-06   120   0.692E-03    0.354E-03
DAV:   6    -0.976144815033E+02   -0.93899E-06   -0.18802E-06   120   0.458E-03
 154 F= -.97614482E+02 E0= -.97614482E+02  d E =-.117214E-10
       N       E                     dE             d eps       ncg     rms          rms(c)
DAV:   1    -0.976150021798E+02   -0.52162E-03   -0.53100E-01    96   0.262E+00    0.161E-01
DAV:   2    -0.976148826157E+02    0.11956E-03   -0.20073E-03   120   0.155E-01    0.925E-02
DAV:   3    -0.976147741740E+02    0.10844E-03   -0.35241E-04   120   0.576E-02    0.138E-02
DAV:   4    -0.976147763959E+02   -0.22219E-05   -0.45918E-05   132   0.230E-02    0.742E-03
DAV:   5    -0.976147758566E+02    0.53934E-06   -0.18944E-06   120   0.508E-03
 155 F= -.97614776E+02 E0= -.97614776E+02  d E =-.133982E-10
       N       E                     dE             d eps       ncg     rms          rms(c)
DAV:   1    -0.976142413712E+02    0.53502E-03   -0.26431E-01    96   0.193E+00    0.115E-01
DAV:   2    -0.976141828830E+02    0.58488E-04   -0.11600E-03   108   0.122E-01    0.667E-02
DAV:   3    -0.976141309836E+02    0.51899E-04   -0.18798E-04   120   0.454E-02    0.921E-03
DAV:   4    -0.976141347843E+02   -0.38007E-05   -0.32932E-05   132   0.191E-02    0.582E-03
DAV:   5    -0.976141352702E+02   -0.48589E-06   -0.76307E-07   108   0.342E-03
 156 F= -.97614135E+02 E0= -.97614135E+02  d E =-.140710E-10
       N       E                     dE             d eps       ncg     rms          rms(c)
DAV:   1    -0.976145000667E+02   -0.36528E-03   -0.52972E-01    96   0.272E+00    0.172E-01
DAV:   2    -0.976144149038E+02    0.85163E-04   -0.28790E-03   132   0.189E-01    0.975E-02
DAV:   3    -0.976142828230E+02    0.13208E-03   -0.36475E-04   120   0.588E-02    0.204E-02
DAV:   4    -0.976142828762E+02   -0.53267E-07   -0.62544E-05   132   0.251E-02    0.868E-03
DAV:   5    -0.976142829707E+02   -0.94447E-07   -0.29935E-06   132   0.642E-03
 157 F= -.97614283E+02 E0= -.97614283E+02  d E =-.113992E-10
