       N       E                     dE             d eps       ncg     rms          rms(c)
DAV:   1     0.209935275759E+03    0.20994E+03   -0.10462E+04   116   0.546E+02
DAV:   2    -0.231951920773E+02   -0.23313E+03   -0.21788E+03   144   0.103E+02
DAV:   3    -0.988210824175E+02   -0.75626E+02   -0.75448E+02   104   0.554E+01
DAV:   4    -0.103267075480E+03   -0.44460E+01   -0.44300E+01   112   0.191E+01
DAV:   5    -0.103330932420E+03   -0.63857E-01   -0.63799E-01   128   0.231E+00    0.142E+01
DAV:   6    -0.100211784096E+03    0.31191E+01   -0.15736E+00   104   0.449E+00    0.821E+00
DAV:   7    -0.985826872063E+02    0.16291E+01   -0.39286E+00   104   0.658E+00    0.120E+00
DAV:   8    -0.985268876738E+02    0.55800E-01   -0.25900E-01   112   0.212E+00    0.588E-01
DAV:   9    -0.984911815023E+02    0.35706E-01   -0.68276E-02   112   0.732E-01    0.314E-01
DAV:  10    -0.984914221798E+02   -0.24068E-03   -0.23825E-03   112   0.198E-01    0.138E-01
DAV:  11    -0.984912542402E+02    0.16794E-03   -0.69239E-03   104   0.244E-01    0.850E-02
DAV:  12    -0.984961208067E+02   -0.48666E-02   -0.11918E-03   104   0.992E-02    0.527E-02
DAV:  13    -0.985005131720E+02   -0.43924E-02   -0.15337E-03   112   0.101E-01    0.339E-02
DAV:  14    -0.985046857980E+02   -0.41726E-02   -0.33207E-04   112   0.537E-02    0.145E-02
DAV:  15    -0.985087876544E+02   -0.41019E-02   -0.47046E-04   112   0.560E-02    0.130E-02
DAV:  16    -0.985099085070E+02   -0.11209E-02   -0.64514E-05   112   0.215E-02    0.570E-03
DAV:  17    -0.985108943276E+02   -0.98582E-03   -0.80387E-05   112   0.212E-02    0.301E-03
DAV:  18    -0.985111989206E+02   -0.30459E-03   -0.11492E-05   104   0.896E-03    0.176E-03
DAV:  19    -0.985113107984E+02   -0.11188E-03   -0.34681E-06   104   0.476E-03    0.139E-03
DAV:  20    -0.985113601988E+02   -0.49400E-04   -0.85305E-07    88   0.300E-03    0.635E-04
DAV:  21    -0.985113830154E+02   -0.22817E-04   -0.72622E-07    88   0.210E-03    0.420E-04
DAV:  22    -0.985113907400E+02   -0.77246E-05   -0.17482E-07    88   0.123E-03    0.221E-04
DAV:  23    -0.985113940299E+02   -0.32898E-05   -0.89180E-08    88   0.746E-04    0.142E-04
DAV:  24    -0.985113959609E+02   -0.19310E-05   -0.28066E-08    88   0.452E-04    0.521E-05
DAV:  25    -0.985113964871E+02   -0.52626E-06   -0.99904E-09    88   0.264E-04
   1 F= -.98511396E+02 E0= -.98511396E+02  d E =-.985114E+02
       N       E                     dE             d eps       ncg     rms          rms(c)
DAV:   1    -0.986115528927E+02   -0.10016E+00   -0.41363E+00    84   0.805E+00    0.936E-01
DAV:   2    -0.986341261909E+02   -0.22573E-01   -0.25654E-01   120   0.191E+00    0.472E-01
DAV:   3    -0.986315040987E+02    0.26221E-02   -0.77739E-03   120   0.362E-01    0.253E-01
DAV:   4    -0.986309281012E+02    0.57600E-03   -0.44331E-03   112   0.239E-01    0.544E-02
DAV:   5    -0.986308062093E+02    0.12189E-03   -0.49534E-04   112   0.939E-02    0.362E-02
DAV:   6    -0.986308051105E+02    0.10988E-05   -0.80996E-05   120   0.333E-02    0.233E-02
DAV:   7    -0.986309012325E+02   -0.96122E-04   -0.31741E-05   112   0.273E-02    0.544E-03
DAV:   8    -0.986309581640E+02   -0.56931E-04   -0.23294E-05   112   0.189E-02    0.819E-03
DAV:   9    -0.986309868396E+02   -0.28676E-04   -0.24392E-06   104   0.595E-03    0.690E-03
DAV:  10    -0.986311044807E+02   -0.11764E-03   -0.71104E-06   104   0.664E-03    0.271E-03
DAV:  11    -0.986311581096E+02   -0.53629E-04   -0.31147E-06   104   0.478E-03    0.291E-03
DAV:  12    -0.986312121059E+02   -0.53996E-04   -0.26906E-06   104   0.449E-03    0.117E-03
DAV:  13    -0.986312295708E+02   -0.17465E-04   -0.57050E-07    88   0.240E-03    0.723E-04
DAV:  14    -0.986312513036E+02   -0.21733E-04   -0.53223E-07    88   0.187E-03    0.398E-04
DAV:  15    -0.986312585947E+02   -0.72911E-05   -0.17320E-07    88   0.950E-04    0.413E-04
DAV:  16    -0.986312633683E+02   -0.47736E-05   -0.48876E-08    88   0.634E-04    0.209E-04
DAV:  17    -0.986312653018E+02   -0.19335E-05   -0.30371E-08    88   0.427E-04    0.255E-04
DAV:  18    -0.986312666920E+02   -0.13903E-05   -0.13937E-08    88   0.337E-04    0.103E-04
DAV:  19    -0.986312671106E+02   -0.41854E-06   -0.43641E-09    88   0.187E-04
   2 F= -.98631267E+02 E0= -.98631267E+02  d E =-.119871E+00
       N       E                     dE             d eps       ncg     rms          rms(c)
DAV:   1    -0.986322575431E+02   -0.99085E-03   -0.30761E-02    84   0.699E-01    0.764E-02
DAV:   2    -0.986324268532E+02   -0.16931E-03   -0.19595E-03   120   0.168E-01    0.424E-02
DAV:   3    -0.986324041614E+02    0.22692E-04   -0.62605E-05   120   0.325E-02    0.222E-02
DAV:   4    -0.986323973427E+02    0.68187E-05   -0.35135E-05   112   0.212E-02    0.511E-03
DAV:   5    -0.986323954031E+02    0.19396E-05   -0.37348E-06   112   0.819E-03    0.324E-03
DAV:   6    -0.986323959084E+02   -0.50525E-06   -0.65001E-07    80   0.307E-03
   3 F= -.98632396E+02 E0= -.98632396E+02  d E =-.120999E+00
       N       E                     dE             d eps       ncg     rms          rms(c)
DAV:   1    -0.986613220177E+02   -0.28927E-01   -0.89136E-01    84   0.410E+00    0.368E-01
DAV:   2    -0.986641712059E+02   -0.28492E-02   -0.37163E-02   120   0.690E-01    0.167E-01
DAV:   3    -0.986637785085E+02    0.39270E-03   -0.14325E-03   120   0.144E-01    0.896E-02
DAV:   4    -0.986636819750E+02    0.96534E-04   -0.46783E-04   112   0.791E-02    0.266E-02
DAV:   5    -0.986636807565E+02    0.12185E-05   -0.49492E-05   120   0.326E-02    0.155E-02
DAV:   6    -0.986636937662E+02   -0.13010E-04   -0.13689E-05   112   0.154E-02    0.690E-03
DAV:   7    -0.986637169862E+02   -0.23220E-04   -0.51597E-06   112   0.912E-03    0.232E-03
DAV:   8    -0.986637298996E+02   -0.12913E-04   -0.77509E-07    88   0.387E-03    0.180E-03
DAV:   9    -0.986637519732E+02   -0.22074E-04   -0.14220E-06    96   0.361E-03    0.687E-04
DAV:  10    -0.986637645075E+02   -0.12534E-04   -0.80163E-07    88   0.284E-03    0.701E-04
DAV:  11    -0.986637743631E+02   -0.98556E-05   -0.66901E-07    88   0.223E-03    0.373E-04
DAV:  12    -0.986637783376E+02   -0.39746E-05   -0.17561E-07    88   0.119E-03    0.281E-04
DAV:  13    -0.986637807314E+02   -0.23938E-05   -0.58371E-08    88   0.782E-04    0.187E-04
DAV:  14    -0.986637829032E+02   -0.21718E-05   -0.95039E-08    88   0.726E-04    0.891E-05
DAV:  15    -0.986637831844E+02   -0.28117E-06   -0.81230E-09    88   0.317E-04
   4 F= -.98663783E+02 E0= -.98663783E+02  d E =-.313873E-01
       N       E                     dE             d eps       ncg     rms          rms(c)
DAV:   1    -0.986650522279E+02   -0.12693E-02   -0.62918E-02    84   0.109E+00    0.964E-02
DAV:   2    -0.986652505975E+02   -0.19837E-03   -0.26379E-03   120   0.184E-01    0.444E-02
DAV:   3    -0.986652210252E+02    0.29572E-04   -0.10394E-04   120   0.387E-02    0.235E-02
DAV:   4    -0.986652114085E+02    0.96167E-05   -0.32769E-05   112   0.209E-02    0.727E-03
DAV:   5    -0.986652098172E+02    0.15913E-05   -0.34218E-06   120   0.859E-03    0.414E-03
DAV:   6    -0.986652104817E+02   -0.66443E-06   -0.88113E-07    88   0.415E-03
   5 F= -.98665210E+02 E0= -.98665210E+02  d E =-.328146E-01
       N       E                     dE             d eps       ncg     rms          rms(c)
DAV:   1    -0.986777088340E+02   -0.12499E-01   -0.36986E-01    84   0.266E+00    0.186E-01
DAV:   2    -0.986787454740E+02   -0.10366E-02   -0.13574E-02   120   0.431E-01    0.102E-01
DAV:   3    -0.986786094053E+02    0.13607E-03   -0.44773E-04   120   0.829E-02    0.541E-02
DAV:   4    -0.986786005467E+02    0.88586E-05   -0.19809E-04   112   0.477E-02    0.141E-02
DAV:   5    -0.986786030053E+02   -0.24586E-05   -0.14694E-05   112   0.159E-02    0.695E-03
DAV:   6    -0.986786064004E+02   -0.33951E-05   -0.40714E-06   112   0.765E-03    0.274E-03
DAV:   7    -0.986786120141E+02   -0.56137E-05   -0.11728E-06    88   0.435E-03    0.952E-04
DAV:   8    -0.986786157188E+02   -0.37047E-05   -0.28836E-07    88   0.211E-03    0.816E-04
DAV:   9    -0.986786208941E+02   -0.51753E-05   -0.22021E-07    80   0.135E-03    0.291E-04
DAV:  10    -0.986786259795E+02   -0.50854E-05   -0.33223E-07    88   0.134E-03    0.409E-04
DAV:  11    -0.986786274596E+02   -0.14801E-05   -0.58027E-08    88   0.788E-04    0.154E-04
DAV:  12    -0.986786299642E+02   -0.25046E-05   -0.11563E-07    88   0.782E-04    0.791E-05
DAV:  13    -0.986786308189E+02   -0.85469E-06   -0.27717E-08    88   0.391E-04
   6 F= -.98678631E+02 E0= -.98678631E+02  d E =-.134203E-01
       N       E                     dE             d eps       ncg     rms          rms(c)
DAV:   1    -0.986840269447E+02   -0.53970E-02   -0.78773E-01    84   0.389E+00    0.270E-01
DAV:   2    -0.986862491661E+02   -0.22222E-02   -0.28893E-02   120   0.630E-01    0.149E-01
DAV:   3    -0.986859657312E+02    0.28343E-03   -0.94246E-04   120   0.121E-01    0.791E-02
DAV:   4    -0.986859437539E+02    0.21977E-04   -0.42126E-04   112   0.698E-02    0.205E-02
DAV:   5    -0.986859455260E+02   -0.17720E-05   -0.32022E-05   112   0.235E-02    0.101E-02
DAV:   6    -0.986859505949E+02   -0.50689E-05   -0.85469E-06   112   0.111E-02    0.400E-03
DAV:   7    -0.986859607979E+02   -0.10203E-04   -0.25997E-06    88   0.638E-03    0.149E-03
DAV:   8    -0.986859672975E+02   -0.64996E-05   -0.55562E-07    88   0.292E-03    0.117E-03
DAV:   9    -0.986859763580E+02   -0.90606E-05   -0.39911E-07    88   0.176E-03    0.444E-04
DAV:  10    -0.986859859260E+02   -0.95680E-05   -0.68537E-07    88   0.187E-03    0.566E-04
DAV:  11    -0.986859895671E+02   -0.36411E-05   -0.16067E-07    88   0.125E-03    0.307E-04
DAV:  12    -0.986859939607E+02   -0.43936E-05   -0.22730E-07    88   0.111E-03    0.116E-04
DAV:  13    -0.986859952687E+02   -0.13081E-05   -0.46522E-08    88   0.514E-04    0.959E-05
DAV:  14    -0.986859971432E+02   -0.18745E-05   -0.61186E-08    88   0.562E-04    0.507E-05
DAV:  15    -0.986859975131E+02   -0.36983E-06   -0.12427E-08    88   0.267E-04
   7 F= -.98685998E+02 E0= -.98685998E+02  d E =-.207870E-01
       N       E                     dE             d eps       ncg     rms          rms(c)
DAV:   1    -0.986955740903E+02   -0.95769E-02   -0.30735E-01    84   0.253E+00    0.148E-01
DAV:   2    -0.986958346269E+02   -0.26054E-03   -0.55557E-03   120   0.301E-01    0.837E-02
DAV:   3    -0.986957064907E+02    0.12814E-03   -0.34560E-04   120   0.792E-02    0.356E-02
DAV:   4    -0.986957093654E+02   -0.28747E-05   -0.15915E-04   120   0.458E-02    0.117E-02
DAV:   5    -0.986957133266E+02   -0.39611E-05   -0.12047E-05   112   0.142E-02    0.666E-03
DAV:   6    -0.986957163539E+02   -0.30273E-05   -0.21002E-06    96   0.529E-03    0.226E-03
DAV:   7    -0.986957202752E+02   -0.39214E-05   -0.52398E-07    88   0.289E-03    0.646E-04
DAV:   8    -0.986957236703E+02   -0.33951E-05   -0.24255E-07    88   0.195E-03    0.607E-04
DAV:   9    -0.986957270995E+02   -0.34292E-05   -0.13762E-07    88   0.142E-03    0.213E-04
DAV:  10    -0.986957300158E+02   -0.29163E-05   -0.14517E-07    88   0.106E-03    0.254E-04
DAV:  11    -0.986957309002E+02   -0.88440E-06   -0.29037E-08    88   0.603E-04
   8 F= -.98695731E+02 E0= -.98695731E+02  d E =-.973339E-02
       N       E                     dE             d eps       ncg     rms          rms(c)
DAV:   1    -0.987017239640E+02   -0.59939E-02   -0.11163E+00    84   0.482E+00    0.282E-01
DAV:   2    -0.987026971972E+02   -0.97323E-03   -0.20296E-02   120   0.574E-01    0.160E-01
DAV:   3    -0.987022476414E+02    0.44956E-03   -0.12445E-03   120   0.151E-01    0.682E-02
DAV:   4    -0.987022633761E+02   -0.15735E-04   -0.58461E-04   120   0.877E-02    0.224E-02
DAV:   5    -0.987022749182E+02   -0.11542E-04   -0.45675E-05   104   0.276E-02    0.128E-02
DAV:   6    -0.987022838134E+02   -0.88952E-05   -0.82161E-06   112   0.101E-02    0.431E-03
DAV:   7    -0.987022944714E+02   -0.10658E-04   -0.11804E-06    88   0.454E-03    0.126E-03
DAV:   8    -0.987023039700E+02   -0.94986E-05   -0.74095E-07    88   0.340E-03    0.119E-03
DAV:   9    -0.987023133841E+02   -0.94140E-05   -0.41413E-07    88   0.263E-03    0.481E-04
DAV:  10    -0.987023213375E+02   -0.79535E-05   -0.48904E-07    88   0.201E-03    0.517E-04
DAV:  11    -0.987023237506E+02   -0.24131E-05   -0.10004E-07    88   0.113E-03    0.204E-04
DAV:  12    -0.987023258238E+02   -0.20731E-05   -0.67144E-08    88   0.708E-04    0.152E-04
DAV:  13    -0.987023271035E+02   -0.12798E-05   -0.30670E-08    88   0.431E-04    0.853E-05
DAV:  14    -0.987023283687E+02   -0.12652E-05   -0.33108E-08    88   0.412E-04    0.458E-05
DAV:  15    -0.987023287662E+02   -0.39758E-06   -0.79535E-09    88   0.222E-04
   9 F= -.98702329E+02 E0= -.98702329E+02  d E =-.163313E-01
       N       E                     dE             d eps       ncg     rms          rms(c)
DAV:   1    -0.987100225055E+02   -0.76941E-02   -0.57284E-01    84   0.341E+00    0.200E-01
DAV:   2    -0.987107581698E+02   -0.73566E-03   -0.12520E-02   120   0.437E-01    0.111E-01
DAV:   3    -0.987105582941E+02    0.19988E-03   -0.58398E-04   128   0.946E-02    0.530E-02
DAV:   4    -0.987105321572E+02    0.26137E-04   -0.21469E-04   112   0.537E-02    0.136E-02
DAV:   5    -0.987105293462E+02    0.28111E-05   -0.20486E-05   120   0.202E-02    0.684E-03
DAV:   6    -0.987105327494E+02   -0.34032E-05   -0.63730E-06   112   0.104E-02    0.353E-03
DAV:   7    -0.987105415166E+02   -0.87672E-05   -0.70680E-07    88   0.455E-03    0.125E-03
DAV:   8    -0.987105503215E+02   -0.88049E-05   -0.60768E-07    88   0.386E-03    0.935E-04
DAV:   9    -0.987105648275E+02   -0.14506E-04   -0.11465E-06    80   0.387E-03    0.440E-04
DAV:  10    -0.987105699665E+02   -0.51390E-05   -0.49326E-07    88   0.235E-03    0.364E-04
DAV:  11    -0.987105718646E+02   -0.18981E-05   -0.74269E-08    88   0.105E-03    0.305E-04
DAV:  12    -0.987105748688E+02   -0.30042E-05   -0.82643E-08    88   0.802E-04    0.154E-04
DAV:  13    -0.987105781543E+02   -0.32854E-05   -0.13947E-07    88   0.906E-04    0.171E-04
DAV:  14    -0.987105790830E+02   -0.92875E-06   -0.23925E-08    88   0.455E-04
  10 F= -.98710579E+02 E0= -.98710579E+02  d E =-.825032E-02
       N       E                     dE             d eps       ncg     rms          rms(c)
DAV:   1    -0.987117849704E+02   -0.12068E-02   -0.24188E-01    84   0.221E+00    0.130E-01
DAV:   2    -0.987120935132E+02   -0.30854E-03   -0.52949E-03   120   0.284E-01    0.724E-02
DAV:   3    -0.987120066819E+02    0.86831E-04   -0.24711E-04   128   0.615E-02    0.344E-02
DAV:   4    -0.987119942160E+02    0.12466E-04   -0.90241E-05   112   0.348E-02    0.880E-03
DAV:   5    -0.987119926995E+02    0.15165E-05   -0.85102E-06   112   0.131E-02    0.444E-03
DAV:   6    -0.987119940411E+02   -0.13416E-05   -0.24957E-06   104   0.678E-03    0.224E-03
DAV:   7    -0.987119981522E+02   -0.41111E-05   -0.46488E-07    88   0.358E-03    0.798E-04
DAV:   8    -0.987120022863E+02   -0.41341E-05   -0.32253E-07    88   0.270E-03    0.637E-04
DAV:   9    -0.987120096203E+02   -0.73340E-05   -0.52773E-07    80   0.251E-03    0.261E-04
DAV:  10    -0.987120118647E+02   -0.22444E-05   -0.19738E-07    88   0.148E-03    0.236E-04
DAV:  11    -0.987120129137E+02   -0.10489E-05   -0.43147E-08    88   0.716E-04    0.182E-04
DAV:  12    -0.987120152549E+02   -0.23412E-05   -0.86094E-08    88   0.713E-04    0.797E-05
DAV:  13    -0.987120164374E+02   -0.11825E-05   -0.40914E-08    88   0.464E-04    0.856E-05
DAV:  14    -0.987120169236E+02   -0.48619E-06   -0.83374E-09    88   0.247E-04
  11 F= -.98712017E+02 E0= -.98712017E+02  d E =-.968816E-02
       N       E                     dE             d eps       ncg     rms          rms(c)
DAV:   1    -0.987132813392E+02   -0.12649E-02   -0.32950E-02    84   0.807E-01    0.628E-02
DAV:   2    -0.987133806446E+02   -0.99305E-04   -0.12876E-03   120   0.135E-01    0.327E-02
DAV:   3    -0.987133684167E+02    0.12228E-04   -0.44746E-05   120   0.265E-02    0.172E-02
DAV:   4    -0.987133655771E+02    0.28396E-05   -0.20301E-05   112   0.152E-02    0.389E-03
DAV:   5    -0.987133647924E+02    0.78467E-06   -0.16480E-06    96   0.561E-03
  12 F= -.98713365E+02 E0= -.98713365E+02  d E =-.134787E-02
       N       E                     dE             d eps       ncg     rms          rms(c)
DAV:   1    -0.987134677362E+02   -0.10216E-03   -0.50576E-03    86   0.316E-01    0.249E-02
DAV:   2    -0.987134835913E+02   -0.15855E-04   -0.20494E-04   120   0.539E-02    0.128E-02
DAV:   3    -0.987134816506E+02    0.19408E-05   -0.68733E-06   120   0.103E-02    0.677E-03
DAV:   4    -0.987134816457E+02    0.48817E-08   -0.31931E-06   112   0.601E-03
  13 F= -.98713482E+02 E0= -.98713482E+02  d E =-.146472E-02
       N       E                     dE             d eps       ncg     rms          rms(c)
DAV:   1    -0.987143157855E+02   -0.83413E-03   -0.28966E-02    84   0.759E-01    0.561E-02
DAV:   2    -0.987144232326E+02   -0.10745E-03   -0.14890E-03   120   0.142E-01    0.327E-02
DAV:   3    -0.987144140072E+02    0.92255E-05   -0.50010E-05   120   0.283E-02    0.185E-02
DAV:   4    -0.987144117326E+02    0.22746E-05   -0.14474E-05   112   0.155E-02    0.441E-03
DAV:   5    -0.987144114726E+02    0.25998E-06   -0.31300E-06   112   0.709E-03
  14 F= -.98714411E+02 E0= -.98714411E+02  d E =-.929827E-03
       N       E                     dE             d eps       ncg     rms          rms(c)
DAV:   1    -0.987144908444E+02   -0.79112E-04   -0.59253E-03    84   0.343E-01    0.257E-02
DAV:   2    -0.987145134916E+02   -0.22647E-04   -0.31094E-04   120   0.649E-02    0.148E-02
DAV:   3    -0.987145118727E+02    0.16189E-05   -0.10129E-05   128   0.128E-02    0.845E-03
DAV:   4    -0.987145120035E+02   -0.13081E-06   -0.28506E-06   112   0.709E-03
  15 F= -.98714512E+02 E0= -.98714512E+02  d E =-.103036E-02
       N       E                     dE             d eps       ncg     rms          rms(c)
DAV:   1    -0.987149746909E+02   -0.46282E-03   -0.16948E-02    84   0.609E-01    0.423E-02
DAV:   2    -0.987149842067E+02   -0.95159E-05   -0.35430E-04   120   0.736E-02    0.216E-02
DAV:   3    -0.987149793304E+02    0.48763E-05   -0.29252E-05   120   0.201E-02    0.102E-02
DAV:   4    -0.987149808927E+02   -0.15623E-05   -0.76692E-06   112   0.104E-02    0.350E-03
DAV:   5    -0.987149819953E+02   -0.11026E-05   -0.56268E-07    88   0.345E-03    0.183E-03
DAV:   6    -0.987149832783E+02   -0.12830E-05   -0.23007E-07    88   0.213E-03    0.603E-04
DAV:   7    -0.987149847417E+02   -0.14634E-05   -0.11775E-07    88   0.138E-03    0.359E-04
DAV:   8    -0.987149862906E+02   -0.15489E-05   -0.58388E-08    88   0.882E-04    0.186E-04
DAV:   9    -0.987149875430E+02   -0.12523E-05   -0.51286E-08    88   0.660E-04    0.109E-04
DAV:  10    -0.987149884818E+02   -0.93882E-06   -0.33968E-08    88   0.494E-04
  16 F= -.98714988E+02 E0= -.98714988E+02  d E =-.476478E-03
