       N       E                     dE             d eps       ncg     rms          rms(c)
DAV:   1     0.247748133487E+03    0.24775E+03   -0.10159E+04   120   0.484E+02
DAV:   2    -0.209518677491E+02   -0.26870E+03   -0.25507E+03   156   0.916E+01
DAV:   3    -0.101312866587E+03   -0.80361E+02   -0.80131E+02   120   0.555E+01
DAV:   4    -0.105228234216E+03   -0.39154E+01   -0.39007E+01   120   0.176E+01
DAV:   5    -0.105300295341E+03   -0.72061E-01   -0.71983E-01   156   0.267E+00    0.150E+01
DAV:   6    -0.101904477850E+03    0.33958E+01   -0.15870E+00   108   0.438E+00    0.861E+00
DAV:   7    -0.100195260138E+03    0.17092E+01   -0.42097E+00   120   0.634E+00    0.130E+00
DAV:   8    -0.100137925441E+03    0.57335E-01   -0.34893E-01   132   0.225E+00    0.694E-01
DAV:   9    -0.100103017782E+03    0.34908E-01   -0.63978E-02   144   0.682E-01    0.369E-01
DAV:  10    -0.100102015985E+03    0.10018E-02   -0.36500E-03   132   0.207E-01    0.143E-01
DAV:  11    -0.100100896885E+03    0.11191E-02   -0.62758E-03   120   0.214E-01    0.109E-01
DAV:  12    -0.100106869506E+03   -0.59726E-02   -0.16594E-03   132   0.111E-01    0.512E-02
DAV:  13    -0.100110132846E+03   -0.32633E-02   -0.17869E-03   132   0.110E-01    0.473E-02
DAV:  14    -0.100113050950E+03   -0.29181E-02   -0.18675E-04   144   0.490E-02    0.213E-02
DAV:  15    -0.100117799567E+03   -0.47486E-02   -0.53416E-04   108   0.573E-02    0.138E-02
DAV:  16    -0.100119420456E+03   -0.16209E-02   -0.11241E-04   132   0.315E-02    0.848E-03
DAV:  17    -0.100120637804E+03   -0.12173E-02   -0.10764E-04   132   0.228E-02    0.677E-03
DAV:  18    -0.100120940714E+03   -0.30291E-03   -0.89525E-06   132   0.763E-03    0.185E-03
DAV:  19    -0.100121182389E+03   -0.24168E-03   -0.10986E-05   108   0.718E-03    0.213E-03
DAV:  20    -0.100121236479E+03   -0.54090E-04   -0.96336E-07   108   0.315E-03    0.642E-04
DAV:  21    -0.100121263019E+03   -0.26540E-04   -0.57883E-07    96   0.188E-03    0.456E-04
DAV:  22    -0.100121276929E+03   -0.13911E-04   -0.32145E-07   108   0.128E-03    0.243E-04
DAV:  23    -0.100121280764E+03   -0.38346E-05   -0.70638E-08   108   0.611E-04    0.136E-04
DAV:  24    -0.100121284233E+03   -0.34693E-05   -0.47432E-08    84   0.488E-04    0.852E-05
DAV:  25    -0.100121285139E+03   -0.90570E-06   -0.79832E-09   108   0.282E-04
   1 F= -.10012129E+03 E0= -.10012129E+03  d E =-.115484E-10
       N       E                     dE             d eps       ncg     rms          rms(c)
DAV:   1    -0.100117599049E+03    0.36852E-02   -0.81578E-02    96   0.817E-01    0.126E-01
DAV:   2    -0.100117934408E+03   -0.33536E-03   -0.38161E-03   120   0.202E-01    0.559E-02
DAV:   3    -0.100117921967E+03    0.12440E-04   -0.14143E-04   132   0.439E-02    0.289E-02
DAV:   4    -0.100117925286E+03   -0.33191E-05   -0.32670E-05   120   0.212E-02    0.840E-03
DAV:   5    -0.100117924669E+03    0.61729E-06   -0.62420E-06   132   0.977E-03
   2 F= -.10011792E+03 E0= -.10011792E+03  d E =-.133502E-10
       N       E                     dE             d eps       ncg     rms          rms(c)
DAV:   1    -0.100117158663E+03    0.76662E-03   -0.32507E-01    96   0.164E+00    0.259E-01
DAV:   2    -0.100118495952E+03   -0.13373E-02   -0.15200E-02   120   0.407E-01    0.112E-01
DAV:   3    -0.100118449557E+03    0.46395E-04   -0.56233E-04   144   0.872E-02    0.591E-02
DAV:   4    -0.100118465888E+03   -0.16331E-04   -0.13189E-04   108   0.424E-02    0.176E-02
DAV:   5    -0.100118463165E+03    0.27222E-05   -0.26044E-05   132   0.197E-02    0.924E-03
DAV:   6    -0.100118462870E+03    0.29510E-06   -0.50787E-06   132   0.773E-03
   3 F= -.10011846E+03 E0= -.10011846E+03  d E =-.121637E-10
       N       E                     dE             d eps       ncg     rms          rms(c)
DAV:   1    -0.100117642496E+03    0.82067E-03   -0.16364E-01    96   0.116E+00    0.155E-01
DAV:   2    -0.100118322323E+03   -0.67983E-03   -0.74569E-03   120   0.283E-01    0.762E-02
DAV:   3    -0.100118311569E+03    0.10754E-04   -0.26941E-04   132   0.613E-02    0.378E-02
DAV:   4    -0.100118324382E+03   -0.12812E-04   -0.58805E-05   108   0.286E-02    0.112E-02
DAV:   5    -0.100118324028E+03    0.35306E-06   -0.91724E-06   120   0.121E-02
   4 F= -.10011832E+03 E0= -.10011832E+03  d E =-.133915E-10
       N       E                     dE             d eps       ncg     rms          rms(c)
DAV:   1    -0.100116843215E+03    0.14812E-02   -0.32555E-01    96   0.164E+00    0.238E-01
DAV:   2    -0.100118181485E+03   -0.13383E-02   -0.14754E-02   120   0.411E-01    0.110E-01
DAV:   3    -0.100118150557E+03    0.30928E-04   -0.52201E-04   132   0.873E-02    0.568E-02
DAV:   4    -0.100118167955E+03   -0.17398E-04   -0.13311E-04   120   0.435E-02    0.160E-02
DAV:   5    -0.100118163620E+03    0.43349E-05   -0.24342E-05   132   0.194E-02    0.884E-03
DAV:   6    -0.100118163110E+03    0.51058E-06   -0.54866E-06   132   0.798E-03
   5 F= -.10011816E+03 E0= -.10011816E+03  d E =-.132824E-10
       N       E                     dE             d eps       ncg     rms          rms(c)
DAV:   1    -0.100115937276E+03    0.22263E-02   -0.16151E-01    96   0.118E+00    0.161E-01
DAV:   2    -0.100116848968E+03   -0.91169E-03   -0.97089E-03   132   0.325E-01    0.923E-02
DAV:   3    -0.100116810438E+03    0.38531E-04   -0.28954E-04   144   0.673E-02    0.489E-02
DAV:   4    -0.100116818076E+03   -0.76383E-05   -0.10886E-04   108   0.388E-02    0.116E-02
DAV:   5    -0.100116816497E+03    0.15787E-05   -0.20525E-05   132   0.170E-02    0.758E-03
DAV:   6    -0.100116818045E+03   -0.15476E-05   -0.37141E-06   120   0.619E-03    0.470E-03
DAV:   7    -0.100116823143E+03   -0.50981E-05   -0.47012E-07    96   0.252E-03    0.185E-03
DAV:   8    -0.100116828930E+03   -0.57870E-05   -0.47927E-07    96   0.233E-03    0.634E-04
DAV:   9    -0.100116834703E+03   -0.57726E-05   -0.37738E-07   108   0.176E-03    0.592E-04
DAV:  10    -0.100116841650E+03   -0.69469E-05   -0.56160E-07    96   0.165E-03    0.385E-04
DAV:  11    -0.100116842887E+03   -0.12370E-05   -0.36839E-08   108   0.708E-04    0.313E-04
DAV:  12    -0.100116844633E+03   -0.17460E-05   -0.40038E-08    84   0.532E-04    0.154E-04
DAV:  13    -0.100116846028E+03   -0.13955E-05   -0.38468E-08   108   0.427E-04    0.101E-04
DAV:  14    -0.100116846968E+03   -0.93969E-06   -0.16200E-08    84   0.285E-04
   6 F= -.10011685E+03 E0= -.10011685E+03  d E =-.128869E-10
       N       E                     dE             d eps       ncg     rms          rms(c)
DAV:   1    -0.100114919148E+03    0.19269E-02   -0.33081E-01    96   0.167E+00    0.263E-01
DAV:   2    -0.100117191081E+03   -0.22719E-02   -0.24651E-02   120   0.498E-01    0.168E-01
DAV:   3    -0.100117023377E+03    0.16770E-03   -0.68434E-04   144   0.106E-01    0.866E-02
DAV:   4    -0.100117024425E+03   -0.10484E-05   -0.41537E-04   132   0.705E-02    0.168E-02
DAV:   5    -0.100117015775E+03    0.86509E-05   -0.63016E-05   132   0.284E-02    0.120E-02
DAV:   6    -0.100117015585E+03    0.18910E-06   -0.11737E-05   132   0.934E-03    0.784E-03
DAV:   7    -0.100117026481E+03   -0.10896E-04   -0.12513E-06   108   0.373E-03    0.321E-03
DAV:   8    -0.100117045498E+03   -0.19017E-04   -0.18452E-06   120   0.444E-03    0.127E-03
DAV:   9    -0.100117059568E+03   -0.14070E-04   -0.10470E-06   132   0.240E-03    0.156E-03
DAV:  10    -0.100117081028E+03   -0.21460E-04   -0.11106E-06   120   0.224E-03    0.556E-04
DAV:  11    -0.100117086116E+03   -0.50880E-05   -0.15110E-07   108   0.972E-04    0.411E-04
DAV:  12    -0.100117095037E+03   -0.89217E-05   -0.27832E-07   108   0.107E-03    0.206E-04
DAV:  13    -0.100117097771E+03   -0.27336E-05   -0.72748E-08   108   0.528E-04    0.200E-04
DAV:  14    -0.100117100013E+03   -0.22418E-05   -0.22129E-08    84   0.394E-04    0.834E-05
DAV:  15    -0.100117100912E+03   -0.89884E-06   -0.78494E-09   108   0.249E-04
   7 F= -.10011710E+03 E0= -.10011710E+03  d E =-.101115E-10
       N       E                     dE             d eps       ncg     rms          rms(c)
DAV:   1    -0.100116044829E+03    0.10552E-02   -0.18974E-01    96   0.131E+00    0.191E-01
DAV:   2    -0.100117468863E+03   -0.14240E-02   -0.14741E-02   108   0.419E-01    0.120E-01
DAV:   3    -0.100117387484E+03    0.81379E-04   -0.39892E-04   156   0.837E-02    0.662E-02
DAV:   4    -0.100117384871E+03    0.26131E-05   -0.21426E-04   120   0.561E-02    0.122E-02
DAV:   5    -0.100117380914E+03    0.39576E-05   -0.43101E-05   120   0.232E-02    0.954E-03
DAV:   6    -0.100117381143E+03   -0.22962E-06   -0.40826E-06   132   0.654E-03
   8 F= -.10011738E+03 E0= -.10011738E+03  d E =-.143761E-10
       N       E                     dE             d eps       ncg     rms          rms(c)
DAV:   1    -0.100115163619E+03    0.22173E-02   -0.33811E-01    96   0.175E+00    0.257E-01
DAV:   2    -0.100117255556E+03   -0.20919E-02   -0.21408E-02   132   0.498E-01    0.153E-01
DAV:   3    -0.100117190501E+03    0.65055E-04   -0.52487E-04   120   0.892E-02    0.836E-02
DAV:   4    -0.100117185816E+03    0.46850E-05   -0.23541E-04   120   0.580E-02    0.154E-02
DAV:   5    -0.100117176814E+03    0.90025E-05   -0.47154E-05   144   0.254E-02    0.106E-02
DAV:   6    -0.100117175907E+03    0.90737E-06   -0.76624E-06   132   0.969E-03
   9 F= -.10011718E+03 E0= -.10011718E+03  d E =-.117459E-10
       N       E                     dE             d eps       ncg     rms          rms(c)
DAV:   1    -0.100114941333E+03    0.22355E-02   -0.17108E-01    96   0.125E+00    0.183E-01
DAV:   2    -0.100116115112E+03   -0.11738E-02   -0.11731E-02   132   0.378E-01    0.116E-01
DAV:   3    -0.100116091664E+03    0.23448E-04   -0.26010E-04   120   0.666E-02    0.659E-02
DAV:   4    -0.100116112180E+03   -0.20516E-04   -0.17532E-04   120   0.505E-02    0.115E-02
DAV:   5    -0.100116108696E+03    0.34838E-05   -0.41018E-05   144   0.232E-02    0.895E-03
DAV:   6    -0.100116108567E+03    0.12896E-06   -0.69058E-06   120   0.810E-03
  10 F= -.10011611E+03 E0= -.10011611E+03  d E =-.137581E-10
       N       E                     dE             d eps       ncg     rms          rms(c)
DAV:   1    -0.100114219645E+03    0.18891E-02   -0.35189E-01    96   0.180E+00    0.272E-01
DAV:   2    -0.100116775357E+03   -0.25557E-02   -0.25890E-02   132   0.555E-01    0.179E-01
DAV:   3    -0.100116650417E+03    0.12494E-03   -0.65086E-04   120   0.110E-01    0.874E-02
DAV:   4    -0.100116679213E+03   -0.28796E-04   -0.46585E-04   132   0.772E-02    0.174E-02
DAV:   5    -0.100116662230E+03    0.16984E-04   -0.72489E-05   120   0.311E-02    0.111E-02
DAV:   6    -0.100116663698E+03   -0.14684E-05   -0.14667E-05   132   0.104E-02    0.572E-03
DAV:   7    -0.100116677327E+03   -0.13629E-04   -0.11427E-06    96   0.328E-03    0.255E-03
DAV:   8    -0.100116696785E+03   -0.19458E-04   -0.32805E-06   120   0.499E-03    0.160E-03
DAV:   9    -0.100116712542E+03   -0.15757E-04   -0.13745E-06    96   0.304E-03    0.121E-03
DAV:  10    -0.100116725562E+03   -0.13020E-04   -0.98667E-07   108   0.228E-03    0.414E-04
DAV:  11    -0.100116730478E+03   -0.49157E-05   -0.15084E-07   108   0.107E-03    0.262E-04
DAV:  12    -0.100116736720E+03   -0.62422E-05   -0.28465E-07    84   0.106E-03    0.192E-04
DAV:  13    -0.100116738302E+03   -0.15818E-05   -0.36494E-08   108   0.433E-04    0.165E-04
DAV:  14    -0.100116740172E+03   -0.18693E-05   -0.29941E-08    84   0.405E-04    0.641E-05
DAV:  15    -0.100116740678E+03   -0.50618E-06   -0.35883E-09   108   0.223E-04
  11 F= -.10011674E+03 E0= -.10011674E+03  d E =-.128197E-10
       N       E                     dE             d eps       ncg     rms          rms(c)
DAV:   1    -0.100116870011E+03   -0.12984E-03   -0.17185E-01    96   0.126E+00    0.179E-01
DAV:   2    -0.100118134029E+03   -0.12640E-02   -0.12900E-02   108   0.397E-01    0.120E-01
DAV:   3    -0.100118069914E+03    0.64115E-04   -0.30831E-04   156   0.747E-02    0.626E-02
DAV:   4    -0.100118071952E+03   -0.20379E-05   -0.20301E-04   120   0.537E-02    0.120E-02
DAV:   5    -0.100118066549E+03    0.54026E-05   -0.43482E-05   132   0.243E-02    0.844E-03
DAV:   6    -0.100118068076E+03   -0.15270E-05   -0.73755E-06   132   0.773E-03    0.493E-03
DAV:   7    -0.100118077588E+03   -0.95118E-05   -0.82787E-07   108   0.341E-03    0.223E-03
DAV:   8    -0.100118093556E+03   -0.15968E-04   -0.27100E-06   108   0.478E-03    0.139E-03
DAV:   9    -0.100118102984E+03   -0.94285E-05   -0.71059E-07   108   0.262E-03    0.110E-03
DAV:  10    -0.100118115224E+03   -0.12240E-04   -0.11433E-06    96   0.236E-03    0.369E-04
DAV:  11    -0.100118118624E+03   -0.33999E-05   -0.12375E-07   108   0.101E-03    0.262E-04
DAV:  12    -0.100118122539E+03   -0.39148E-05   -0.13618E-07    84   0.798E-04    0.152E-04
DAV:  13    -0.100118124353E+03   -0.18136E-05   -0.52397E-08    96   0.481E-04    0.128E-04
DAV:  14    -0.100118125841E+03   -0.14885E-05   -0.26846E-08    96   0.371E-04    0.437E-05
DAV:  15    -0.100118126318E+03   -0.47734E-06   -0.16888E-09   108   0.188E-04
  12 F= -.10011813E+03 E0= -.10011813E+03  d E =-.916114E-11
       N       E                     dE             d eps       ncg     rms          rms(c)
DAV:   1    -0.100115982841E+03    0.21430E-02   -0.32533E-01    96   0.169E+00    0.220E-01
DAV:   2    -0.100117872092E+03   -0.18893E-02   -0.19325E-02   108   0.463E-01    0.128E-01
DAV:   3    -0.100117844809E+03    0.27283E-04   -0.50615E-04   132   0.873E-02    0.691E-02
DAV:   4    -0.100117855366E+03   -0.10556E-04   -0.18016E-04   120   0.555E-02    0.136E-02
DAV:   5    -0.100117848799E+03    0.65663E-05   -0.47065E-05   132   0.262E-02    0.988E-03
DAV:   6    -0.100117848721E+03    0.77970E-07   -0.70143E-06   144   0.864E-03
  13 F= -.10011785E+03 E0= -.10011785E+03  d E =-.137487E-10
       N       E                     dE             d eps       ncg     rms          rms(c)
DAV:   1    -0.100115283636E+03    0.25652E-02   -0.16688E-01    96   0.129E+00    0.171E-01
DAV:   2    -0.100116604358E+03   -0.13207E-02   -0.13504E-02   132   0.397E-01    0.113E-01
DAV:   3    -0.100116561517E+03    0.42842E-04   -0.32808E-04   144   0.746E-02    0.659E-02
DAV:   4    -0.100116582236E+03   -0.20719E-04   -0.18669E-04   120   0.569E-02    0.123E-02
DAV:   5    -0.100116582100E+03    0.13562E-06   -0.59886E-05   132   0.285E-02    0.101E-02
DAV:   6    -0.100116580961E+03    0.11391E-05   -0.58640E-06   132   0.808E-03    0.702E-03
DAV:   7    -0.100116584012E+03   -0.30504E-05   -0.19050E-06   132   0.524E-03    0.280E-03
DAV:   8    -0.100116589133E+03   -0.51214E-05   -0.65454E-07   108   0.370E-03    0.773E-04
DAV:   9    -0.100116595618E+03   -0.64853E-05   -0.64015E-07   108   0.258E-03    0.108E-03
DAV:  10    -0.100116603630E+03   -0.80114E-05   -0.36354E-07    96   0.174E-03    0.370E-04
DAV:  11    -0.100116606584E+03   -0.29547E-05   -0.13347E-07    96   0.955E-04    0.291E-04
DAV:  12    -0.100116609962E+03   -0.33776E-05   -0.85492E-08    84   0.702E-04    0.135E-04
DAV:  13    -0.100116612289E+03   -0.23270E-05   -0.70977E-08    96   0.570E-04    0.125E-04
DAV:  14    -0.100116613487E+03   -0.11986E-05   -0.17231E-08   108   0.316E-04    0.831E-05
DAV:  15    -0.100116614248E+03   -0.76094E-06   -0.73954E-09    84   0.241E-04
  14 F= -.10011661E+03 E0= -.10011661E+03  d E =-.959881E-11
       N       E                     dE             d eps       ncg     rms          rms(c)
DAV:   1    -0.100114640482E+03    0.19730E-02   -0.35001E-01    96   0.179E+00    0.259E-01
DAV:   2    -0.100116992213E+03   -0.23517E-02   -0.24048E-02   132   0.553E-01    0.172E-01
DAV:   3    -0.100116878449E+03    0.11376E-03   -0.57087E-04   144   0.103E-01    0.924E-02
DAV:   4    -0.100116882936E+03   -0.44865E-05   -0.39207E-04   132   0.772E-02    0.175E-02
DAV:   5    -0.100116874794E+03    0.81420E-05   -0.89456E-05   132   0.351E-02    0.126E-02
DAV:   6    -0.100116879276E+03   -0.44821E-05   -0.16794E-05   132   0.118E-02    0.797E-03
DAV:   7    -0.100116898059E+03   -0.18783E-04   -0.20171E-06   132   0.506E-03    0.343E-03
DAV:   8    -0.100116925948E+03   -0.27889E-04   -0.31305E-06   120   0.501E-03    0.111E-03
DAV:   9    -0.100116945864E+03   -0.19916E-04   -0.20295E-06   132   0.355E-03    0.165E-03
DAV:  10    -0.100116967677E+03   -0.21813E-04   -0.18833E-06   120   0.312E-03    0.522E-04
DAV:  11    -0.100116972995E+03   -0.53185E-05   -0.20623E-07   108   0.123E-03    0.347E-04
DAV:  12    -0.100116979675E+03   -0.66792E-05   -0.27201E-07    96   0.109E-03    0.145E-04
DAV:  13    -0.100116982442E+03   -0.27678E-05   -0.11262E-07   108   0.645E-04    0.195E-04
DAV:  14    -0.100116984329E+03   -0.18868E-05   -0.35118E-08    84   0.438E-04    0.999E-05
DAV:  15    -0.100116984970E+03   -0.64121E-06   -0.65843E-09    96   0.242E-04
  15 F= -.10011698E+03 E0= -.10011698E+03  d E =-.146735E-10
       N       E                     dE             d eps       ncg     rms          rms(c)
DAV:   1    -0.100115978824E+03    0.10055E-02   -0.17469E-01    96   0.128E+00    0.184E-01
DAV:   2    -0.100117259029E+03   -0.12802E-02   -0.13115E-02   108   0.403E-01    0.129E-01
DAV:   3    -0.100117184669E+03    0.74359E-04   -0.31751E-04   132   0.785E-02    0.637E-02
DAV:   4    -0.100117190382E+03   -0.57125E-05   -0.23017E-04   120   0.571E-02    0.131E-02
DAV:   5    -0.100117182222E+03    0.81594E-05   -0.40083E-05   132   0.238E-02    0.849E-03
DAV:   6    -0.100117183992E+03   -0.17699E-05   -0.85822E-06   132   0.797E-03    0.441E-03
DAV:   7    -0.100117194499E+03   -0.10507E-04   -0.51541E-07    96   0.240E-03    0.223E-03
DAV:   8    -0.100117213608E+03   -0.19109E-04   -0.26005E-06   120   0.416E-03    0.118E-03
DAV:   9    -0.100117224557E+03   -0.10948E-04   -0.76553E-07   120   0.232E-03    0.108E-03
DAV:  10    -0.100117236586E+03   -0.12030E-04   -0.88532E-07    84   0.195E-03    0.370E-04
DAV:  11    -0.100117240227E+03   -0.36404E-05   -0.15668E-07    96   0.886E-04    0.198E-04
DAV:  12    -0.100117244109E+03   -0.38824E-05   -0.12554E-07   108   0.749E-04    0.156E-04
DAV:  13    -0.100117245596E+03   -0.14867E-05   -0.40521E-08   108   0.414E-04    0.156E-04
DAV:  14    -0.100117246865E+03   -0.12692E-05   -0.18563E-08    96   0.318E-04    0.577E-05
DAV:  15    -0.100117247238E+03   -0.37269E-06    0.11759E-09   108   0.171E-04
  16 F= -.10011725E+03 E0= -.10011725E+03  d E =-.111617E-10
       N       E                     dE             d eps       ncg     rms          rms(c)
DAV:   1    -0.100115247231E+03    0.19996E-02   -0.33858E-01    96   0.181E+00    0.262E-01
DAV:   2    -0.100117299506E+03   -0.20523E-02   -0.21228E-02   132   0.505E-01    0.153E-01
DAV:   3    -0.100117215907E+03    0.83599E-04   -0.55496E-04   132   0.958E-02    0.797E-02
DAV:   4    -0.100117222505E+03   -0.65980E-05   -0.28124E-04   132   0.644E-02    0.164E-02
DAV:   5    -0.100117212944E+03    0.95615E-05   -0.57472E-05   132   0.286E-02    0.119E-02
DAV:   6    -0.100117211874E+03    0.10699E-05   -0.11653E-05   132   0.108E-02    0.713E-03
DAV:   7    -0.100117220866E+03   -0.89920E-05   -0.20694E-06   132   0.553E-03    0.283E-03
DAV:   8    -0.100117235028E+03   -0.14162E-04   -0.11957E-06   120   0.407E-03    0.114E-03
DAV:   9    -0.100117251914E+03   -0.16886E-04   -0.14006E-06   120   0.319E-03    0.139E-03
DAV:  10    -0.100117268139E+03   -0.16225E-04   -0.79241E-07    96   0.237E-03    0.525E-04
DAV:  11    -0.100117275078E+03   -0.69384E-05   -0.30571E-07    96   0.129E-03    0.278E-04
DAV:  12    -0.100117282186E+03   -0.71082E-05   -0.19855E-07    84   0.946E-04    0.197E-04
DAV:  13    -0.100117285080E+03   -0.28935E-05   -0.64052E-08    96   0.536E-04    0.155E-04
DAV:  14    -0.100117287670E+03   -0.25902E-05   -0.43875E-08    84   0.429E-04    0.586E-05
DAV:  15    -0.100117288147E+03   -0.47730E-06   -0.40275E-10   108   0.192E-04
  17 F= -.10011729E+03 E0= -.10011729E+03  d E =-.112425E-10
       N       E                     dE             d eps       ncg     rms          rms(c)
DAV:   1    -0.100116932305E+03    0.35536E-03   -0.17052E-01    96   0.129E+00    0.173E-01
DAV:   2    -0.100117987602E+03   -0.10553E-02   -0.10950E-02   132   0.366E-01    0.114E-01
DAV:   3    -0.100117943751E+03    0.43852E-04   -0.26551E-04   132   0.661E-02    0.607E-02
DAV:   4    -0.100117928055E+03    0.15695E-04   -0.12416E-04   132   0.419E-02    0.106E-02
DAV:   5    -0.100117925180E+03    0.28751E-05   -0.18105E-05   132   0.165E-02    0.736E-03
DAV:   6    -0.100117930697E+03   -0.55163E-05   -0.64278E-06   132   0.880E-03    0.411E-03
DAV:   7    -0.100117947784E+03   -0.17087E-04   -0.24359E-06   132   0.558E-03    0.153E-03
DAV:   8    -0.100117965019E+03   -0.17235E-04   -0.11923E-06   120   0.351E-03    0.986E-04
DAV:   9    -0.100117983993E+03   -0.18975E-04   -0.18224E-06   108   0.319E-03    0.809E-04
DAV:  10    -0.100117996481E+03   -0.12488E-04   -0.10448E-06   108   0.215E-03    0.361E-04
DAV:  11    -0.100118000890E+03   -0.44088E-05   -0.16435E-07   108   0.929E-04    0.196E-04
DAV:  12    -0.100118005156E+03   -0.42663E-05   -0.27306E-07    84   0.981E-04    0.161E-04
DAV:  13    -0.100118006254E+03   -0.10975E-05   -0.26527E-08   108   0.380E-04    0.680E-05
DAV:  14    -0.100118007067E+03   -0.81307E-06   -0.16149E-08    84   0.314E-04
  18 F= -.10011801E+03 E0= -.10011801E+03  d E =-.111919E-10
       N       E                     dE             d eps       ncg     rms          rms(c)
DAV:   1    -0.100115422440E+03    0.25838E-02   -0.33215E-01    96   0.178E+00    0.215E-01
DAV:   2    -0.100117362662E+03   -0.19402E-02   -0.19878E-02   144   0.482E-01    0.140E-01
DAV:   3    -0.100117320269E+03    0.42393E-04   -0.49706E-04   132   0.867E-02    0.735E-02
DAV:   4    -0.100117315633E+03    0.46353E-05   -0.17553E-04   132   0.536E-02    0.135E-02
DAV:   5    -0.100117306643E+03    0.89900E-05   -0.36900E-05   132   0.239E-02    0.927E-03
DAV:   6    -0.100117307449E+03   -0.80591E-06   -0.76357E-06   132   0.947E-03
  19 F= -.10011731E+03 E0= -.10011731E+03  d E =-.139053E-10
       N       E                     dE             d eps       ncg     rms          rms(c)
DAV:   1    -0.100115490752E+03    0.18159E-02   -0.16873E-01    96   0.132E+00    0.157E-01
DAV:   2    -0.100116794832E+03   -0.13041E-02   -0.13081E-02   144   0.397E-01    0.111E-01
DAV:   3    -0.100116780412E+03    0.14419E-04   -0.27495E-04   132   0.658E-02    0.659E-02
DAV:   4    -0.100116801146E+03   -0.20734E-04   -0.13821E-04   120   0.472E-02    0.963E-03
DAV:   5    -0.100116800070E+03    0.10763E-05   -0.35671E-05   132   0.220E-02    0.763E-03
DAV:   6    -0.100116799620E+03    0.44992E-06   -0.39437E-06   120   0.728E-03
  20 F= -.10011680E+03 E0= -.10011680E+03  d E =-.117349E-10
       N       E                     dE             d eps       ncg     rms          rms(c)
DAV:   1    -0.100114816799E+03    0.19833E-02   -0.34895E-01    96   0.180E+00    0.223E-01
DAV:   2    -0.100117074716E+03   -0.22579E-02   -0.22545E-02   132   0.530E-01    0.162E-01
DAV:   3    -0.100117029556E+03    0.45160E-04   -0.47279E-04   132   0.896E-02    0.888E-02
DAV:   4    -0.100117008097E+03    0.21459E-04   -0.27549E-04   132   0.604E-02    0.148E-02
DAV:   5    -0.100116998474E+03    0.96226E-05   -0.45163E-05   132   0.245E-02    0.102E-02
DAV:   6    -0.100117001685E+03   -0.32115E-05   -0.14338E-05   132   0.119E-02    0.585E-03
DAV:   7    -0.100117022955E+03   -0.21270E-04   -0.38124E-06   120   0.679E-03    0.220E-03
DAV:   8    -0.100117047732E+03   -0.24777E-04   -0.25127E-06   120   0.499E-03    0.117E-03
DAV:   9    -0.100117071054E+03   -0.23322E-04   -0.27103E-06   108   0.401E-03    0.123E-03
DAV:  10    -0.100117088730E+03   -0.17676E-04   -0.15360E-06   120   0.280E-03    0.426E-04
DAV:  11    -0.100117094658E+03   -0.59277E-05   -0.26206E-07   108   0.120E-03    0.302E-04
DAV:  12    -0.100117099492E+03   -0.48340E-05   -0.24165E-07    96   0.101E-03    0.168E-04
DAV:  13    -0.100117101451E+03   -0.19595E-05   -0.60650E-08   108   0.557E-04    0.924E-05
DAV:  14    -0.100117102521E+03   -0.10700E-05   -0.17242E-08    84   0.348E-04    0.516E-05
DAV:  15    -0.100117103097E+03   -0.57570E-06   -0.29792E-09    96   0.217E-04
  21 F= -.10011710E+03 E0= -.10011710E+03  d E =-.138690E-10
       N       E                     dE             d eps       ncg     rms          rms(c)
DAV:   1    -0.100117161127E+03   -0.58606E-04   -0.17094E-01    96   0.125E+00    0.152E-01
DAV:   2    -0.100118207835E+03   -0.10467E-02   -0.10636E-02   132   0.353E-01    0.102E-01
DAV:   3    -0.100118179955E+03    0.27880E-04   -0.22620E-04   132   0.623E-02    0.536E-02
DAV:   4    -0.100118181257E+03   -0.13026E-05   -0.12336E-04   132   0.427E-02    0.102E-02
DAV:   5    -0.100118176382E+03    0.48758E-05   -0.26492E-05   132   0.192E-02    0.725E-03
DAV:   6    -0.100118176127E+03    0.25430E-06   -0.53496E-06   132   0.723E-03
  22 F= -.10011818E+03 E0= -.10011818E+03  d E =-.127622E-10
       N       E                     dE             d eps       ncg     rms          rms(c)
DAV:   1    -0.100116602600E+03    0.15738E-02   -0.33843E-01    96   0.164E+00    0.193E-01
DAV:   2    -0.100118235795E+03   -0.16332E-02   -0.16330E-02   132   0.411E-01    0.113E-01
DAV:   3    -0.100118259491E+03   -0.23696E-04   -0.43316E-04   120   0.832E-02    0.560E-02
DAV:   4    -0.100118292227E+03   -0.32736E-04   -0.13976E-04   132   0.499E-02    0.129E-02
DAV:   5    -0.100118291977E+03    0.24956E-06   -0.35145E-05   132   0.221E-02    0.886E-03
DAV:   6    -0.100118293565E+03   -0.15880E-05   -0.63206E-06   132   0.797E-03    0.493E-03
DAV:   7    -0.100118297468E+03   -0.39030E-05   -0.76725E-07    96   0.369E-03    0.189E-03
DAV:   8    -0.100118302686E+03   -0.52177E-05   -0.71522E-07    96   0.339E-03    0.938E-04
DAV:   9    -0.100118311661E+03   -0.89755E-05   -0.65059E-07    96   0.336E-03    0.466E-04
DAV:  10    -0.100118315780E+03   -0.41181E-05   -0.39721E-07   108   0.200E-03    0.458E-04
DAV:  11    -0.100118317114E+03   -0.13349E-05   -0.43266E-08    96   0.830E-04    0.391E-04
DAV:  12    -0.100118320561E+03   -0.34465E-05   -0.80970E-08   108   0.768E-04    0.136E-04
DAV:  13    -0.100118322796E+03   -0.22347E-05   -0.75695E-08    96   0.597E-04    0.212E-04
DAV:  14    -0.100118323779E+03   -0.98365E-06   -0.95546E-09   108   0.398E-04
  23 F= -.10011832E+03 E0= -.10011832E+03  d E =-.131684E-10
       N       E                     dE             d eps       ncg     rms          rms(c)
DAV:   1    -0.100115354859E+03    0.29679E-02   -0.17048E-01    96   0.122E+00    0.145E-01
DAV:   2    -0.100116336171E+03   -0.98131E-03   -0.99943E-03   120   0.335E-01    0.957E-02
DAV:   3    -0.100116318568E+03    0.17602E-04   -0.22961E-04   132   0.629E-02    0.490E-02
DAV:   4    -0.100116327341E+03   -0.87730E-05   -0.11577E-04   132   0.433E-02    0.103E-02
DAV:   5    -0.100116323920E+03    0.34208E-05   -0.26366E-05   132   0.193E-02    0.689E-03
DAV:   6    -0.100116323562E+03    0.35796E-06   -0.47567E-06   132   0.695E-03
  24 F= -.10011632E+03 E0= -.10011632E+03  d E =-.165557E-10
       N       E                     dE             d eps       ncg     rms          rms(c)
DAV:   1    -0.100114219392E+03    0.21045E-02   -0.35184E-01    96   0.179E+00    0.245E-01
DAV:   2    -0.100116832440E+03   -0.26130E-02   -0.26201E-02   132   0.562E-01    0.177E-01
DAV:   3    -0.100116730259E+03    0.10218E-03   -0.59063E-04   144   0.103E-01    0.924E-02
DAV:   4    -0.100116736472E+03   -0.62133E-05   -0.39511E-04   132   0.736E-02    0.165E-02
DAV:   5    -0.100116722710E+03    0.13762E-04   -0.82600E-05   120   0.326E-02    0.112E-02
DAV:   6    -0.100116725807E+03   -0.30970E-05   -0.14602E-05   132   0.103E-02    0.678E-03
DAV:   7    -0.100116745941E+03   -0.20135E-04   -0.15045E-06   120   0.404E-03    0.312E-03
DAV:   8    -0.100116772754E+03   -0.26812E-04   -0.41164E-06   120   0.578E-03    0.154E-03
DAV:   9    -0.100116788453E+03   -0.15699E-04   -0.18206E-06   120   0.342E-03    0.179E-03
DAV:  10    -0.100116805123E+03   -0.16670E-04   -0.12295E-06    96   0.264E-03    0.657E-04
DAV:  11    -0.100116810880E+03   -0.57565E-05   -0.31434E-07   108   0.140E-03    0.350E-04
DAV:  12    -0.100116817323E+03   -0.64433E-05   -0.33465E-07    96   0.118E-03    0.166E-04
DAV:  13    -0.100116819153E+03   -0.18298E-05   -0.70107E-08   108   0.545E-04    0.220E-04
DAV:  14    -0.100116821050E+03   -0.18973E-05   -0.46397E-08    84   0.492E-04    0.105E-04
DAV:  15    -0.100116821601E+03   -0.55128E-06   -0.10684E-08   108   0.274E-04
  25 F= -.10011682E+03 E0= -.10011682E+03  d E =-.104518E-10
       N       E                     dE             d eps       ncg     rms          rms(c)
DAV:   1    -0.100115750142E+03    0.10709E-02   -0.18657E-01    96   0.135E+00    0.167E-01
DAV:   2    -0.100117090451E+03   -0.13403E-02   -0.14524E-02   108   0.418E-01    0.113E-01
DAV:   3    -0.100117031512E+03    0.58939E-04   -0.26006E-04   144   0.652E-02    0.656E-02
DAV:   4    -0.100117020989E+03    0.10523E-04   -0.16603E-04   132   0.508E-02    0.107E-02
DAV:   5    -0.100117015597E+03    0.53926E-05   -0.42308E-05   132   0.238E-02    0.731E-03
DAV:   6    -0.100117013420E+03    0.21770E-05   -0.68154E-06   132   0.859E-03    0.476E-03
DAV:   7    -0.100117020630E+03   -0.72101E-05   -0.19690E-06   132   0.487E-03    0.189E-03
DAV:   8    -0.100117032828E+03   -0.12198E-04   -0.86133E-07    96   0.313E-03    0.824E-04
DAV:   9    -0.100117044646E+03   -0.11818E-04   -0.89619E-07   108   0.232E-03    0.104E-03
DAV:  10    -0.100117057235E+03   -0.12589E-04   -0.59513E-07    84   0.194E-03    0.266E-04
DAV:  11    -0.100117061516E+03   -0.42808E-05   -0.14149E-07   108   0.924E-04    0.261E-04
DAV:  12    -0.100117066176E+03   -0.46602E-05   -0.10670E-07    84   0.728E-04    0.117E-04
DAV:  13    -0.100117067869E+03   -0.16929E-05   -0.28976E-08   108   0.403E-04    0.894E-05
DAV:  14    -0.100117069375E+03   -0.15065E-05   -0.13944E-08    84   0.296E-04    0.467E-05
DAV:  15    -0.100117070058E+03   -0.68287E-06   -0.34701E-09    96   0.204E-04
  26 F= -.10011707E+03 E0= -.10011707E+03  d E =-.921284E-11
       N       E                     dE             d eps       ncg     rms          rms(c)
DAV:   1    -0.100115670263E+03    0.13991E-02   -0.40805E-01   120   0.180E+00    0.214E-01
DAV:   2    -0.100117175110E+03   -0.15048E-02   -0.18469E-02   108   0.438E-01    0.126E-01
DAV:   3    -0.100117061089E+03    0.11402E-03   -0.29325E-04   132   0.608E-02    0.669E-02
DAV:   4    -0.100117002052E+03    0.59037E-04   -0.12838E-04   132   0.434E-02    0.111E-02
DAV:   5    -0.100116996768E+03    0.52835E-05   -0.28711E-05   132   0.199E-02    0.731E-03
DAV:   6    -0.100117009048E+03   -0.12279E-04   -0.10955E-05   132   0.928E-03    0.423E-03
DAV:   7    -0.100117032204E+03   -0.23157E-04   -0.15692E-06   120   0.399E-03    0.222E-03
DAV:   8    -0.100117070621E+03   -0.38416E-04   -0.43695E-06   120   0.465E-03    0.123E-03
DAV:   9    -0.100117090006E+03   -0.19385E-04   -0.12743E-06   120   0.263E-03    0.956E-04
DAV:  10    -0.100117113117E+03   -0.23111E-04   -0.20270E-06    96   0.283E-03    0.331E-04
DAV:  11    -0.100117120079E+03   -0.69628E-05   -0.24793E-07   108   0.119E-03    0.330E-04
DAV:  12    -0.100117126876E+03   -0.67965E-05   -0.29510E-07    84   0.111E-03    0.133E-04
DAV:  13    -0.100117128677E+03   -0.18011E-05   -0.61725E-08   108   0.516E-04    0.114E-04
DAV:  14    -0.100117130338E+03   -0.16611E-05   -0.19450E-08    84   0.369E-04    0.480E-05
DAV:  15    -0.100117130860E+03   -0.52177E-06   -0.34054E-09   108   0.212E-04
  27 F= -.10011713E+03 E0= -.10011713E+03  d E =-.157659E-10
       N       E                     dE             d eps       ncg     rms          rms(c)
DAV:   1    -0.100116749938E+03    0.38040E-03   -0.20398E-01    96   0.129E+00    0.151E-01
DAV:   2    -0.100117495751E+03   -0.74581E-03   -0.91153E-03   108   0.301E-01    0.779E-02
DAV:   3    -0.100117453489E+03    0.42262E-04   -0.15361E-04   132   0.428E-02    0.413E-02
DAV:   4    -0.100117425236E+03    0.28253E-04   -0.45921E-05   132   0.266E-02    0.802E-03
DAV:   5    -0.100117418793E+03    0.64426E-05   -0.10151E-05   132   0.126E-02    0.477E-03
DAV:   6    -0.100117419761E+03   -0.96774E-06   -0.33068E-06   132   0.642E-03
  28 F= -.10011742E+03 E0= -.10011742E+03  d E =-.149427E-10
       N       E                     dE             d eps       ncg     rms          rms(c)
DAV:   1    -0.100115864553E+03    0.15542E-02   -0.39989E-01    96   0.182E+00    0.217E-01
DAV:   2    -0.100117452477E+03   -0.15879E-02   -0.19048E-02   132   0.433E-01    0.117E-01
DAV:   3    -0.100117372956E+03    0.79521E-04   -0.30022E-04   132   0.604E-02    0.630E-02
DAV:   4    -0.100117313609E+03    0.59346E-04   -0.10331E-04   132   0.381E-02    0.116E-02
DAV:   5    -0.100117306782E+03    0.68273E-05   -0.17535E-05   132   0.168E-02    0.705E-03
DAV:   6    -0.100117318396E+03   -0.11614E-04   -0.79028E-06   132   0.940E-03    0.363E-03
DAV:   7    -0.100117340887E+03   -0.22492E-04   -0.30677E-06   132   0.592E-03    0.200E-03
DAV:   8    -0.100117368895E+03   -0.28008E-04   -0.23601E-06   120   0.407E-03    0.105E-03
DAV:   9    -0.100117389051E+03   -0.20156E-04   -0.18037E-06   120   0.310E-03    0.812E-04
DAV:  10    -0.100117406514E+03   -0.17463E-04   -0.15528E-06   108   0.248E-03    0.349E-04
DAV:  11    -0.100117412772E+03   -0.62589E-05   -0.27120E-07   108   0.115E-03    0.263E-04
DAV:  12    -0.100117418237E+03   -0.54649E-05   -0.32172E-07    96   0.108E-03    0.143E-04
DAV:  13    -0.100117419546E+03   -0.13088E-05   -0.45558E-08   108   0.473E-04    0.840E-05
DAV:  14    -0.100117420485E+03   -0.93892E-06   -0.12314E-08    96   0.314E-04
  29 F= -.10011742E+03 E0= -.10011742E+03  d E =-.116557E-10
       N       E                     dE             d eps       ncg     rms          rms(c)
DAV:   1    -0.100117733338E+03   -0.31379E-03   -0.20283E-01   120   0.128E+00    0.144E-01
DAV:   2    -0.100118403308E+03   -0.66997E-03   -0.81205E-03   108   0.281E-01    0.699E-02
DAV:   3    -0.100118375812E+03    0.27496E-04   -0.15990E-04   132   0.453E-02    0.367E-02
DAV:   4    -0.100118362634E+03    0.13177E-04   -0.43714E-05   120   0.299E-02    0.779E-03
DAV:   5    -0.100118360099E+03    0.25358E-05   -0.14108E-05   132   0.143E-02    0.589E-03
DAV:   6    -0.100118360692E+03   -0.59329E-06   -0.23326E-06   120   0.493E-03
  30 F= -.10011836E+03 E0= -.10011836E+03  d E =-.126074E-10
       N       E                     dE             d eps       ncg     rms          rms(c)
DAV:   1    -0.100116869920E+03    0.14902E-02   -0.40869E-01   108   0.175E+00    0.189E-01
DAV:   2    -0.100118221072E+03   -0.13512E-02   -0.16250E-02   108   0.387E-01    0.922E-02
DAV:   3    -0.100118187492E+03    0.33579E-04   -0.31766E-04   132   0.617E-02    0.491E-02
DAV:   4    -0.100118168936E+03    0.18556E-04   -0.75536E-05   132   0.392E-02    0.100E-02
DAV:   5    -0.100118166045E+03    0.28912E-05   -0.25040E-05   132   0.193E-02    0.774E-03
DAV:   6    -0.100118168295E+03   -0.22503E-05   -0.42350E-06   132   0.690E-03    0.514E-03
DAV:   7    -0.100118175470E+03   -0.71746E-05   -0.81135E-07   108   0.425E-03    0.189E-03
DAV:   8    -0.100118185314E+03   -0.98443E-05   -0.11893E-06   120   0.392E-03    0.125E-03
DAV:   9    -0.100118201791E+03   -0.16477E-04   -0.11656E-06    96   0.349E-03    0.627E-04
DAV:  10    -0.100118208806E+03   -0.70147E-05   -0.40289E-07   108   0.198E-03    0.622E-04
DAV:  11    -0.100118212801E+03   -0.39953E-05   -0.90744E-08   108   0.931E-04    0.406E-04
DAV:  12    -0.100118219288E+03   -0.64869E-05   -0.24688E-07    84   0.105E-03    0.260E-04
DAV:  13    -0.100118220788E+03   -0.15000E-05   -0.30893E-08   108   0.447E-04    0.229E-04
DAV:  14    -0.100118222954E+03   -0.21661E-05   -0.47338E-08    84   0.462E-04    0.562E-05
DAV:  15    -0.100118223527E+03   -0.57287E-06   -0.34256E-09   108   0.223E-04
  31 F= -.10011822E+03 E0= -.10011822E+03  d E =-.150050E-10
       N       E                     dE             d eps       ncg     rms          rms(c)
DAV:   1    -0.100116546221E+03    0.16767E-02   -0.19773E-01   108   0.131E+00    0.139E-01
DAV:   2    -0.100117535550E+03   -0.98933E-03   -0.11951E-02   120   0.318E-01    0.773E-02
DAV:   3    -0.100117494610E+03    0.40940E-04   -0.21849E-04   144   0.498E-02    0.427E-02
DAV:   4    -0.100117463861E+03    0.30749E-04   -0.47636E-05   132   0.302E-02    0.892E-03
DAV:   5    -0.100117456604E+03    0.72562E-05   -0.16739E-05   132   0.159E-02    0.566E-03
DAV:   6    -0.100117459746E+03   -0.31420E-05   -0.31544E-06   132   0.600E-03    0.386E-03
DAV:   7    -0.100117470181E+03   -0.10434E-04   -0.91102E-07   108   0.333E-03    0.151E-03
DAV:   8    -0.100117483006E+03   -0.12825E-04   -0.10470E-06   108   0.315E-03    0.103E-03
DAV:   9    -0.100117500884E+03   -0.17878E-04   -0.15717E-06   108   0.317E-03    0.568E-04
DAV:  10    -0.100117508334E+03   -0.74497E-05   -0.46154E-07   108   0.183E-03    0.522E-04
DAV:  11    -0.100117512045E+03   -0.37108E-05   -0.13075E-07    96   0.943E-04    0.256E-04
DAV:  12    -0.100117516165E+03   -0.41199E-05   -0.19277E-07    84   0.909E-04    0.194E-04
DAV:  13    -0.100117517452E+03   -0.12872E-05   -0.35712E-08   108   0.438E-04    0.122E-04
DAV:  14    -0.100117518509E+03   -0.10569E-05   -0.27688E-08    84   0.351E-04    0.436E-05
DAV:  15    -0.100117518931E+03   -0.42204E-06   -0.14677E-09    96   0.193E-04
  32 F= -.10011752E+03 E0= -.10011752E+03  d E =-.998674E-11
       N       E                     dE             d eps       ncg     rms          rms(c)
DAV:   1    -0.100115972242E+03    0.15463E-02   -0.39236E-01    96   0.171E+00    0.195E-01
DAV:   2    -0.100117516478E+03   -0.15442E-02   -0.19101E-02   144   0.387E-01    0.118E-01
DAV:   3    -0.100117391615E+03    0.12486E-03   -0.31854E-04   132   0.644E-02    0.602E-02
DAV:   4    -0.100117342729E+03    0.48886E-04   -0.13252E-04   132   0.436E-02    0.113E-02
DAV:   5    -0.100117331593E+03    0.11136E-04   -0.26181E-05   132   0.189E-02    0.709E-03
DAV:   6    -0.100117335422E+03   -0.38292E-05   -0.71945E-06   132   0.760E-03    0.396E-03
DAV:   7    -0.100117350702E+03   -0.15280E-04   -0.14114E-06   132   0.369E-03    0.180E-03
DAV:   8    -0.100117373433E+03   -0.22731E-04   -0.14065E-06   108   0.293E-03    0.111E-03
DAV:   9    -0.100117394932E+03   -0.21499E-04   -0.11448E-06   108   0.224E-03    0.766E-04
DAV:  10    -0.100117413970E+03   -0.19038E-04   -0.11115E-06   108   0.198E-03    0.381E-04
DAV:  11    -0.100117419364E+03   -0.53938E-05   -0.78123E-08   108   0.806E-04    0.241E-04
DAV:  12    -0.100117426668E+03   -0.73035E-05   -0.22920E-07    96   0.961E-04    0.128E-04
DAV:  13    -0.100117428485E+03   -0.18168E-05   -0.25516E-08   108   0.416E-04    0.832E-05
DAV:  14    -0.100117430042E+03   -0.15573E-05   -0.12111E-08    84   0.307E-04    0.456E-05
DAV:  15    -0.100117430585E+03   -0.54333E-06    0.51092E-10    96   0.166E-04
  33 F= -.10011743E+03 E0= -.10011743E+03  d E =-.181175E-10
       N       E                     dE             d eps       ncg     rms          rms(c)
DAV:   1    -0.100118082638E+03   -0.65260E-03   -0.19933E-01   108   0.118E+00    0.133E-01
DAV:   2    -0.100118826800E+03   -0.74416E-03   -0.90630E-03   120   0.275E-01    0.771E-02
DAV:   3    -0.100118773877E+03    0.52924E-04   -0.15681E-04   132   0.450E-02    0.398E-02
DAV:   4    -0.100118750895E+03    0.22981E-04   -0.61308E-05   120   0.302E-02    0.780E-03
DAV:   5    -0.100118746626E+03    0.42698E-05   -0.12038E-05   132   0.132E-02    0.500E-03
DAV:   6    -0.100118750149E+03   -0.35228E-05   -0.34791E-06   132   0.576E-03    0.267E-03
DAV:   7    -0.100118758540E+03   -0.83913E-05   -0.75799E-07   120   0.280E-03    0.124E-03
DAV:   8    -0.100118769233E+03   -0.10693E-04   -0.67062E-07   108   0.208E-03    0.699E-04
DAV:   9    -0.100118781247E+03   -0.12014E-04   -0.89773E-07   108   0.203E-03    0.488E-04
DAV:  10    -0.100118790722E+03   -0.94748E-05   -0.81848E-07   120   0.176E-03    0.249E-04
DAV:  11    -0.100118793577E+03   -0.28554E-05   -0.70875E-08   108   0.760E-04    0.142E-04
DAV:  12    -0.100118796167E+03   -0.25896E-05   -0.11425E-07    96   0.674E-04    0.878E-05
DAV:  13    -0.100118796874E+03   -0.70721E-06   -0.12013E-08   108   0.290E-04
  34 F= -.10011880E+03 E0= -.10011880E+03  d E =-.316411E-10
       N       E                     dE             d eps       ncg     rms          rms(c)
DAV:   1    -0.100117187435E+03    0.16087E-02   -0.40709E-01    96   0.171E+00    0.170E-01
DAV:   2    -0.100118467396E+03   -0.12800E-02   -0.15144E-02   132   0.349E-01    0.791E-02
DAV:   3    -0.100118420433E+03    0.46963E-04   -0.28903E-04   132   0.610E-02    0.398E-02
DAV:   4    -0.100118403876E+03    0.16557E-04   -0.70478E-05   132   0.371E-02    0.101E-02
DAV:   5    -0.100118400612E+03    0.32644E-05   -0.21241E-05   132   0.181E-02    0.616E-03
DAV:   6    -0.100118402144E+03   -0.15322E-05   -0.45900E-06   132   0.738E-03    0.351E-03
DAV:   7    -0.100118406017E+03   -0.38734E-05   -0.38423E-07   108   0.259E-03    0.161E-03
DAV:   8    -0.100118412045E+03   -0.60277E-05   -0.48848E-07   108   0.277E-03    0.779E-04
DAV:   9    -0.100118420235E+03   -0.81902E-05   -0.60263E-07    96   0.266E-03    0.461E-04
DAV:  10    -0.100118426263E+03   -0.60277E-05   -0.48768E-07   108   0.197E-03    0.414E-04
DAV:  11    -0.100118428912E+03   -0.26496E-05   -0.75947E-08   108   0.104E-03    0.210E-04
DAV:  12    -0.100118431417E+03   -0.25042E-05   -0.65345E-08   108   0.656E-04    0.167E-04
DAV:  13    -0.100118432801E+03   -0.13845E-05   -0.26525E-08   108   0.380E-04    0.998E-05
DAV:  14    -0.100118434039E+03   -0.12376E-05   -0.24867E-08    96   0.326E-04    0.702E-05
DAV:  15    -0.100118434437E+03   -0.39822E-06    0.78487E-10   108   0.168E-04
  35 F= -.10011843E+03 E0= -.10011843E+03  d E =-.167304E-10
       N       E                     dE             d eps       ncg     rms          rms(c)
DAV:   1    -0.100117606431E+03    0.82761E-03   -0.20425E-01    96   0.121E+00    0.128E-01
DAV:   2    -0.100118210708E+03   -0.60428E-03   -0.72205E-03   132   0.251E-01    0.580E-02
DAV:   3    -0.100118185324E+03    0.25384E-04   -0.14574E-04   132   0.427E-02    0.295E-02
DAV:   4    -0.100118176757E+03    0.85670E-05   -0.36941E-05   132   0.266E-02    0.758E-03
DAV:   5    -0.100118175009E+03    0.17481E-05   -0.10815E-05   132   0.130E-02    0.451E-03
DAV:   6    -0.100118175636E+03   -0.62699E-06   -0.21242E-06   132   0.516E-03
  36 F= -.10011818E+03 E0= -.10011818E+03  d E =-.661878E-11
       N       E                     dE             d eps       ncg     rms          rms(c)
DAV:   1    -0.100117049722E+03    0.11253E-02   -0.40448E-01    96   0.174E+00    0.212E-01
DAV:   2    -0.100118393476E+03   -0.13438E-02   -0.16135E-02   132   0.378E-01    0.926E-02
DAV:   3    -0.100118335762E+03    0.57714E-04   -0.32463E-04   132   0.641E-02    0.473E-02
DAV:   4    -0.100118317981E+03    0.17781E-04   -0.91763E-05   132   0.385E-02    0.118E-02
DAV:   5    -0.100118312309E+03    0.56725E-05   -0.20480E-05   132   0.174E-02    0.673E-03
DAV:   6    -0.100118313333E+03   -0.10247E-05   -0.41072E-06   132   0.682E-03    0.366E-03
DAV:   7    -0.100118318875E+03   -0.55414E-05   -0.58322E-07   108   0.290E-03    0.152E-03
DAV:   8    -0.100118326078E+03   -0.72032E-05   -0.56215E-07   120   0.241E-03    0.782E-04
DAV:   9    -0.100118335337E+03   -0.92592E-05   -0.60187E-07   120   0.225E-03    0.468E-04
DAV:  10    -0.100118342437E+03   -0.71004E-05   -0.47303E-07   108   0.177E-03    0.305E-04
DAV:  11    -0.100118344829E+03   -0.23915E-05   -0.10665E-07   108   0.923E-04    0.224E-04
DAV:  12    -0.100118347280E+03   -0.24513E-05   -0.68258E-08   108   0.611E-04    0.119E-04
DAV:  13    -0.100118349037E+03   -0.17565E-05   -0.60228E-08   108   0.491E-04    0.101E-04
DAV:  14    -0.100118349963E+03   -0.92631E-06   -0.18387E-08    96   0.297E-04
  37 F= -.10011835E+03 E0= -.10011835E+03  d E =-.226284E-10
       N       E                     dE             d eps       ncg     rms          rms(c)
DAV:   1    -0.100117332044E+03    0.10170E-02   -0.20009E-01    96   0.130E+00    0.153E-01
DAV:   2    -0.100118376668E+03   -0.10446E-02   -0.12382E-02   108   0.313E-01    0.699E-02
DAV:   3    -0.100118335629E+03    0.41039E-04   -0.25034E-04   144   0.548E-02    0.385E-02
DAV:   4    -0.100118318867E+03    0.16762E-04   -0.58565E-05   132   0.305E-02    0.100E-02
DAV:   5    -0.100118314706E+03    0.41603E-05   -0.14942E-05   132   0.152E-02    0.574E-03
DAV:   6    -0.100118315366E+03   -0.65946E-06   -0.28627E-06   132   0.634E-03
  38 F= -.10011832E+03 E0= -.10011832E+03  d E =-.280629E-10
       N       E                     dE             d eps       ncg     rms          rms(c)
DAV:   1    -0.100116505154E+03    0.18096E-02   -0.40972E-01    96   0.179E+00    0.191E-01
DAV:   2    -0.100118073304E+03   -0.15682E-02   -0.18301E-02   132   0.406E-01    0.100E-01
DAV:   3    -0.100118006946E+03    0.66358E-04   -0.33280E-04   132   0.659E-02    0.538E-02
DAV:   4    -0.100117981458E+03    0.25488E-04   -0.11835E-04   132   0.428E-02    0.118E-02
DAV:   5    -0.100117974351E+03    0.71065E-05   -0.26497E-05   132   0.195E-02    0.749E-03
DAV:   6    -0.100117975741E+03   -0.13901E-05   -0.52983E-06   132   0.774E-03    0.407E-03
DAV:   7    -0.100117982628E+03   -0.68862E-05   -0.10407E-06    96   0.360E-03    0.154E-03
DAV:   8    -0.100117990585E+03   -0.79573E-05   -0.54241E-07   108   0.248E-03    0.823E-04
DAV:   9    -0.100118001540E+03   -0.10955E-04   -0.87740E-07    96   0.239E-03    0.544E-04
DAV:  10    -0.100118011357E+03   -0.98166E-05   -0.87823E-07   108   0.210E-03    0.318E-04
DAV:  11    -0.100118013918E+03   -0.25614E-05   -0.72487E-08   108   0.905E-04    0.228E-04
DAV:  12    -0.100118016988E+03   -0.30696E-05   -0.10162E-07    96   0.734E-04    0.116E-04
DAV:  13    -0.100118018784E+03   -0.17965E-05   -0.59750E-08   108   0.500E-04    0.923E-05
DAV:  14    -0.100118019748E+03   -0.96397E-06   -0.11944E-08   108   0.282E-04
  39 F= -.10011802E+03 E0= -.10011802E+03  d E =-.912156E-11
       N       E                     dE             d eps       ncg     rms          rms(c)
DAV:   1    -0.100117131773E+03    0.88701E-03   -0.20430E-01    96   0.125E+00    0.142E-01
DAV:   2    -0.100117783595E+03   -0.65182E-03   -0.78050E-03   108   0.266E-01    0.611E-02
DAV:   3    -0.100117752922E+03    0.30673E-04   -0.16705E-04   132   0.460E-02    0.311E-02
DAV:   4    -0.100117744565E+03    0.83568E-05   -0.41527E-05   120   0.258E-02    0.882E-03
DAV:   5    -0.100117742015E+03    0.25498E-05   -0.96524E-06   132   0.124E-02    0.493E-03
DAV:   6    -0.100117742134E+03   -0.11875E-06   -0.22147E-06   132   0.532E-03
  40 F= -.10011774E+03 E0= -.10011774E+03  d E =-.258123E-10
       N       E                     dE             d eps       ncg     rms          rms(c)
DAV:   1    -0.100116045277E+03    0.16967E-02   -0.39393E-01    96   0.178E+00    0.214E-01
DAV:   2    -0.100117559675E+03   -0.15144E-02   -0.18249E-02   120   0.422E-01    0.117E-01
DAV:   3    -0.100117447621E+03    0.11205E-03   -0.32764E-04   144   0.692E-02    0.610E-02
DAV:   4    -0.100117411287E+03    0.36334E-04   -0.15240E-04   132   0.464E-02    0.123E-02
DAV:   5    -0.100117401377E+03    0.99103E-05   -0.25929E-05   132   0.193E-02    0.791E-03
DAV:   6    -0.100117401023E+03    0.35407E-06   -0.64427E-06   132   0.809E-03
  41 F= -.10011740E+03 E0= -.10011740E+03  d E =-.821018E-11
       N       E                     dE             d eps       ncg     rms          rms(c)
DAV:   1    -0.100117918412E+03   -0.51704E-03   -0.19965E-01    96   0.129E+00    0.154E-01
DAV:   2    -0.100118624238E+03   -0.70583E-03   -0.82840E-03   132   0.288E-01    0.724E-02
DAV:   3    -0.100118598800E+03    0.25439E-04   -0.16371E-04   132   0.469E-02    0.381E-02
DAV:   4    -0.100118606784E+03   -0.79849E-05   -0.56125E-05   132   0.293E-02    0.927E-03
DAV:   5    -0.100118608877E+03   -0.20928E-05   -0.11072E-05   132   0.130E-02    0.581E-03
DAV:   6    -0.100118610303E+03   -0.14260E-05   -0.20611E-06   120   0.542E-03    0.289E-03
DAV:   7    -0.100118612571E+03   -0.22683E-05   -0.54115E-07   108   0.293E-03    0.103E-03
DAV:   8    -0.100118614764E+03   -0.21929E-05   -0.22923E-07   108   0.190E-03    0.501E-04
DAV:   9    -0.100118617678E+03   -0.29135E-05   -0.18260E-07   108   0.147E-03    0.282E-04
DAV:  10    -0.100118620073E+03   -0.23951E-05   -0.15358E-07    96   0.111E-03    0.155E-04
DAV:  11    -0.100118621620E+03   -0.15470E-05   -0.53871E-08   108   0.664E-04    0.137E-04
DAV:  12    -0.100118622612E+03   -0.99155E-06   -0.22604E-08   108   0.405E-04
  42 F= -.10011862E+03 E0= -.10011862E+03  d E =-.791795E-11
       N       E                     dE             d eps       ncg     rms          rms(c)
DAV:   1    -0.100117230840E+03    0.13908E-02   -0.40997E-01    96   0.182E+00    0.216E-01
DAV:   2    -0.100118449327E+03   -0.12185E-02   -0.14859E-02   144   0.372E-01    0.858E-02
DAV:   3    -0.100118389525E+03    0.59802E-04   -0.34148E-04   132   0.650E-02    0.444E-02
DAV:   4    -0.100118373995E+03    0.15530E-04   -0.78659E-05   132   0.367E-02    0.128E-02
DAV:   5    -0.100118371212E+03    0.27834E-05   -0.19742E-05   132   0.177E-02    0.750E-03
DAV:   6    -0.100118372247E+03   -0.10354E-05   -0.36910E-06   132   0.692E-03    0.418E-03
DAV:   7    -0.100118376001E+03   -0.37533E-05   -0.38157E-07   108   0.277E-03    0.149E-03
DAV:   8    -0.100118380777E+03   -0.47761E-05   -0.33368E-07   108   0.240E-03    0.743E-04
DAV:   9    -0.100118389247E+03   -0.84699E-05   -0.60099E-07   108   0.279E-03    0.406E-04
DAV:  10    -0.100118393651E+03   -0.44048E-05   -0.39474E-07   108   0.182E-03    0.418E-04
DAV:  11    -0.100118395114E+03   -0.14624E-05   -0.42892E-08   108   0.796E-04    0.341E-04
DAV:  12    -0.100118397270E+03   -0.21563E-05   -0.47068E-08   108   0.629E-04    0.113E-04
DAV:  13    -0.100118398775E+03   -0.15045E-05   -0.41917E-08   108   0.485E-04    0.178E-04
DAV:  14    -0.100118399690E+03   -0.91560E-06   -0.11972E-08   108   0.338E-04
  43 F= -.10011840E+03 E0= -.10011840E+03  d E =-.173752E-10
       N       E                     dE             d eps       ncg     rms          rms(c)
DAV:   1    -0.100117273641E+03    0.11251E-02   -0.20312E-01    96   0.131E+00    0.154E-01
DAV:   2    -0.100118267465E+03   -0.99382E-03   -0.11657E-02   132   0.301E-01    0.656E-02
DAV:   3    -0.100118245175E+03    0.22290E-04   -0.22036E-04   132   0.488E-02    0.361E-02
DAV:   4    -0.100118234760E+03    0.10415E-04   -0.47145E-05   144   0.247E-02    0.977E-03
DAV:   5    -0.100118231776E+03    0.29843E-05   -0.70919E-06   132   0.105E-02    0.556E-03
DAV:   6    -0.100118231970E+03   -0.19359E-06   -0.20647E-06   108   0.615E-03
  44 F= -.10011823E+03 E0= -.10011823E+03  d E =-.298338E-10
       N       E                     dE             d eps       ncg     rms          rms(c)
DAV:   1    -0.100116945791E+03    0.12860E-02   -0.41380E-01    96   0.176E+00    0.190E-01
DAV:   2    -0.100118352372E+03   -0.14066E-02   -0.16538E-02   132   0.377E-01    0.935E-02
DAV:   3    -0.100118295397E+03    0.56975E-04   -0.29159E-04   144   0.608E-02    0.495E-02
DAV:   4    -0.100118269562E+03    0.25835E-04   -0.95551E-05   132   0.404E-02    0.110E-02
DAV:   5    -0.100118263065E+03    0.64970E-05   -0.26371E-05   132   0.194E-02    0.693E-03
DAV:   6    -0.100118264399E+03   -0.13335E-05   -0.46002E-06   132   0.726E-03    0.421E-03
DAV:   7    -0.100118269989E+03   -0.55905E-05   -0.69401E-07   108   0.305E-03    0.173E-03
DAV:   8    -0.100118277714E+03   -0.77247E-05   -0.69546E-07   108   0.275E-03    0.865E-04
DAV:   9    -0.100118289531E+03   -0.11817E-04   -0.10011E-06   108   0.280E-03    0.562E-04
DAV:  10    -0.100118296842E+03   -0.73112E-05   -0.53858E-07   108   0.196E-03    0.473E-04
DAV:  11    -0.100118299165E+03   -0.23232E-05   -0.96554E-08   108   0.957E-04    0.306E-04
DAV:  12    -0.100118302493E+03   -0.33283E-05   -0.13095E-07    84   0.866E-04    0.198E-04
DAV:  13    -0.100118303677E+03   -0.11832E-05   -0.38078E-08   108   0.453E-04    0.170E-04
DAV:  14    -0.100118304916E+03   -0.12394E-05   -0.28408E-08    84   0.384E-04    0.408E-05
DAV:  15    -0.100118305351E+03   -0.43508E-06   -0.39649E-09   108   0.219E-04
  45 F= -.10011831E+03 E0= -.10011831E+03  d E =-.954493E-11
       N       E                     dE             d eps       ncg     rms          rms(c)
DAV:   1    -0.100116844040E+03    0.14609E-02   -0.20054E-01    96   0.124E+00    0.137E-01
DAV:   2    -0.100117626176E+03   -0.78214E-03   -0.95799E-03   132   0.290E-01    0.840E-02
DAV:   3    -0.100117563482E+03    0.62694E-04   -0.15050E-04   132   0.455E-02    0.433E-02
DAV:   4    -0.100117536269E+03    0.27213E-04   -0.71337E-05   132   0.320E-02    0.804E-03
DAV:   5    -0.100117529765E+03    0.65039E-05   -0.13401E-05   132   0.137E-02    0.522E-03
DAV:   6    -0.100117530965E+03   -0.12004E-05   -0.37550E-06   132   0.582E-03    0.283E-03
DAV:   7    -0.100117538341E+03   -0.73756E-05   -0.72997E-07    96   0.290E-03    0.124E-03
DAV:   8    -0.100117550184E+03   -0.11843E-04   -0.86259E-07   108   0.239E-03    0.850E-04
DAV:   9    -0.100117562255E+03   -0.12071E-04   -0.58790E-07   108   0.179E-03    0.519E-04
DAV:  10    -0.100117571732E+03   -0.94774E-05   -0.52192E-07   108   0.138E-03    0.266E-04
DAV:  11    -0.100117575849E+03   -0.41171E-05   -0.92829E-08   108   0.689E-04    0.182E-04
DAV:  12    -0.100117579937E+03   -0.40883E-05   -0.93200E-08    84   0.653E-04    0.878E-05
DAV:  13    -0.100117581244E+03   -0.13062E-05   -0.19012E-08    96   0.335E-04    0.650E-05
DAV:  14    -0.100117582322E+03   -0.10789E-05   -0.61838E-09    84   0.247E-04    0.299E-05
DAV:  15    -0.100117582781E+03   -0.45910E-06    0.10692E-09   108   0.154E-04
  46 F= -.10011758E+03 E0= -.10011758E+03  d E =-.992833E-11
       N       E                     dE             d eps       ncg     rms          rms(c)
DAV:   1    -0.100116396274E+03    0.11860E-02   -0.39668E-01    96   0.177E+00    0.219E-01
DAV:   2    -0.100117840537E+03   -0.14443E-02   -0.17715E-02   108   0.404E-01    0.111E-01
DAV:   3    -0.100117735347E+03    0.10519E-03   -0.32318E-04   144   0.658E-02    0.586E-02
DAV:   4    -0.100117688870E+03    0.46477E-04   -0.11903E-04   120   0.426E-02    0.118E-02
DAV:   5    -0.100117682850E+03    0.60206E-05   -0.25222E-05   132   0.186E-02    0.746E-03
DAV:   6    -0.100117689269E+03   -0.64192E-05   -0.59947E-06   120   0.754E-03    0.403E-03
DAV:   7    -0.100117706232E+03   -0.16963E-04   -0.19060E-06   108   0.420E-03    0.177E-03
DAV:   8    -0.100117727387E+03   -0.21155E-04   -0.16708E-06   120   0.312E-03    0.102E-03
DAV:   9    -0.100117745113E+03   -0.17726E-04   -0.13358E-06    96   0.250E-03    0.784E-04
DAV:  10    -0.100117761769E+03   -0.16657E-04   -0.15672E-06   120   0.238E-03    0.334E-04
DAV:  11    -0.100117766815E+03   -0.50454E-05   -0.14742E-07   108   0.931E-04    0.240E-04
DAV:  12    -0.100117771068E+03   -0.42536E-05   -0.16093E-07    96   0.800E-04    0.129E-04
DAV:  13    -0.100117773111E+03   -0.20423E-05   -0.61283E-08    96   0.486E-04    0.767E-05
DAV:  14    -0.100117774118E+03   -0.10079E-05   -0.75330E-09   108   0.254E-04    0.467E-05
DAV:  15    -0.100117774588E+03   -0.46902E-06   -0.57696E-11    84   0.163E-04
  47 F= -.10011777E+03 E0= -.10011777E+03  d E =-.141455E-10
       N       E                     dE             d eps       ncg     rms          rms(c)
DAV:   1    -0.100117847053E+03   -0.72935E-04   -0.19814E-01    96   0.125E+00    0.143E-01
DAV:   2    -0.100118611027E+03   -0.76397E-03   -0.93384E-03   132   0.288E-01    0.821E-02
DAV:   3    -0.100118550046E+03    0.60981E-04   -0.14678E-04   132   0.452E-02    0.426E-02
DAV:   4    -0.100118524152E+03    0.25894E-04   -0.69667E-05   132   0.320E-02    0.809E-03
DAV:   5    -0.100118518249E+03    0.59031E-05   -0.14352E-05   132   0.142E-02    0.516E-03
DAV:   6    -0.100118519076E+03   -0.82656E-06   -0.34130E-06   132   0.560E-03
  48 F= -.10011852E+03 E0= -.10011852E+03  d E =-.109224E-10
       N       E                     dE             d eps       ncg     rms          rms(c)
DAV:   1    -0.100116838376E+03    0.16799E-02   -0.41193E-01    96   0.176E+00    0.175E-01
DAV:   2    -0.100118228412E+03   -0.13900E-02   -0.16355E-02   144   0.373E-01    0.893E-02
DAV:   3    -0.100118190398E+03    0.38015E-04   -0.28498E-04   132   0.606E-02    0.459E-02
DAV:   4    -0.100118185945E+03    0.44528E-05   -0.88039E-05   132   0.395E-02    0.101E-02
DAV:   5    -0.100118181234E+03    0.47108E-05   -0.22844E-05   132   0.181E-02    0.646E-03
DAV:   6    -0.100118180433E+03    0.80157E-06   -0.43979E-06   132   0.734E-03
  49 F= -.10011818E+03 E0= -.10011818E+03  d E =-.264521E-10
       N       E                     dE             d eps       ncg     rms          rms(c)
DAV:   1    -0.100117289991E+03    0.89124E-03   -0.20284E-01    96   0.131E+00    0.132E-01
DAV:   2    -0.100118306700E+03   -0.10167E-02   -0.11829E-02   144   0.311E-01    0.667E-02
DAV:   3    -0.100118298199E+03    0.85011E-05   -0.21275E-04   144   0.478E-02    0.379E-02
DAV:   4    -0.100118299832E+03   -0.16331E-05   -0.48928E-05   108   0.294E-02    0.865E-03
DAV:   5    -0.100118300149E+03   -0.31636E-06   -0.13789E-05   132   0.144E-02    0.531E-03
DAV:   6    -0.100118301812E+03   -0.16628E-05   -0.22234E-06   132   0.523E-03    0.317E-03
DAV:   7    -0.100118305577E+03   -0.37653E-05   -0.58685E-07    84   0.291E-03    0.118E-03
DAV:   8    -0.100118309857E+03   -0.42802E-05   -0.37621E-07   108   0.214E-03    0.609E-04
DAV:   9    -0.100118315329E+03   -0.54721E-05   -0.34171E-07    84   0.176E-03    0.358E-04
DAV:  10    -0.100118318717E+03   -0.33876E-05   -0.23966E-07    96   0.127E-03    0.233E-04
DAV:  11    -0.100118320922E+03   -0.22047E-05   -0.80423E-08   108   0.742E-04    0.169E-04
DAV:  12    -0.100118322173E+03   -0.12511E-05   -0.34291E-08    96   0.449E-04    0.103E-04
DAV:  13    -0.100118323019E+03   -0.84623E-06   -0.17288E-08   108   0.307E-04
  50 F= -.10011832E+03 E0= -.10011832E+03  d E =-.176466E-10
       N       E                     dE             d eps       ncg     rms          rms(c)
DAV:   1    -0.100116949602E+03    0.13726E-02   -0.41182E-01   120   0.181E+00    0.175E-01
DAV:   2    -0.100118347026E+03   -0.13974E-02   -0.16768E-02   108   0.374E-01    0.909E-02
DAV:   3    -0.100118310046E+03    0.36980E-04   -0.30481E-04   132   0.611E-02    0.484E-02
DAV:   4    -0.100118285957E+03    0.24089E-04   -0.74315E-05   132   0.424E-02    0.928E-03
DAV:   5    -0.100118282273E+03    0.36846E-05   -0.33899E-05   132   0.216E-02    0.788E-03
DAV:   6    -0.100118283160E+03   -0.88712E-06   -0.42214E-06   132   0.656E-03
  51 F= -.10011828E+03 E0= -.10011828E+03  d E =-.157099E-10
       N       E                     dE             d eps       ncg     rms          rms(c)
DAV:   1    -0.100116794604E+03    0.14877E-02   -0.20112E-01    96   0.129E+00    0.136E-01
DAV:   2    -0.100117578865E+03   -0.78426E-03   -0.93780E-03   132   0.297E-01    0.802E-02
DAV:   3    -0.100117558887E+03    0.19977E-04   -0.13893E-04   132   0.395E-02    0.420E-02
DAV:   4    -0.100117532942E+03    0.25945E-04   -0.49020E-05   120   0.256E-02    0.720E-03
DAV:   5    -0.100117528024E+03    0.49185E-05   -0.84119E-06   132   0.115E-02    0.418E-03
DAV:   6    -0.100117532594E+03   -0.45709E-05   -0.42438E-06   108   0.665E-03    0.220E-03
DAV:   7    -0.100117542285E+03   -0.96903E-05   -0.10789E-06   108   0.378E-03    0.132E-03
DAV:   8    -0.100117556525E+03   -0.14240E-04   -0.12826E-06    96   0.282E-03    0.656E-04
DAV:   9    -0.100117567396E+03   -0.10871E-04   -0.87952E-07   108   0.216E-03    0.527E-04
DAV:  10    -0.100117576905E+03   -0.95089E-05   -0.74191E-07    96   0.172E-03    0.225E-04
DAV:  11    -0.100117580259E+03   -0.33542E-05   -0.12535E-07   108   0.771E-04    0.169E-04
DAV:  12    -0.100117582946E+03   -0.26867E-05   -0.13681E-07    84   0.703E-04    0.782E-05
DAV:  13    -0.100117583701E+03   -0.75512E-06   -0.17422E-08   108   0.313E-04
  52 F= -.10011758E+03 E0= -.10011758E+03  d E =-.783832E-11
       N       E                     dE             d eps       ncg     rms          rms(c)
DAV:   1    -0.100116136773E+03    0.14462E-02   -0.40159E-01    96   0.182E+00    0.190E-01
DAV:   2    -0.100117609889E+03   -0.14731E-02   -0.18377E-02   132   0.420E-01    0.110E-01
DAV:   3    -0.100117528517E+03    0.81372E-04   -0.27934E-04   132   0.557E-02    0.569E-02
DAV:   4    -0.100117469107E+03    0.59409E-04   -0.80536E-05   132   0.347E-02    0.101E-02
DAV:   5    -0.100117457336E+03    0.11771E-04   -0.16029E-05   132   0.166E-02    0.611E-03
DAV:   6    -0.100117462307E+03   -0.49710E-05   -0.83558E-06   132   0.100E-02    0.324E-03
DAV:   7    -0.100117478132E+03   -0.15825E-04   -0.25400E-06   132   0.578E-03    0.209E-03
DAV:   8    -0.100117502913E+03   -0.24780E-04   -0.14540E-06   120   0.356E-03    0.106E-03
DAV:   9    -0.100117525356E+03   -0.22443E-04   -0.15250E-06   120   0.303E-03    0.897E-04
DAV:  10    -0.100117547849E+03   -0.22493E-04   -0.12348E-06   120   0.233E-03    0.344E-04
DAV:  11    -0.100117555476E+03   -0.76271E-05   -0.15387E-07   108   0.945E-04    0.329E-04
DAV:  12    -0.100117562655E+03   -0.71794E-05   -0.16221E-07    84   0.811E-04    0.108E-04
DAV:  13    -0.100117564984E+03   -0.23289E-05   -0.33252E-08   108   0.398E-04    0.742E-05
DAV:  14    -0.100117566628E+03   -0.16437E-05   -0.10135E-08   108   0.289E-04    0.477E-05
DAV:  15    -0.100117567269E+03   -0.64066E-06   -0.58344E-10   108   0.176E-04
  53 F= -.10011757E+03 E0= -.10011757E+03  d E =-.251756E-10
       N       E                     dE             d eps       ncg     rms          rms(c)
DAV:   1    -0.100116090674E+03    0.14760E-02   -0.20087E-01    96   0.126E+00    0.146E-01
DAV:   2    -0.100116876241E+03   -0.78557E-03   -0.97968E-03   108   0.316E-01    0.871E-02
DAV:   3    -0.100116820898E+03    0.55344E-04   -0.15092E-04   132   0.436E-02    0.455E-02
DAV:   4    -0.100116789175E+03    0.31722E-04   -0.60358E-05   132   0.308E-02    0.755E-03
DAV:   5    -0.100116785916E+03    0.32588E-05   -0.13926E-05   132   0.139E-02    0.529E-03
DAV:   6    -0.100116791578E+03   -0.56619E-05   -0.51398E-06   132   0.640E-03    0.302E-03
DAV:   7    -0.100116803481E+03   -0.11903E-04   -0.64248E-07   108   0.266E-03    0.157E-03
DAV:   8    -0.100116825811E+03   -0.22330E-04   -0.25452E-06   108   0.342E-03    0.991E-04
DAV:   9    -0.100116837567E+03   -0.11756E-04   -0.66227E-07   108   0.201E-03    0.701E-04
DAV:  10    -0.100116850578E+03   -0.13011E-04   -0.11424E-06    96   0.202E-03    0.302E-04
DAV:  11    -0.100116855522E+03   -0.49442E-05   -0.17874E-07    96   0.106E-03    0.285E-04
DAV:  12    -0.100116858513E+03   -0.29914E-05   -0.92961E-08   108   0.695E-04    0.174E-04
DAV:  13    -0.100116859877E+03   -0.13637E-05   -0.30664E-08    84   0.414E-04    0.862E-05
DAV:  14    -0.100116860618E+03   -0.74116E-06   -0.31006E-09    96   0.251E-04
  54 F= -.10011686E+03 E0= -.10011686E+03  d E =-.172884E-10
       N       E                     dE             d eps       ncg     rms          rms(c)
DAV:   1    -0.100115550216E+03    0.13097E-02   -0.40465E-01   120   0.182E+00    0.204E-01
DAV:   2    -0.100117129326E+03   -0.15791E-02   -0.19700E-02   132   0.445E-01    0.128E-01
DAV:   3    -0.100117013811E+03    0.11551E-03   -0.29037E-04   132   0.605E-02    0.690E-02
DAV:   4    -0.100116950104E+03    0.63707E-04   -0.13836E-04   132   0.452E-02    0.108E-02
DAV:   5    -0.100116949512E+03    0.59255E-06   -0.29245E-05   132   0.204E-02    0.781E-03
DAV:   6    -0.100116965178E+03   -0.15666E-04   -0.12257E-05   132   0.964E-03    0.438E-03
DAV:   7    -0.100116992574E+03   -0.27396E-04   -0.21715E-06   132   0.458E-03    0.227E-03
DAV:   8    -0.100117039041E+03   -0.46467E-04   -0.59194E-06   108   0.533E-03    0.137E-03
DAV:   9    -0.100117062236E+03   -0.23195E-04   -0.18237E-06   120   0.301E-03    0.963E-04
DAV:  10    -0.100117083750E+03   -0.21514E-04   -0.18287E-06   108   0.271E-03    0.387E-04
DAV:  11    -0.100117093136E+03   -0.93853E-05   -0.46205E-07   108   0.145E-03    0.343E-04
DAV:  12    -0.100117098432E+03   -0.52961E-05   -0.28045E-07    84   0.101E-03    0.136E-04
DAV:  13    -0.100117100370E+03   -0.19381E-05   -0.51127E-08   108   0.483E-04    0.785E-05
DAV:  14    -0.100117101512E+03   -0.11415E-05   -0.12002E-08    96   0.307E-04    0.641E-05
DAV:  15    -0.100117101971E+03   -0.45959E-06   -0.41602E-10   108   0.179E-04
  55 F= -.10011710E+03 E0= -.10011710E+03  d E =-.821019E-11
       N       E                     dE             d eps       ncg     rms          rms(c)
DAV:   1    -0.100117007323E+03    0.94188E-04   -0.19892E-01   120   0.133E+00    0.142E-01
DAV:   2    -0.100118164603E+03   -0.11573E-02   -0.14005E-02   120   0.359E-01    0.824E-02
DAV:   3    -0.100118135500E+03    0.29103E-04   -0.21048E-04   132   0.469E-02    0.492E-02
DAV:   4    -0.100118109978E+03    0.25522E-04   -0.68589E-05   144   0.317E-02    0.785E-03
DAV:   5    -0.100118103921E+03    0.60572E-05   -0.14582E-05   132   0.136E-02    0.514E-03
DAV:   6    -0.100118105806E+03   -0.18854E-05   -0.42469E-06   120   0.665E-03    0.269E-03
DAV:   7    -0.100118115295E+03   -0.94891E-05   -0.15920E-06   120   0.415E-03    0.138E-03
DAV:   8    -0.100118131749E+03   -0.16454E-04   -0.91131E-07   108   0.251E-03    0.713E-04
DAV:   9    -0.100118145432E+03   -0.13684E-04   -0.97956E-07   108   0.215E-03    0.576E-04
DAV:  10    -0.100118158843E+03   -0.13410E-04   -0.90027E-07   108   0.191E-03    0.239E-04
DAV:  11    -0.100118162583E+03   -0.37400E-05   -0.13498E-07   108   0.824E-04    0.236E-04
DAV:  12    -0.100118166048E+03   -0.34650E-05   -0.82419E-08    96   0.678E-04    0.874E-05
DAV:  13    -0.100118167508E+03   -0.14605E-05   -0.34547E-08   108   0.421E-04    0.750E-05
DAV:  14    -0.100118168464E+03   -0.95529E-06   -0.73800E-09    84   0.268E-04
  56 F= -.10011817E+03 E0= -.10011817E+03  d E =-.183104E-10
       N       E                     dE             d eps       ncg     rms          rms(c)
DAV:   1    -0.100116824206E+03    0.13433E-02   -0.41227E-01   108   0.179E+00    0.178E-01
DAV:   2    -0.100118234575E+03   -0.14104E-02   -0.16956E-02    96   0.398E-01    0.947E-02
DAV:   3    -0.100118192701E+03    0.41873E-04   -0.32981E-04   144   0.617E-02    0.508E-02
DAV:   4    -0.100118163232E+03    0.29469E-04   -0.87404E-05   132   0.430E-02    0.914E-03
DAV:   5    -0.100118158616E+03    0.46159E-05   -0.34150E-05   132   0.215E-02    0.715E-03
DAV:   6    -0.100118159684E+03   -0.10679E-05   -0.51018E-06   132   0.707E-03    0.457E-03
DAV:   7    -0.100118166397E+03   -0.67132E-05   -0.82359E-07    96   0.393E-03    0.209E-03
DAV:   8    -0.100118180358E+03   -0.13961E-04   -0.17368E-06   108   0.426E-03    0.128E-03
DAV:   9    -0.100118196704E+03   -0.16345E-04   -0.11000E-06    96   0.326E-03    0.733E-04
DAV:  10    -0.100118205368E+03   -0.86646E-05   -0.55791E-07    96   0.201E-03    0.555E-04
DAV:  11    -0.100118211635E+03   -0.62663E-05   -0.13665E-07   108   0.107E-03    0.234E-04
DAV:  12    -0.100118216341E+03   -0.47061E-05   -0.16542E-07    96   0.855E-04    0.257E-04
DAV:  13    -0.100118218556E+03   -0.22158E-05   -0.37073E-08   108   0.446E-04    0.121E-04
DAV:  14    -0.100118220071E+03   -0.15145E-05   -0.24180E-08    84   0.354E-04    0.595E-05
DAV:  15    -0.100118220812E+03   -0.74127E-06   -0.36224E-09   108   0.208E-04
  57 F= -.10011822E+03 E0= -.10011822E+03  d E =-.176722E-10
       N       E                     dE             d eps       ncg     rms          rms(c)
DAV:   1    -0.100116887100E+03    0.13330E-02   -0.20547E-01   120   0.122E+00    0.119E-01
DAV:   2    -0.100117552475E+03   -0.66537E-03   -0.79875E-03   120   0.250E-01    0.570E-02
DAV:   3    -0.100117544567E+03    0.79074E-05   -0.15335E-04   132   0.440E-02    0.301E-02
DAV:   4    -0.100117537555E+03    0.70123E-05   -0.32699E-05   120   0.298E-02    0.613E-03
DAV:   5    -0.100117536945E+03    0.61038E-06   -0.16836E-05   132   0.154E-02    0.557E-03
DAV:   6    -0.100117537355E+03   -0.41053E-06   -0.12957E-06   132   0.367E-03
  58 F= -.10011754E+03 E0= -.10011754E+03  d E =-.178890E-10
       N       E                     dE             d eps       ncg     rms          rms(c)
DAV:   1    -0.100115980163E+03    0.15568E-02   -0.40206E-01    96   0.178E+00    0.195E-01
DAV:   2    -0.100117557971E+03   -0.15778E-02   -0.19197E-02   120   0.424E-01    0.114E-01
DAV:   3    -0.100117488503E+03    0.69468E-04   -0.32848E-04   132   0.613E-02    0.598E-02
DAV:   4    -0.100117434542E+03    0.53962E-04   -0.86009E-05   132   0.380E-02    0.108E-02
DAV:   5    -0.100117427820E+03    0.67213E-05   -0.20820E-05   132   0.174E-02    0.728E-03
DAV:   6    -0.100117438022E+03   -0.10202E-04   -0.74662E-06   132   0.828E-03    0.403E-03
DAV:   7    -0.100117458014E+03   -0.19992E-04   -0.23308E-06   120   0.491E-03    0.199E-03
DAV:   8    -0.100117485566E+03   -0.27552E-04   -0.26324E-06   108   0.408E-03    0.113E-03
DAV:   9    -0.100117506079E+03   -0.20513E-04   -0.19750E-06   120   0.325E-03    0.942E-04
DAV:  10    -0.100117522583E+03   -0.16504E-04   -0.15245E-06   108   0.260E-03    0.368E-04
DAV:  11    -0.100117528625E+03   -0.60420E-05   -0.26238E-07   108   0.118E-03    0.342E-04
DAV:  12    -0.100117533120E+03   -0.44951E-05   -0.24733E-07    84   0.984E-04    0.145E-04
DAV:  13    -0.100117534631E+03   -0.15112E-05   -0.42306E-08    96   0.457E-04    0.772E-05
DAV:  14    -0.100117535573E+03   -0.94204E-06   -0.86355E-09    96   0.285E-04
  59 F= -.10011754E+03 E0= -.10011754E+03  d E =-.108753E-10
       N       E                     dE             d eps       ncg     rms          rms(c)
DAV:   1    -0.100116428414E+03    0.11062E-02   -0.20206E-01   120   0.132E+00    0.134E-01
DAV:   2    -0.100117161021E+03   -0.73261E-03   -0.91540E-03   108   0.304E-01    0.757E-02
DAV:   3    -0.100117121571E+03    0.39450E-04   -0.13808E-04   132   0.380E-02    0.395E-02
DAV:   4    -0.100117086993E+03    0.34579E-04   -0.37193E-05   132   0.233E-02    0.696E-03
DAV:   5    -0.100117079936E+03    0.70571E-05   -0.74128E-06   132   0.113E-02    0.402E-03
DAV:   6    -0.100117082612E+03   -0.26763E-05   -0.42073E-06   132   0.766E-03    0.212E-03
DAV:   7    -0.100117092108E+03   -0.94954E-05   -0.17874E-06   132   0.475E-03    0.159E-03
DAV:   8    -0.100117104238E+03   -0.12130E-04   -0.48116E-07    96   0.194E-03    0.786E-04
DAV:   9    -0.100117119254E+03   -0.15016E-04   -0.10803E-06    96   0.232E-03    0.655E-04
DAV:  10    -0.100117130749E+03   -0.11495E-04   -0.55139E-07    96   0.159E-03    0.260E-04
DAV:  11    -0.100117136950E+03   -0.62008E-05   -0.19967E-07   108   0.948E-04    0.276E-04
DAV:  12    -0.100117140261E+03   -0.33118E-05   -0.38063E-08   108   0.520E-04    0.133E-04
DAV:  13    -0.100117143247E+03   -0.29857E-05   -0.60535E-08    84   0.517E-04    0.948E-05
DAV:  14    -0.100117144030E+03   -0.78329E-06   -0.24856E-09   108   0.254E-04
  60 F= -.10011714E+03 E0= -.10011714E+03  d E =-.204209E-10
       N       E                     dE             d eps       ncg     rms          rms(c)
DAV:   1    -0.100115860182E+03    0.12831E-02   -0.41004E-01   108   0.187E+00    0.198E-01
DAV:   2    -0.100117221447E+03   -0.13613E-02   -0.17369E-02   132   0.418E-01    0.119E-01
DAV:   3    -0.100117106654E+03    0.11479E-03   -0.27202E-04   132   0.564E-02    0.575E-02
DAV:   4    -0.100117032451E+03    0.74203E-04   -0.92553E-05   132   0.355E-02    0.109E-02
DAV:   5    -0.100117033489E+03   -0.10387E-05   -0.14754E-05   132   0.151E-02    0.649E-03
DAV:   6    -0.100117061252E+03   -0.27763E-04   -0.13321E-05   132   0.113E-02    0.323E-03
DAV:   7    -0.100117091428E+03   -0.30176E-04   -0.41108E-06   132   0.660E-03    0.239E-03
DAV:   8    -0.100117133543E+03   -0.42115E-04   -0.39338E-06   120   0.445E-03    0.107E-03
DAV:   9    -0.100117163239E+03   -0.29696E-04   -0.30731E-06   120   0.371E-03    0.942E-04
DAV:  10    -0.100117185736E+03   -0.22497E-04   -0.22932E-06   108   0.300E-03    0.329E-04
DAV:  11    -0.100117192330E+03   -0.65939E-05   -0.30514E-07   108   0.131E-03    0.348E-04
DAV:  12    -0.100117196315E+03   -0.39851E-05   -0.14546E-07    96   0.833E-04    0.125E-04
DAV:  13    -0.100117198080E+03   -0.17652E-05   -0.50954E-08   108   0.479E-04    0.932E-05
DAV:  14    -0.100117199182E+03   -0.11014E-05   -0.11233E-08    96   0.337E-04    0.550E-05
DAV:  15    -0.100117199623E+03   -0.44123E-06   -0.80604E-10   108   0.194E-04
  61 F= -.10011720E+03 E0= -.10011720E+03  d E =-.806278E-11
       N       E                     dE             d eps       ncg     rms          rms(c)
DAV:   1    -0.100120229238E+03   -0.30301E-02   -0.23337E-01    96   0.167E+00    0.132E-01
DAV:   2    -0.100120669303E+03   -0.44006E-03   -0.64690E-03   120   0.259E-01    0.785E-02
DAV:   3    -0.100120610141E+03    0.59162E-04   -0.16348E-04   132   0.443E-02    0.345E-02
DAV:   4    -0.100120591663E+03    0.18478E-04   -0.58177E-05   108   0.266E-02    0.736E-03
DAV:   5    -0.100120587482E+03    0.41814E-05   -0.79464E-06   132   0.107E-02    0.485E-03
DAV:   6    -0.100120588911E+03   -0.14298E-05   -0.36464E-06   132   0.610E-03    0.213E-03
DAV:   7    -0.100120593834E+03   -0.49230E-05   -0.62214E-07   108   0.323E-03    0.123E-03
DAV:   8    -0.100120602597E+03   -0.87627E-05   -0.57946E-07   108   0.227E-03    0.718E-04
DAV:   9    -0.100120612078E+03   -0.94806E-05   -0.57195E-07   108   0.191E-03    0.407E-04
DAV:  10    -0.100120619899E+03   -0.78217E-05   -0.39741E-07    96   0.140E-03    0.277E-04
DAV:  11    -0.100120624556E+03   -0.46568E-05   -0.11223E-07   108   0.817E-04    0.141E-04
DAV:  12    -0.100120626945E+03   -0.23891E-05   -0.50160E-08    84   0.500E-04    0.102E-04
DAV:  13    -0.100120627709E+03   -0.76357E-06   -0.31920E-09   108   0.240E-04
  62 F= -.10012063E+03 E0= -.10012063E+03  d E =-.102885E-10
       N       E                     dE             d eps       ncg     rms          rms(c)
DAV:   1    -0.100120575323E+03    0.51622E-04   -0.52764E-01    96   0.258E+00    0.174E-01
DAV:   2    -0.100120433133E+03    0.14219E-03   -0.26487E-03    96   0.179E-01    0.976E-02
DAV:   3    -0.100120290157E+03    0.14298E-03   -0.42234E-04   132   0.622E-02    0.195E-02
DAV:   4    -0.100120292812E+03   -0.26550E-05   -0.70505E-05   132   0.269E-02    0.926E-03
DAV:   5    -0.100120293952E+03   -0.11396E-05   -0.36566E-06   132   0.683E-03    0.547E-03
DAV:   6    -0.100120297925E+03   -0.39728E-05   -0.23484E-06   120   0.510E-03    0.128E-03
DAV:   7    -0.100120301107E+03   -0.31822E-05   -0.54665E-07   108   0.266E-03    0.100E-03
DAV:   8    -0.100120304791E+03   -0.36843E-05   -0.16324E-07    96   0.143E-03    0.526E-04
DAV:   9    -0.100120309344E+03   -0.45524E-05   -0.27936E-07    96   0.158E-03    0.333E-04
DAV:  10    -0.100120311996E+03   -0.26520E-05   -0.14928E-07   108   0.996E-04    0.182E-04
DAV:  11    -0.100120313614E+03   -0.16183E-05   -0.59099E-08    96   0.602E-04    0.157E-04
DAV:  12    -0.100120314539E+03   -0.92488E-06   -0.19749E-08    96   0.370E-04
  63 F= -.10012031E+03 E0= -.10012031E+03  d E =-.128240E-10
       N       E                     dE             d eps       ncg     rms          rms(c)
DAV:   1    -0.100119562695E+03    0.75092E-03   -0.27288E-01    96   0.186E+00    0.146E-01
DAV:   2    -0.100119522437E+03    0.40257E-04   -0.22689E-03   108   0.161E-01    0.799E-02
DAV:   3    -0.100119420932E+03    0.10151E-03   -0.25906E-04   132   0.460E-02    0.219E-02
DAV:   4    -0.100119415235E+03    0.56963E-05   -0.52104E-05   132   0.211E-02    0.779E-03
DAV:   5    -0.100119413987E+03    0.12482E-05   -0.37094E-06   120   0.746E-03    0.346E-03
DAV:   6    -0.100119415774E+03   -0.17869E-05   -0.24031E-06   132   0.520E-03    0.143E-03
DAV:   7    -0.100119418901E+03   -0.31270E-05   -0.55531E-07   108   0.264E-03    0.837E-04
DAV:   8    -0.100119422003E+03   -0.31025E-05   -0.19830E-07    96   0.156E-03    0.510E-04
DAV:   9    -0.100119426192E+03   -0.41888E-05   -0.27777E-07    96   0.137E-03    0.231E-04
DAV:  10    -0.100119428989E+03   -0.27963E-05   -0.14497E-07    96   0.917E-04    0.157E-04
DAV:  11    -0.100119430382E+03   -0.13935E-05   -0.18133E-08   108   0.387E-04    0.102E-04
DAV:  12    -0.100119432101E+03   -0.17190E-05   -0.34182E-08    84   0.385E-04    0.535E-05
DAV:  13    -0.100119432548E+03   -0.44647E-06   -0.19430E-09    96   0.186E-04
  64 F= -.10011943E+03 E0= -.10011943E+03  d E =-.130997E-10
       N       E                     dE             d eps       ncg     rms          rms(c)
DAV:   1    -0.100119532367E+03   -0.10027E-03   -0.53937E-01    96   0.262E+00    0.198E-01
DAV:   2    -0.100119418301E+03    0.11407E-03   -0.40493E-03   108   0.216E-01    0.108E-01
DAV:   3    -0.100119211046E+03    0.20725E-03   -0.47337E-04   132   0.586E-02    0.296E-02
DAV:   4    -0.100119198824E+03    0.12223E-04   -0.73140E-05   132   0.252E-02    0.104E-02
DAV:   5    -0.100119202514E+03   -0.36899E-05   -0.79121E-06   132   0.103E-02    0.400E-03
DAV:   6    -0.100119211248E+03   -0.87341E-05   -0.36751E-06   132   0.606E-03    0.181E-03
DAV:   7    -0.100119222231E+03   -0.10983E-04   -0.91301E-07    96   0.306E-03    0.985E-04
DAV:   8    -0.100119231243E+03   -0.90122E-05   -0.58067E-07   108   0.220E-03    0.616E-04
DAV:   9    -0.100119241613E+03   -0.10370E-04   -0.93670E-07   108   0.225E-03    0.328E-04
DAV:  10    -0.100119246499E+03   -0.48859E-05   -0.30583E-07   108   0.142E-03    0.191E-04
DAV:  11    -0.100119248074E+03   -0.15756E-05   -0.59475E-08   108   0.585E-04    0.160E-04
DAV:  12    -0.100119250443E+03   -0.23687E-05   -0.94477E-08    96   0.631E-04    0.710E-05
DAV:  13    -0.100119251103E+03   -0.65990E-06   -0.21273E-08   108   0.321E-04
  65 F= -.10011925E+03 E0= -.10011925E+03  d E =-.995280E-11
       N       E                     dE             d eps       ncg     rms          rms(c)
DAV:   1    -0.100120676339E+03   -0.14259E-02   -0.27238E-01   108   0.186E+00    0.143E-01
DAV:   2    -0.100120618382E+03    0.57958E-04   -0.22171E-03   108   0.160E-01    0.789E-02
DAV:   3    -0.100120518083E+03    0.10030E-03   -0.27800E-04   132   0.495E-02    0.207E-02
DAV:   4    -0.100120515685E+03    0.23983E-05   -0.54957E-05   120   0.227E-02    0.781E-03
DAV:   5    -0.100120514791E+03    0.89442E-06   -0.29788E-06   120   0.641E-03
  66 F= -.10012051E+03 E0= -.10012051E+03  d E =-.140044E-10
       N       E                     dE             d eps       ncg     rms          rms(c)
DAV:   1    -0.100120698578E+03   -0.18289E-03   -0.53459E-01    96   0.260E+00    0.171E-01
DAV:   2    -0.100120561603E+03    0.13698E-03   -0.28336E-03   120   0.180E-01    0.977E-02
DAV:   3    -0.100120420953E+03    0.14065E-03   -0.46589E-04   120   0.674E-02    0.169E-02
DAV:   4    -0.100120427550E+03   -0.65966E-05   -0.81468E-05   132   0.291E-02    0.891E-03
DAV:   5    -0.100120427062E+03    0.48757E-06   -0.27506E-06   132   0.574E-03
  67 F= -.10012043E+03 E0= -.10012043E+03  d E =-.132709E-10
       N       E                     dE             d eps       ncg     rms          rms(c)
DAV:   1    -0.100121066903E+03   -0.63935E-03   -0.26587E-01    96   0.191E+00    0.119E-01
[...]
DAV:   7    -0.100118788693E+03   -0.77817E-05   -0.71726E-07   120   0.276E-03    0.105E-03
DAV:   8    -0.100118795052E+03   -0.63591E-05   -0.30177E-07   108   0.164E-03    0.630E-04
DAV:   9    -0.100118804497E+03   -0.94449E-05   -0.94151E-07    96   0.191E-03    0.305E-04
DAV:  10    -0.100118807311E+03   -0.28140E-05   -0.13618E-07    96   0.970E-04    0.195E-04
DAV:  11    -0.100118809504E+03   -0.21935E-05   -0.84576E-08    96   0.598E-04    0.134E-04
DAV:  12    -0.100118811354E+03   -0.18504E-05   -0.68895E-08    96   0.499E-04    0.790E-05
DAV:  13    -0.100118812050E+03   -0.69600E-06   -0.14955E-08    96   0.281E-04
 129 F= -.10011881E+03 E0= -.10011881E+03  d E =-.994693E-11
       N       E                     dE             d eps       ncg     rms          rms(c)
DAV:   1    -0.100121219720E+03   -0.24084E-02   -0.26823E-01    96   0.147E+00    0.132E-01
DAV:   2    -0.100121170043E+03    0.49677E-04   -0.17905E-03   108   0.128E-01    0.736E-02
DAV:   3    -0.100121090781E+03    0.79262E-04   -0.23825E-04   132   0.408E-02    0.172E-02
DAV:   4    -0.100121088737E+03    0.20443E-05   -0.35810E-05   120   0.178E-02    0.694E-03
DAV:   5    -0.100121088206E+03    0.53106E-06   -0.30997E-06   132   0.591E-03
 130 F= -.10012109E+03 E0= -.10012109E+03  d E =-.147277E-10
       N       E                     dE             d eps       ncg     rms          rms(c)
DAV:   1    -0.100121081197E+03    0.75405E-05   -0.52657E-01    96   0.212E+00    0.156E-01
DAV:   2    -0.100120976725E+03    0.10447E-03   -0.19815E-03   120   0.131E-01    0.907E-02
DAV:   3    -0.100120883080E+03    0.93646E-04   -0.37141E-04   132   0.581E-02    0.106E-02
DAV:   4    -0.100120889532E+03   -0.64519E-05   -0.55474E-05   132   0.241E-02    0.675E-03
DAV:   5    -0.100120890388E+03   -0.85653E-06   -0.18606E-06   120   0.463E-03
 131 F= -.10012089E+03 E0= -.10012089E+03  d E =-.139186E-10
       N       E                     dE             d eps       ncg     rms          rms(c)
DAV:   1    -0.100120413247E+03    0.47628E-03   -0.26259E-01    96   0.149E+00    0.110E-01
DAV:   2    -0.100120358971E+03    0.54276E-04   -0.10351E-03   120   0.977E-02    0.639E-02
DAV:   3    -0.100120311721E+03    0.47250E-04   -0.18133E-04   120   0.408E-02    0.818E-03
DAV:   4    -0.100120314687E+03   -0.29665E-05   -0.26981E-05   132   0.171E-02    0.509E-03
DAV:   5    -0.100120315158E+03   -0.47147E-06   -0.94110E-07   108   0.346E-03
 132 F= -.10012032E+03 E0= -.10012032E+03  d E =-.147654E-10
       N       E                     dE             d eps       ncg     rms          rms(c)
DAV:   1    -0.100121029640E+03   -0.71495E-03   -0.52891E-01    96   0.206E+00    0.168E-01
DAV:   2    -0.100120921569E+03    0.10807E-03   -0.24728E-03   120   0.150E-01    0.951E-02
DAV:   3    -0.100120807442E+03    0.11413E-03   -0.39330E-04   120   0.581E-02    0.176E-02
DAV:   4    -0.100120810431E+03   -0.29892E-05   -0.61145E-05   132   0.251E-02    0.935E-03
DAV:   5    -0.100120809953E+03    0.47787E-06   -0.29142E-06   108   0.586E-03
 133 F= -.10012081E+03 E0= -.10012081E+03  d E =-.114750E-10
       N       E                     dE             d eps       ncg     rms          rms(c)
DAV:   1    -0.100120653129E+03    0.15730E-03   -0.27084E-01    96   0.196E+00    0.144E-01
DAV:   2    -0.100120609848E+03    0.43282E-04   -0.19336E-03   120   0.156E-01    0.781E-02
DAV:   3    -0.100120536912E+03    0.72935E-04   -0.17549E-04   120   0.418E-02    0.250E-02
DAV:   4    -0.100120536692E+03    0.22006E-06   -0.49304E-05   132   0.214E-02    0.638E-03
DAV:   5    -0.100120535992E+03    0.70068E-06   -0.33189E-06   132   0.687E-03
 134 F= -.10012054E+03 E0= -.10012054E+03  d E =-.132095E-10
       N       E                     dE             d eps       ncg     rms          rms(c)
DAV:   1    -0.100120580335E+03   -0.43642E-04   -0.55302E-01    96   0.270E+00    0.234E-01
DAV:   2    -0.100120262480E+03    0.31785E-03   -0.33560E-03   120   0.203E-01    0.121E-01
DAV:   3    -0.100120048959E+03    0.21352E-03   -0.46511E-04   120   0.631E-02    0.399E-02
DAV:   4    -0.100120041082E+03    0.78761E-05   -0.11171E-04   132   0.317E-02    0.122E-02
DAV:   5    -0.100120041517E+03   -0.43415E-06   -0.74947E-06   120   0.109E-02
 135 F= -.10012004E+03 E0= -.10012004E+03  d E =-.134420E-10
       N       E                     dE             d eps       ncg     rms          rms(c)
DAV:   1    -0.100119855896E+03    0.18519E-03   -0.28954E-01   108   0.194E+00    0.210E-01
DAV:   2    -0.100119630050E+03    0.22585E-03   -0.25428E-03   120   0.181E-01    0.103E-01
DAV:   3    -0.100119484950E+03    0.14510E-03   -0.40729E-04   120   0.644E-02    0.366E-02
DAV:   4    -0.100119485428E+03   -0.47887E-06   -0.12675E-04   120   0.349E-02    0.149E-02
DAV:   5    -0.100119484074E+03    0.13541E-05   -0.53879E-06   132   0.951E-03    0.619E-03
DAV:   6    -0.100119484164E+03   -0.89376E-07   -0.28035E-06   108   0.617E-03
 136 F= -.10011948E+03 E0= -.10011948E+03  d E =-.112321E-10
       N       E                     dE             d eps       ncg     rms          rms(c)
DAV:   1    -0.100119858153E+03   -0.37408E-03   -0.57288E-01   108   0.272E+00    0.272E-01
DAV:   2    -0.100119355752E+03    0.50240E-03   -0.47560E-03   108   0.251E-01    0.137E-01
DAV:   3    -0.100119055648E+03    0.30010E-03   -0.80976E-04   132   0.912E-02    0.461E-02
DAV:   4    -0.100119056276E+03   -0.62823E-06   -0.22115E-04   132   0.477E-02    0.204E-02
DAV:   5    -0.100119055794E+03    0.48263E-06   -0.86196E-06   132   0.116E-02
 137 F= -.10011906E+03 E0= -.10011906E+03  d E =-.130235E-10
       N       E                     dE             d eps       ncg     rms          rms(c)
DAV:   1    -0.100120913557E+03   -0.18573E-02   -0.28776E-01   108   0.195E+00    0.205E-01
DAV:   2    -0.100120678016E+03    0.23554E-03   -0.24878E-03   144   0.181E-01    0.101E-01
DAV:   3    -0.100120533347E+03    0.14467E-03   -0.38959E-04   132   0.644E-02    0.356E-02
DAV:   4    -0.100120534664E+03   -0.13176E-05   -0.12194E-04   120   0.344E-02    0.135E-02
DAV:   5    -0.100120533790E+03    0.87360E-06   -0.51353E-06   132   0.942E-03
 138 F= -.10012053E+03 E0= -.10012053E+03  d E =-.138864E-10
       N       E                     dE             d eps       ncg     rms          rms(c)
DAV:   1    -0.100120816412E+03   -0.28175E-03   -0.54706E-01    96   0.271E+00    0.229E-01
DAV:   2    -0.100120510992E+03    0.30542E-03   -0.34232E-03   108   0.209E-01    0.120E-01
DAV:   3    -0.100120312241E+03    0.19875E-03   -0.46342E-04   132   0.662E-02    0.371E-02
DAV:   4    -0.100120311762E+03    0.47824E-06   -0.10225E-04   132   0.313E-02    0.113E-02
DAV:   5    -0.100120311828E+03   -0.65373E-07   -0.64638E-06   132   0.999E-03
 139 F= -.10012031E+03 E0= -.10012031E+03  d E =-.109789E-10
       N       E                     dE             d eps       ncg     rms          rms(c)
DAV:   1    -0.100120335759E+03   -0.23996E-04   -0.27608E-01    96   0.193E+00    0.167E-01
DAV:   2    -0.100120234262E+03    0.10150E-03   -0.18749E-03   120   0.148E-01    0.878E-02
DAV:   3    -0.100120142434E+03    0.91828E-04   -0.26028E-04   120   0.456E-02    0.269E-02
DAV:   4    -0.100120139073E+03    0.33610E-05   -0.44172E-05   108   0.195E-02    0.101E-02
DAV:   5    -0.100120137434E+03    0.16388E-05   -0.24708E-06   132   0.704E-03    0.499E-03
DAV:   6    -0.100120137395E+03    0.39272E-07   -0.23225E-06   108   0.574E-03
 140 F= -.10012014E+03 E0= -.10012014E+03  d E =-.122793E-10
       N       E                     dE             d eps       ncg     rms          rms(c)
DAV:   1    -0.100120583134E+03   -0.44570E-03   -0.55628E-01    96   0.257E+00    0.244E-01
DAV:   2    -0.100120213649E+03    0.36949E-03   -0.34214E-03   120   0.202E-01    0.124E-01
DAV:   3    -0.100119994017E+03    0.21963E-03   -0.53016E-04   132   0.665E-02    0.396E-02
DAV:   4    -0.100119985863E+03    0.81545E-05   -0.10873E-04   120   0.314E-02    0.130E-02
DAV:   5    -0.100119985841E+03    0.21573E-07   -0.63183E-06   132   0.104E-02
 141 F= -.10011999E+03 E0= -.10011999E+03  d E =-.138138E-10
       N       E                     dE             d eps       ncg     rms          rms(c)
DAV:   1    -0.100119261823E+03    0.72404E-03   -0.27283E-01    96   0.182E+00    0.139E-01
DAV:   2    -0.100119127317E+03    0.13451E-03   -0.15122E-03   132   0.132E-01    0.786E-02
DAV:   3    -0.100119040840E+03    0.86476E-04   -0.25906E-04   120   0.507E-02    0.164E-02
DAV:   4    -0.100119045919E+03   -0.50788E-05   -0.49633E-05   132   0.229E-02    0.858E-03
DAV:   5    -0.100119046442E+03   -0.52283E-06   -0.11494E-06   108   0.418E-03
 142 F= -.10011905E+03 E0= -.10011905E+03  d E =-.118786E-10
       N       E                     dE             d eps       ncg     rms          rms(c)
DAV:   1    -0.100119676747E+03   -0.63083E-03   -0.58082E-01   108   0.262E+00    0.286E-01
DAV:   2    -0.100119153011E+03    0.52374E-03   -0.49004E-03   120   0.248E-01    0.143E-01
DAV:   3    -0.100118838979E+03    0.31403E-03   -0.84642E-04   120   0.943E-02    0.477E-02
DAV:   4    -0.100118840299E+03   -0.13193E-05   -0.24545E-04   132   0.488E-02    0.198E-02
DAV:   5    -0.100118837790E+03    0.25086E-05   -0.93930E-06   132   0.127E-02    0.829E-03
DAV:   6    -0.100118838039E+03   -0.24960E-06   -0.58404E-06   132   0.863E-03
 143 F= -.10011884E+03 E0= -.10011884E+03  d E =-.124091E-10
       N       E                     dE             d eps       ncg     rms          rms(c)
DAV:   1    -0.100121214580E+03   -0.23768E-02   -0.28176E-01    96   0.185E+00    0.169E-01
DAV:   2    -0.100120999178E+03    0.21540E-03   -0.19128E-03   120   0.156E-01    0.896E-02
DAV:   3    -0.100120883189E+03    0.11599E-03   -0.34196E-04   120   0.593E-02    0.257E-02
DAV:   4    -0.100120888869E+03   -0.56804E-05   -0.83101E-05   132   0.293E-02    0.115E-02
DAV:   5    -0.100120889084E+03   -0.21439E-06   -0.27646E-06   132   0.665E-03
 144 F= -.10012089E+03 E0= -.10012089E+03  d E =-.140833E-10
       N       E                     dE             d eps       ncg     rms          rms(c)
DAV:   1    -0.100121477746E+03   -0.58888E-03   -0.54130E-01    96   0.256E+00    0.201E-01
DAV:   2    -0.100121200811E+03    0.27694E-03   -0.28192E-03   120   0.185E-01    0.112E-01
DAV:   3    -0.100121026655E+03    0.17416E-03   -0.45793E-04   120   0.669E-02    0.229E-02
DAV:   4    -0.100121033189E+03   -0.65337E-05   -0.74872E-05   120   0.280E-02    0.888E-03
DAV:   5    -0.100121033504E+03   -0.31556E-06   -0.31893E-06   132   0.653E-03
 145 F= -.10012103E+03 E0= -.10012103E+03  d E =-.112294E-10
       N       E                     dE             d eps       ncg     rms          rms(c)
DAV:   1    -0.100120282520E+03    0.75067E-03   -0.27010E-01    96   0.202E+00    0.134E-01
DAV:   2    -0.100120217754E+03    0.64765E-04   -0.18072E-03   120   0.157E-01    0.763E-02
DAV:   3    -0.100120142469E+03    0.75286E-04   -0.23390E-04   120   0.506E-02    0.176E-02
DAV:   4    -0.100120146048E+03   -0.35797E-05   -0.48640E-05   132   0.232E-02    0.746E-03
DAV:   5    -0.100120146005E+03    0.43018E-07   -0.15827E-06   108   0.513E-03
 146 F= -.10012015E+03 E0= -.10012015E+03  d E =-.119028E-10
       N       E                     dE             d eps       ncg     rms          rms(c)
DAV:   1    -0.100120476907E+03   -0.33086E-03   -0.53542E-01    96   0.257E+00    0.178E-01
DAV:   2    -0.100120351498E+03    0.12541E-03   -0.33335E-03   120   0.197E-01    0.101E-01
DAV:   3    -0.100120195320E+03    0.15618E-03   -0.47692E-04   120   0.680E-02    0.202E-02
DAV:   4    -0.100120198518E+03   -0.31975E-05   -0.92619E-05   132   0.315E-02    0.103E-02
DAV:   5    -0.100120197525E+03    0.99329E-06   -0.27716E-06   132   0.600E-03
 147 F= -.10012020E+03 E0= -.10012020E+03  d E =-.131232E-10
       N       E                     dE             d eps       ncg     rms          rms(c)
DAV:   1    -0.100119034890E+03    0.11636E-02   -0.26432E-01    96   0.178E+00    0.111E-01
DAV:   2    -0.100118977181E+03    0.57709E-04   -0.10824E-03   108   0.110E-01    0.640E-02
DAV:   3    -0.100118919196E+03    0.57985E-04   -0.17095E-04   132   0.400E-02    0.999E-03
DAV:   4    -0.100118922103E+03   -0.29073E-05   -0.24380E-05   132   0.165E-02    0.573E-03
DAV:   5    -0.100118923532E+03   -0.14287E-05   -0.91672E-07   108   0.349E-03    0.375E-03
DAV:   6    -0.100118926978E+03   -0.34463E-05   -0.84618E-07   108   0.331E-03    0.684E-04
DAV:   7    -0.100118928955E+03   -0.19768E-05   -0.31224E-07   108   0.189E-03    0.658E-04
DAV:   8    -0.100118932626E+03   -0.36704E-05   -0.23850E-07    96   0.173E-03    0.228E-04
DAV:   9    -0.100118934390E+03   -0.17645E-05   -0.13952E-07   108   0.103E-03    0.241E-04
DAV:  10    -0.100118935947E+03   -0.15568E-05   -0.40820E-08    96   0.618E-04    0.151E-04
DAV:  11    -0.100118937303E+03   -0.13562E-05   -0.59973E-08    96   0.494E-04    0.808E-05
DAV:  12    -0.100118937867E+03   -0.56364E-06   -0.98992E-09    96   0.251E-04
 148 F= -.10011894E+03 E0= -.10011894E+03  d E =-.107973E-10
       N       E                     dE             d eps       ncg     rms          rms(c)
DAV:   1    -0.100119528906E+03   -0.59160E-03   -0.54464E-01    96   0.258E+00    0.203E-01
DAV:   2    -0.100119429885E+03    0.99021E-04   -0.41907E-03   108   0.220E-01    0.110E-01
DAV:   3    -0.100119240026E+03    0.18986E-03   -0.49350E-04   132   0.635E-02    0.302E-02
DAV:   4    -0.100119230969E+03    0.90574E-05   -0.91406E-05   132   0.282E-02    0.104E-02
DAV:   5    -0.100119228590E+03    0.23785E-05   -0.58004E-06   132   0.987E-03    0.489E-03
DAV:   6    -0.100119231231E+03   -0.26412E-05   -0.39600E-06   132   0.715E-03    0.185E-03
DAV:   7    -0.100119235649E+03   -0.44178E-05   -0.10024E-06   108   0.365E-03    0.121E-03
DAV:   8    -0.100119241313E+03   -0.56640E-05   -0.35834E-07   108   0.206E-03    0.666E-04
DAV:   9    -0.100119247251E+03   -0.59382E-05   -0.34454E-07   108   0.170E-03    0.354E-04
DAV:  10    -0.100119253132E+03   -0.58803E-05   -0.32967E-07   108   0.131E-03    0.186E-04
DAV:  11    -0.100119255863E+03   -0.27309E-05   -0.61429E-08    96   0.657E-04    0.143E-04
DAV:  12    -0.100119258072E+03   -0.22089E-05   -0.36823E-08    84   0.426E-04    0.781E-05
DAV:  13    -0.100119259013E+03   -0.94133E-06   -0.11619E-08   108   0.261E-04
 149 F= -.10011926E+03 E0= -.10011926E+03  d E =-.117323E-10
       N       E                     dE             d eps       ncg     rms          rms(c)
DAV:   1    -0.100121162706E+03   -0.19046E-02   -0.26663E-01    96   0.182E+00    0.128E-01
DAV:   2    -0.100121079281E+03    0.83425E-04   -0.14766E-03   108   0.138E-01    0.713E-02
DAV:   3    -0.100121006958E+03    0.72323E-04   -0.21725E-04   120   0.454E-02    0.150E-02
DAV:   4    -0.100121007706E+03   -0.74861E-06   -0.34896E-05   132   0.192E-02    0.714E-03
DAV:   5    -0.100121008197E+03   -0.49072E-06   -0.14037E-06   108   0.460E-03
 150 F= -.10012101E+03 E0= -.10012101E+03  d E =-.124016E-10
       N       E                     dE             d eps       ncg     rms          rms(c)
DAV:   1    -0.100121196341E+03   -0.18863E-03   -0.52489E-01    96   0.256E+00    0.159E-01
DAV:   2    -0.100121074199E+03    0.12214E-03   -0.21466E-03   120   0.163E-01    0.921E-02
DAV:   3    -0.100120965271E+03    0.10893E-03   -0.35964E-04   120   0.610E-02    0.121E-02
DAV:   4    -0.100120972218E+03   -0.69469E-05   -0.57116E-05   132   0.252E-02    0.781E-03
DAV:   5    -0.100120973297E+03   -0.10784E-05   -0.16017E-06   108   0.460E-03    0.562E-03
DAV:   6    -0.100120977284E+03   -0.39869E-05   -0.19761E-06   120   0.467E-03    0.970E-04
DAV:   7    -0.100120979514E+03   -0.22300E-05   -0.48884E-07   108   0.233E-03    0.902E-04
DAV:   8    -0.100120982808E+03   -0.32945E-05   -0.16680E-07    84   0.169E-03    0.449E-04
DAV:   9    -0.100120986380E+03   -0.35719E-05   -0.22834E-07    96   0.169E-03    0.299E-04
DAV:  10    -0.100120989038E+03   -0.26575E-05   -0.14665E-07    96   0.104E-03    0.152E-04
DAV:  11    -0.100120990017E+03   -0.97934E-06   -0.26153E-08    96   0.424E-04
 151 F= -.10012099E+03 E0= -.10012099E+03  d E =-.106157E-10
       N       E                     dE             d eps       ncg     rms          rms(c)
DAV:   1    -0.100118879956E+03    0.21091E-02   -0.26649E-01   108   0.190E+00    0.130E-01
DAV:   2    -0.100118833324E+03    0.46631E-04   -0.19733E-03   108   0.159E-01    0.712E-02
DAV:   3    -0.100118753343E+03    0.79981E-04   -0.21628E-04   132   0.493E-02    0.194E-02
DAV:   4    -0.100118754378E+03   -0.10343E-05   -0.55300E-05   132   0.237E-02    0.665E-03
DAV:   5    -0.100118754945E+03   -0.56728E-06   -0.28317E-06   132   0.617E-03
 152 F= -.10011875E+03 E0= -.10011875E+03  d E =-.129834E-10
       N       E                     dE             d eps       ncg     rms          rms(c)
DAV:   1    -0.100119264153E+03   -0.50977E-03   -0.54479E-01   108   0.262E+00    0.206E-01
DAV:   2    -0.100119165019E+03    0.99134E-04   -0.44319E-03   120   0.232E-01    0.114E-01
DAV:   3    -0.100118954491E+03    0.21053E-03   -0.58006E-04   108   0.742E-02    0.305E-02
DAV:   4    -0.100118952644E+03    0.18473E-05   -0.13169E-04   132   0.350E-02    0.116E-02
DAV:   5    -0.100118949847E+03    0.27973E-05   -0.63089E-06   132   0.975E-03    0.554E-03
DAV:   6    -0.100118950789E+03   -0.94194E-06   -0.45406E-06   132   0.742E-03
 153 F= -.10011895E+03 E0= -.10011895E+03  d E =-.135227E-10
       N       E                     dE             d eps       ncg     rms          rms(c)
DAV:   1    -0.100120864159E+03   -0.19143E-02   -0.26882E-01   108   0.184E+00    0.140E-01
DAV:   2    -0.100120816708E+03    0.47452E-04   -0.19539E-03   108   0.148E-01    0.762E-02
DAV:   3    -0.100120738633E+03    0.78074E-04   -0.22705E-04   120   0.434E-02    0.213E-02
DAV:   4    -0.100120736487E+03    0.21469E-05   -0.40527E-05   132   0.193E-02    0.769E-03
DAV:   5    -0.100120735607E+03    0.87951E-06   -0.27866E-06   120   0.648E-03
 154 F= -.10012074E+03 E0= -.10012074E+03  d E =-.122240E-10
       N       E                     dE             d eps       ncg     rms          rms(c)
DAV:   1    -0.100121332335E+03   -0.59585E-03   -0.53079E-01    96   0.255E+00    0.160E-01
DAV:   2    -0.100121219363E+03    0.11297E-03   -0.20038E-03   120   0.151E-01    0.923E-02
DAV:   3    -0.100121110746E+03    0.10862E-03   -0.35039E-04   120   0.567E-02    0.140E-02
DAV:   4    -0.100121113582E+03   -0.28362E-05   -0.48690E-05   132   0.230E-02    0.766E-03
DAV:   5    -0.100121112966E+03    0.61569E-06   -0.17574E-06   120   0.488E-03
 155 F= -.10012111E+03 E0= -.10012111E+03  d E =-.124190E-10
       N       E                     dE             d eps       ncg     rms          rms(c)
DAV:   1    -0.100120562487E+03    0.55110E-03   -0.26527E-01    96   0.182E+00    0.115E-01
DAV:   2    -0.100120501612E+03    0.60874E-04   -0.11511E-03   120   0.119E-01    0.667E-02
DAV:   3    -0.100120450244E+03    0.51368E-04   -0.19256E-04   132   0.453E-02    0.916E-03
DAV:   4    -0.100120453952E+03   -0.37084E-05   -0.32140E-05   120   0.188E-02    0.599E-03
DAV:   5    -0.100120454409E+03   -0.45627E-06   -0.81348E-07   108   0.345E-03
 156 F= -.10012045E+03 E0= -.10012045E+03  d E =-.147557E-10
       N       E                     dE             d eps       ncg     rms          rms(c)
DAV:   1    -0.100120716391E+03   -0.26244E-03   -0.53114E-01    96   0.258E+00    0.173E-01
DAV:   2    -0.100120630451E+03    0.85941E-04   -0.29165E-03   132   0.185E-01    0.977E-02
DAV:   3    -0.100120497511E+03    0.13294E-03   -0.37541E-04   120   0.578E-02    0.208E-02
DAV:   4    -0.100120496826E+03    0.68459E-06   -0.60084E-05   132   0.242E-02    0.876E-03
DAV:   5    -0.100120496847E+03   -0.20275E-07   -0.33977E-06   132   0.656E-03
 157 F= -.10012050E+03 E0= -.10012050E+03  d E =-.115696E-10
