       N       E                     dE             d eps       ncg     rms          rms(c)
DAV:   1     0.246315944502E+03    0.24632E+03   -0.10166E+04   120   0.484E+02
DAV:   2    -0.214487976625E+02   -0.26776E+03   -0.25368E+03   156   0.917E+01
DAV:   3    -0.100921251048E+03   -0.79472E+02   -0.79253E+02   120   0.556E+01
DAV:   4    -0.104768670369E+03   -0.38474E+01   -0.38328E+01   120   0.176E+01
DAV:   5    -0.104836589450E+03   -0.67919E-01   -0.67802E-01   144   0.262E+00    0.147E+01
DAV:   6    -0.101559079403E+03    0.32775E+01   -0.14823E+00   108   0.420E+00    0.848E+00
DAV:   7    -0.998878224436E+02    0.16713E+01   -0.40398E+00   120   0.617E+00    0.129E+00
DAV:   8    -0.998303055285E+02    0.57517E-01   -0.32743E-01   132   0.217E+00    0.663E-01
DAV:   9    -0.997962863043E+02    0.34019E-01   -0.59064E-02   144   0.663E-01    0.362E-01
DAV:  10    -0.997951848090E+02    0.11015E-02   -0.41692E-03   120   0.213E-01    0.137E-01
DAV:  11    -0.997942912431E+02    0.89357E-03   -0.62891E-03   120   0.213E-01    0.110E-01
DAV:  12    -0.998003097488E+02   -0.60185E-02   -0.16155E-03   120   0.106E-01    0.496E-02
DAV:  13    -0.998036575791E+02   -0.33478E-02   -0.16729E-03   132   0.108E-01    0.459E-02
DAV:  14    -0.998066310212E+02   -0.29734E-02   -0.20530E-04   120   0.503E-02    0.199E-02
DAV:  15    -0.998111360007E+02   -0.45050E-02   -0.47744E-04   108   0.530E-02    0.130E-02
DAV:  16    -0.998128591455E+02   -0.17231E-02   -0.11723E-04   132   0.291E-02    0.723E-03
DAV:  17    -0.998139743454E+02   -0.11152E-02   -0.89256E-05   108   0.205E-02    0.598E-03
DAV:  18    -0.998143475701E+02   -0.37322E-03   -0.14801E-05   132   0.938E-03    0.245E-03
DAV:  19    -0.998145152233E+02   -0.16765E-03   -0.62963E-06   108   0.587E-03    0.189E-03
DAV:  20    -0.998145743694E+02   -0.59146E-04   -0.10517E-06    84   0.306E-03    0.554E-04
DAV:  21    -0.998145974013E+02   -0.23032E-04   -0.49421E-07   108   0.179E-03    0.487E-04
DAV:  22    -0.998146133372E+02   -0.15936E-04   -0.36010E-07    84   0.138E-03    0.209E-04
DAV:  23    -0.998146169359E+02   -0.35986E-05   -0.78109E-08    96   0.616E-04    0.140E-04
DAV:  24    -0.998146210920E+02   -0.41561E-05   -0.76553E-08    84   0.561E-04    0.980E-05
DAV:  25    -0.998146216039E+02   -0.51195E-06   -0.29915E-09    96   0.234E-04
   1 F= -.99814622E+02 E0= -.99814622E+02  d E =-.507851E-10
       N       E                     dE             d eps       ncg     rms          rms(c)
DAV:   1    -0.998112004222E+02    0.34207E-02   -0.83103E-02    96   0.832E-01    0.117E-01
DAV:   2    -0.998115740333E+02   -0.37361E-03   -0.40429E-03   144   0.211E-01    0.544E-02
DAV:   3    -0.998115653580E+02    0.86752E-05   -0.13679E-04   144   0.434E-02    0.283E-02
DAV:   4    -0.998115681013E+02   -0.27433E-05   -0.31253E-05   132   0.214E-02    0.764E-03
DAV:   5    -0.998115674804E+02    0.62098E-06   -0.62462E-06   132   0.958E-03
   2 F= -.99811567E+02 E0= -.99811567E+02  d E =-.542247E-10
       N       E                     dE             d eps       ncg     rms          rms(c)
DAV:   1    -0.998101292822E+02    0.14388E-02   -0.32952E-01    96   0.166E+00    0.242E-01
DAV:   2    -0.998115832469E+02   -0.14540E-02   -0.15734E-02   144   0.420E-01    0.108E-01
DAV:   3    -0.998115523988E+02    0.30848E-04   -0.52813E-04   144   0.848E-02    0.572E-02
DAV:   4    -0.998115683445E+02   -0.15946E-04   -0.12923E-04   108   0.429E-02    0.153E-02
DAV:   5    -0.998115646562E+02    0.36883E-05   -0.25415E-05   132   0.192E-02    0.875E-03
DAV:   6    -0.998115644360E+02    0.22021E-06   -0.49017E-06   132   0.729E-03
   3 F= -.99811564E+02 E0= -.99811564E+02  d E =-.491193E-10
       N       E                     dE             d eps       ncg     rms          rms(c)
DAV:   1    -0.998109785427E+02    0.58611E-03   -0.17011E-01    96   0.118E+00    0.155E-01
DAV:   2    -0.998116717842E+02   -0.69324E-03   -0.74624E-03   108   0.286E-01    0.748E-02
DAV:   3    -0.998116653861E+02    0.63981E-05   -0.24246E-04   144   0.577E-02    0.386E-02
DAV:   4    -0.998116767822E+02   -0.11396E-04   -0.54122E-05   108   0.274E-02    0.110E-02
DAV:   5    -0.998116764498E+02    0.33245E-06   -0.10261E-05   132   0.124E-02    0.536E-03
DAV:   6    -0.998116770713E+02   -0.62152E-06   -0.26658E-06   132   0.538E-03
   4 F= -.99811677E+02 E0= -.99811677E+02  d E =-.327630E-10
       N       E                     dE             d eps       ncg     rms          rms(c)
DAV:   1    -0.998101062374E+02    0.15702E-02   -0.33765E-01    96   0.163E+00    0.195E-01
DAV:   2    -0.998116424753E+02   -0.15362E-02   -0.16056E-02   108   0.410E-01    0.105E-01
DAV:   3    -0.998116338771E+02    0.85982E-05   -0.49018E-04   132   0.837E-02    0.528E-02
DAV:   4    -0.998116494988E+02   -0.15622E-04   -0.11349E-04   120   0.414E-02    0.136E-02
DAV:   5    -0.998116448887E+02    0.46101E-05   -0.22455E-05   132   0.185E-02    0.775E-03
DAV:   6    -0.998116445443E+02    0.34441E-06   -0.63533E-06   132   0.856E-03
   5 F= -.99811645E+02 E0= -.99811645E+02  d E =-.435496E-11
       N       E                     dE             d eps       ncg     rms          rms(c)
DAV:   1    -0.998092643530E+02    0.23805E-02   -0.16422E-01    96   0.119E+00    0.148E-01
DAV:   2    -0.998101983023E+02   -0.93395E-03   -0.97215E-03   132   0.328E-01    0.907E-02
DAV:   3    -0.998101710729E+02    0.27229E-04   -0.26916E-04   108   0.658E-02    0.474E-02
DAV:   4    -0.998101794191E+02   -0.83462E-05   -0.10581E-04   120   0.389E-02    0.111E-02
DAV:   5    -0.998101781241E+02    0.12950E-05   -0.19181E-05   132   0.164E-02    0.717E-03
DAV:   6    -0.998101801088E+02   -0.19847E-05   -0.38064E-06   108   0.636E-03    0.408E-03
DAV:   7    -0.998101858798E+02   -0.57710E-05   -0.65210E-07   108   0.299E-03    0.128E-03
DAV:   8    -0.998101912762E+02   -0.53964E-05   -0.38391E-07    84   0.201E-03    0.611E-04
DAV:   9    -0.998101989631E+02   -0.76869E-05   -0.53188E-07    96   0.181E-03    0.463E-04
DAV:  10    -0.998102044503E+02   -0.54872E-05   -0.35509E-07    96   0.137E-03    0.222E-04
DAV:  11    -0.998102063847E+02   -0.19344E-05   -0.75980E-08   108   0.711E-04    0.162E-04
DAV:  12    -0.998102083620E+02   -0.19773E-05   -0.68735E-08    84   0.569E-04    0.795E-05
DAV:  13    -0.998102091895E+02   -0.82750E-06   -0.19081E-08   108   0.319E-04
   6 F= -.99810209E+02 E0= -.99810209E+02  d E =-.694200E-10
       N       E                     dE             d eps       ncg     rms          rms(c)
DAV:   1    -0.998080504616E+02    0.21579E-02   -0.33588E-01    96   0.171E+00    0.261E-01
DAV:   2    -0.998103798995E+02   -0.23294E-02   -0.25085E-02    96   0.517E-01    0.168E-01
DAV:   3    -0.998102228505E+02    0.15705E-03   -0.66262E-04   132   0.107E-01    0.887E-02
DAV:   4    -0.998102200604E+02    0.27900E-05   -0.41340E-04   108   0.735E-02    0.164E-02
DAV:   5    -0.998102112466E+02    0.88139E-05   -0.65891E-05   120   0.296E-02    0.123E-02
DAV:   6    -0.998102118535E+02   -0.60693E-06   -0.11169E-05   132   0.928E-03    0.807E-03
DAV:   7    -0.998102241069E+02   -0.12253E-04   -0.99441E-07    84   0.354E-03    0.346E-03
DAV:   8    -0.998102430776E+02   -0.18971E-04   -0.21126E-06   108   0.510E-03    0.151E-03
DAV:   9    -0.998102576518E+02   -0.14574E-04   -0.12584E-06   120   0.290E-03    0.165E-03
DAV:  10    -0.998102786512E+02   -0.20999E-04   -0.10117E-06    96   0.230E-03    0.104E-03
DAV:  11    -0.998102840448E+02   -0.53935E-05   -0.20271E-07   108   0.117E-03    0.602E-04
DAV:  12    -0.998102923610E+02   -0.83162E-05   -0.25336E-07    84   0.114E-03    0.337E-04
DAV:  13    -0.998102957706E+02   -0.34096E-05   -0.99856E-08   108   0.657E-04    0.268E-04
DAV:  14    -0.998102978711E+02   -0.21005E-05   -0.16813E-08    84   0.375E-04    0.130E-04
DAV:  15    -0.998102993724E+02   -0.15013E-05   -0.24706E-08    96   0.355E-04    0.862E-05
DAV:  16    -0.998102998610E+02   -0.48855E-06    0.27768E-09   108   0.172E-04
   7 F= -.99810300E+02 E0= -.99810300E+02  d E =-.404187E-10
       N       E                     dE             d eps       ncg     rms          rms(c)
DAV:   1    -0.998095214327E+02    0.77794E-03   -0.19168E-01    96   0.131E+00    0.187E-01
DAV:   2    -0.998108901321E+02   -0.13687E-02   -0.14181E-02   108   0.408E-01    0.120E-01
DAV:   3    -0.998108085903E+02    0.81542E-04   -0.36647E-04   132   0.807E-02    0.652E-02
DAV:   4    -0.998108075777E+02    0.10127E-05   -0.22381E-04   108   0.572E-02    0.117E-02
DAV:   5    -0.998108025875E+02    0.49902E-05   -0.45114E-05   132   0.241E-02    0.961E-03
DAV:   6    -0.998108033230E+02   -0.73550E-06   -0.44016E-06   132   0.641E-03
   8 F= -.99810803E+02 E0= -.99810803E+02  d E =-.407414E-10
       N       E                     dE             d eps       ncg     rms          rms(c)
DAV:   1    -0.998085758147E+02    0.22268E-02   -0.33580E-01    96   0.165E+00    0.258E-01
DAV:   2    -0.998105226363E+02   -0.19468E-02   -0.20103E-02   108   0.443E-01    0.153E-01
DAV:   3    -0.998104559826E+02    0.66654E-04   -0.56775E-04   132   0.870E-02    0.790E-02
DAV:   4    -0.998104558089E+02    0.17373E-06   -0.21482E-04   108   0.529E-02    0.152E-02
DAV:   5    -0.998104459612E+02    0.98477E-05   -0.37386E-05   132   0.226E-02    0.100E-02
DAV:   6    -0.998104459436E+02    0.17669E-07   -0.75282E-06   132   0.876E-03
   9 F= -.99810446E+02 E0= -.99810446E+02  d E =-.636504E-10
       N       E                     dE             d eps       ncg     rms          rms(c)
DAV:   1    -0.998086603190E+02    0.17856E-02   -0.16963E-01    96   0.115E+00    0.181E-01
DAV:   2    -0.998097275657E+02   -0.10672E-02   -0.10798E-02   132   0.330E-01    0.115E-01
DAV:   3    -0.998097072358E+02    0.20330E-04   -0.29079E-04   120   0.666E-02    0.592E-02
DAV:   4    -0.998097267029E+02   -0.19467E-04   -0.15882E-04   132   0.448E-02    0.119E-02
DAV:   5    -0.998097213271E+02    0.53758E-05   -0.30594E-05   132   0.197E-02    0.804E-03
DAV:   6    -0.998097222600E+02   -0.93287E-06   -0.74371E-06   108   0.741E-03
  10 F= -.99809722E+02 E0= -.99809722E+02  d E =-.609570E-10
       N       E                     dE             d eps       ncg     rms          rms(c)
DAV:   1    -0.998070518275E+02    0.26695E-02   -0.34247E-01    96   0.159E+00    0.256E-01
DAV:   2    -0.998099376520E+02   -0.28858E-02   -0.28984E-02   132   0.507E-01    0.190E-01
DAV:   3    -0.998097735142E+02    0.16414E-03   -0.62338E-04   144   0.964E-02    0.106E-01
DAV:   4    -0.998097915900E+02   -0.18076E-04   -0.54394E-04   108   0.809E-02    0.184E-02
DAV:   5    -0.998097789949E+02    0.12595E-04   -0.14275E-04   132   0.389E-02    0.131E-02
DAV:   6    -0.998097732826E+02    0.57123E-05   -0.22410E-05   132   0.119E-02    0.874E-03
DAV:   7    -0.998097840284E+02   -0.10746E-04   -0.32603E-06   108   0.537E-03    0.374E-03
DAV:   8    -0.998098023668E+02   -0.18338E-04   -0.29345E-06   108   0.454E-03    0.110E-03
DAV:   9    -0.998098169750E+02   -0.14608E-04   -0.15585E-06   108   0.274E-03    0.167E-03
DAV:  10    -0.998098344908E+02   -0.17516E-04   -0.14840E-06   120   0.263E-03    0.560E-04
DAV:  11    -0.998098394704E+02   -0.49796E-05   -0.16680E-07   108   0.105E-03    0.325E-04
DAV:  12    -0.998098462849E+02   -0.68145E-05   -0.32264E-07    84   0.110E-03    0.180E-04
DAV:  13    -0.998098483475E+02   -0.20625E-05   -0.56191E-08   108   0.498E-04    0.171E-04
DAV:  14    -0.998098505316E+02   -0.21841E-05   -0.36637E-08    84   0.436E-04    0.719E-05
DAV:  15    -0.998098512208E+02   -0.68922E-06   -0.80489E-09   108   0.242E-04
  11 F= -.99809851E+02 E0= -.99809851E+02  d E =-.417749E-10
       N       E                     dE             d eps       ncg     rms          rms(c)
DAV:   1    -0.998100889394E+02   -0.23841E-03   -0.17075E-01    96   0.114E+00    0.182E-01
DAV:   2    -0.998112896576E+02   -0.12007E-02   -0.12412E-02   120   0.345E-01    0.124E-01
DAV:   3    -0.998112206836E+02    0.68974E-04   -0.30499E-04   156   0.688E-02    0.660E-02
DAV:   4    -0.998112233675E+02   -0.26839E-05   -0.20926E-04   120   0.518E-02    0.127E-02
DAV:   5    -0.998112178409E+02    0.55266E-05   -0.48318E-05   132   0.239E-02    0.932E-03
DAV:   6    -0.998112179196E+02   -0.78690E-07   -0.10459E-05   132   0.880E-03    0.586E-03
DAV:   7    -0.998112263681E+02   -0.84484E-05   -0.18194E-06   132   0.432E-03    0.232E-03
DAV:   8    -0.998112384112E+02   -0.12043E-04   -0.10790E-06   132   0.280E-03    0.828E-04
DAV:   9    -0.998112511845E+02   -0.12773E-04   -0.11023E-06   132   0.230E-03    0.991E-04
DAV:  10    -0.998112627720E+02   -0.11587E-04   -0.82539E-07   120   0.193E-03    0.486E-04
DAV:  11    -0.998112680663E+02   -0.52943E-05   -0.23468E-07   108   0.105E-03    0.188E-04
DAV:  12    -0.998112718040E+02   -0.37377E-05   -0.16310E-07    96   0.775E-04    0.153E-04
DAV:  13    -0.998112735057E+02   -0.17017E-05   -0.44411E-08   108   0.434E-04    0.911E-05
DAV:  14    -0.998112745071E+02   -0.10013E-05   -0.12802E-08    96   0.287E-04    0.383E-05
DAV:  15    -0.998112748492E+02   -0.34213E-06    0.12584E-09   108   0.150E-04
  12 F= -.99811275E+02 E0= -.99811275E+02  d E =-.567519E-10
       N       E                     dE             d eps       ncg     rms          rms(c)
DAV:   1    -0.998096328635E+02    0.16416E-02   -0.33267E-01    96   0.159E+00    0.268E-01
DAV:   2    -0.998111772264E+02   -0.15444E-02   -0.16616E-02   108   0.405E-01    0.132E-01
DAV:   3    -0.998111361762E+02    0.41050E-04   -0.55228E-04   132   0.860E-02    0.701E-02
DAV:   4    -0.998111475973E+02   -0.11421E-04   -0.16921E-04   132   0.531E-02    0.150E-02
DAV:   5    -0.998111417479E+02    0.58494E-05   -0.46265E-05   132   0.257E-02    0.106E-02
DAV:   6    -0.998111416235E+02    0.12436E-06   -0.67751E-06   132   0.855E-03
  13 F= -.99811142E+02 E0= -.99811142E+02  d E =-.446893E-10
       N       E                     dE             d eps       ncg     rms          rms(c)
DAV:   1    -0.998092962312E+02    0.18455E-02   -0.15909E-01    96   0.122E+00    0.166E-01
DAV:   2    -0.998104165984E+02   -0.11204E-02   -0.11752E-02   132   0.362E-01    0.105E-01
DAV:   3    -0.998103808192E+02    0.35779E-04   -0.32502E-04   120   0.742E-02    0.584E-02
DAV:   4    -0.998103966144E+02   -0.15795E-04   -0.14530E-04   108   0.508E-02    0.122E-02
DAV:   5    -0.998103990901E+02   -0.24757E-05   -0.43716E-05   132   0.241E-02    0.820E-03
DAV:   6    -0.998104014721E+02   -0.23820E-05   -0.40265E-06   120   0.656E-03    0.610E-03
DAV:   7    -0.998104083213E+02   -0.68491E-05   -0.69766E-07    84   0.352E-03    0.228E-03
DAV:   8    -0.998104150284E+02   -0.67071E-05   -0.84722E-07   120   0.326E-03    0.841E-04
DAV:   9    -0.998104205326E+02   -0.55042E-05   -0.36745E-07   108   0.208E-03    0.618E-04
DAV:  10    -0.998104266630E+02   -0.61304E-05   -0.41589E-07    84   0.155E-03    0.446E-04
DAV:  11    -0.998104286912E+02   -0.20282E-05   -0.96398E-08   108   0.845E-04    0.385E-04
DAV:  12    -0.998104309031E+02   -0.22118E-05   -0.63416E-08   108   0.637E-04    0.220E-04
DAV:  13    -0.998104324590E+02   -0.15559E-05   -0.49266E-08    84   0.470E-04    0.104E-04
DAV:  14    -0.998104336355E+02   -0.11765E-05   -0.31597E-08   108   0.384E-04    0.791E-05
DAV:  15    -0.998104339634E+02   -0.32788E-06   -0.12459E-09    96   0.188E-04
  14 F= -.99810434E+02 E0= -.99810434E+02  d E =-.719725E-10
       N       E                     dE             d eps       ncg     rms          rms(c)
DAV:   1    -0.998082876203E+02    0.21460E-02   -0.32835E-01    96   0.171E+00    0.246E-01
DAV:   2    -0.998106342372E+02   -0.23466E-02   -0.24978E-02   120   0.516E-01    0.161E-01
DAV:   3    -0.998104827435E+02    0.15149E-03   -0.61868E-04   132   0.102E-01    0.867E-02
DAV:   4    -0.998104784161E+02    0.43274E-05   -0.38363E-04   108   0.719E-02    0.162E-02
DAV:   5    -0.998104709383E+02    0.74778E-05   -0.74055E-05   132   0.310E-02    0.125E-02
DAV:   6    -0.998104706472E+02    0.29105E-06   -0.11255E-05   132   0.972E-03    0.857E-03
DAV:   7    -0.998104806944E+02   -0.10047E-04   -0.11308E-06    84   0.385E-03    0.364E-03
DAV:   8    -0.998104984877E+02   -0.17793E-04   -0.19715E-06   120   0.493E-03    0.130E-03
DAV:   9    -0.998105121709E+02   -0.13683E-04   -0.11213E-06    96   0.277E-03    0.152E-03
DAV:  10    -0.998105305874E+02   -0.18417E-04   -0.81853E-07    96   0.211E-03    0.660E-04
DAV:  11    -0.998105367817E+02   -0.61944E-05   -0.28951E-07   108   0.115E-03    0.480E-04
DAV:  12    -0.998105439985E+02   -0.72167E-05   -0.19044E-07    84   0.970E-04    0.220E-04
DAV:  13    -0.998105476227E+02   -0.36242E-05   -0.10630E-07    96   0.640E-04    0.200E-04
DAV:  14    -0.998105501325E+02   -0.25098E-05   -0.33660E-08   108   0.433E-04    0.123E-04
DAV:  15    -0.998105511207E+02   -0.98819E-06   -0.87934E-09    84   0.270E-04
  15 F= -.99810551E+02 E0= -.99810551E+02  d E =-.375214E-10
       N       E                     dE             d eps       ncg     rms          rms(c)
DAV:   1    -0.998106029455E+02   -0.52813E-04   -0.16773E-01    96   0.121E+00    0.160E-01
DAV:   2    -0.998116653413E+02   -0.10624E-02   -0.11198E-02    96   0.354E-01    0.105E-01
DAV:   3    -0.998116114472E+02    0.53894E-04   -0.30461E-04   132   0.715E-02    0.576E-02
DAV:   4    -0.998116092935E+02    0.21537E-05   -0.14961E-04   108   0.459E-02    0.120E-02
DAV:   5    -0.998116055187E+02    0.37747E-05   -0.27572E-05   132   0.193E-02    0.864E-03
DAV:   6    -0.998116064244E+02   -0.90564E-06   -0.46027E-06   108   0.683E-03
  16 F= -.99811606E+02 E0= -.99811606E+02  d E =-.334981E-10
       N       E                     dE             d eps       ncg     rms          rms(c)
DAV:   1    -0.998101532608E+02    0.14523E-02   -0.33369E-01    96   0.164E+00    0.195E-01
DAV:   2    -0.998116863074E+02   -0.15330E-02   -0.16034E-02   132   0.410E-01    0.104E-01
DAV:   3    -0.998116854220E+02    0.88534E-06   -0.49594E-04   108   0.847E-02    0.510E-02
DAV:   4    -0.998117103494E+02   -0.24927E-04   -0.11067E-04   120   0.410E-02    0.136E-02
DAV:   5    -0.998117089924E+02    0.13569E-05   -0.19314E-05   120   0.176E-02    0.777E-03
DAV:   6    -0.998117098167E+02   -0.82422E-06   -0.60760E-06   132   0.850E-03
  17 F= -.99811710E+02 E0= -.99811710E+02  d E =-.837555E-10
       N       E                     dE             d eps       ncg     rms          rms(c)
DAV:   1    -0.998106432438E+02    0.10657E-02   -0.16453E-01    96   0.119E+00    0.146E-01
DAV:   2    -0.998113852143E+02   -0.74197E-03   -0.78374E-03   108   0.292E-01    0.752E-02
DAV:   3    -0.998113820311E+02    0.31832E-05   -0.24557E-04   120   0.599E-02    0.380E-02
DAV:   4    -0.998113968666E+02   -0.14835E-04   -0.61965E-05   108   0.299E-02    0.103E-02
DAV:   5    -0.998113966053E+02    0.26133E-06   -0.11022E-05   132   0.129E-02    0.555E-03
DAV:   6    -0.998113971658E+02   -0.56048E-06   -0.27945E-06   132   0.569E-03
  18 F= -.99811397E+02 E0= -.99811397E+02  d E =-.367460E-10
       N       E                     dE             d eps       ncg     rms          rms(c)
DAV:   1    -0.998097019931E+02    0.16946E-02   -0.33232E-01    96   0.168E+00    0.265E-01
DAV:   2    -0.998112433690E+02   -0.15414E-02   -0.16726E-02   120   0.445E-01    0.123E-01
DAV:   3    -0.998111897760E+02    0.53593E-04   -0.51197E-04   108   0.866E-02    0.707E-02
DAV:   4    -0.998111997664E+02   -0.99903E-05   -0.17063E-04   108   0.495E-02    0.177E-02
DAV:   5    -0.998111953487E+02    0.44177E-05   -0.34509E-05   132   0.217E-02    0.937E-03
DAV:   6    -0.998111950747E+02    0.27403E-06   -0.47684E-06   132   0.735E-03
  19 F= -.99811195E+02 E0= -.99811195E+02  d E =-.793065E-10
       N       E                     dE             d eps       ncg     rms          rms(c)
DAV:   1    -0.998103036220E+02    0.89173E-03   -0.16950E-01    96   0.123E+00    0.163E-01
DAV:   2    -0.998113716079E+02   -0.10680E-02   -0.11284E-02   144   0.353E-01    0.898E-02
DAV:   3    -0.998113341281E+02    0.37480E-04   -0.32404E-04   132   0.705E-02    0.482E-02
DAV:   4    -0.998113448542E+02   -0.10726E-04   -0.11562E-04   108   0.415E-02    0.115E-02
DAV:   5    -0.998113445180E+02    0.33619E-06   -0.24767E-05   132   0.185E-02    0.743E-03
DAV:   6    -0.998113448045E+02   -0.28648E-06   -0.35576E-06   132   0.639E-03
  20 F= -.99811345E+02 E0= -.99811345E+02  d E =-.422303E-10
       N       E                     dE             d eps       ncg     rms          rms(c)
DAV:   1    -0.998093133439E+02    0.20312E-02   -0.34596E-01    96   0.165E+00    0.203E-01
DAV:   2    -0.998111057860E+02   -0.17924E-02   -0.18528E-02   144   0.441E-01    0.128E-01
DAV:   3    -0.998110673846E+02    0.38401E-04   -0.51019E-04   120   0.864E-02    0.701E-02
DAV:   4    -0.998110773205E+02   -0.99360E-05   -0.18268E-04   120   0.506E-02    0.153E-02
DAV:   5    -0.998110708405E+02    0.64801E-05   -0.36142E-05   132   0.220E-02    0.860E-03
DAV:   6    -0.998110705869E+02    0.25357E-06   -0.62780E-06   132   0.808E-03
  21 F= -.99811071E+02 E0= -.99811071E+02  d E =-.747052E-10
       N       E                     dE             d eps       ncg     rms          rms(c)
DAV:   1    -0.998100073056E+02    0.10635E-02   -0.16927E-01    96   0.114E+00    0.134E-01
DAV:   2    -0.998107520980E+02   -0.74479E-03   -0.76973E-03   132   0.281E-01    0.741E-02
DAV:   3    -0.998107560274E+02   -0.39294E-05   -0.22943E-04   120   0.565E-02    0.373E-02
DAV:   4    -0.998107697695E+02   -0.13742E-04   -0.49923E-05   108   0.275E-02    0.954E-03
DAV:   5    -0.998107712312E+02   -0.14617E-05   -0.10109E-05   132   0.120E-02    0.450E-03
DAV:   6    -0.998107738399E+02   -0.26088E-05   -0.28304E-06   108   0.538E-03    0.248E-03
DAV:   7    -0.998107778349E+02   -0.39950E-05   -0.33798E-07    96   0.196E-03    0.104E-03
DAV:   8    -0.998107824441E+02   -0.46092E-05   -0.31975E-07    84   0.171E-03    0.499E-04
DAV:   9    -0.998107863648E+02   -0.39208E-05   -0.19843E-07    96   0.135E-03    0.371E-04
DAV:  10    -0.998107909214E+02   -0.45566E-05   -0.31328E-07    84   0.140E-03    0.202E-04
DAV:  11    -0.998107919641E+02   -0.10426E-05   -0.48142E-08   108   0.728E-04    0.180E-04
DAV:  12    -0.998107932839E+02   -0.13199E-05   -0.27737E-08    84   0.474E-04    0.950E-05
DAV:  13    -0.998107944211E+02   -0.11372E-05   -0.31396E-08    96   0.377E-04    0.762E-05
DAV:  14    -0.998107951423E+02   -0.72118E-06   -0.10582E-08    84   0.241E-04
  22 F= -.99810795E+02 E0= -.99810795E+02  d E =-.606289E-10
       N       E                     dE             d eps       ncg     rms          rms(c)
DAV:   1    -0.998082672395E+02    0.25272E-02   -0.33718E-01    96   0.163E+00    0.233E-01
DAV:   2    -0.998105060195E+02   -0.22388E-02   -0.23610E-02   120   0.473E-01    0.155E-01
DAV:   3    -0.998103810768E+02    0.12494E-03   -0.56953E-04   132   0.914E-02    0.857E-02
DAV:   4    -0.998103722834E+02    0.87934E-05   -0.30210E-04   120   0.622E-02    0.148E-02
DAV:   5    -0.998103665358E+02    0.57476E-05   -0.64687E-05   132   0.278E-02    0.110E-02
DAV:   6    -0.998103662232E+02    0.31259E-06   -0.85537E-06   108   0.864E-03
  23 F= -.99810366E+02 E0= -.99810366E+02  d E =-.446998E-10
       N       E                     dE             d eps       ncg     rms          rms(c)
DAV:   1    -0.998108597311E+02   -0.49320E-03   -0.17018E-01    96   0.115E+00    0.144E-01
DAV:   2    -0.998117932821E+02   -0.93355E-03   -0.95415E-03   132   0.309E-01    0.907E-02
DAV:   3    -0.998117859846E+02    0.72975E-05   -0.25225E-04   132   0.608E-02    0.494E-02
DAV:   4    -0.998118147739E+02   -0.28789E-04   -0.95434E-05   108   0.366E-02    0.107E-02
DAV:   5    -0.998118191614E+02   -0.43875E-05   -0.19661E-05   132   0.161E-02    0.654E-03
DAV:   6    -0.998118210218E+02   -0.18604E-05   -0.31919E-06   132   0.589E-03    0.422E-03
DAV:   7    -0.998118242666E+02   -0.32448E-05   -0.52705E-07   108   0.274E-03    0.152E-03
DAV:   8    -0.998118269884E+02   -0.27218E-05   -0.22688E-07   108   0.187E-03    0.497E-04
DAV:   9    -0.998118300108E+02   -0.30224E-05   -0.19035E-07   108   0.157E-03    0.461E-04
DAV:  10    -0.998118326631E+02   -0.26524E-05   -0.17352E-07    96   0.127E-03    0.245E-04
DAV:  11    -0.998118336694E+02   -0.10063E-05   -0.42867E-08   108   0.699E-04    0.213E-04
DAV:  12    -0.998118343678E+02   -0.69839E-06   -0.10660E-08    96   0.340E-04
  24 F= -.99811834E+02 E0= -.99811834E+02  d E =-.454498E-10
       N       E                     dE             d eps       ncg     rms          rms(c)
DAV:   1    -0.998101732751E+02    0.16604E-02   -0.34553E-01    96   0.163E+00    0.189E-01
DAV:   2    -0.998115167838E+02   -0.13435E-02   -0.14082E-02   120   0.391E-01    0.100E-01
DAV:   3    -0.998115215794E+02   -0.47957E-05   -0.44515E-04   144   0.783E-02    0.523E-02
DAV:   4    -0.998115336233E+02   -0.12044E-04   -0.83460E-05   120   0.379E-02    0.138E-02
DAV:   5    -0.998115312274E+02    0.23958E-05   -0.19302E-05   132   0.174E-02    0.678E-03
DAV:   6    -0.998115332819E+02   -0.20545E-05   -0.53318E-06   132   0.778E-03    0.359E-03
DAV:   7    -0.998115382013E+02   -0.49194E-05   -0.58399E-07   108   0.282E-03    0.167E-03
DAV:   8    -0.998115447490E+02   -0.65477E-05   -0.40929E-07   108   0.234E-03    0.692E-04
DAV:   9    -0.998115502654E+02   -0.55164E-05   -0.28662E-07   108   0.193E-03    0.599E-04
DAV:  10    -0.998115583800E+02   -0.81146E-05   -0.55456E-07    84   0.218E-03    0.288E-04
DAV:  11    -0.998115602703E+02   -0.18903E-05   -0.13812E-07   108   0.120E-03    0.288E-04
DAV:  12    -0.998115614684E+02   -0.11981E-05   -0.21529E-08    96   0.507E-04    0.167E-04
DAV:  13    -0.998115637315E+02   -0.22631E-05   -0.64879E-08   108   0.564E-04    0.835E-05
DAV:  14    -0.998115648203E+02   -0.10888E-05   -0.28718E-08    96   0.372E-04    0.110E-04
DAV:  15    -0.998115653114E+02   -0.49108E-06   -0.44041E-10   108   0.195E-04
  25 F= -.99811565E+02 E0= -.99811565E+02  d E =-.666295E-10
       N       E                     dE             d eps       ncg     rms          rms(c)
DAV:   1    -0.998096204926E+02    0.19443E-02   -0.17588E-01    96   0.127E+00    0.143E-01
DAV:   2    -0.998104509486E+02   -0.83046E-03   -0.95602E-03   108   0.329E-01    0.822E-02
DAV:   3    -0.998104245011E+02    0.26448E-04   -0.21769E-04   144   0.553E-02    0.439E-02
DAV:   4    -0.998104150854E+02    0.94157E-05   -0.59244E-05   120   0.316E-02    0.888E-03
DAV:   5    -0.998104109128E+02    0.41726E-05   -0.14669E-05   132   0.142E-02    0.530E-03
DAV:   6    -0.998104118396E+02   -0.92682E-06   -0.33917E-06   132   0.598E-03
  26 F= -.99810412E+02 E0= -.99810412E+02  d E =-.495386E-10
       N       E                     dE             d eps       ncg     rms          rms(c)
DAV:   1    -0.998092594737E+02    0.11514E-02   -0.40667E-01    96   0.184E+00    0.218E-01
DAV:   2    -0.998107129089E+02   -0.14534E-02   -0.17392E-02   132   0.431E-01    0.124E-01
DAV:   3    -0.998106190097E+02    0.93899E-04   -0.30088E-04   108   0.631E-02    0.636E-02
DAV:   4    -0.998105724887E+02    0.46521E-04   -0.12696E-04   120   0.427E-02    0.111E-02
DAV:   5    -0.998105634478E+02    0.90409E-05   -0.25821E-05   132   0.191E-02    0.705E-03
DAV:   6    -0.998105696914E+02   -0.62436E-05   -0.99436E-06   120   0.917E-03    0.398E-03
DAV:   7    -0.998105855474E+02   -0.15856E-04   -0.14548E-06   120   0.409E-03    0.205E-03
DAV:   8    -0.998106104117E+02   -0.24864E-04   -0.28063E-06    96   0.400E-03    0.106E-03
DAV:   9    -0.998106255986E+02   -0.15187E-04   -0.10723E-06   120   0.248E-03    0.817E-04
DAV:  10    -0.998106428342E+02   -0.17236E-04   -0.15655E-06    96   0.250E-03    0.302E-04
DAV:  11    -0.998106484776E+02   -0.56435E-05   -0.22125E-07   108   0.112E-03    0.286E-04
DAV:  12    -0.998106540667E+02   -0.55891E-05   -0.28944E-07    84   0.108E-03    0.119E-04
DAV:  13    -0.998106554517E+02   -0.13849E-05   -0.49534E-08   108   0.471E-04    0.906E-05
DAV:  14    -0.998106566365E+02   -0.11848E-05   -0.13572E-08    96   0.315E-04    0.422E-05
DAV:  15    -0.998106572131E+02   -0.57658E-06   -0.57807E-09   108   0.221E-04
  27 F= -.99810657E+02 E0= -.99810657E+02  d E =-.515216E-10
       N       E                     dE             d eps       ncg     rms          rms(c)
DAV:   1    -0.998104510896E+02    0.20555E-03   -0.20013E-01    96   0.129E+00    0.151E-01
DAV:   2    -0.998111880634E+02   -0.73697E-03   -0.90329E-03   132   0.311E-01    0.926E-02
DAV:   3    -0.998111199056E+02    0.68158E-04   -0.13826E-04   132   0.438E-02    0.470E-02
DAV:   4    -0.998110866641E+02    0.33241E-04   -0.71461E-05   132   0.310E-02    0.774E-03
DAV:   5    -0.998110813034E+02    0.53607E-05   -0.15191E-05   132   0.143E-02    0.495E-03
DAV:   6    -0.998110879923E+02   -0.66889E-05   -0.54308E-06   132   0.619E-03    0.253E-03
DAV:   7    -0.998111014776E+02   -0.13485E-04   -0.60300E-07   108   0.224E-03    0.134E-03
DAV:   8    -0.998111234243E+02   -0.21947E-04   -0.24483E-06   120   0.320E-03    0.908E-04
DAV:   9    -0.998111383606E+02   -0.14936E-04   -0.85491E-07   108   0.203E-03    0.432E-04
DAV:  10    -0.998111487644E+02   -0.10404E-04   -0.87268E-07   120   0.165E-03    0.297E-04
DAV:  11    -0.998111544749E+02   -0.57105E-05   -0.19379E-07   108   0.964E-04    0.186E-04
DAV:  12    -0.998111565359E+02   -0.20610E-05   -0.62925E-08   108   0.528E-04    0.106E-04
DAV:  13    -0.998111578638E+02   -0.13279E-05   -0.16964E-08   108   0.327E-04    0.507E-05
DAV:  14    -0.998111586981E+02   -0.83431E-06   -0.65214E-09   108   0.242E-04
  28 F= -.99811159E+02 E0= -.99811159E+02  d E =-.625054E-10
       N       E                     dE             d eps       ncg     rms          rms(c)
DAV:   1    -0.998095613583E+02    0.15965E-02   -0.40322E-01    96   0.187E+00    0.217E-01
DAV:   2    -0.998109443639E+02   -0.13830E-02   -0.16810E-02   108   0.412E-01    0.114E-01
DAV:   3    -0.998108528304E+02    0.91534E-04   -0.29734E-04   132   0.622E-02    0.591E-02
DAV:   4    -0.998108111553E+02    0.41675E-04   -0.10660E-04   132   0.411E-02    0.113E-02
DAV:   5    -0.998108008431E+02    0.10312E-04   -0.25929E-05   132   0.196E-02    0.711E-03
DAV:   6    -0.998108031122E+02   -0.22691E-05   -0.72837E-06   132   0.841E-03    0.429E-03
DAV:   7    -0.998108144128E+02   -0.11301E-04   -0.10381E-06   108   0.413E-03    0.199E-03
DAV:   8    -0.998108328396E+02   -0.18427E-04   -0.17978E-06   120   0.411E-03    0.129E-03
DAV:   9    -0.998108500176E+02   -0.17178E-04   -0.96851E-07   108   0.291E-03    0.785E-04
DAV:  10    -0.998108644080E+02   -0.14390E-04   -0.89752E-07   120   0.214E-03    0.466E-04
DAV:  11    -0.998108713290E+02   -0.69209E-05   -0.15090E-07   108   0.111E-03    0.280E-04
DAV:  12    -0.998108771760E+02   -0.58470E-05   -0.15512E-07   108   0.865E-04    0.229E-04
DAV:  13    -0.998108799120E+02   -0.27361E-05   -0.45052E-08   108   0.482E-04    0.130E-04
DAV:  14    -0.998108815963E+02   -0.16843E-05   -0.12964E-08   108   0.320E-04    0.586E-05
DAV:  15    -0.998108824180E+02   -0.82172E-06   -0.30321E-09   108   0.210E-04
  29 F= -.99810882E+02 E0= -.99810882E+02  d E =-.469675E-10
       N       E                     dE             d eps       ncg     rms          rms(c)
DAV:   1    -0.998105744389E+02    0.30716E-03   -0.20207E-01   108   0.134E+00    0.156E-01
DAV:   2    -0.998112451346E+02   -0.67070E-03   -0.84366E-03   108   0.295E-01    0.841E-02
DAV:   3    -0.998111855816E+02    0.59553E-04   -0.14039E-04   132   0.418E-02    0.424E-02
DAV:   4    -0.998111445215E+02    0.41060E-04   -0.41406E-05   120   0.234E-02    0.798E-03
DAV:   5    -0.998111403903E+02    0.41312E-05   -0.60831E-06   132   0.105E-02    0.416E-03
DAV:   6    -0.998111522836E+02   -0.11893E-04   -0.43980E-06    96   0.754E-03    0.216E-03
DAV:   7    -0.998111709807E+02   -0.18697E-04   -0.23334E-06    96   0.495E-03    0.142E-03
DAV:   8    -0.998111916730E+02   -0.20692E-04   -0.14977E-06    96   0.310E-03    0.738E-04
DAV:   9    -0.998112066674E+02   -0.14994E-04   -0.12099E-06   120   0.244E-03    0.510E-04
DAV:  10    -0.998112182865E+02   -0.11619E-04   -0.99001E-07    96   0.199E-03    0.226E-04
DAV:  11    -0.998112223785E+02   -0.40920E-05   -0.16345E-07   108   0.931E-04    0.162E-04
DAV:  12    -0.998112251904E+02   -0.28119E-05   -0.12803E-07    84   0.705E-04    0.909E-05
DAV:  13    -0.998112259246E+02   -0.73416E-06   -0.17493E-08   108   0.335E-04
  30 F= -.99811226E+02 E0= -.99811226E+02  d E =-.566530E-10
       N       E                     dE             d eps       ncg     rms          rms(c)
DAV:   1    -0.998099187439E+02    0.13064E-02   -0.40220E-01    96   0.183E+00    0.217E-01
DAV:   2    -0.998112522266E+02   -0.13335E-02   -0.16329E-02   132   0.415E-01    0.106E-01
DAV:   3    -0.998111691611E+02    0.83066E-04   -0.29162E-04   132   0.608E-02    0.545E-02
DAV:   4    -0.998111269198E+02    0.42241E-04   -0.85922E-05   132   0.370E-02    0.116E-02
DAV:   5    -0.998111165213E+02    0.10399E-04   -0.19572E-05   132   0.182E-02    0.668E-03
DAV:   6    -0.998111196220E+02   -0.31007E-05   -0.56117E-06   132   0.866E-03    0.398E-03
DAV:   7    -0.998111326290E+02   -0.13007E-04   -0.15644E-06   120   0.550E-03    0.152E-03
DAV:   8    -0.998111473197E+02   -0.14691E-04   -0.99176E-07   108   0.406E-03    0.123E-03
DAV:   9    -0.998111698530E+02   -0.22533E-04   -0.17950E-06   108   0.358E-03    0.595E-04
DAV:  10    -0.998111813391E+02   -0.11486E-04   -0.57053E-07   108   0.209E-03    0.446E-04
DAV:  11    -0.998111871859E+02   -0.58468E-05   -0.15734E-07   108   0.102E-03    0.280E-04
DAV:  12    -0.998111940965E+02   -0.69106E-05   -0.22097E-07    84   0.997E-04    0.166E-04
DAV:  13    -0.998111955953E+02   -0.14988E-05   -0.27611E-08   108   0.427E-04    0.109E-04
DAV:  14    -0.998111978897E+02   -0.22943E-05   -0.40030E-08   108   0.421E-04    0.595E-05
DAV:  15    -0.998111983501E+02   -0.46040E-06   -0.68882E-10   108   0.193E-04
  31 F= -.99811198E+02 E0= -.99811198E+02  d E =-.504279E-10
       N       E                     dE             d eps       ncg     rms          rms(c)
DAV:   1    -0.998093896254E+02    0.18083E-02   -0.20110E-01   120   0.138E+00    0.157E-01
DAV:   2    -0.998103740145E+02   -0.98439E-03   -0.11870E-02   108   0.349E-01    0.857E-02
DAV:   3    -0.998103307144E+02    0.43300E-04   -0.19636E-04   132   0.472E-02    0.492E-02
DAV:   4    -0.998102948244E+02    0.35890E-04   -0.68209E-05   132   0.314E-02    0.862E-03
DAV:   5    -0.998102887183E+02    0.61061E-05   -0.14833E-05   132   0.144E-02    0.554E-03
DAV:   6    -0.998102924439E+02   -0.37257E-05   -0.47825E-06   132   0.772E-03    0.283E-03
DAV:   7    -0.998103043904E+02   -0.11947E-04   -0.11604E-06   108   0.426E-03    0.142E-03
DAV:   8    -0.998103240988E+02   -0.19708E-04   -0.17993E-06    96   0.385E-03    0.926E-04
DAV:   9    -0.998103386539E+02   -0.14555E-04   -0.99920E-07    96   0.266E-03    0.611E-04
DAV:  10    -0.998103492719E+02   -0.10618E-04   -0.49709E-07   108   0.164E-03    0.303E-04
DAV:  11    -0.998103542938E+02   -0.50220E-05   -0.21668E-07   108   0.931E-04    0.235E-04
DAV:  12    -0.998103592150E+02   -0.49212E-05   -0.19136E-07    84   0.886E-04    0.950E-05
DAV:  13    -0.998103606522E+02   -0.14372E-05   -0.42194E-08    96   0.438E-04    0.781E-05
DAV:  14    -0.998103617563E+02   -0.11041E-05   -0.13217E-08    84   0.292E-04    0.366E-05
DAV:  15    -0.998103622489E+02   -0.49258E-06   -0.40309E-09    96   0.212E-04
  32 F= -.99810362E+02 E0= -.99810362E+02  d E =-.399615E-10
       N       E                     dE             d eps       ncg     rms          rms(c)
DAV:   1    -0.998091160818E+02    0.12457E-02   -0.41135E-01   120   0.189E+00    0.218E-01
DAV:   2    -0.998105264988E+02   -0.14104E-02   -0.17510E-02   108   0.446E-01    0.125E-01
DAV:   3    -0.998104112115E+02    0.11529E-03   -0.26546E-04   132   0.598E-02    0.647E-02
DAV:   4    -0.998103516443E+02    0.59567E-04   -0.12475E-04   120   0.435E-02    0.109E-02
DAV:   5    -0.998103477336E+02    0.39107E-05   -0.30196E-05   132   0.203E-02    0.713E-03
DAV:   6    -0.998103602734E+02   -0.12540E-04   -0.10330E-05   132   0.908E-03    0.430E-03
DAV:   7    -0.998103834403E+02   -0.23167E-04   -0.13546E-06   108   0.374E-03    0.222E-03
DAV:   8    -0.998104205861E+02   -0.37146E-04   -0.45079E-06   108   0.460E-03    0.127E-03
DAV:   9    -0.998104440176E+02   -0.23432E-04   -0.17213E-06   120   0.301E-03    0.866E-04
DAV:  10    -0.998104640197E+02   -0.20002E-04   -0.16548E-06    96   0.261E-03    0.383E-04
DAV:  11    -0.998104719254E+02   -0.79057E-05   -0.27599E-07   108   0.124E-03    0.302E-04
DAV:  12    -0.998104785398E+02   -0.66144E-05   -0.34812E-07    84   0.115E-03    0.188E-04
DAV:  13    -0.998104800589E+02   -0.15191E-05   -0.39395E-08   108   0.463E-04    0.122E-04
DAV:  14    -0.998104816001E+02   -0.15411E-05   -0.20807E-08    84   0.367E-04    0.542E-05
DAV:  15    -0.998104821835E+02   -0.58344E-06   -0.43710E-09   108   0.222E-04
  33 F= -.99810482E+02 E0= -.99810482E+02  d E =-.876350E-10
       N       E                     dE             d eps       ncg     rms          rms(c)
DAV:   1    -0.998099857461E+02    0.49585E-03   -0.20409E-01    96   0.137E+00    0.153E-01
DAV:   2    -0.998106952038E+02   -0.70946E-03   -0.87172E-03   108   0.304E-01    0.780E-02
DAV:   3    -0.998106503009E+02    0.44903E-04   -0.13485E-04   132   0.413E-02    0.416E-02
DAV:   4    -0.998106220553E+02    0.28246E-04   -0.46662E-05   132   0.268E-02    0.792E-03
DAV:   5    -0.998106158282E+02    0.62271E-05   -0.10897E-05   132   0.127E-02    0.487E-03
DAV:   6    -0.998106166389E+02   -0.81070E-06   -0.36319E-06   132   0.663E-03
  34 F= -.99810617E+02 E0= -.99810617E+02  d E =-.642718E-10
       N       E                     dE             d eps       ncg     rms          rms(c)
DAV:   1    -0.998094650378E+02    0.11508E-02   -0.40577E-01    96   0.192E+00    0.220E-01
DAV:   2    -0.998108956002E+02   -0.14306E-02   -0.17359E-02   132   0.436E-01    0.115E-01
DAV:   3    -0.998108167186E+02    0.78882E-04   -0.26858E-04   108   0.582E-02    0.593E-02
DAV:   4    -0.998107544435E+02    0.62275E-04   -0.88693E-05   120   0.351E-02    0.111E-02
DAV:   5    -0.998107479237E+02    0.65198E-05   -0.14791E-05   144   0.157E-02    0.627E-03
DAV:   6    -0.998107618138E+02   -0.13890E-04   -0.80489E-06   132   0.986E-03    0.319E-03
DAV:   7    -0.998107851901E+02   -0.23376E-04   -0.35275E-06   132   0.619E-03    0.207E-03
DAV:   8    -0.998108105665E+02   -0.25376E-04   -0.18200E-06   120   0.341E-03    0.104E-03
DAV:   9    -0.998108326933E+02   -0.22127E-04   -0.20593E-06   120   0.318E-03    0.777E-04
DAV:  10    -0.998108513490E+02   -0.18656E-04   -0.19306E-06   120   0.276E-03    0.306E-04
DAV:  11    -0.998108578776E+02   -0.65286E-05   -0.33442E-07   108   0.134E-03    0.265E-04
DAV:  12    -0.998108613616E+02   -0.34840E-05   -0.14333E-07   108   0.775E-04    0.129E-04
DAV:  13    -0.998108630685E+02   -0.17069E-05   -0.58272E-08   108   0.491E-04    0.638E-05
DAV:  14    -0.998108639199E+02   -0.85147E-06   -0.10401E-08   108   0.292E-04
  35 F= -.99810864E+02 E0= -.99810864E+02  d E =-.551440E-10
       N       E                     dE             d eps       ncg     rms          rms(c)
DAV:   1    -0.998109951468E+02   -0.13208E-03   -0.20506E-01   120   0.137E+00    0.149E-01
DAV:   2    -0.998116366539E+02   -0.64151E-03   -0.77528E-03   108   0.283E-01    0.689E-02
DAV:   3    -0.998116069393E+02    0.29715E-04   -0.13962E-04   132   0.423E-02    0.362E-02
DAV:   4    -0.998115925693E+02    0.14370E-04   -0.41696E-05   132   0.290E-02    0.728E-03
DAV:   5    -0.998115899146E+02    0.26547E-05   -0.15368E-05   132   0.144E-02    0.530E-03
DAV:   6    -0.998115905532E+02   -0.63866E-06   -0.23332E-06   132   0.487E-03
  36 F= -.99811591E+02 E0= -.99811591E+02  d E =-.325026E-10
       N       E                     dE             d eps       ncg     rms          rms(c)
DAV:   1    -0.998104017333E+02    0.11882E-02   -0.41464E-01   120   0.183E+00    0.188E-01
DAV:   2    -0.998116741065E+02   -0.12724E-02   -0.15197E-02   108   0.385E-01    0.921E-02
DAV:   3    -0.998116311316E+02    0.42975E-04   -0.26519E-04   132   0.571E-02    0.489E-02
DAV:   4    -0.998116107096E+02    0.20422E-04   -0.77006E-05   132   0.387E-02    0.941E-03
DAV:   5    -0.998116079954E+02    0.27142E-05   -0.26539E-05   132   0.195E-02    0.716E-03
DAV:   6    -0.998116105740E+02   -0.25787E-05   -0.42923E-06   132   0.692E-03    0.453E-03
DAV:   7    -0.998116180880E+02   -0.75139E-05   -0.73240E-07   108   0.398E-03    0.171E-03
DAV:   8    -0.998116282308E+02   -0.10143E-04   -0.11557E-06   108   0.400E-03    0.120E-03
DAV:   9    -0.998116450057E+02   -0.16775E-04   -0.14670E-06   120   0.374E-03    0.689E-04
DAV:  10    -0.998116522248E+02   -0.72191E-05   -0.42394E-07   108   0.206E-03    0.694E-04
DAV:  11    -0.998116544309E+02   -0.22060E-05   -0.54179E-08   120   0.811E-04    0.491E-04
DAV:  12    -0.998116616312E+02   -0.72004E-05   -0.28611E-07   108   0.127E-03    0.337E-04
DAV:  13    -0.998116625151E+02   -0.88387E-06   -0.34566E-08   120   0.542E-04
  37 F= -.99811663E+02 E0= -.99811663E+02  d E =-.671685E-11
       N       E                     dE             d eps       ncg     rms          rms(c)
DAV:   1    -0.998110427583E+02    0.61887E-03   -0.19682E-01    96   0.124E+00    0.130E-01
DAV:   2    -0.998118079352E+02   -0.76518E-03   -0.93993E-03   108   0.281E-01    0.635E-02
DAV:   3    -0.998117833416E+02    0.24594E-04   -0.15574E-04   144   0.413E-02    0.354E-02
DAV:   4    -0.998117597000E+02    0.23642E-04   -0.31130E-05   108   0.246E-02    0.716E-03
DAV:   5    -0.998117559839E+02    0.37161E-05   -0.11137E-05   132   0.128E-02    0.479E-03
DAV:   6    -0.998117586139E+02   -0.26300E-05   -0.24373E-06   108   0.526E-03    0.316E-03
DAV:   7    -0.998117654835E+02   -0.68696E-05   -0.44560E-07   108   0.260E-03    0.134E-03
DAV:   8    -0.998117753751E+02   -0.98916E-05   -0.94808E-07    84   0.302E-03    0.934E-04
DAV:   9    -0.998117882123E+02   -0.12837E-04   -0.11503E-06    96   0.273E-03    0.561E-04
DAV:  10    -0.998117938629E+02   -0.56506E-05   -0.29838E-07   108   0.153E-03    0.508E-04
DAV:  11    -0.998117962141E+02   -0.23511E-05   -0.60540E-08    84   0.721E-04    0.237E-04
DAV:  12    -0.998118002984E+02   -0.40843E-05   -0.18665E-07    84   0.933E-04    0.257E-04
DAV:  13    -0.998118008976E+02   -0.59921E-06   -0.16458E-08   108   0.385E-04
  38 F= -.99811801E+02 E0= -.99811801E+02  d E =-.771509E-11
       N       E                     dE             d eps       ncg     rms          rms(c)
DAV:   1    -0.998101081085E+02    0.16922E-02   -0.41000E-01    96   0.158E+00    0.177E-01
DAV:   2    -0.998114915332E+02   -0.13834E-02   -0.16627E-02   120   0.347E-01    0.887E-02
DAV:   3    -0.998114321555E+02    0.59378E-04   -0.27148E-04   132   0.585E-02    0.454E-02
DAV:   4    -0.998114023132E+02    0.29842E-04   -0.75636E-05   108   0.380E-02    0.993E-03
DAV:   5    -0.998113981546E+02    0.41586E-05   -0.22664E-05   132   0.184E-02    0.627E-03
DAV:   6    -0.998114024190E+02   -0.42644E-05   -0.46355E-06   132   0.712E-03    0.370E-03
DAV:   7    -0.998114115523E+02   -0.91333E-05   -0.71912E-07    96   0.296E-03    0.176E-03
DAV:   8    -0.998114245382E+02   -0.12986E-04   -0.92068E-07   108   0.280E-03    0.873E-04
DAV:   9    -0.998114392506E+02   -0.14712E-04   -0.11471E-06    96   0.273E-03    0.628E-04
DAV:  10    -0.998114499565E+02   -0.10706E-04   -0.84697E-07   108   0.212E-03    0.402E-04
DAV:  11    -0.998114540700E+02   -0.41136E-05   -0.10885E-07    84   0.102E-03    0.204E-04
DAV:  12    -0.998114571698E+02   -0.30998E-05   -0.10453E-07    96   0.693E-04    0.175E-04
DAV:  13    -0.998114589391E+02   -0.17693E-05   -0.44461E-08    84   0.437E-04    0.806E-05
DAV:  14    -0.998114597960E+02   -0.85688E-06   -0.86187E-09    96   0.253E-04
  39 F= -.99811460E+02 E0= -.99811460E+02  d E =-.502402E-10
       N       E                     dE             d eps       ncg     rms          rms(c)
DAV:   1    -0.998101830786E+02    0.12759E-02   -0.19955E-01    96   0.112E+00    0.137E-01
DAV:   2    -0.998109309459E+02   -0.74787E-03   -0.93536E-03   144   0.250E-01    0.807E-02
DAV:   3    -0.998108729661E+02    0.57980E-04   -0.14704E-04   132   0.429E-02    0.393E-02
DAV:   4    -0.998108465319E+02    0.26434E-04   -0.54950E-05   132   0.278E-02    0.779E-03
DAV:   5    -0.998108402222E+02    0.63097E-05   -0.10813E-05   132   0.121E-02    0.453E-03
DAV:   6    -0.998108422583E+02   -0.20361E-05   -0.34952E-06   132   0.514E-03    0.230E-03
DAV:   7    -0.998108500201E+02   -0.77617E-05   -0.63109E-07   120   0.248E-03    0.124E-03
DAV:   8    -0.998108632699E+02   -0.13250E-04   -0.82756E-07   120   0.207E-03    0.677E-04
DAV:   9    -0.998108741388E+02   -0.10869E-04   -0.53931E-07   120   0.155E-03    0.527E-04
DAV:  10    -0.998108852530E+02   -0.11114E-04   -0.57807E-07   108   0.142E-03    0.237E-04
DAV:  11    -0.998108884518E+02   -0.31988E-05   -0.46493E-08   108   0.571E-04    0.179E-04
DAV:  12    -0.998108925644E+02   -0.41125E-05   -0.10535E-07   108   0.667E-04    0.791E-05
DAV:  13    -0.998108935375E+02   -0.97316E-06   -0.11519E-08   108   0.296E-04
  40 F= -.99810894E+02 E0= -.99810894E+02  d E =-.728555E-10
       N       E                     dE             d eps       ncg     rms          rms(c)
DAV:   1    -0.998098854409E+02    0.10071E-02   -0.40086E-01    96   0.156E+00    0.190E-01
DAV:   2    -0.998113717151E+02   -0.14863E-02   -0.18266E-02   120   0.346E-01    0.108E-01
DAV:   3    -0.998112780630E+02    0.93652E-04   -0.27950E-04   132   0.572E-02    0.566E-02
DAV:   4    -0.998112295017E+02    0.48561E-04   -0.98568E-05   132   0.383E-02    0.108E-02
DAV:   5    -0.998112232097E+02    0.62920E-05   -0.22941E-05   132   0.176E-02    0.621E-03
DAV:   6    -0.998112323521E+02   -0.91424E-05   -0.63926E-06   132   0.722E-03    0.343E-03
DAV:   7    -0.998112499359E+02   -0.17584E-04   -0.15583E-06   132   0.354E-03    0.182E-03
DAV:   8    -0.998112736615E+02   -0.23726E-04   -0.20291E-06   132   0.308E-03    0.962E-04
DAV:   9    -0.998112910940E+02   -0.17432E-04   -0.12910E-06   120   0.233E-03    0.736E-04
DAV:  10    -0.998113084154E+02   -0.17321E-04   -0.16703E-06    96   0.230E-03    0.305E-04
DAV:  11    -0.998113130886E+02   -0.46732E-05   -0.13677E-07   108   0.911E-04    0.240E-04
DAV:  12    -0.998113180208E+02   -0.49322E-05   -0.21566E-07    96   0.909E-04    0.136E-04
DAV:  13    -0.998113192625E+02   -0.12417E-05   -0.37678E-08   108   0.414E-04    0.833E-05
DAV:  14    -0.998113202094E+02   -0.94686E-06   -0.65666E-09   108   0.266E-04
  41 F= -.99811320E+02 E0= -.99811320E+02  d E =-.750894E-10
       N       E                     dE             d eps       ncg     rms          rms(c)
DAV:   1    -0.998110108679E+02    0.30839E-03   -0.19841E-01    96   0.111E+00    0.136E-01
DAV:   2    -0.998117765133E+02   -0.76565E-03   -0.94797E-03   108   0.253E-01    0.789E-02
DAV:   3    -0.998117225226E+02    0.53991E-04   -0.14865E-04   132   0.421E-02    0.398E-02
DAV:   4    -0.998116959176E+02    0.26605E-04   -0.51974E-05   132   0.273E-02    0.758E-03
DAV:   5    -0.998116897496E+02    0.61680E-05   -0.11714E-05   132   0.124E-02    0.447E-03
DAV:   6    -0.998116915540E+02   -0.18045E-05   -0.32971E-06   132   0.505E-03    0.247E-03
DAV:   7    -0.998116992049E+02   -0.76509E-05   -0.57105E-07   108   0.247E-03    0.123E-03
DAV:   8    -0.998117121097E+02   -0.12905E-04   -0.92724E-07   120   0.224E-03    0.731E-04
DAV:   9    -0.998117232626E+02   -0.11153E-04   -0.56489E-07   120   0.164E-03    0.549E-04
DAV:  10    -0.998117328778E+02   -0.96152E-05   -0.39905E-07   108   0.128E-03    0.223E-04
DAV:  11    -0.998117367650E+02   -0.38872E-05   -0.10622E-07   108   0.677E-04    0.175E-04
DAV:  12    -0.998117407387E+02   -0.39737E-05   -0.10075E-07   108   0.637E-04    0.883E-05
DAV:  13    -0.998117420543E+02   -0.13156E-05   -0.19383E-08   108   0.331E-04    0.547E-05
DAV:  14    -0.998117431336E+02   -0.10793E-05   -0.87998E-09   108   0.247E-04    0.296E-05
DAV:  15    -0.998117434893E+02   -0.35576E-06    0.28854E-09   108   0.134E-04
  42 F= -.99811743E+02 E0= -.99811743E+02  d E =-.619556E-11
       N       E                     dE             d eps       ncg     rms          rms(c)
DAV:   1    -0.998103816476E+02    0.13615E-02   -0.41250E-01    96   0.158E+00    0.173E-01
DAV:   2    -0.998116226844E+02   -0.12410E-02   -0.15117E-02   144   0.338E-01    0.867E-02
DAV:   3    -0.998115674320E+02    0.55252E-04   -0.26634E-04   132   0.594E-02    0.429E-02
DAV:   4    -0.998115399882E+02    0.27444E-04   -0.71055E-05   132   0.379E-02    0.981E-03
DAV:   5    -0.998115361197E+02    0.38685E-05   -0.22114E-05   132   0.179E-02    0.650E-03
DAV:   6    -0.998115399516E+02   -0.38319E-05   -0.40497E-06   132   0.672E-03    0.360E-03
DAV:   7    -0.998115484413E+02   -0.84897E-05   -0.60829E-07   108   0.303E-03    0.168E-03
DAV:   8    -0.998115608524E+02   -0.12411E-04   -0.91798E-07   120   0.286E-03    0.873E-04
DAV:   9    -0.998115767830E+02   -0.15931E-04   -0.12997E-06   120   0.297E-03    0.535E-04
DAV:  10    -0.998115857585E+02   -0.89755E-05   -0.63907E-07   120   0.196E-03    0.369E-04
DAV:  11    -0.998115898032E+02   -0.40447E-05   -0.88957E-08   108   0.900E-04    0.189E-04
DAV:  12    -0.998115931645E+02   -0.33613E-05   -0.11731E-07   108   0.720E-04    0.165E-04
DAV:  13    -0.998115949090E+02   -0.17445E-05   -0.46229E-08   108   0.440E-04    0.796E-05
DAV:  14    -0.998115957356E+02   -0.82659E-06   -0.63878E-09   108   0.240E-04
  43 F= -.99811596E+02 E0= -.99811596E+02  d E =-.771365E-10
       N       E                     dE             d eps       ncg     rms          rms(c)
DAV:   1    -0.998096270898E+02    0.19678E-02   -0.19731E-01    96   0.127E+00    0.141E-01
DAV:   2    -0.998106121501E+02   -0.98506E-03   -0.12076E-02   120   0.314E-01    0.779E-02
DAV:   3    -0.998105764239E+02    0.35726E-04   -0.22480E-04   144   0.479E-02    0.433E-02
DAV:   4    -0.998105501531E+02    0.26271E-04   -0.49330E-05   108   0.286E-02    0.918E-03
DAV:   5    -0.998105422174E+02    0.79357E-05   -0.12891E-05   132   0.140E-02    0.536E-03
DAV:   6    -0.998105426911E+02   -0.47367E-06   -0.30544E-06   132   0.643E-03
  44 F= -.99810543E+02 E0= -.99810543E+02  d E =-.539077E-10
       N       E                     dE             d eps       ncg     rms          rms(c)
DAV:   1    -0.998090843315E+02    0.14579E-02   -0.40034E-01    96   0.168E+00    0.205E-01
DAV:   2    -0.998107722360E+02   -0.16879E-02   -0.20145E-02   132   0.414E-01    0.120E-01
DAV:   3    -0.998106930712E+02    0.79165E-04   -0.27922E-04   132   0.541E-02    0.646E-02
DAV:   4    -0.998106196227E+02    0.73449E-04   -0.11397E-04   108   0.364E-02    0.109E-02
DAV:   5    -0.998106072076E+02    0.12415E-04   -0.18008E-05   132   0.163E-02    0.620E-03
DAV:   6    -0.998106188189E+02   -0.11611E-04   -0.10050E-05   120   0.971E-03    0.334E-03
DAV:   7    -0.998106426098E+02   -0.23791E-04   -0.34427E-06   132   0.575E-03    0.198E-03
DAV:   8    -0.998106707820E+02   -0.28172E-04   -0.24352E-06    96   0.377E-03    0.102E-03
DAV:   9    -0.998106931936E+02   -0.22412E-04   -0.20042E-06   108   0.300E-03    0.779E-04
DAV:  10    -0.998107126625E+02   -0.19469E-04   -0.18250E-06    96   0.254E-03    0.370E-04
DAV:  11    -0.998107184101E+02   -0.57477E-05   -0.21237E-07   108   0.103E-03    0.236E-04
DAV:  12    -0.998107234931E+02   -0.50829E-05   -0.27690E-07    84   0.101E-03    0.162E-04
DAV:  13    -0.998107247235E+02   -0.12305E-05   -0.28894E-08   108   0.432E-04    0.774E-05
DAV:  14    -0.998107257057E+02   -0.98218E-06   -0.12975E-08   108   0.319E-04
  45 F= -.99810726E+02 E0= -.99810726E+02  d E =-.685849E-10
       N       E                     dE             d eps       ncg     rms          rms(c)
DAV:   1    -0.998111880283E+02   -0.46330E-03   -0.20227E-01    96   0.121E+00    0.150E-01
DAV:   2    -0.998119515911E+02   -0.76356E-03   -0.92074E-03   108   0.276E-01    0.773E-02
DAV:   3    -0.998119123841E+02    0.39207E-04   -0.16268E-04   144   0.422E-02    0.404E-02
DAV:   4    -0.998118898348E+02    0.22549E-04   -0.43640E-05   132   0.270E-02    0.806E-03
DAV:   5    -0.998118841429E+02    0.56919E-05   -0.12630E-05   144   0.134E-02    0.483E-03
DAV:   6    -0.998118851803E+02   -0.10375E-05   -0.30518E-06   132   0.556E-03    0.274E-03
DAV:   7    -0.998118910731E+02   -0.58928E-05   -0.71603E-07   108   0.319E-03    0.133E-03
DAV:   8    -0.998119018066E+02   -0.10734E-04   -0.10193E-06    96   0.306E-03    0.912E-04
DAV:   9    -0.998119122265E+02   -0.10420E-04   -0.57070E-07   108   0.212E-03    0.544E-04
DAV:  10    -0.998119197648E+02   -0.75383E-05   -0.37190E-07    84   0.139E-03    0.277E-04
DAV:  11    -0.998119245291E+02   -0.47643E-05   -0.11969E-07   108   0.784E-04    0.187E-04
DAV:  12    -0.998119273441E+02   -0.28149E-05   -0.54998E-08    84   0.522E-04    0.111E-04
DAV:  13    -0.998119289235E+02   -0.15794E-05   -0.24059E-08   108   0.345E-04    0.558E-05
DAV:  14    -0.998119298194E+02   -0.89597E-06   -0.47594E-09    96   0.225E-04
  46 F= -.99811930E+02 E0= -.99811930E+02  d E =-.396153E-10
       N       E                     dE             d eps       ncg     rms          rms(c)
DAV:   1    -0.998104928962E+02    0.14360E-02   -0.41316E-01    96   0.161E+00    0.200E-01
DAV:   2    -0.998117836966E+02   -0.12908E-02   -0.15376E-02   132   0.328E-01    0.858E-02
DAV:   3    -0.998117507184E+02    0.32978E-04   -0.30906E-04   132   0.592E-02    0.461E-02
DAV:   4    -0.998117340600E+02    0.16658E-04   -0.71024E-05   144   0.408E-02    0.970E-03
DAV:   5    -0.998117321593E+02    0.19007E-05   -0.35195E-05   144   0.216E-02    0.714E-03
DAV:   6    -0.998117331517E+02   -0.99240E-06   -0.34027E-06   132   0.586E-03
  47 F= -.99811733E+02 E0= -.99811733E+02  d E =-.438618E-11
       N       E                     dE             d eps       ncg     rms          rms(c)
DAV:   1    -0.998095460897E+02    0.21861E-02   -0.20397E-01    96   0.119E+00    0.148E-01
DAV:   2    -0.998102562637E+02   -0.71017E-03   -0.84944E-03   132   0.262E-01    0.717E-02
DAV:   3    -0.998102320704E+02    0.24193E-04   -0.16195E-04   120   0.424E-02    0.373E-02
DAV:   4    -0.998102275387E+02    0.45317E-05   -0.42039E-05   132   0.279E-02    0.762E-03
DAV:   5    -0.998102281711E+02   -0.63238E-06   -0.13829E-05   120   0.137E-02    0.475E-03
DAV:   6    -0.998102313904E+02   -0.32193E-05   -0.25640E-06   132   0.480E-03    0.274E-03
DAV:   7    -0.998102372438E+02   -0.58534E-05   -0.39391E-07    84   0.227E-03    0.133E-03
DAV:   8    -0.998102463975E+02   -0.91537E-05   -0.78587E-07    84   0.252E-03    0.781E-04
DAV:   9    -0.998102545460E+02   -0.81484E-05   -0.47437E-07   108   0.184E-03    0.560E-04
DAV:  10    -0.998102611160E+02   -0.65701E-05   -0.29121E-07    84   0.134E-03    0.304E-04
DAV:  11    -0.998102637463E+02   -0.26303E-05   -0.55778E-08   108   0.696E-04    0.203E-04
DAV:  12    -0.998102670786E+02   -0.33323E-05   -0.90033E-08    84   0.700E-04    0.178E-04
DAV:  13    -0.998102680228E+02   -0.94423E-06   -0.13832E-08   108   0.337E-04
  48 F= -.99810268E+02 E0= -.99810268E+02  d E =-.494170E-10
       N       E                     dE             d eps       ncg     rms          rms(c)
DAV:   1    -0.998088888841E+02    0.13782E-02   -0.40309E-01   120   0.169E+00    0.213E-01
DAV:   2    -0.998104495394E+02   -0.15607E-02   -0.19311E-02   108   0.412E-01    0.128E-01
DAV:   3    -0.998103271327E+02    0.12241E-03   -0.29096E-04   132   0.587E-02    0.667E-02
DAV:   4    -0.998102677790E+02    0.59354E-04   -0.13685E-04   132   0.429E-02    0.113E-02
DAV:   5    -0.998102651620E+02    0.26170E-05   -0.29223E-05   132   0.198E-02    0.681E-03
DAV:   6    -0.998102822887E+02   -0.17127E-04   -0.11895E-05   132   0.900E-03    0.409E-03
DAV:   7    -0.998103103916E+02   -0.28103E-04   -0.19137E-06   120   0.410E-03    0.217E-03
DAV:   8    -0.998103530379E+02   -0.42646E-04   -0.50067E-06   108   0.481E-03    0.124E-03
DAV:   9    -0.998103761996E+02   -0.23162E-04   -0.17636E-06   108   0.292E-03    0.873E-04
DAV:  10    -0.998103977780E+02   -0.21578E-04   -0.19790E-06    96   0.274E-03    0.351E-04
DAV:  11    -0.998104050361E+02   -0.72581E-05   -0.27091E-07   108   0.120E-03    0.303E-04
DAV:  12    -0.998104112957E+02   -0.62596E-05   -0.33852E-07    84   0.114E-03    0.148E-04
DAV:  13    -0.998104127079E+02   -0.14123E-05   -0.42193E-08   108   0.465E-04    0.100E-04
DAV:  14    -0.998104140264E+02   -0.13185E-05   -0.17001E-08   108   0.351E-04    0.552E-05
DAV:  15    -0.998104144859E+02   -0.45946E-06   -0.17042E-09   108   0.200E-04
  49 F= -.99810414E+02 E0= -.99810414E+02  d E =-.716556E-10
       N       E                     dE             d eps       ncg     rms          rms(c)
DAV:   1    -0.998104995278E+02   -0.85501E-04   -0.19941E-01    96   0.136E+00    0.158E-01
DAV:   2    -0.998115325448E+02   -0.10330E-02   -0.12428E-02   108   0.345E-01    0.827E-02
DAV:   3    -0.998114842810E+02    0.48264E-04   -0.23449E-04   144   0.523E-02    0.472E-02
DAV:   4    -0.998114511986E+02    0.33082E-04   -0.66535E-05   132   0.334E-02    0.905E-03
DAV:   5    -0.998114423422E+02    0.88563E-05   -0.21333E-05   132   0.170E-02    0.647E-03
DAV:   6    -0.998114429290E+02   -0.58676E-06   -0.37627E-06   132   0.646E-03
  50 F= -.99811443E+02 E0= -.99811443E+02  d E =-.457275E-10
       N       E                     dE             d eps       ncg     rms          rms(c)
DAV:   1    -0.998102879223E+02    0.11544E-02   -0.40960E-01    96   0.183E+00    0.222E-01
DAV:   2    -0.998115794362E+02   -0.12915E-02   -0.15343E-02   132   0.392E-01    0.991E-02
DAV:   3    -0.998115357944E+02    0.43642E-04   -0.31701E-04   108   0.633E-02    0.517E-02
DAV:   4    -0.998115302440E+02    0.55504E-05   -0.89586E-05   120   0.405E-02    0.115E-02
DAV:   5    -0.998115290263E+02    0.12177E-05   -0.27575E-05   132   0.198E-02    0.761E-03
DAV:   6    -0.998115303267E+02   -0.13003E-05   -0.43420E-06   120   0.715E-03    0.449E-03
DAV:   7    -0.998115347682E+02   -0.44415E-05   -0.67642E-07    84   0.349E-03    0.189E-03
DAV:   8    -0.998115413647E+02   -0.65964E-05   -0.74655E-07    96   0.316E-03    0.876E-04
DAV:   9    -0.998115512827E+02   -0.99181E-05   -0.70013E-07    84   0.277E-03    0.532E-04
DAV:  10    -0.998115570209E+02   -0.57382E-05   -0.37437E-07    96   0.178E-03    0.384E-04
DAV:  11    -0.998115598872E+02   -0.28663E-05   -0.62462E-08   108   0.847E-04    0.267E-04
DAV:  12    -0.998115635548E+02   -0.36676E-05   -0.11842E-07    84   0.785E-04    0.176E-04
DAV:  13    -0.998115645461E+02   -0.99134E-06   -0.16751E-08   108   0.350E-04
  51 F= -.99811565E+02 E0= -.99811565E+02  d E =-.556188E-10
       N       E                     dE             d eps       ncg     rms          rms(c)
DAV:   1    -0.998103871949E+02    0.11764E-02   -0.20166E-01   108   0.135E+00    0.153E-01
DAV:   2    -0.998110829781E+02   -0.69578E-03   -0.85895E-03   108   0.297E-01    0.831E-02
DAV:   3    -0.998110277785E+02    0.55200E-04   -0.14629E-04   144   0.427E-02    0.423E-02
DAV:   4    -0.998109893993E+02    0.38379E-04   -0.41662E-05   132   0.245E-02    0.810E-03
DAV:   5    -0.998109850357E+02    0.43636E-05   -0.81949E-06   132   0.116E-02    0.445E-03
DAV:   6    -0.998109943590E+02   -0.93233E-05   -0.38610E-06   120   0.667E-03    0.240E-03
DAV:   7    -0.998110108655E+02   -0.16507E-04   -0.18573E-06    96   0.444E-03    0.137E-03
DAV:   8    -0.998110313210E+02   -0.20455E-04   -0.16731E-06    96   0.335E-03    0.762E-04
DAV:   9    -0.998110446849E+02   -0.13364E-04   -0.10692E-06   108   0.241E-03    0.554E-04
DAV:  10    -0.998110550277E+02   -0.10343E-04   -0.73407E-07    96   0.175E-03    0.261E-04
DAV:  11    -0.998110593072E+02   -0.42795E-05   -0.17730E-07    96   0.900E-04    0.205E-04
DAV:  12    -0.998110626269E+02   -0.33197E-05   -0.16156E-07    84   0.792E-04    0.992E-05
DAV:  13    -0.998110635140E+02   -0.88711E-06   -0.24735E-08   108   0.378E-04
  52 F= -.99811064E+02 E0= -.99811064E+02  d E =-.616803E-10
       N       E                     dE             d eps       ncg     rms          rms(c)
DAV:   1    -0.998094429213E+02    0.16197E-02   -0.40188E-01    96   0.187E+00    0.214E-01
DAV:   2    -0.998108288188E+02   -0.13859E-02   -0.16948E-02   108   0.420E-01    0.115E-01
DAV:   3    -0.998107263003E+02    0.10252E-03   -0.27570E-04   144   0.594E-02    0.596E-02
DAV:   4    -0.998106717320E+02    0.54568E-04   -0.99106E-05   132   0.376E-02    0.113E-02
DAV:   5    -0.998106593738E+02    0.12358E-04   -0.18086E-05   132   0.173E-02    0.646E-03
DAV:   6    -0.998106628615E+02   -0.34876E-05   -0.72600E-06   132   0.959E-03    0.352E-03
DAV:   7    -0.998106783850E+02   -0.15524E-04   -0.23669E-06   120   0.594E-03    0.183E-03
DAV:   8    -0.998107007907E+02   -0.22406E-04   -0.15678E-06    96   0.424E-03    0.116E-03
DAV:   9    -0.998107206732E+02   -0.19883E-04   -0.12426E-06   120   0.298E-03    0.803E-04
DAV:  10    -0.998107368261E+02   -0.16153E-04   -0.61121E-07    84   0.182E-03    0.386E-04
DAV:  11    -0.998107455110E+02   -0.86848E-05   -0.29389E-07   108   0.108E-03    0.285E-04
DAV:  12    -0.998107535364E+02   -0.80255E-05   -0.21169E-07    84   0.942E-04    0.138E-04
DAV:  13    -0.998107559932E+02   -0.24568E-05   -0.39687E-08   108   0.477E-04    0.100E-04
DAV:  14    -0.998107578712E+02   -0.18779E-05   -0.18558E-08    84   0.340E-04    0.453E-05
DAV:  15    -0.998107584988E+02   -0.62763E-06   -0.90413E-10   108   0.200E-04
  53 F= -.99810758E+02 E0= -.99810758E+02  d E =-.422297E-10
       N       E                     dE             d eps       ncg     rms          rms(c)
DAV:   1    -0.998094525127E+02    0.13054E-02   -0.20299E-01    96   0.129E+00    0.156E-01
DAV:   2    -0.998102475491E+02   -0.79504E-03   -0.96767E-03   108   0.322E-01    0.903E-02
DAV:   3    -0.998101868095E+02    0.60740E-04   -0.14592E-04   132   0.445E-02    0.479E-02
DAV:   4    -0.998101552802E+02    0.31529E-04   -0.68597E-05   132   0.315E-02    0.794E-03
DAV:   5    -0.998101500553E+02    0.52249E-05   -0.15001E-05   132   0.143E-02    0.512E-03
DAV:   6    -0.998101549665E+02   -0.49112E-05   -0.52342E-06   132   0.652E-03    0.298E-03
DAV:   7    -0.998101667972E+02   -0.11831E-04   -0.75145E-07   108   0.287E-03    0.152E-03
DAV:   8    -0.998101862698E+02   -0.19473E-04   -0.21227E-06    96   0.324E-03    0.909E-04
DAV:   9    -0.998101984056E+02   -0.12136E-04   -0.69639E-07   108   0.203E-03    0.630E-04
DAV:  10    -0.998102108747E+02   -0.12469E-04   -0.11250E-06    96   0.195E-03    0.266E-04
DAV:  11    -0.998102150916E+02   -0.42170E-05   -0.12385E-07   108   0.879E-04    0.223E-04
DAV:  12    -0.998102185962E+02   -0.35046E-05   -0.12214E-07    84   0.720E-04    0.126E-04
DAV:  13    -0.998102197538E+02   -0.11576E-05   -0.23988E-08   108   0.356E-04    0.790E-05
DAV:  14    -0.998102206888E+02   -0.93494E-06   -0.66562E-09    84   0.262E-04
  54 F= -.99810221E+02 E0= -.99810221E+02  d E =-.580991E-10
       N       E                     dE             d eps       ncg     rms          rms(c)
DAV:   1    -0.998089845891E+02    0.12352E-02   -0.40689E-01    96   0.185E+00    0.217E-01
DAV:   2    -0.998104941879E+02   -0.15096E-02   -0.18652E-02   108   0.442E-01    0.130E-01
DAV:   3    -0.998103726856E+02    0.12150E-03   -0.30042E-04   132   0.638E-02    0.685E-02
DAV:   4    -0.998103138527E+02    0.58833E-04   -0.13877E-04   120   0.443E-02    0.112E-02
DAV:   5    -0.998103096619E+02    0.41908E-05   -0.27943E-05   132   0.198E-02    0.737E-03
DAV:   6    -0.998103252612E+02   -0.15599E-04   -0.11621E-05   132   0.942E-03    0.412E-03
DAV:   7    -0.998103528113E+02   -0.27550E-04   -0.22223E-06   120   0.462E-03    0.212E-03
DAV:   8    -0.998103937155E+02   -0.40904E-04   -0.50074E-06   108   0.511E-03    0.132E-03
DAV:   9    -0.998104167217E+02   -0.23006E-04   -0.17896E-06   120   0.309E-03    0.889E-04
DAV:  10    -0.998104369167E+02   -0.20195E-04   -0.17605E-06    96   0.266E-03    0.390E-04
DAV:  11    -0.998104451108E+02   -0.81941E-05   -0.35620E-07    96   0.132E-03    0.336E-04
DAV:  12    -0.998104505887E+02   -0.54780E-05   -0.28485E-07    84   0.105E-03    0.130E-04
DAV:  13    -0.998104523658E+02   -0.17771E-05   -0.46531E-08   108   0.493E-04    0.896E-05
DAV:  14    -0.998104537388E+02   -0.13730E-05   -0.19652E-08    84   0.356E-04    0.580E-05
DAV:  15    -0.998104540735E+02   -0.33463E-06    0.62879E-10   108   0.166E-04
  55 F= -.99810454E+02 E0= -.99810454E+02  d E =-.453111E-10
       N       E                     dE             d eps       ncg     rms          rms(c)
DAV:   1    -0.998105475505E+02   -0.93812E-04   -0.20022E-01    96   0.138E+00    0.143E-01
DAV:   2    -0.998115215553E+02   -0.97400E-03   -0.11626E-02   108   0.344E-01    0.841E-02
DAV:   3    -0.998114821928E+02    0.39362E-04   -0.17212E-04   132   0.454E-02    0.487E-02
DAV:   4    -0.998114554608E+02    0.26732E-04   -0.77496E-05   132   0.338E-02    0.797E-03
DAV:   5    -0.998114502079E+02    0.52529E-05   -0.17347E-05   132   0.153E-02    0.547E-03
DAV:   6    -0.998114525550E+02   -0.23471E-05   -0.44088E-06   132   0.657E-03    0.324E-03
DAV:   7    -0.998114621863E+02   -0.96313E-05   -0.89352E-07   108   0.347E-03    0.135E-03
DAV:   8    -0.998114766841E+02   -0.14498E-04   -0.13918E-06   120   0.318E-03    0.103E-03
DAV:   9    -0.998114915857E+02   -0.14902E-04   -0.83270E-07   108   0.237E-03    0.512E-04
DAV:  10    -0.998115017388E+02   -0.10153E-04   -0.75174E-07    96   0.168E-03    0.325E-04
DAV:  11    -0.998115066937E+02   -0.49548E-05   -0.11962E-07   108   0.884E-04    0.186E-04
DAV:  12    -0.998115103029E+02   -0.36093E-05   -0.11498E-07   108   0.690E-04    0.124E-04
DAV:  13    -0.998115120421E+02   -0.17391E-05   -0.31750E-08   108   0.400E-04    0.764E-05
DAV:  14    -0.998115131487E+02   -0.11066E-05   -0.87411E-09   108   0.260E-04    0.414E-05
DAV:  15    -0.998115137967E+02   -0.64804E-06   -0.36666E-09    84   0.200E-04
  56 F= -.99811514E+02 E0= -.99811514E+02  d E =-.243960E-10
       N       E                     dE             d eps       ncg     rms          rms(c)
DAV:   1    -0.998101901633E+02    0.13230E-02   -0.41377E-01   120   0.181E+00    0.194E-01
DAV:   2    -0.998115281237E+02   -0.13380E-02   -0.16013E-02    96   0.398E-01    0.971E-02
DAV:   3    -0.998114725180E+02    0.55606E-04   -0.28650E-04   144   0.596E-02    0.523E-02
DAV:   4    -0.998114410710E+02    0.31447E-04   -0.87128E-05   132   0.410E-02    0.964E-03
DAV:   5    -0.998114357512E+02    0.53198E-05   -0.30429E-05   132   0.206E-02    0.714E-03
DAV:   6    -0.998114366371E+02   -0.88593E-06   -0.52227E-06   132   0.763E-03
  57 F= -.99811437E+02 E0= -.99811437E+02  d E =-.785476E-11
       N       E                     dE             d eps       ncg     rms          rms(c)
DAV:   1    -0.998101112628E+02    0.13245E-02   -0.20621E-01    96   0.130E+00    0.142E-01
DAV:   2    -0.998107109804E+02   -0.59972E-03   -0.70751E-03   132   0.253E-01    0.603E-02
DAV:   3    -0.998107034227E+02    0.75578E-05   -0.13761E-04   108   0.419E-02    0.316E-02
DAV:   4    -0.998107091158E+02   -0.56931E-05   -0.35545E-05   120   0.280E-02    0.690E-03
DAV:   5    -0.998107140595E+02   -0.49437E-05   -0.14589E-05   132   0.140E-02    0.513E-03
DAV:   6    -0.998107172456E+02   -0.31861E-05   -0.12329E-06   108   0.387E-03    0.334E-03
DAV:   7    -0.998107237648E+02   -0.65192E-05   -0.55845E-07   108   0.280E-03    0.102E-03
DAV:   8    -0.998107297980E+02   -0.60332E-05   -0.41677E-07   108   0.224E-03    0.696E-04
DAV:   9    -0.998107384675E+02   -0.86696E-05   -0.50328E-07    84   0.235E-03    0.382E-04
DAV:  10    -0.998107410376E+02   -0.25701E-05   -0.17096E-07   108   0.129E-03    0.331E-04
DAV:  11    -0.998107436474E+02   -0.26098E-05   -0.51394E-08    84   0.675E-04    0.192E-04
DAV:  12    -0.998107458209E+02   -0.21734E-05   -0.53579E-08    96   0.523E-04    0.134E-04
DAV:  13    -0.998107474654E+02   -0.16446E-05   -0.31340E-08    84   0.384E-04    0.780E-05
DAV:  14    -0.998107480434E+02   -0.57797E-06   -0.21880E-09   108   0.205E-04
  58 F= -.99810748E+02 E0= -.99810748E+02  d E =-.487962E-10
       N       E                     dE             d eps       ncg     rms          rms(c)
DAV:   1    -0.998095034585E+02    0.12440E-02   -0.40669E-01    96   0.190E+00    0.218E-01
DAV:   2    -0.998109603450E+02   -0.14569E-02   -0.17889E-02   108   0.446E-01    0.116E-01
DAV:   3    -0.998108655001E+02    0.94845E-04   -0.29011E-04   144   0.608E-02    0.607E-02
DAV:   4    -0.998108060161E+02    0.59484E-04   -0.92968E-05   132   0.391E-02    0.111E-02
DAV:   5    -0.998108012155E+02    0.48006E-05   -0.23297E-05   132   0.183E-02    0.715E-03
DAV:   6    -0.998108130409E+02   -0.11825E-04   -0.76467E-06   132   0.865E-03    0.401E-03
DAV:   7    -0.998108355979E+02   -0.22557E-04   -0.23526E-06   120   0.505E-03    0.205E-03
DAV:   8    -0.998108691003E+02   -0.33502E-04   -0.35635E-06   120   0.478E-03    0.121E-03
DAV:   9    -0.998108887157E+02   -0.19615E-04   -0.17001E-06   120   0.318E-03    0.968E-04
DAV:  10    -0.998109057678E+02   -0.17052E-04   -0.13440E-06    96   0.245E-03    0.350E-04
DAV:  11    -0.998109130502E+02   -0.72824E-05   -0.33597E-07   108   0.128E-03    0.343E-04
DAV:  12    -0.998109187206E+02   -0.56704E-05   -0.30915E-07    84   0.109E-03    0.141E-04
DAV:  13    -0.998109203100E+02   -0.15894E-05   -0.52512E-08   108   0.487E-04    0.908E-05
DAV:  14    -0.998109214700E+02   -0.11599E-05   -0.12691E-08    84   0.318E-04    0.533E-05
DAV:  15    -0.998109219116E+02   -0.44163E-06   -0.29640E-09   108   0.199E-04
  59 F= -.99810922E+02 E0= -.99810922E+02  d E =-.637234E-10
       N       E                     dE             d eps       ncg     rms          rms(c)
DAV:   1    -0.998096627504E+02    0.12587E-02   -0.20188E-01    96   0.138E+00    0.156E-01
DAV:   2    -0.998103965490E+02   -0.73380E-03   -0.90402E-03   108   0.316E-01    0.791E-02
DAV:   3    -0.998103488693E+02    0.47680E-04   -0.13029E-04   132   0.399E-02    0.423E-02
DAV:   4    -0.998103153006E+02    0.33569E-04   -0.43109E-05   132   0.248E-02    0.792E-03
DAV:   5    -0.998103081083E+02    0.71923E-05   -0.82178E-06   132   0.117E-02    0.446E-03
DAV:   6    -0.998103097216E+02   -0.16133E-05   -0.36049E-06   120   0.731E-03    0.223E-03
DAV:   7    -0.998103186837E+02   -0.89621E-05   -0.17776E-06   120   0.482E-03    0.145E-03
DAV:   8    -0.998103312893E+02   -0.12606E-04   -0.65130E-07   108   0.265E-03    0.761E-04
DAV:   9    -0.998103440108E+02   -0.12722E-04   -0.80789E-07   108   0.219E-03    0.544E-04
DAV:  10    -0.998103556214E+02   -0.11611E-04   -0.56386E-07   108   0.164E-03    0.233E-04
DAV:  11    -0.998103618001E+02   -0.61786E-05   -0.18974E-07   108   0.947E-04    0.194E-04
DAV:  12    -0.998103653339E+02   -0.35338E-05   -0.46356E-08   108   0.516E-04    0.870E-05
DAV:  13    -0.998103672670E+02   -0.19331E-05   -0.30540E-08   108   0.403E-04    0.498E-05
DAV:  14    -0.998103682535E+02   -0.98654E-06   -0.62706E-09   108   0.253E-04
  60 F= -.99810368E+02 E0= -.99810368E+02  d E =-.784678E-10
       N       E                     dE             d eps       ncg     rms          rms(c)
DAV:   1    -0.998092249183E+02    0.11423E-02   -0.40902E-01    96   0.188E+00    0.209E-01
DAV:   2    -0.998106675066E+02   -0.14426E-02   -0.18064E-02   108   0.445E-01    0.123E-01
DAV:   3    -0.998105483102E+02    0.11920E-03   -0.25089E-04   132   0.581E-02    0.649E-02
DAV:   4    -0.998104765395E+02    0.71771E-04   -0.11403E-04   132   0.409E-02    0.110E-02
DAV:   5    -0.998104758245E+02    0.71494E-06   -0.21475E-05   132   0.184E-02    0.711E-03
DAV:   6    -0.998104963849E+02   -0.20560E-04   -0.11345E-05   132   0.104E-02    0.380E-03
DAV:   7    -0.998105267996E+02   -0.30415E-04   -0.34841E-06   132   0.617E-03    0.221E-03
DAV:   8    -0.998105691909E+02   -0.42391E-04   -0.44437E-06   132   0.510E-03    0.118E-03
DAV:   9    -0.998105953161E+02   -0.26125E-04   -0.23914E-06   120   0.348E-03    0.856E-04
DAV:  10    -0.998106165187E+02   -0.21203E-04   -0.19540E-06   120   0.281E-03    0.474E-04
DAV:  11    -0.998106243559E+02   -0.78372E-05   -0.37557E-07   108   0.137E-03    0.255E-04
DAV:  12    -0.998106294118E+02   -0.50559E-05   -0.28710E-07   108   0.107E-03    0.198E-04
DAV:  13    -0.998106311582E+02   -0.17464E-05   -0.41759E-08   108   0.524E-04    0.694E-05
DAV:  14    -0.998106320874E+02   -0.92923E-06   -0.10508E-08   108   0.310E-04
  61 F= -.99810632E+02 E0= -.99810632E+02  d E =-.465616E-10
       N       E                     dE             d eps       ncg     rms          rms(c)
DAV:   1    -0.998134322406E+02   -0.28011E-02   -0.23322E-01   108   0.170E+00    0.134E-01
DAV:   2    -0.998138625376E+02   -0.43030E-03   -0.62498E-03   120   0.265E-01    0.802E-02
DAV:   3    -0.998138013175E+02    0.61220E-04   -0.14992E-04   132   0.436E-02    0.377E-02
DAV:   4    -0.998137833311E+02    0.17986E-04   -0.64520E-05   108   0.284E-02    0.745E-03
DAV:   5    -0.998137795741E+02    0.37570E-05   -0.98710E-06   132   0.121E-02    0.521E-03
DAV:   6    -0.998137808389E+02   -0.12648E-05   -0.34104E-06   120   0.586E-03    0.250E-03
DAV:   7    -0.998137856702E+02   -0.48313E-05   -0.54747E-07    96   0.308E-03    0.116E-03
DAV:   8    -0.998137935189E+02   -0.78487E-05   -0.56627E-07    84   0.242E-03    0.811E-04
DAV:   9    -0.998138031574E+02   -0.96384E-05   -0.61687E-07    96   0.207E-03    0.451E-04
DAV:  10    -0.998138102621E+02   -0.71048E-05   -0.36247E-07    84   0.143E-03    0.298E-04
DAV:  11    -0.998138143568E+02   -0.40947E-05   -0.80752E-08    96   0.753E-04    0.138E-04
DAV:  12    -0.998138168586E+02   -0.25018E-05   -0.58846E-08    84   0.524E-04    0.979E-05
DAV:  13    -0.998138177685E+02   -0.90986E-06   -0.57473E-09   108   0.252E-04
  62 F= -.99813818E+02 E0= -.99813818E+02  d E =-.514318E-10
       N       E                     dE             d eps       ncg     rms          rms(c)
DAV:   1    -0.998139701054E+02   -0.15325E-03   -0.52686E-01    96   0.254E+00    0.172E-01
DAV:   2    -0.998138490086E+02    0.12110E-03   -0.27517E-03   108   0.185E-01    0.980E-02
DAV:   3    -0.998137101946E+02    0.13881E-03   -0.41510E-04   132   0.626E-02    0.190E-02
DAV:   4    -0.998137133497E+02   -0.31551E-05   -0.65991E-05   132   0.262E-02    0.102E-02
DAV:   5    -0.998137141633E+02   -0.81355E-06   -0.28433E-06   132   0.606E-03
  63 F= -.99813714E+02 E0= -.99813714E+02  d E =-.490378E-10
       N       E                     dE             d eps       ncg     rms          rms(c)
DAV:   1    -0.998128585412E+02    0.85481E-03   -0.27231E-01    96   0.179E+00    0.146E-01
DAV:   2    -0.998128521512E+02    0.63900E-05   -0.23836E-03   108   0.163E-01    0.803E-02
DAV:   3    -0.998127620016E+02    0.90150E-04   -0.25901E-04   120   0.479E-02    0.234E-02
DAV:   4    -0.998127599946E+02    0.20070E-05   -0.63216E-05   132   0.229E-02    0.840E-03
DAV:   5    -0.998127583187E+02    0.16759E-05   -0.28496E-06   120   0.715E-03    0.419E-03
DAV:   6    -0.998127585067E+02   -0.18799E-06   -0.26386E-06   132   0.583E-03
  64 F= -.99812759E+02 E0= -.99812759E+02  d E =-.538040E-10
       N       E                     dE             d eps       ncg     rms          rms(c)
DAV:   1    -0.998128347696E+02   -0.76451E-04   -0.53884E-01    96   0.256E+00    0.200E-01
DAV:   2    -0.998127790806E+02    0.55689E-04   -0.44100E-03   108   0.217E-01    0.108E-01
DAV:   3    -0.998125974075E+02    0.18167E-03   -0.44987E-04   120   0.598E-02    0.330E-02
DAV:   4    -0.998125818864E+02    0.15521E-04   -0.88958E-05   108   0.277E-02    0.110E-02
DAV:   5    -0.998125814002E+02    0.48620E-06   -0.57788E-06   132   0.989E-03
  65 F= -.99812581E+02 E0= -.99812581E+02  d E =-.480098E-10
       N       E                     dE             d eps       ncg     rms          rms(c)
DAV:   1    -0.998138998328E+02   -0.13179E-02   -0.27166E-01    96   0.179E+00    0.143E-01
DAV:   2    -0.998138757620E+02    0.24071E-04   -0.22941E-03   108   0.165E-01    0.786E-02
DAV:   3    -0.998137929042E+02    0.82858E-04   -0.25921E-04   120   0.512E-02    0.221E-02
DAV:   4    -0.998137961757E+02   -0.32715E-05   -0.69251E-05   120   0.254E-02    0.815E-03
DAV:   5    -0.998137956567E+02    0.51900E-06   -0.25905E-06   120   0.660E-03
  66 F= -.99813796E+02 E0= -.99813796E+02  d E =-.486846E-10
       N       E                     dE             d eps       ncg     rms          rms(c)
DAV:   1    -0.998141385890E+02   -0.34241E-03   -0.53384E-01   108   0.249E+00    0.170E-01
DAV:   2    -0.998139994351E+02    0.13915E-03   -0.28232E-03   108   0.184E-01    0.971E-02
DAV:   3    -0.998138615122E+02    0.13792E-03   -0.44467E-04   108   0.683E-02    0.175E-02
DAV:   4    -0.998138671758E+02   -0.56637E-05   -0.87146E-05   132   0.307E-02    0.968E-03
DAV:   5    -0.998138661930E+02    0.98281E-06   -0.20504E-06    96   0.561E-03
  67 F= -.99813866E+02 E0= -.99813866E+02  d E =-.519263E-10
       N       E                     dE             d eps       ncg     rms          rms(c)
DAV:   1    -0.998143835318E+02   -0.51636E-03   -0.26576E-01    96   0.192E+00    0.118E-01
DAV:   2    -0.998143688483E+02    0.14684E-04   -0.14608E-03   108   0.136E-01    0.684E-02
DAV:   3    -0.998143147394E+02    0.54109E-04   -0.14084E-04   132   0.368E-02    0.107E-02
DAV:   4    -0.998143162479E+02   -0.15085E-05   -0.20585E-05   120   0.145E-02    0.466E-03
DAV:   5    -0.998143163887E+02   -0.14086E-06   -0.51607E-07   108   0.285E-03
  68 F= -.99814316E+02 E0= -.99814316E+02  d E =-.554935E-10
       N       E                     dE             d eps       ncg     rms          rms(c)
DAV:   1    -0.998145528811E+02   -0.23663E-03   -0.52819E-01    96   0.263E+00    0.159E-01
DAV:   2    -0.998144318735E+02    0.12101E-03   -0.20805E-03   108   0.160E-01    0.920E-02
DAV:   3    -0.998143325845E+02    0.99289E-04   -0.35709E-04   132   0.623E-02    0.125E-02
DAV:   4    -0.998143388833E+02   -0.62988E-05   -0.60736E-05   120   0.257E-02    0.843E-03
DAV:   5    -0.998143390723E+02   -0.18896E-06   -0.13469E-06   108   0.440E-03
  69 F= -.99814339E+02 E0= -.99814339E+02  d E =-.462074E-10
       N       E                     dE             d eps       ncg     rms          rms(c)
DAV:   1    -0.998144380974E+02   -0.99214E-04   -0.26615E-01    96   0.188E+00    0.113E-01
DAV:   2    -0.998143747366E+02    0.63361E-04   -0.10331E-03   120   0.111E-01    0.651E-02
DAV:   3    -0.998143236141E+02    0.51122E-04   -0.17823E-04   108   0.406E-02    0.906E-03
DAV:   4    -0.998143248503E+02   -0.12362E-05   -0.22529E-05   132   0.157E-02    0.514E-03
DAV:   5    -0.998143246577E+02    0.19260E-06   -0.71201E-07    96   0.323E-03
  70 F= -.99814325E+02 E0= -.99814325E+02  d E =-.500589E-10
       N       E                     dE             d eps       ncg     rms          rms(c)
DAV:   1    -0.998143433192E+02   -0.18469E-04   -0.52973E-01    96   0.262E+00    0.162E-01
DAV:   2    -0.998142185792E+02    0.12474E-03   -0.21032E-03   108   0.162E-01    0.925E-02
DAV:   3    -0.998141049540E+02    0.11363E-03   -0.34262E-04   120   0.562E-02    0.149E-02
DAV:   4    -0.998141067704E+02   -0.18164E-05   -0.42075E-05   132   0.217E-02    0.776E-03
[...]
DAV:  10    -0.998120802135E+02   -0.54419E-05   -0.48465E-07    96   0.159E-03    0.488E-04
DAV:  11    -0.998120812551E+02   -0.10415E-05   -0.49503E-08    96   0.739E-04    0.261E-04
DAV:  12    -0.998120818540E+02   -0.59894E-06   -0.81941E-09    96   0.359E-04
 129 F= -.99812082E+02 E0= -.99812082E+02  d E =-.484992E-10
       N       E                     dE             d eps       ncg     rms          rms(c)
DAV:   1    -0.998146093376E+02   -0.25281E-02   -0.28238E-01    96   0.168E+00    0.187E-01
DAV:   2    -0.998144023476E+02    0.20699E-03   -0.21076E-03   108   0.154E-01    0.937E-02
DAV:   3    -0.998142818787E+02    0.12047E-03   -0.34220E-04   132   0.538E-02    0.306E-02
DAV:   4    -0.998142794399E+02    0.24389E-05   -0.73749E-05   108   0.253E-02    0.111E-02
DAV:   5    -0.998142781976E+02    0.12422E-05   -0.34859E-06   132   0.820E-03    0.438E-03
DAV:   6    -0.998142790955E+02   -0.89782E-06   -0.23256E-06   108   0.513E-03
 130 F= -.99814279E+02 E0= -.99814279E+02  d E =-.619731E-10
       N       E                     dE             d eps       ncg     rms          rms(c)
DAV:   1    -0.998146724520E+02   -0.39425E-03   -0.54173E-01    96   0.233E+00    0.197E-01
DAV:   2    -0.998144348832E+02    0.23757E-03   -0.29028E-03   108   0.179E-01    0.111E-01
DAV:   3    -0.998142783749E+02    0.15651E-03   -0.45474E-04   120   0.649E-02    0.239E-02
DAV:   4    -0.998142850004E+02   -0.66255E-05   -0.69672E-05   132   0.269E-02    0.867E-03
DAV:   5    -0.998142857450E+02   -0.74450E-06   -0.33744E-06   120   0.678E-03
 131 F= -.99814286E+02 E0= -.99814286E+02  d E =-.455394E-10
       N       E                     dE             d eps       ncg     rms          rms(c)
DAV:   1    -0.998139535924E+02    0.33141E-03   -0.27086E-01    96   0.165E+00    0.139E-01
DAV:   2    -0.998138312377E+02    0.12235E-03   -0.14270E-03   108   0.126E-01    0.780E-02
DAV:   3    -0.998137543509E+02    0.76887E-04   -0.22364E-04   120   0.448E-02    0.171E-02
DAV:   4    -0.998137574466E+02   -0.30957E-05   -0.33163E-05   132   0.185E-02    0.615E-03
DAV:   5    -0.998137580805E+02   -0.63390E-06   -0.14846E-06   108   0.471E-03
 132 F= -.99813758E+02 E0= -.99813758E+02  d E =-.572080E-10
       N       E                     dE             d eps       ncg     rms          rms(c)
DAV:   1    -0.998143749572E+02   -0.61751E-03   -0.54920E-01    96   0.233E+00    0.222E-01
DAV:   2    -0.998140764070E+02    0.29855E-03   -0.32481E-03   108   0.190E-01    0.118E-01
DAV:   3    -0.998138960568E+02    0.18035E-03   -0.49886E-04   120   0.658E-02    0.345E-02
DAV:   4    -0.998138980701E+02   -0.20133E-05   -0.95833E-05   120   0.298E-02    0.115E-02
DAV:   5    -0.998138970413E+02    0.10288E-05   -0.52955E-06   108   0.913E-03    0.591E-03
DAV:   6    -0.998138979716E+02   -0.93032E-06   -0.28203E-06   120   0.556E-03
 133 F= -.99813898E+02 E0= -.99813898E+02  d E =-.470676E-10
       N       E                     dE             d eps       ncg     rms          rms(c)
DAV:   1    -0.998139537260E+02   -0.56685E-04   -0.27583E-01    96   0.189E+00    0.159E-01
DAV:   2    -0.998138437777E+02    0.10995E-03   -0.20027E-03   108   0.156E-01    0.854E-02
DAV:   3    -0.998137542743E+02    0.89503E-04   -0.22967E-04   120   0.469E-02    0.254E-02
DAV:   4    -0.998137544222E+02   -0.14791E-06   -0.54058E-05   108   0.225E-02    0.869E-03
DAV:   5    -0.998137536919E+02    0.73031E-06   -0.31453E-06   132   0.681E-03
 134 F= -.99813754E+02 E0= -.99813754E+02  d E =-.547988E-10
       N       E                     dE             d eps       ncg     rms          rms(c)
DAV:   1    -0.998141091173E+02   -0.35470E-03   -0.55189E-01    96   0.217E+00    0.228E-01
DAV:   2    -0.998137608623E+02    0.34825E-03   -0.30540E-03   108   0.167E-01    0.120E-01
DAV:   3    -0.998135472417E+02    0.21362E-03   -0.51759E-04   120   0.608E-02    0.330E-02
DAV:   4    -0.998135453926E+02    0.18491E-05   -0.90872E-05   108   0.276E-02    0.126E-02
DAV:   5    -0.998135453371E+02    0.55493E-07   -0.51503E-06   132   0.876E-03
 135 F= -.99813545E+02 E0= -.99813545E+02  d E =-.471381E-10
       N       E                     dE             d eps       ncg     rms          rms(c)
DAV:   1    -0.998131585930E+02    0.38680E-03   -0.29001E-01    96   0.158E+00    0.207E-01
DAV:   2    -0.998128744936E+02    0.28410E-03   -0.22235E-03   120   0.146E-01    0.102E-01
DAV:   3    -0.998127369815E+02    0.13751E-03   -0.42915E-04   108   0.575E-02    0.327E-02
DAV:   4    -0.998127385270E+02   -0.15456E-05   -0.97539E-05   120   0.284E-02    0.147E-02
DAV:   5    -0.998127368278E+02    0.16993E-05   -0.41454E-06   108   0.810E-03    0.528E-03
DAV:   6    -0.998127369542E+02   -0.12641E-06   -0.26504E-06   132   0.516E-03
 136 F= -.99812737E+02 E0= -.99812737E+02  d E =-.512344E-10
       N       E                     dE             d eps       ncg     rms          rms(c)
DAV:   1    -0.998132915754E+02   -0.55475E-03   -0.57185E-01    96   0.218E+00    0.271E-01
DAV:   2    -0.998127575023E+02    0.53407E-03   -0.46506E-03   108   0.211E-01    0.137E-01
DAV:   3    -0.998124620319E+02    0.29547E-03   -0.83938E-04   120   0.800E-02    0.434E-02
DAV:   4    -0.998124630317E+02   -0.99985E-06   -0.18178E-04   132   0.388E-02    0.197E-02
DAV:   5    -0.998124623051E+02    0.72663E-06   -0.68009E-06   108   0.972E-03
 137 F= -.99812462E+02 E0= -.99812462E+02  d E =-.516237E-10
       N       E                     dE             d eps       ncg     rms          rms(c)
DAV:   1    -0.998142694775E+02   -0.18064E-02   -0.28840E-01    96   0.156E+00    0.204E-01
DAV:   2    -0.998139920467E+02    0.27743E-03   -0.22643E-03   120   0.150E-01    0.100E-01
DAV:   3    -0.998138544295E+02    0.13762E-03   -0.41280E-04   120   0.571E-02    0.326E-02
DAV:   4    -0.998138562719E+02   -0.18424E-05   -0.98003E-05   108   0.286E-02    0.136E-02
DAV:   5    -0.998138551416E+02    0.11303E-05   -0.40991E-06   132   0.793E-03    0.541E-03
DAV:   6    -0.998138553913E+02   -0.24972E-06   -0.24314E-06   108   0.505E-03
 138 F= -.99813855E+02 E0= -.99813855E+02  d E =-.523740E-10
       N       E                     dE             d eps       ncg     rms          rms(c)
DAV:   1    -0.998141926511E+02   -0.33751E-03   -0.54775E-01    96   0.220E+00    0.224E-01
DAV:   2    -0.998138588535E+02    0.33380E-03   -0.31022E-03   108   0.177E-01    0.120E-01
DAV:   3    -0.998136548376E+02    0.20402E-03   -0.51701E-04   120   0.659E-02    0.317E-02
DAV:   4    -0.998136581192E+02   -0.32816E-05   -0.91752E-05   132   0.296E-02    0.130E-02
DAV:   5    -0.998136583109E+02   -0.19164E-06   -0.46985E-06   132   0.826E-03
 139 F= -.99813658E+02 E0= -.99813658E+02  d E =-.483997E-10
       N       E                     dE             d eps       ncg     rms          rms(c)
DAV:   1    -0.998136429471E+02    0.15172E-04   -0.27613E-01    96   0.156E+00    0.167E-01
DAV:   2    -0.998135332555E+02    0.10969E-03   -0.18894E-03    96   0.127E-01    0.873E-02
DAV:   3    -0.998134416284E+02    0.91627E-04   -0.26242E-04   120   0.410E-02    0.260E-02
DAV:   4    -0.998134391306E+02    0.24978E-05   -0.35625E-05   132   0.165E-02    0.998E-03
DAV:   5    -0.998134374628E+02    0.16678E-05   -0.25364E-06   132   0.651E-03    0.459E-03
DAV:   6    -0.998134374564E+02    0.64842E-08   -0.20148E-06   108   0.476E-03
 140 F= -.99813437E+02 E0= -.99813437E+02  d E =-.541728E-10
       N       E                     dE             d eps       ncg     rms          rms(c)
DAV:   1    -0.998138981970E+02   -0.46073E-03   -0.55571E-01    96   0.205E+00    0.242E-01
DAV:   2    -0.998135242396E+02    0.37396E-03   -0.33610E-03   108   0.167E-01    0.124E-01
DAV:   3    -0.998132991946E+02    0.22505E-03   -0.54893E-04   120   0.605E-02    0.377E-02
DAV:   4    -0.998132916873E+02    0.75072E-05   -0.10437E-04   132   0.285E-02    0.136E-02
DAV:   5    -0.998132914131E+02    0.27427E-06   -0.58781E-06   132   0.957E-03
 141 F= -.99813291E+02 E0= -.99813291E+02  d E =-.476187E-10
       N       E                     dE             d eps       ncg     rms          rms(c)
DAV:   1    -0.998124886620E+02    0.80303E-03   -0.27216E-01    96   0.143E+00    0.138E-01
DAV:   2    -0.998123582136E+02    0.13045E-03   -0.14709E-03   120   0.113E-01    0.781E-02
DAV:   3    -0.998122734325E+02    0.84781E-04   -0.25393E-04   108   0.456E-02    0.159E-02
DAV:   4    -0.998122782997E+02   -0.48671E-05   -0.45450E-05   132   0.203E-02    0.783E-03
DAV:   5    -0.998122790804E+02   -0.78075E-06   -0.11820E-06   108   0.409E-03
 142 F= -.99812279E+02 E0= -.99812279E+02  d E =-.517000E-10
       N       E                     dE             d eps       ncg     rms          rms(c)
DAV:   1    -0.998132171300E+02   -0.93883E-03   -0.57939E-01    96   0.207E+00    0.284E-01
DAV:   2    -0.998126863055E+02    0.53082E-03   -0.47230E-03   108   0.204E-01    0.142E-01
DAV:   3    -0.998123752127E+02    0.31109E-03   -0.81501E-04   120   0.790E-02    0.463E-02
DAV:   4    -0.998123755955E+02   -0.38280E-06   -0.21007E-04   132   0.395E-02    0.191E-02
DAV:   5    -0.998123728744E+02    0.27211E-05   -0.86131E-06   120   0.108E-02    0.782E-03
DAV:   6    -0.998123731450E+02   -0.27058E-06   -0.49826E-06   132   0.693E-03
 143 F= -.99812373E+02 E0= -.99812373E+02  d E =-.516633E-10
       N       E                     dE             d eps       ncg     rms          rms(c)
DAV:   1    -0.998146390885E+02   -0.22662E-02   -0.28046E-01    96   0.143E+00    0.167E-01
DAV:   2    -0.998144213172E+02    0.21777E-03   -0.18227E-03   108   0.129E-01    0.893E-02
DAV:   3    -0.998143065796E+02    0.11474E-03   -0.33849E-04   108   0.525E-02    0.246E-02
DAV:   4    -0.998143112807E+02   -0.47011E-05   -0.70779E-05   132   0.247E-02    0.114E-02
DAV:   5    -0.998143114356E+02   -0.15487E-06   -0.23560E-06   132   0.574E-03
 144 F= -.99814311E+02 E0= -.99814311E+02  d E =-.492995E-10
       N       E                     dE             d eps       ncg     rms          rms(c)
DAV:   1    -0.998147249478E+02   -0.41367E-03   -0.53991E-01    96   0.207E+00    0.198E-01
DAV:   2    -0.998144367056E+02    0.28824E-03   -0.25268E-03   108   0.150E-01    0.112E-01
DAV:   3    -0.998142667146E+02    0.16999E-03   -0.44864E-04   120   0.629E-02    0.219E-02
DAV:   4    -0.998142722303E+02   -0.55157E-05   -0.67984E-05   132   0.259E-02    0.989E-03
DAV:   5    -0.998142726454E+02   -0.41507E-06   -0.27336E-06   132   0.598E-03
 145 F= -.99814273E+02 E0= -.99814273E+02  d E =-.510521E-10
       N       E                     dE             d eps       ncg     rms          rms(c)
DAV:   1    -0.998136030668E+02    0.66916E-03   -0.26976E-01    96   0.198E+00    0.134E-01
DAV:   2    -0.998135487250E+02    0.54342E-04   -0.18930E-03   120   0.161E-01    0.758E-02
DAV:   3    -0.998134735875E+02    0.75137E-04   -0.22144E-04   120   0.504E-02    0.185E-02
DAV:   4    -0.998134768974E+02   -0.33098E-05   -0.50665E-05   132   0.233E-02    0.771E-03
DAV:   5    -0.998134766994E+02    0.19797E-06   -0.15653E-06    84   0.517E-03
 146 F= -.99813477E+02 E0= -.99813477E+02  d E =-.543341E-10
       N       E                     dE             d eps       ncg     rms          rms(c)
DAV:   1    -0.998138563652E+02   -0.37947E-03   -0.53551E-01   108   0.273E+00    0.178E-01
DAV:   2    -0.998137315132E+02    0.12485E-03   -0.33521E-03   108   0.214E-01    0.101E-01
DAV:   3    -0.998135766708E+02    0.15484E-03   -0.48232E-04   108   0.718E-02    0.213E-02
DAV:   4    -0.998135803703E+02   -0.36995E-05   -0.98925E-05   132   0.333E-02    0.108E-02
DAV:   5    -0.998135793435E+02    0.10268E-05   -0.30528E-06   108   0.647E-03    0.635E-03
DAV:   6    -0.998135802584E+02   -0.91494E-06   -0.30583E-06   120   0.616E-03
 147 F= -.99813580E+02 E0= -.99813580E+02  d E =-.483644E-10
       N       E                     dE             d eps       ncg     rms          rms(c)
DAV:   1    -0.998125412784E+02    0.10381E-02   -0.26456E-01    96   0.192E+00    0.112E-01
DAV:   2    -0.998124840915E+02    0.57187E-04   -0.10798E-03   108   0.118E-01    0.641E-02
DAV:   3    -0.998124257033E+02    0.58388E-04   -0.16956E-04   108   0.410E-02    0.105E-02
DAV:   4    -0.998124279031E+02   -0.21999E-05   -0.22852E-05   132   0.164E-02    0.552E-03
DAV:   5    -0.998124292344E+02   -0.13313E-05   -0.93508E-07    96   0.362E-03    0.345E-03
DAV:   6    -0.998124321756E+02   -0.29411E-05   -0.79069E-07    84   0.326E-03    0.665E-04
DAV:   7    -0.998124341045E+02   -0.19289E-05   -0.27394E-07   108   0.182E-03    0.610E-04
DAV:   8    -0.998124373935E+02   -0.32890E-05   -0.20085E-07    84   0.155E-03    0.259E-04
DAV:   9    -0.998124393139E+02   -0.19204E-05   -0.13321E-07   108   0.101E-03    0.207E-04
DAV:  10    -0.998124413635E+02   -0.20496E-05   -0.76226E-08    84   0.708E-04    0.112E-04
DAV:  11    -0.998124422179E+02   -0.85440E-06   -0.29238E-08   108   0.394E-04
 148 F= -.99812442E+02 E0= -.99812442E+02  d E =-.532562E-10
       N       E                     dE             d eps       ncg     rms          rms(c)
DAV:   1    -0.998125909707E+02   -0.14961E-03   -0.54496E-01   108   0.278E+00    0.204E-01
DAV:   2    -0.998125602071E+02    0.30764E-04   -0.46332E-03   108   0.236E-01    0.111E-01
DAV:   3    -0.998123621425E+02    0.19806E-03   -0.48538E-04   132   0.658E-02    0.326E-02
DAV:   4    -0.998123503635E+02    0.11779E-04   -0.10718E-04   132   0.305E-02    0.109E-02
DAV:   5    -0.998123477735E+02    0.25899E-05   -0.70261E-06   132   0.107E-02    0.522E-03
DAV:   6    -0.998123504992E+02   -0.27256E-05   -0.45226E-06   132   0.775E-03    0.183E-03
DAV:   7    -0.998123548134E+02   -0.43142E-05   -0.11937E-06   120   0.382E-03    0.129E-03
DAV:   8    -0.998123609350E+02   -0.61216E-05   -0.41583E-07    84   0.216E-03    0.569E-04
DAV:   9    -0.998123656143E+02   -0.46793E-05   -0.27826E-07   108   0.142E-03    0.383E-04
DAV:  10    -0.998123719276E+02   -0.63134E-05   -0.31771E-07    84   0.125E-03    0.224E-04
DAV:  11    -0.998123746958E+02   -0.27682E-05   -0.78940E-08   108   0.705E-04    0.146E-04
DAV:  12    -0.998123772993E+02   -0.26035E-05   -0.45336E-08    84   0.458E-04    0.974E-05
DAV:  13    -0.998123783708E+02   -0.10714E-05   -0.12105E-08   108   0.289E-04    0.492E-05
DAV:  14    -0.998123791981E+02   -0.82735E-06   -0.44937E-09    84   0.209E-04
 149 F= -.99812379E+02 E0= -.99812379E+02  d E =-.490422E-10
       N       E                     dE             d eps       ncg     rms          rms(c)
DAV:   1    -0.998144434285E+02   -0.20651E-02   -0.26766E-01    96   0.193E+00    0.127E-01
DAV:   2    -0.998143760337E+02    0.67395E-04   -0.15742E-03   108   0.146E-01    0.718E-02
DAV:   3    -0.998143005320E+02    0.75502E-04   -0.21887E-04   132   0.461E-02    0.157E-02
DAV:   4    -0.998143009319E+02   -0.39994E-06   -0.39582E-05   132   0.205E-02    0.726E-03
DAV:   5    -0.998143013338E+02   -0.40187E-06   -0.16306E-06   108   0.500E-03
 150 F= -.99814301E+02 E0= -.99814301E+02  d E =-.578617E-10
       N       E                     dE             d eps       ncg     rms          rms(c)
DAV:   1    -0.998145765846E+02   -0.27565E-03   -0.52551E-01    96   0.274E+00    0.159E-01
DAV:   2    -0.998144618429E+02    0.11474E-03   -0.22390E-03    96   0.171E-01    0.923E-02
DAV:   3    -0.998143532579E+02    0.10858E-03   -0.35813E-04   120   0.601E-02    0.123E-02
DAV:   4    -0.998143597280E+02   -0.64701E-05   -0.53135E-05   120   0.242E-02    0.717E-03
DAV:   5    -0.998143611492E+02   -0.14211E-05   -0.17210E-06   120   0.453E-03    0.470E-03
DAV:   6    -0.998143651147E+02   -0.39656E-05   -0.15737E-06    96   0.397E-03    0.893E-04
DAV:   7    -0.998143675482E+02   -0.24335E-05   -0.30620E-07    96   0.192E-03    0.776E-04
DAV:   8    -0.998143713195E+02   -0.37712E-05   -0.18500E-07    84   0.164E-03    0.358E-04
DAV:   9    -0.998143744988E+02   -0.31793E-05   -0.20059E-07    96   0.145E-03    0.261E-04
DAV:  10    -0.998143772651E+02   -0.27664E-05   -0.13811E-07    84   0.945E-04    0.147E-04
DAV:  11    -0.998143781721E+02   -0.90699E-06   -0.20681E-08   108   0.381E-04
 151 F= -.99814378E+02 E0= -.99814378E+02  d E =-.455334E-10
       N       E                     dE             d eps       ncg     rms          rms(c)
DAV:   1    -0.998123395675E+02    0.20377E-02   -0.26704E-01    96   0.202E+00    0.131E-01
DAV:   2    -0.998122978690E+02    0.41699E-04   -0.20373E-03   108   0.169E-01    0.713E-02
DAV:   3    -0.998122176203E+02    0.80249E-04   -0.22536E-04   132   0.512E-02    0.194E-02
DAV:   4    -0.998122195473E+02   -0.19270E-05   -0.64858E-05   132   0.257E-02    0.734E-03
DAV:   5    -0.998122198502E+02   -0.30288E-06   -0.25842E-06   132   0.593E-03
 152 F= -.99812220E+02 E0= -.99812220E+02  d E =-.551917E-10
       N       E                     dE             d eps       ncg     rms          rms(c)
DAV:   1    -0.998124069079E+02   -0.18736E-03   -0.54597E-01   108   0.277E+00    0.206E-01
DAV:   2    -0.998123241802E+02    0.82728E-04   -0.47607E-03   108   0.247E-01    0.114E-01
DAV:   3    -0.998121156198E+02    0.20856E-03   -0.57597E-04   120   0.772E-02    0.308E-02
DAV:   4    -0.998121154600E+02    0.15976E-06   -0.15254E-04   132   0.385E-02    0.124E-02
DAV:   5    -0.998121129427E+02    0.25173E-05   -0.55476E-06   132   0.948E-03    0.691E-03
DAV:   6    -0.998121136176E+02   -0.67489E-06   -0.54751E-06   108   0.873E-03
 153 F= -.99812114E+02 E0= -.99812114E+02  d E =-.485150E-10
       N       E                     dE             d eps       ncg     rms          rms(c)
DAV:   1    -0.998143494891E+02   -0.22365E-02   -0.26882E-01    96   0.195E+00    0.139E-01
DAV:   2    -0.998142939886E+02    0.55501E-04   -0.18968E-03    96   0.158E-01    0.760E-02
DAV:   3    -0.998142179921E+02    0.75996E-04   -0.24345E-04   108   0.459E-02    0.200E-02
DAV:   4    -0.998142167161E+02    0.12760E-05   -0.38792E-05   120   0.194E-02    0.806E-03
DAV:   5    -0.998142158697E+02    0.84647E-06   -0.27495E-06   108   0.654E-03
 154 F= -.99814216E+02 E0= -.99814216E+02  d E =-.534446E-10
       N       E                     dE             d eps       ncg     rms          rms(c)
DAV:   1    -0.998145363196E+02   -0.31960E-03   -0.53087E-01    96   0.274E+00    0.160E-01
DAV:   2    -0.998144288582E+02    0.10746E-03   -0.21253E-03   108   0.165E-01    0.921E-02
DAV:   3    -0.998143232143E+02    0.10564E-03   -0.34733E-04   120   0.575E-02    0.143E-02
DAV:   4    -0.998143253752E+02   -0.21609E-05   -0.43990E-05   132   0.227E-02    0.752E-03
DAV:   5    -0.998143248432E+02    0.53195E-06   -0.16382E-06   108   0.475E-03
 155 F= -.99814325E+02 E0= -.99814325E+02  d E =-.488720E-10
       N       E                     dE             d eps       ncg     rms          rms(c)
DAV:   1    -0.998138332978E+02    0.49208E-03   -0.26528E-01    96   0.191E+00    0.116E-01
DAV:   2    -0.998137731677E+02    0.60130E-04   -0.11678E-03   108   0.126E-01    0.667E-02
DAV:   3    -0.998137214074E+02    0.51760E-04   -0.18982E-04   132   0.451E-02    0.931E-03
DAV:   4    -0.998137249184E+02   -0.35110E-05   -0.31351E-05   132   0.187E-02    0.587E-03
DAV:   5    -0.998137253686E+02   -0.45018E-06   -0.80797E-07   108   0.344E-03
 156 F= -.99813725E+02 E0= -.99813725E+02  d E =-.665272E-10
       N       E                     dE             d eps       ncg     rms          rms(c)
DAV:   1    -0.998141485354E+02   -0.42362E-03   -0.53127E-01    96   0.270E+00    0.173E-01
DAV:   2    -0.998140435554E+02    0.10498E-03   -0.27360E-03   120   0.195E-01    0.972E-02
DAV:   3    -0.998139113844E+02    0.13217E-03   -0.37919E-04   120   0.585E-02    0.197E-02
DAV:   4    -0.998139107571E+02    0.62734E-06   -0.55448E-05   132   0.238E-02    0.864E-03
DAV:   5    -0.998139108404E+02   -0.83275E-07   -0.37637E-06   132   0.670E-03
 157 F= -.99813911E+02 E0= -.99813911E+02  d E =-.389165E-10
