       N       E                     dE             d eps       ncg     rms          rms(c)
DAV:   1     0.207072577003E+03    0.20707E+03   -0.10470E+04   116   0.546E+02
DAV:   2    -0.254566788746E+02   -0.23253E+03   -0.21796E+03   144   0.103E+02
DAV:   3    -0.100395465671E+03   -0.74939E+02   -0.74771E+02   112   0.550E+01
DAV:   4    -0.104685119888E+03   -0.42897E+01   -0.42725E+01   104   0.180E+01
DAV:   5    -0.104753809579E+03   -0.68690E-01   -0.68637E-01   136   0.249E+00    0.146E+01
DAV:   6    -0.101575164208E+03    0.31786E+01   -0.16172E+00   112   0.458E+00    0.843E+00
DAV:   7    -0.999173690487E+02    0.16578E+01   -0.40123E+00   112   0.665E+00    0.121E+00
DAV:   8    -0.998638596273E+02    0.53509E-01   -0.26592E-01   112   0.215E+00    0.604E-01
DAV:   9    -0.998274223187E+02    0.36437E-01   -0.75215E-02   112   0.772E-01    0.318E-01
DAV:  10    -0.998277148410E+02   -0.29252E-03   -0.29398E-03   112   0.222E-01    0.147E-01
DAV:  11    -0.998276402412E+02    0.74600E-04   -0.65141E-03   104   0.238E-01    0.783E-02
DAV:  12    -0.998322445876E+02   -0.46043E-02   -0.12940E-03   104   0.103E-01    0.527E-02
DAV:  13    -0.998366703724E+02   -0.44258E-02   -0.17054E-03   112   0.104E-01    0.331E-02
DAV:  14    -0.998416560353E+02   -0.49857E-02   -0.46296E-04   112   0.633E-02    0.156E-02
DAV:  15    -0.998455309339E+02   -0.38749E-02   -0.46919E-04   112   0.561E-02    0.130E-02
DAV:  16    -0.998462614444E+02   -0.73051E-03   -0.36820E-05   112   0.178E-02    0.588E-03
DAV:  17    -0.998473306624E+02   -0.10692E-02   -0.92950E-05   102   0.226E-02    0.262E-03
DAV:  18    -0.998475252033E+02   -0.19454E-03   -0.59551E-06   112   0.702E-03    0.183E-03
DAV:  19    -0.998476640311E+02   -0.13883E-03   -0.39953E-06    96   0.474E-03    0.103E-03
DAV:  20    -0.998477150375E+02   -0.51006E-04   -0.98430E-07    88   0.315E-03    0.636E-04
DAV:  21    -0.998477379499E+02   -0.22912E-04   -0.64910E-07    80   0.207E-03    0.387E-04
DAV:  22    -0.998477450951E+02   -0.71452E-05   -0.21232E-07    88   0.133E-03    0.235E-04
DAV:  23    -0.998477476106E+02   -0.25155E-05   -0.41856E-08    88   0.650E-04    0.106E-04
DAV:  24    -0.998477505966E+02   -0.29860E-05   -0.54315E-08    78   0.551E-04    0.766E-05
DAV:  25    -0.998477509666E+02   -0.37003E-06   -0.68016E-09    88   0.229E-04
   1 F= -.99847751E+02 E0= -.99847751E+02  d E =-.998478E+02
       N       E                     dE             d eps       ncg     rms          rms(c)
DAV:   1    -0.100005132518E+03   -0.15738E+00   -0.57789E+00    84   0.997E+00    0.106E+00
DAV:   2    -0.100025852946E+03   -0.20720E-01   -0.27091E-01   120   0.201E+00    0.520E-01
DAV:   3    -0.100022090847E+03    0.37621E-02   -0.10199E-02   120   0.395E-01    0.256E-01
DAV:   4    -0.100021175824E+03    0.91502E-03   -0.47634E-03   112   0.234E-01    0.608E-02
DAV:   5    -0.100021014496E+03    0.16133E-03   -0.36290E-04   120   0.874E-02    0.359E-02
DAV:   6    -0.100021026438E+03   -0.11942E-04   -0.13900E-04   120   0.489E-02    0.188E-02
DAV:   7    -0.100021149064E+03   -0.12263E-03   -0.60918E-05   110   0.375E-02    0.823E-03
DAV:   8    -0.100021223603E+03   -0.74539E-04   -0.23464E-05   112   0.202E-02    0.106E-02
DAV:   9    -0.100021281157E+03   -0.57554E-04   -0.20098E-06    96   0.543E-03    0.616E-03
DAV:  10    -0.100021419372E+03   -0.13822E-03   -0.15574E-05   112   0.934E-03    0.430E-03
DAV:  11    -0.100021436132E+03   -0.16760E-04   -0.51547E-07    96   0.330E-03    0.212E-03
DAV:  12    -0.100021506295E+03   -0.70163E-04   -0.42900E-06   104   0.529E-03    0.812E-04
DAV:  13    -0.100021526490E+03   -0.20195E-04   -0.63359E-07    96   0.283E-03    0.687E-04
DAV:  14    -0.100021547139E+03   -0.20649E-04   -0.60700E-07    88   0.188E-03    0.875E-04
DAV:  15    -0.100021553167E+03   -0.60285E-05   -0.14862E-07    88   0.894E-04    0.641E-04
DAV:  16    -0.100021557591E+03   -0.44236E-05   -0.72167E-08    88   0.876E-04    0.428E-04
DAV:  17    -0.100021558456E+03   -0.86449E-06   -0.18687E-08    96   0.460E-04
   2 F= -.10002156E+03 E0= -.10002156E+03  d E =-.173807E+00
       N       E                     dE             d eps       ncg     rms          rms(c)
DAV:   1    -0.100021566524E+03   -0.89331E-05   -0.23422E-04    96   0.634E-02    0.649E-03
DAV:   2    -0.100021567305E+03   -0.78100E-06   -0.10722E-05   120   0.126E-02    0.339E-03
DAV:   3    -0.100021567111E+03    0.19380E-06   -0.35752E-07    64   0.256E-03
   3 F= -.10002157E+03 E0= -.10002157E+03  d E =-.173816E+00
       N       E                     dE             d eps       ncg     rms          rms(c)
DAV:   1    -0.100072154237E+03   -0.50587E-01   -0.13246E+00    84   0.506E+00    0.474E-01
DAV:   2    -0.100076332114E+03   -0.41779E-02   -0.56352E-02   120   0.856E-01    0.212E-01
DAV:   3    -0.100075761858E+03    0.57026E-03   -0.23852E-03   128   0.184E-01    0.112E-01
DAV:   4    -0.100075601877E+03    0.15998E-03   -0.70139E-04   112   0.899E-02    0.351E-02
DAV:   5    -0.100075589639E+03    0.12237E-04   -0.63488E-05   120   0.377E-02    0.198E-02
DAV:   6    -0.100075605993E+03   -0.16353E-04   -0.27840E-05   120   0.232E-02    0.814E-03
DAV:   7    -0.100075640466E+03   -0.34473E-04   -0.11769E-05   112   0.136E-02    0.397E-03
DAV:   8    -0.100075661374E+03   -0.20908E-04   -0.14586E-06    88   0.526E-03    0.282E-03
DAV:   9    -0.100075688188E+03   -0.26814E-04   -0.15115E-06    88   0.388E-03    0.103E-03
DAV:  10    -0.100075712361E+03   -0.24173E-04   -0.18978E-06    96   0.398E-03    0.932E-04
DAV:  11    -0.100075731792E+03   -0.19431E-04   -0.15433E-06    96   0.331E-03    0.364E-04
DAV:  12    -0.100075735232E+03   -0.34406E-05   -0.13242E-07    96   0.135E-03    0.380E-04
DAV:  13    -0.100075739901E+03   -0.46690E-05   -0.11557E-07    80   0.107E-03    0.194E-04
DAV:  14    -0.100075743225E+03   -0.33232E-05   -0.14798E-07    88   0.875E-04    0.126E-04
DAV:  15    -0.100075743940E+03   -0.71587E-06   -0.12268E-08    96   0.367E-04
   4 F= -.10007574E+03 E0= -.10007574E+03  d E =-.541768E-01
       N       E                     dE             d eps       ncg     rms          rms(c)
DAV:   1    -0.100080859765E+03   -0.51165E-02   -0.27875E-01    84   0.233E+00    0.217E-01
DAV:   2    -0.100081773434E+03   -0.91367E-03   -0.12251E-02   120   0.398E-01    0.981E-02
DAV:   3    -0.100081650351E+03    0.12308E-03   -0.51861E-04   128   0.857E-02    0.514E-02
DAV:   4    -0.100081612282E+03    0.38069E-04   -0.14924E-04   112   0.414E-02    0.166E-02
DAV:   5    -0.100081606102E+03    0.61804E-05   -0.13441E-05   120   0.174E-02    0.928E-03
DAV:   6    -0.100081608857E+03   -0.27558E-05   -0.59385E-06   120   0.107E-02    0.377E-03
DAV:   7    -0.100081617263E+03   -0.84055E-05   -0.22615E-06    96   0.625E-03    0.166E-03
DAV:   8    -0.100081622932E+03   -0.56690E-05   -0.46949E-07    88   0.287E-03    0.139E-03
DAV:   9    -0.100081630201E+03   -0.72691E-05   -0.31552E-07    88   0.178E-03    0.540E-04
DAV:  10    -0.100081638368E+03   -0.81674E-05   -0.54323E-07    88   0.203E-03    0.466E-04
DAV:  11    -0.100081644302E+03   -0.59334E-05   -0.38283E-07    88   0.157E-03    0.193E-04
DAV:  12    -0.100081645440E+03   -0.11386E-05   -0.51618E-08    96   0.718E-04    0.208E-04
DAV:  13    -0.100081646916E+03   -0.14756E-05   -0.33510E-08    88   0.580E-04    0.749E-05
DAV:  14    -0.100081648046E+03   -0.11303E-05   -0.42225E-08    88   0.483E-04    0.725E-05
DAV:  15    -0.100081648269E+03   -0.22291E-06   -0.41423E-09    96   0.215E-04
   5 F= -.10008165E+03 E0= -.10008165E+03  d E =-.600812E-01
       N       E                     dE             d eps       ncg     rms          rms(c)
DAV:   1    -0.100094684489E+03   -0.13036E-01   -0.40460E-01    84   0.281E+00    0.212E-01
DAV:   2    -0.100095921690E+03   -0.12372E-02   -0.17724E-02   112   0.494E-01    0.116E-01
DAV:   3    -0.100095769105E+03    0.15259E-03   -0.63564E-04   120   0.955E-02    0.645E-02
DAV:   4    -0.100095719188E+03    0.49916E-04   -0.18248E-04   120   0.500E-02    0.156E-02
DAV:   5    -0.100095708554E+03    0.10635E-04   -0.24114E-05   112   0.187E-02    0.933E-03
DAV:   6    -0.100095714221E+03   -0.56670E-05   -0.52176E-06   112   0.858E-03    0.477E-03
DAV:   7    -0.100095734753E+03   -0.20532E-04   -0.21438E-06   104   0.480E-03    0.150E-03
DAV:   8    -0.100095749951E+03   -0.15198E-04   -0.51132E-07    80   0.252E-03    0.117E-03
DAV:   9    -0.100095779058E+03   -0.29107E-04   -0.24995E-06    88   0.370E-03    0.586E-04
DAV:  10    -0.100095787269E+03   -0.82106E-05   -0.36092E-07    88   0.172E-03    0.388E-04
DAV:  11    -0.100095795469E+03   -0.82005E-05   -0.30285E-07    80   0.133E-03    0.318E-04
DAV:  12    -0.100095798984E+03   -0.35144E-05   -0.10311E-07    88   0.752E-04    0.135E-04
DAV:  13    -0.100095801193E+03   -0.22092E-05   -0.43471E-08    88   0.486E-04    0.683E-05
DAV:  14    -0.100095802595E+03   -0.14020E-05   -0.40223E-08    88   0.425E-04    0.631E-05
DAV:  15    -0.100095803302E+03   -0.70696E-06   -0.78941E-09    88   0.239E-04
   6 F= -.10009580E+03 E0= -.10009580E+03  d E =-.141550E-01
       N       E                     dE             d eps       ncg     rms          rms(c)
DAV:   1    -0.100097593710E+03   -0.17911E-02   -0.13742E-01    84   0.164E+00    0.124E-01
DAV:   2    -0.100098016335E+03   -0.42262E-03   -0.60719E-03   112   0.289E-01    0.680E-02
DAV:   3    -0.100097963525E+03    0.52809E-04   -0.21695E-04   120   0.558E-02    0.378E-02
DAV:   4    -0.100097944752E+03    0.18774E-04   -0.62662E-05   112   0.293E-02    0.912E-03
DAV:   5    -0.100097940198E+03    0.45543E-05   -0.81857E-06   120   0.109E-02    0.545E-03
DAV:   6    -0.100097941601E+03   -0.14029E-05   -0.15308E-06    88   0.504E-03    0.264E-03
DAV:   7    -0.100097948289E+03   -0.66889E-05   -0.10309E-06    88   0.361E-03    0.899E-04
DAV:   8    -0.100097956595E+03   -0.83057E-05   -0.43159E-07    80   0.229E-03    0.624E-04
DAV:   9    -0.100097966258E+03   -0.96629E-05   -0.65057E-07    80   0.203E-03    0.313E-04
DAV:  10    -0.100097970630E+03   -0.43723E-05   -0.22392E-07    88   0.124E-03    0.191E-04
DAV:  11    -0.100097973793E+03   -0.31629E-05   -0.11789E-07    88   0.862E-04    0.116E-04
DAV:  12    -0.100097975236E+03   -0.14426E-05   -0.47834E-08    88   0.502E-04    0.667E-05
DAV:  13    -0.100097976439E+03   -0.12035E-05   -0.35965E-08    88   0.416E-04    0.334E-05
DAV:  14    -0.100097976805E+03   -0.36540E-06   -0.89710E-09    88   0.234E-04
   7 F= -.10009798E+03 E0= -.10009798E+03  d E =-.163285E-01
       N       E                     dE             d eps       ncg     rms          rms(c)
DAV:   1    -0.100108673307E+03   -0.10697E-01   -0.23087E-01    84   0.224E+00    0.126E-01
DAV:   2    -0.100108667715E+03    0.55921E-05   -0.30761E-03   120   0.229E-01    0.694E-02
DAV:   3    -0.100108560479E+03    0.10724E-03   -0.35813E-04   128   0.755E-02    0.267E-02
DAV:   4    -0.100108562828E+03   -0.23485E-05   -0.11566E-04   118   0.388E-02    0.112E-02
DAV:   5    -0.100108562223E+03    0.60494E-06   -0.71781E-06   128   0.110E-02
   8 F= -.10010856E+03 E0= -.10010856E+03  d E =-.105854E-01
       N       E                     dE             d eps       ncg     rms          rms(c)
DAV:   1    -0.100127482452E+03   -0.18920E-01   -0.20746E+00    84   0.670E+00    0.377E-01
DAV:   2    -0.100127509156E+03   -0.26705E-04   -0.27962E-02   120   0.688E-01    0.209E-01
DAV:   3    -0.100126557175E+03    0.95198E-03   -0.31716E-03   128   0.225E-01    0.810E-02
DAV:   4    -0.100126570928E+03   -0.13754E-04   -0.10468E-03   120   0.117E-01    0.335E-02
DAV:   5    -0.100126564859E+03    0.60699E-05   -0.69685E-05   128   0.344E-02    0.208E-02
DAV:   6    -0.100126573990E+03   -0.91313E-05   -0.97724E-06   120   0.140E-02    0.559E-03
DAV:   7    -0.100126594275E+03   -0.20285E-04   -0.53215E-06   112   0.910E-03    0.316E-03
DAV:   8    -0.100126636459E+03   -0.42184E-04   -0.32330E-06    94   0.847E-03    0.146E-03
DAV:   9    -0.100126664599E+03   -0.28140E-04   -0.29317E-06   104   0.607E-03    0.110E-03
DAV:  10    -0.100126685141E+03   -0.20542E-04   -0.94596E-07    88   0.330E-03    0.651E-04
DAV:  11    -0.100126699933E+03   -0.14792E-04   -0.83032E-07    80   0.216E-03    0.392E-04
DAV:  12    -0.100126707546E+03   -0.76123E-05   -0.26460E-07    88   0.123E-03    0.212E-04
DAV:  13    -0.100126712925E+03   -0.53796E-05   -0.19362E-07    88   0.988E-04    0.106E-04
DAV:  14    -0.100126715598E+03   -0.26728E-05   -0.84211E-08    88   0.660E-04    0.751E-05
DAV:  15    -0.100126716902E+03   -0.13043E-05   -0.30760E-08    88   0.420E-04    0.338E-05
DAV:  16    -0.100126717328E+03   -0.42599E-06   -0.86511E-09    96   0.232E-04
   9 F= -.10012672E+03 E0= -.10012672E+03  d E =-.287405E-01
       N       E                     dE             d eps       ncg     rms          rms(c)
DAV:   1    -0.100128348466E+03   -0.16316E-02   -0.30609E-01    84   0.257E+00    0.145E-01
DAV:   2    -0.100128341457E+03    0.70086E-05   -0.40950E-03   120   0.264E-01    0.799E-02
DAV:   3    -0.100128198859E+03    0.14260E-03   -0.47532E-04   128   0.874E-02    0.306E-02
DAV:   4    -0.100128202070E+03   -0.32111E-05   -0.15430E-04   118   0.450E-02    0.129E-02
DAV:   5    -0.100128200874E+03    0.11959E-05   -0.94013E-06   128   0.126E-02    0.810E-03
DAV:   6    -0.100128201059E+03   -0.18528E-06   -0.13244E-06    96   0.525E-03
  10 F= -.10012820E+03 E0= -.10012820E+03  d E =-.302243E-01
       N       E                     dE             d eps       ncg     rms          rms(c)
DAV:   1    -0.100131869225E+03   -0.36684E-02   -0.13549E-01    84   0.164E+00    0.112E-01
DAV:   2    -0.100132245214E+03   -0.37599E-03   -0.49084E-03   120   0.260E-01    0.636E-02
DAV:   3    -0.100132195110E+03    0.50104E-04   -0.15959E-04   120   0.493E-02    0.336E-02
DAV:   4    -0.100132188046E+03    0.70636E-05   -0.71491E-05   120   0.292E-02    0.725E-03
DAV:   5    -0.100132190231E+03   -0.21849E-05   -0.70010E-06   112   0.103E-02    0.382E-03
DAV:   6    -0.100132194318E+03   -0.40870E-05   -0.11323E-06    88   0.440E-03    0.187E-03
DAV:   7    -0.100132201265E+03   -0.69473E-05   -0.61876E-07    78   0.346E-03    0.624E-04
DAV:   8    -0.100132207711E+03   -0.64459E-05   -0.38482E-07    88   0.242E-03    0.610E-04
DAV:   9    -0.100132212826E+03   -0.51149E-05   -0.24438E-07    88   0.154E-03    0.246E-04
DAV:  10    -0.100132216932E+03   -0.41054E-05   -0.25922E-07    80   0.121E-03    0.171E-04
DAV:  11    -0.100132217994E+03   -0.10625E-05   -0.48134E-08    96   0.654E-04    0.953E-05
DAV:  12    -0.100132219024E+03   -0.10302E-05   -0.34704E-08    80   0.467E-04    0.694E-05
DAV:  13    -0.100132219813E+03   -0.78873E-06   -0.25080E-08    80   0.376E-04
  11 F= -.10013222E+03 E0= -.10013222E+03  d E =-.401875E-02
       N       E                     dE             d eps       ncg     rms          rms(c)
DAV:   1    -0.100132898129E+03   -0.67910E-03   -0.65376E-02    84   0.114E+00    0.778E-02
DAV:   2    -0.100133077998E+03   -0.17987E-03   -0.23602E-03   120   0.180E-01    0.439E-02
DAV:   3    -0.100133053982E+03    0.24016E-04   -0.76830E-05   120   0.343E-02    0.231E-02
DAV:   4    -0.100133049259E+03    0.47227E-05   -0.34243E-05   112   0.202E-02    0.497E-03
DAV:   5    -0.100133048505E+03    0.75428E-06   -0.32948E-06   120   0.705E-03
  12 F= -.10013305E+03 E0= -.10013305E+03  d E =-.484745E-02
       N       E                     dE             d eps       ncg     rms          rms(c)
DAV:   1    -0.100135966911E+03   -0.29177E-02   -0.13945E-01    84   0.171E+00    0.106E-01
DAV:   2    -0.100136117029E+03   -0.15012E-03   -0.33079E-03   120   0.230E-01    0.621E-02
DAV:   3    -0.100136070453E+03    0.46576E-04   -0.17820E-04   120   0.525E-02    0.301E-02
DAV:   4    -0.100136068076E+03    0.23771E-05   -0.54660E-05   112   0.259E-02    0.810E-03
DAV:   5    -0.100136067898E+03    0.17749E-06   -0.23284E-06    96   0.675E-03
  13 F= -.10013607E+03 E0= -.10013607E+03  d E =-.301939E-02
       N       E                     dE             d eps       ncg     rms          rms(c)
DAV:   1    -0.100136547486E+03   -0.47941E-03   -0.58438E-02    84   0.111E+00    0.692E-02
DAV:   2    -0.100136606155E+03   -0.58669E-04   -0.14022E-03   112   0.150E-01    0.402E-02
DAV:   3    -0.100136583250E+03    0.22904E-04   -0.75387E-05   120   0.342E-02    0.195E-02
DAV:   4    -0.100136581791E+03    0.14593E-05   -0.23005E-05   112   0.168E-02    0.534E-03
DAV:   5    -0.100136583609E+03   -0.18174E-05   -0.10013E-06    88   0.456E-03    0.234E-03
DAV:   6    -0.100136587120E+03   -0.35111E-05   -0.77344E-07    88   0.360E-03    0.896E-04
DAV:   7    -0.100136592840E+03   -0.57198E-05   -0.47605E-07    80   0.255E-03    0.586E-04
DAV:   8    -0.100136595033E+03   -0.21935E-05   -0.13304E-07    88   0.133E-03    0.496E-04
DAV:   9    -0.100136597420E+03   -0.23872E-05   -0.69983E-08    88   0.720E-04    0.303E-04
DAV:  10    -0.100136601495E+03   -0.40746E-05   -0.21419E-07    80   0.954E-04    0.182E-04
DAV:  11    -0.100136602647E+03   -0.11519E-05   -0.38249E-08    88   0.479E-04    0.810E-05
DAV:  12    -0.100136603564E+03   -0.91712E-06   -0.26966E-08    88   0.389E-04
  14 F= -.10013660E+03 E0= -.10013660E+03  d E =-.355506E-02
       N       E                     dE             d eps       ncg     rms          rms(c)
DAV:   1    -0.100138068294E+03   -0.14656E-02   -0.14140E-01    84   0.167E+00    0.126E-01
DAV:   2    -0.100138251717E+03   -0.18342E-03   -0.39053E-03   120   0.247E-01    0.651E-02
DAV:   3    -0.100138193298E+03    0.58420E-04   -0.22814E-04   112   0.606E-02    0.336E-02
DAV:   4    -0.100138185590E+03    0.77076E-05   -0.59548E-05   120   0.308E-02    0.104E-02
DAV:   5    -0.100138184790E+03    0.79993E-06   -0.69352E-06   120   0.116E-02
  15 F= -.10013818E+03 E0= -.10013818E+03  d E =-.158123E-02
       N       E                     dE             d eps       ncg     rms          rms(c)
DAV:   1    -0.100138186219E+03   -0.62915E-06   -0.38769E-05   104   0.275E-02    0.343E-03
DAV:   2    -0.100138187755E+03   -0.15361E-05   -0.17087E-06   104   0.508E-03    0.164E-03
DAV:   3    -0.100138189873E+03   -0.21182E-05   -0.18207E-07    88   0.178E-03    0.774E-04
DAV:   4    -0.100138193055E+03   -0.31818E-05   -0.18588E-07    88   0.148E-03    0.344E-04
DAV:   5    -0.100138197106E+03   -0.40507E-05   -0.23645E-07    88   0.139E-03    0.174E-04
DAV:   6    -0.100138199663E+03   -0.25574E-05   -0.14086E-07    88   0.971E-04    0.109E-04
DAV:   7    -0.100138200667E+03   -0.10035E-05   -0.28412E-08    88   0.487E-04    0.882E-05
DAV:   8    -0.100138201722E+03   -0.10548E-05   -0.32698E-08    88   0.422E-04    0.369E-05
DAV:   9    -0.100138202037E+03   -0.31523E-06   -0.77085E-09    88   0.215E-04
  16 F= -.10013820E+03 E0= -.10013820E+03  d E =-.159847E-02
       N       E                     dE             d eps       ncg     rms          rms(c)
DAV:   1    -0.100138392342E+03   -0.19062E-03   -0.77693E-03    84   0.381E-01    0.315E-02
DAV:   2    -0.100138420265E+03   -0.27923E-04   -0.33540E-04   120   0.716E-02    0.182E-02
DAV:   3    -0.100138418360E+03    0.19048E-05   -0.97562E-06   120   0.132E-02    0.984E-03
DAV:   4    -0.100138418987E+03   -0.62739E-06   -0.49840E-06   112   0.860E-03
  17 F= -.10013842E+03 E0= -.10013842E+03  d E =-.216950E-03
