       N       E                     dE             d eps       ncg     rms          rms(c)
DAV:   1     0.250463386792E+03    0.25046E+03   -0.10113E+04   120   0.484E+02
DAV:   2    -0.189213990330E+02   -0.26938E+03   -0.25521E+03   156   0.917E+01
DAV:   3    -0.987188708065E+02   -0.79797E+02   -0.79575E+02   120   0.559E+01
DAV:   4    -0.102596465478E+03   -0.38776E+01   -0.38632E+01   120   0.175E+01
DAV:   5    -0.102657814325E+03   -0.61349E-01   -0.61229E-01   144   0.242E+00    0.142E+01
DAV:   6    -0.994419194333E+02    0.32159E+01   -0.15041E+00   120   0.422E+00    0.811E+00
DAV:   7    -0.978432650314E+02    0.15987E+01   -0.39937E+00   120   0.612E+00    0.127E+00
DAV:   8    -0.977833043567E+02    0.59961E-01   -0.34459E-01   132   0.221E+00    0.669E-01
DAV:   9    -0.977481111190E+02    0.35193E-01   -0.58444E-02   144   0.663E-01    0.359E-01
DAV:  10    -0.977468348927E+02    0.12762E-02   -0.39436E-03   132   0.202E-01    0.142E-01
DAV:  11    -0.977461580032E+02    0.67689E-03   -0.63193E-03   120   0.221E-01    0.115E-01
DAV:  12    -0.977529473573E+02   -0.67894E-02   -0.21567E-03   120   0.122E-01    0.570E-02
DAV:  13    -0.977558039931E+02   -0.28566E-02   -0.16474E-03   108   0.121E-01    0.532E-02
DAV:  14    -0.977587326735E+02   -0.29287E-02   -0.26550E-04   132   0.587E-02    0.209E-02
DAV:  15    -0.977629343192E+02   -0.42016E-02   -0.49877E-04   108   0.575E-02    0.153E-02
DAV:  16    -0.977649984018E+02   -0.20641E-02   -0.21743E-04   132   0.397E-02    0.898E-03
DAV:  17    -0.977656819845E+02   -0.68358E-03   -0.44097E-05   132   0.165E-02    0.568E-03
DAV:  18    -0.977660939918E+02   -0.41201E-03   -0.18452E-05   108   0.994E-03    0.148E-03
DAV:  19    -0.977662258986E+02   -0.13191E-03   -0.41072E-06   120   0.482E-03    0.177E-03
DAV:  20    -0.977662908545E+02   -0.64956E-04   -0.16122E-06    96   0.341E-03    0.699E-04
DAV:  21    -0.977663048587E+02   -0.14004E-04   -0.28082E-07   108   0.160E-03    0.689E-04
DAV:  22    -0.977663168379E+02   -0.11979E-04   -0.21057E-07    84   0.116E-03    0.286E-04
DAV:  23    -0.977663217260E+02   -0.48880E-05   -0.10888E-07   108   0.756E-04    0.141E-04
DAV:  24    -0.977663257317E+02   -0.40058E-05   -0.68256E-08    84   0.571E-04    0.797E-05
DAV:  25    -0.977663262735E+02   -0.54183E-06   -0.22884E-09   108   0.229E-04
   1 F= -.97766326E+02 E0= -.97766326E+02  d E =-.772744E-11
       N       E                     dE             d eps       ncg     rms          rms(c)
DAV:   1    -0.977617313305E+02    0.45944E-02   -0.83952E-02    96   0.790E-01    0.108E-01
DAV:   2    -0.977622391747E+02   -0.50784E-03   -0.51983E-03   108   0.215E-01    0.752E-02
DAV:   3    -0.977622243942E+02    0.14781E-04   -0.12645E-04   144   0.389E-02    0.437E-02
DAV:   4    -0.977622108443E+02    0.13550E-04   -0.43507E-05   108   0.240E-02    0.677E-03
DAV:   5    -0.977622086118E+02    0.22325E-05   -0.91050E-06   132   0.107E-02    0.441E-03
DAV:   6    -0.977622108696E+02   -0.22578E-05   -0.18858E-06   120   0.443E-03    0.260E-03
DAV:   7    -0.977622195750E+02   -0.87054E-05   -0.10986E-06   120   0.352E-03    0.104E-03
DAV:   8    -0.977622309502E+02   -0.11375E-04   -0.90652E-07    96   0.279E-03    0.776E-04
DAV:   9    -0.977622406466E+02   -0.96964E-05   -0.64801E-07   108   0.189E-03    0.619E-04
DAV:  10    -0.977622470112E+02   -0.63646E-05   -0.34985E-07    84   0.124E-03    0.220E-04
DAV:  11    -0.977622490347E+02   -0.20235E-05   -0.94143E-08   108   0.649E-04    0.151E-04
DAV:  12    -0.977622515663E+02   -0.25316E-05   -0.10584E-07    96   0.656E-04    0.727E-05
DAV:  13    -0.977622523226E+02   -0.75628E-06   -0.24551E-08   108   0.341E-04
   2 F= -.97762252E+02 E0= -.97762252E+02  d E =-.712097E-11
       N       E                     dE             d eps       ncg     rms          rms(c)
DAV:   1    -0.977606121191E+02    0.16394E-02   -0.33508E-01    96   0.155E+00    0.211E-01
DAV:   2    -0.977625889271E+02   -0.19768E-02   -0.20212E-02   132   0.419E-01    0.150E-01
DAV:   3    -0.977625400379E+02    0.48889E-04   -0.48218E-04   132   0.771E-02    0.832E-02
DAV:   4    -0.977625207968E+02    0.19241E-04   -0.18873E-04   132   0.495E-02    0.130E-02
DAV:   5    -0.977625123826E+02    0.84142E-05   -0.37233E-05   132   0.220E-02    0.869E-03
DAV:   6    -0.977625132652E+02   -0.88254E-06   -0.88046E-06   132   0.887E-03
   3 F= -.97762513E+02 E0= -.97762513E+02  d E =-.837859E-11
       N       E                     dE             d eps       ncg     rms          rms(c)
DAV:   1    -0.977602101271E+02    0.23023E-02   -0.17119E-01    96   0.109E+00    0.160E-01
DAV:   2    -0.977614060259E+02   -0.11959E-02   -0.11830E-02   132   0.329E-01    0.113E-01
DAV:   3    -0.977613960236E+02    0.10002E-04   -0.25761E-04   132   0.624E-02    0.621E-02
DAV:   4    -0.977614234597E+02   -0.27436E-04   -0.17175E-04   120   0.449E-02    0.114E-02
DAV:   5    -0.977614213660E+02    0.20937E-05   -0.37464E-05   132   0.206E-02    0.823E-03
DAV:   6    -0.977614226309E+02   -0.12649E-05   -0.77153E-06   120   0.725E-03    0.515E-03
DAV:   7    -0.977614298553E+02   -0.72244E-05   -0.11132E-06   120   0.358E-03    0.207E-03
DAV:   8    -0.977614403192E+02   -0.10464E-04   -0.98904E-07   120   0.272E-03    0.709E-04
DAV:   9    -0.977614503425E+02   -0.10023E-04   -0.75222E-07   120   0.211E-03    0.901E-04
DAV:  10    -0.977614589674E+02   -0.86248E-05   -0.52899E-07    84   0.157E-03    0.447E-04
DAV:  11    -0.977614639808E+02   -0.50135E-05   -0.27558E-07    96   0.105E-03    0.175E-04
DAV:  12    -0.977614668708E+02   -0.28900E-05   -0.87641E-08    96   0.624E-04    0.126E-04
DAV:  13    -0.977614685332E+02   -0.16624E-05   -0.53631E-08    96   0.435E-04    0.130E-04
DAV:  14    -0.977614695494E+02   -0.10162E-05   -0.17280E-08    84   0.308E-04    0.376E-05
DAV:  15    -0.977614698930E+02   -0.34361E-06   -0.18767E-10    96   0.169E-04
   4 F= -.97761470E+02 E0= -.97761470E+02  d E =-.876844E-11
       N       E                     dE             d eps       ncg     rms          rms(c)
DAV:   1    -0.977586386000E+02    0.28309E-02   -0.35425E-01    96   0.153E+00    0.254E-01
DAV:   2    -0.977615325097E+02   -0.28939E-02   -0.29286E-02   132   0.490E-01    0.185E-01
DAV:   3    -0.977613608915E+02    0.17162E-03   -0.61136E-04   132   0.939E-02    0.101E-01
DAV:   4    -0.977613660751E+02   -0.51836E-05   -0.52504E-04   132   0.773E-02    0.166E-02
DAV:   5    -0.977613538130E+02    0.12262E-04   -0.13131E-04   132   0.369E-02    0.126E-02
DAV:   6    -0.977613561594E+02   -0.23463E-05   -0.15671E-05   132   0.940E-03    0.788E-03
DAV:   7    -0.977613769252E+02   -0.20766E-04   -0.15655E-06    96   0.362E-03    0.370E-03
DAV:   8    -0.977614083432E+02   -0.31418E-04   -0.60951E-06   120   0.648E-03    0.249E-03
DAV:   9    -0.977614290554E+02   -0.20712E-04   -0.20621E-06   108   0.358E-03    0.201E-03
DAV:  10    -0.977614480969E+02   -0.19042E-04   -0.14335E-06   108   0.278E-03    0.728E-04
DAV:  11    -0.977614541945E+02   -0.60976E-05   -0.25782E-07   108   0.142E-03    0.367E-04
DAV:  12    -0.977614632257E+02   -0.90312E-05   -0.35578E-07   108   0.126E-03    0.232E-04
DAV:  13    -0.977614653697E+02   -0.21441E-05   -0.63240E-08   108   0.532E-04    0.241E-04
DAV:  14    -0.977614676177E+02   -0.22480E-05   -0.27268E-08    96   0.414E-04    0.109E-04
DAV:  15    -0.977614685190E+02   -0.90123E-06   -0.12579E-08    96   0.280E-04
   5 F= -.97761469E+02 E0= -.97761469E+02  d E =-.870999E-11
       N       E                     dE             d eps       ncg     rms          rms(c)
DAV:   1    -0.977616192710E+02   -0.15165E-03   -0.17394E-01    96   0.110E+00    0.173E-01
DAV:   2    -0.977629378205E+02   -0.13185E-02   -0.13439E-02   132   0.346E-01    0.121E-01
DAV:   3    -0.977628736359E+02    0.64185E-04   -0.29275E-04   144   0.654E-02    0.662E-02
DAV:   4    -0.977628739611E+02   -0.32518E-06   -0.21653E-04   132   0.506E-02    0.120E-02
DAV:   5    -0.977628697066E+02    0.42545E-05   -0.52824E-05   132   0.241E-02    0.870E-03
DAV:   6    -0.977628703035E+02   -0.59695E-06   -0.79221E-06   132   0.730E-03
   6 F= -.97762870E+02 E0= -.97762870E+02  d E =-.806637E-11
       N       E                     dE             d eps       ncg     rms          rms(c)
DAV:   1    -0.977613247112E+02    0.15450E-02   -0.32885E-01    96   0.149E+00    0.198E-01
DAV:   2    -0.977630865425E+02   -0.17618E-02   -0.17712E-02   132   0.378E-01    0.125E-01
DAV:   3    -0.977631034735E+02   -0.16931E-04   -0.48249E-04   132   0.798E-02    0.657E-02
DAV:   4    -0.977631340555E+02   -0.30582E-04   -0.15661E-04   132   0.508E-02    0.127E-02
DAV:   5    -0.977631315085E+02    0.25470E-05   -0.40943E-05   132   0.238E-02    0.888E-03
DAV:   6    -0.977631315868E+02   -0.78243E-07   -0.71134E-06   132   0.809E-03
   7 F= -.97763132E+02 E0= -.97763132E+02  d E =-.902055E-11
       N       E                     dE             d eps       ncg     rms          rms(c)
DAV:   1    -0.977608085526E+02    0.23230E-02   -0.16514E-01    96   0.120E+00    0.152E-01
DAV:   2    -0.977620737732E+02   -0.12652E-02   -0.12932E-02   132   0.352E-01    0.106E-01
DAV:   3    -0.977620491667E+02    0.24607E-04   -0.30665E-04   132   0.672E-02    0.610E-02
DAV:   4    -0.977620602239E+02   -0.11057E-04   -0.13879E-04   108   0.470E-02    0.105E-02
DAV:   5    -0.977620587964E+02    0.14275E-05   -0.39797E-05   132   0.227E-02    0.802E-03
DAV:   6    -0.977620584008E+02    0.39557E-06   -0.47037E-06   132   0.692E-03
   8 F= -.97762058E+02 E0= -.97762058E+02  d E =-.634758E-11
       N       E                     dE             d eps       ncg     rms          rms(c)
DAV:   1    -0.977597165322E+02    0.23423E-02   -0.34120E-01    96   0.154E+00    0.225E-01
DAV:   2    -0.977618678735E+02   -0.21513E-02   -0.21768E-02   132   0.445E-01    0.161E-01
DAV:   3    -0.977618357490E+02    0.32124E-04   -0.50670E-04   132   0.826E-02    0.839E-02
DAV:   4    -0.977618164850E+02    0.19264E-04   -0.24179E-04   120   0.504E-02    0.143E-02
DAV:   5    -0.977618055353E+02    0.10950E-04   -0.32246E-05   132   0.195E-02    0.952E-03
DAV:   6    -0.977618096366E+02   -0.41013E-05   -0.12282E-05   132   0.983E-03    0.535E-03
DAV:   7    -0.977618309566E+02   -0.21320E-04   -0.33067E-06   132   0.554E-03    0.200E-03
DAV:   8    -0.977618529925E+02   -0.22036E-04   -0.18734E-06   120   0.365E-03    0.116E-03
DAV:   9    -0.977618789286E+02   -0.25936E-04   -0.29996E-06   108   0.368E-03    0.997E-04
DAV:  10    -0.977618951706E+02   -0.16242E-04   -0.14327E-06   120   0.245E-03    0.396E-04
DAV:  11    -0.977619024547E+02   -0.72841E-05   -0.38057E-07    84   0.127E-03    0.311E-04
DAV:  12    -0.977619064557E+02   -0.40010E-05   -0.19429E-07   108   0.849E-04    0.161E-04
DAV:  13    -0.977619082955E+02   -0.18398E-05   -0.54910E-08    96   0.496E-04    0.733E-05
DAV:  14    -0.977619090809E+02   -0.78544E-06   -0.76354E-09   108   0.273E-04
   9 F= -.97761909E+02 E0= -.97761909E+02  d E =-.101400E-10
       N       E                     dE             d eps       ncg     rms          rms(c)
DAV:   1    -0.977622442497E+02   -0.33595E-03   -0.16758E-01    96   0.109E+00    0.150E-01
DAV:   2    -0.977632844626E+02   -0.10402E-02   -0.10647E-02   108   0.306E-01    0.103E-01
DAV:   3    -0.977632593342E+02    0.25128E-04   -0.24839E-04   132   0.589E-02    0.553E-02
DAV:   4    -0.977632603089E+02   -0.97476E-06   -0.12225E-04   120   0.408E-02    0.102E-02
DAV:   5    -0.977632563108E+02    0.39981E-05   -0.28603E-05   132   0.192E-02    0.707E-03
DAV:   6    -0.977632557475E+02    0.56336E-06   -0.50411E-06   132   0.653E-03
  10 F= -.97763256E+02 E0= -.97763256E+02  d E =-.814599E-11
       N       E                     dE             d eps       ncg     rms          rms(c)
DAV:   1    -0.977617071427E+02    0.15492E-02   -0.33054E-01    96   0.148E+00    0.193E-01
DAV:   2    -0.977632226095E+02   -0.15155E-02   -0.15151E-02   132   0.343E-01    0.112E-01
DAV:   3    -0.977632604237E+02   -0.37814E-04   -0.45853E-04   120   0.804E-02    0.560E-02
DAV:   4    -0.977632934500E+02   -0.33026E-04   -0.13060E-04   132   0.484E-02    0.119E-02
DAV:   5    -0.977632938579E+02   -0.40788E-06   -0.33694E-05   132   0.213E-02    0.827E-03
DAV:   6    -0.977632954425E+02   -0.15846E-05   -0.59072E-06   132   0.741E-03    0.421E-03
DAV:   7    -0.977632990210E+02   -0.35785E-05   -0.74003E-07    96   0.355E-03    0.187E-03
DAV:   8    -0.977633046981E+02   -0.56772E-05   -0.73841E-07    96   0.342E-03    0.855E-04
DAV:   9    -0.977633110798E+02   -0.63817E-05   -0.43959E-07   108   0.254E-03    0.575E-04
DAV:  10    -0.977633168733E+02   -0.57936E-05   -0.35270E-07    96   0.196E-03    0.273E-04
DAV:  11    -0.977633197894E+02   -0.29160E-05   -0.11449E-07   108   0.112E-03    0.247E-04
DAV:  12    -0.977633222473E+02   -0.24579E-05   -0.55378E-08    84   0.614E-04    0.133E-04
DAV:  13    -0.977633238704E+02   -0.16231E-05   -0.42848E-08    96   0.445E-04    0.900E-05
DAV:  14    -0.977633249476E+02   -0.10773E-05   -0.17919E-08    84   0.296E-04    0.420E-05
DAV:  15    -0.977633254185E+02   -0.47082E-06   -0.25755E-09    96   0.187E-04
  11 F= -.97763325E+02 E0= -.97763325E+02  d E =-.823672E-11
       N       E                     dE             d eps       ncg     rms          rms(c)
DAV:   1    -0.977606099119E+02    0.27150E-02   -0.16697E-01    96   0.110E+00    0.147E-01
DAV:   2    -0.977615992033E+02   -0.98929E-03   -0.10125E-02   132   0.289E-01    0.957E-02
DAV:   3    -0.977615847205E+02    0.14483E-04   -0.25686E-04   144   0.592E-02    0.510E-02
DAV:   4    -0.977615931882E+02   -0.84677E-05   -0.11611E-04   132   0.422E-02    0.103E-02
DAV:   5    -0.977615907137E+02    0.24744E-05   -0.32027E-05   132   0.201E-02    0.758E-03
DAV:   6    -0.977615894153E+02    0.12985E-05   -0.53729E-06   132   0.687E-03    0.425E-03
DAV:   7    -0.977615918914E+02   -0.24762E-05   -0.12795E-06   120   0.404E-03    0.183E-03
DAV:   8    -0.977615971880E+02   -0.52966E-05   -0.56879E-07    96   0.274E-03    0.718E-04
DAV:   9    -0.977616038687E+02   -0.66807E-05   -0.52875E-07    96   0.227E-03    0.794E-04
DAV:  10    -0.977616121133E+02   -0.82446E-05   -0.48077E-07    84   0.190E-03    0.289E-04
DAV:  11    -0.977616153300E+02   -0.32167E-05   -0.13345E-07    96   0.983E-04    0.201E-04
DAV:  12    -0.977616181183E+02   -0.27882E-05   -0.64685E-08    96   0.609E-04    0.114E-04
DAV:  13    -0.977616196116E+02   -0.14933E-05   -0.32292E-08   108   0.403E-04    0.711E-05
DAV:  14    -0.977616207675E+02   -0.11559E-05   -0.15250E-08    96   0.285E-04    0.373E-05
DAV:  15    -0.977616210710E+02   -0.30350E-06    0.23580E-09   108   0.135E-04
  12 F= -.97761621E+02 E0= -.97761621E+02  d E =-.753206E-11
       N       E                     dE             d eps       ncg     rms          rms(c)
DAV:   1    -0.977589795830E+02    0.26412E-02   -0.34632E-01    96   0.152E+00    0.239E-01
DAV:   2    -0.977616536389E+02   -0.26741E-02   -0.27306E-02   132   0.487E-01    0.178E-01
DAV:   3    -0.977615324481E+02    0.12119E-03   -0.59216E-04   144   0.923E-02    0.988E-02
DAV:   4    -0.977615257063E+02    0.67418E-05   -0.42761E-04   132   0.700E-02    0.165E-02
DAV:   5    -0.977615195244E+02    0.61819E-05   -0.97450E-05   132   0.322E-02    0.123E-02
DAV:   6    -0.977615239999E+02   -0.44755E-05   -0.17396E-05   132   0.103E-02    0.782E-03
DAV:   7    -0.977615482599E+02   -0.24260E-04   -0.31425E-06   120   0.520E-03    0.323E-03
DAV:   8    -0.977615844568E+02   -0.36197E-04   -0.51569E-06   108   0.569E-03    0.159E-03
DAV:   9    -0.977616092646E+02   -0.24808E-04   -0.27392E-06   108   0.358E-03    0.196E-03
DAV:  10    -0.977616312590E+02   -0.21994E-04   -0.20513E-06    96   0.319E-03    0.460E-04
DAV:  11    -0.977616365848E+02   -0.53257E-05   -0.25021E-07   108   0.134E-03    0.392E-04
DAV:  12    -0.977616436647E+02   -0.70799E-05   -0.34955E-07    96   0.117E-03    0.239E-04
DAV:  13    -0.977616456262E+02   -0.19616E-05   -0.73394E-08   108   0.546E-04    0.192E-04
DAV:  14    -0.977616474659E+02   -0.18397E-05   -0.34706E-08    84   0.435E-04    0.671E-05
DAV:  15    -0.977616480466E+02   -0.58066E-06   -0.50659E-09    96   0.230E-04
  13 F= -.97761648E+02 E0= -.97761648E+02  d E =-.974249E-11
       N       E                     dE             d eps       ncg     rms          rms(c)
DAV:   1    -0.977622953898E+02   -0.64792E-03   -0.18298E-01    96   0.126E+00    0.157E-01
DAV:   2    -0.977635316405E+02   -0.12363E-02   -0.13436E-02   108   0.357E-01    0.102E-01
DAV:   3    -0.977634760011E+02    0.55639E-04   -0.28299E-04   144   0.645E-02    0.579E-02
DAV:   4    -0.977634634921E+02    0.12509E-04   -0.14440E-04   132   0.460E-02    0.106E-02
DAV:   5    -0.977634606985E+02    0.27936E-05   -0.45443E-05   132   0.231E-02    0.795E-03
DAV:   6    -0.977634591740E+02    0.15245E-05   -0.43996E-06   132   0.647E-03    0.532E-03
DAV:   7    -0.977634636196E+02   -0.44456E-05   -0.16585E-06   144   0.432E-03    0.210E-03
DAV:   8    -0.977634716482E+02   -0.80286E-05   -0.68903E-07   120   0.311E-03    0.888E-04
DAV:   9    -0.977634824802E+02   -0.10832E-04   -0.70066E-07    96   0.239E-03    0.103E-03
DAV:  10    -0.977634932925E+02   -0.10812E-04   -0.57345E-07    96   0.190E-03    0.385E-04
DAV:  11    -0.977634977112E+02   -0.44187E-05   -0.15666E-07    96   0.992E-04    0.246E-04
DAV:  12    -0.977635016051E+02   -0.38939E-05   -0.97268E-08    84   0.669E-04    0.177E-04
DAV:  13    -0.977635027591E+02   -0.11540E-05   -0.16024E-08   108   0.321E-04    0.140E-04
DAV:  14    -0.977635041980E+02   -0.14389E-05   -0.20494E-08    96   0.313E-04    0.397E-05
DAV:  15    -0.977635046192E+02   -0.42122E-06    0.63055E-10   108   0.164E-04
  14 F= -.97763505E+02 E0= -.97763505E+02  d E =-.944862E-11
       N       E                     dE             d eps       ncg     rms          rms(c)
DAV:   1    -0.977623307444E+02    0.11735E-02   -0.40037E-01    96   0.169E+00    0.202E-01
DAV:   2    -0.977636110793E+02   -0.12803E-02   -0.15382E-02   132   0.346E-01    0.826E-02
DAV:   3    -0.977635559948E+02    0.55084E-04   -0.29499E-04   132   0.607E-02    0.424E-02
DAV:   4    -0.977635386438E+02    0.17351E-04   -0.74744E-05   132   0.354E-02    0.116E-02
DAV:   5    -0.977635357625E+02    0.28813E-05   -0.20172E-05   132   0.171E-02    0.650E-03
DAV:   6    -0.977635374145E+02   -0.16521E-05   -0.36623E-06   132   0.656E-03    0.370E-03
DAV:   7    -0.977635417469E+02   -0.43324E-05   -0.39787E-07   108   0.246E-03    0.144E-03
DAV:   8    -0.977635475377E+02   -0.57908E-05   -0.41909E-07   108   0.232E-03    0.745E-04
DAV:   9    -0.977635560176E+02   -0.84799E-05   -0.60127E-07   108   0.250E-03    0.413E-04
DAV:  10    -0.977635610153E+02   -0.49978E-05   -0.40865E-07   108   0.174E-03    0.386E-04
DAV:  11    -0.977635627579E+02   -0.17426E-05   -0.44462E-08   108   0.785E-04    0.254E-04
DAV:  12    -0.977635652564E+02   -0.24985E-05   -0.69175E-08   108   0.668E-04    0.119E-04
DAV:  13    -0.977635662898E+02   -0.10335E-05   -0.23059E-08   108   0.367E-04    0.137E-04
DAV:  14    -0.977635672150E+02   -0.92511E-06   -0.12795E-08   108   0.289E-04
  15 F= -.97763567E+02 E0= -.97763567E+02  d E =-.871318E-11
       N       E                     dE             d eps       ncg     rms          rms(c)
DAV:   1    -0.977629999695E+02    0.56632E-03   -0.20106E-01    96   0.119E+00    0.136E-01
DAV:   2    -0.977635870970E+02   -0.58713E-03   -0.71129E-03   132   0.251E-01    0.568E-02
DAV:   3    -0.977635617865E+02    0.25311E-04   -0.14399E-04   132   0.432E-02    0.286E-02
DAV:   4    -0.977635538430E+02    0.79435E-05   -0.34754E-05   132   0.256E-02    0.777E-03
DAV:   5    -0.977635526817E+02    0.11612E-05   -0.98937E-06   132   0.125E-02    0.437E-03
DAV:   6    -0.977635534610E+02   -0.77922E-06   -0.18115E-06   120   0.476E-03
  16 F= -.97763553E+02 E0= -.97763553E+02  d E =-.116720E-10
       N       E                     dE             d eps       ncg     rms          rms(c)
DAV:   1    -0.977624827151E+02    0.10700E-02   -0.40114E-01    96   0.177E+00    0.170E-01
DAV:   2    -0.977637148882E+02   -0.12322E-02   -0.14548E-02   132   0.356E-01    0.805E-02
DAV:   3    -0.977636747369E+02    0.40151E-04   -0.28318E-04   132   0.607E-02    0.405E-02
DAV:   4    -0.977636628393E+02    0.11898E-04   -0.72247E-05   120   0.366E-02    0.101E-02
DAV:   5    -0.977636594303E+02    0.34091E-05   -0.19717E-05   144   0.172E-02    0.623E-03
DAV:   6    -0.977636600141E+02   -0.58380E-06   -0.41989E-06   132   0.733E-03
  17 F= -.97763660E+02 E0= -.97763660E+02  d E =-.119069E-10
       N       E                     dE             d eps       ncg     rms          rms(c)
DAV:   1    -0.977619896579E+02    0.16698E-02   -0.19855E-01    96   0.124E+00    0.128E-01
DAV:   2    -0.977626773448E+02   -0.68769E-03   -0.81592E-03   132   0.274E-01    0.672E-02
DAV:   3    -0.977626460644E+02    0.31280E-04   -0.14112E-04   132   0.426E-02    0.352E-02
DAV:   4    -0.977626371389E+02    0.89255E-05   -0.47575E-05   120   0.281E-02    0.722E-03
DAV:   5    -0.977626369786E+02    0.16032E-06   -0.11885E-05   132   0.130E-02    0.467E-03
DAV:   6    -0.977626406245E+02   -0.36459E-05   -0.25586E-06   132   0.529E-03    0.251E-03
DAV:   7    -0.977626470242E+02   -0.63996E-05   -0.54251E-07   108   0.251E-03    0.115E-03
DAV:   8    -0.977626552432E+02   -0.82190E-05   -0.61097E-07   108   0.200E-03    0.622E-04
DAV:   9    -0.977626637816E+02   -0.85384E-05   -0.56333E-07   108   0.174E-03    0.398E-04
DAV:  10    -0.977626703368E+02   -0.65552E-05   -0.48056E-07   108   0.140E-03    0.209E-04
DAV:  11    -0.977626727189E+02   -0.23821E-05   -0.57863E-08   108   0.666E-04    0.133E-04
DAV:  12    -0.977626749184E+02   -0.21995E-05   -0.80880E-08    96   0.574E-04    0.799E-05
DAV:  13    -0.977626757862E+02   -0.86778E-06   -0.15780E-08   108   0.297E-04
  18 F= -.97762676E+02 E0= -.97762676E+02  d E =-.124139E-10
       N       E                     dE             d eps       ncg     rms          rms(c)
DAV:   1    -0.977606028093E+02    0.20721E-02   -0.38976E-01    96   0.170E+00    0.202E-01
DAV:   2    -0.977620646091E+02   -0.14618E-02   -0.18260E-02   132   0.392E-01    0.124E-01
DAV:   3    -0.977619207280E+02    0.14388E-03   -0.29826E-04   132   0.647E-02    0.616E-02
DAV:   4    -0.977618729390E+02    0.47789E-04   -0.15201E-04   120   0.452E-02    0.114E-02
DAV:   5    -0.977618616772E+02    0.11262E-04   -0.25523E-05   132   0.189E-02    0.702E-03
DAV:   6    -0.977618660601E+02   -0.43829E-05   -0.86692E-06   132   0.798E-03    0.384E-03
DAV:   7    -0.977618822791E+02   -0.16219E-04   -0.15889E-06   108   0.382E-03    0.186E-03
DAV:   8    -0.977619071816E+02   -0.24903E-04   -0.15835E-06   120   0.295E-03    0.112E-03
DAV:   9    -0.977619297235E+02   -0.22542E-04   -0.12115E-06    96   0.218E-03    0.799E-04
DAV:  10    -0.977619498094E+02   -0.20086E-04   -0.11028E-06   120   0.195E-03    0.373E-04
DAV:  11    -0.977619568941E+02   -0.70847E-05   -0.12760E-07   108   0.886E-04    0.239E-04
DAV:  12    -0.977619639724E+02   -0.70783E-05   -0.22235E-07    96   0.931E-04    0.130E-04
DAV:  13    -0.977619656910E+02   -0.17186E-05   -0.21601E-08   108   0.407E-04    0.837E-05
DAV:  14    -0.977619671384E+02   -0.14474E-05   -0.10391E-08    84   0.292E-04    0.412E-05
DAV:  15    -0.977619677090E+02   -0.57058E-06    0.30287E-10    96   0.171E-04
  19 F= -.97761968E+02 E0= -.97761968E+02  d E =-.637788E-11
       N       E                     dE             d eps       ncg     rms          rms(c)
DAV:   1    -0.977612220401E+02    0.74510E-03   -0.19368E-01    96   0.135E+00    0.149E-01
DAV:   2    -0.977623281592E+02   -0.11061E-02   -0.13435E-02   108   0.364E-01    0.908E-02
DAV:   3    -0.977622657740E+02    0.62385E-04   -0.18961E-04   132   0.484E-02    0.520E-02
DAV:   4    -0.977622290943E+02    0.36680E-04   -0.89177E-05   132   0.347E-02    0.882E-03
DAV:   5    -0.977622199955E+02    0.90988E-05   -0.15529E-05   132   0.149E-02    0.525E-03
DAV:   6    -0.977622238218E+02   -0.38263E-05   -0.54820E-06   132   0.738E-03    0.278E-03
DAV:   7    -0.977622373665E+02   -0.13545E-04   -0.17307E-06   132   0.407E-03    0.141E-03
DAV:   8    -0.977622575641E+02   -0.20198E-04   -0.13944E-06   120   0.266E-03    0.788E-04
DAV:   9    -0.977622730969E+02   -0.15533E-04   -0.99694E-07   108   0.204E-03    0.590E-04
DAV:  10    -0.977622875358E+02   -0.14439E-04   -0.10102E-06   108   0.191E-03    0.313E-04
DAV:  11    -0.977622917837E+02   -0.42479E-05   -0.10561E-07   108   0.756E-04    0.187E-04
DAV:  12    -0.977622956897E+02   -0.39060E-05   -0.14169E-07    84   0.771E-04    0.134E-04
DAV:  13    -0.977622966045E+02   -0.91475E-06   -0.13911E-08   108   0.349E-04
  20 F= -.97762297E+02 E0= -.97762297E+02  d E =-.854547E-11
       N       E                     dE             d eps       ncg     rms          rms(c)
DAV:   1    -0.977608291188E+02    0.14666E-02   -0.40804E-01   120   0.184E+00    0.200E-01
DAV:   2    -0.977622512129E+02   -0.14221E-02   -0.17657E-02   120   0.427E-01    0.120E-01
DAV:   3    -0.977621445374E+02    0.10668E-03   -0.26571E-04   132   0.574E-02    0.612E-02
DAV:   4    -0.977620849003E+02    0.59637E-04   -0.11856E-04   132   0.423E-02    0.105E-02
DAV:   5    -0.977620836262E+02    0.12741E-05   -0.27999E-05   132   0.194E-02    0.663E-03
DAV:   6    -0.977620979549E+02   -0.14329E-04   -0.10457E-05   132   0.925E-03    0.378E-03
DAV:   7    -0.977621210536E+02   -0.23099E-04   -0.15607E-06   120   0.408E-03    0.214E-03
DAV:   8    -0.977621608421E+02   -0.39788E-04   -0.44749E-06   120   0.471E-03    0.111E-03
DAV:   9    -0.977621820027E+02   -0.21161E-04   -0.15664E-06   120   0.285E-03    0.788E-04
DAV:  10    -0.977622018357E+02   -0.19833E-04   -0.16301E-06    96   0.257E-03    0.330E-04
DAV:  11    -0.977622097531E+02   -0.79174E-05   -0.33847E-07    96   0.130E-03    0.305E-04
DAV:  12    -0.977622154181E+02   -0.56651E-05   -0.27682E-07    84   0.104E-03    0.124E-04
DAV:  13    -0.977622168770E+02   -0.14589E-05   -0.42248E-08   108   0.447E-04    0.921E-05
DAV:  14    -0.977622182039E+02   -0.13269E-05   -0.15162E-08    96   0.333E-04    0.467E-05
DAV:  15    -0.977622187017E+02   -0.49779E-06   -0.31612E-09   108   0.205E-04
  21 F= -.97762219E+02 E0= -.97762219E+02  d E =-.106878E-10
       N       E                     dE             d eps       ncg     rms          rms(c)
DAV:   1    -0.977619220457E+02    0.29616E-03   -0.20029E-01    96   0.131E+00    0.147E-01
DAV:   2    -0.977626300986E+02   -0.70805E-03   -0.88827E-03   108   0.306E-01    0.900E-02
DAV:   3    -0.977625657373E+02    0.64361E-04   -0.13380E-04   132   0.421E-02    0.451E-02
DAV:   4    -0.977625305459E+02    0.35191E-04   -0.66012E-05   132   0.301E-02    0.769E-03
DAV:   5    -0.977625275314E+02    0.30145E-05   -0.12502E-05   132   0.131E-02    0.513E-03
DAV:   6    -0.977625344728E+02   -0.69414E-05   -0.59562E-06   132   0.655E-03    0.236E-03
DAV:   7    -0.977625469193E+02   -0.12447E-04   -0.62077E-07    96   0.255E-03    0.139E-03
DAV:   8    -0.977625720256E+02   -0.25106E-04   -0.28523E-06    96   0.337E-03    0.862E-04
DAV:   9    -0.977625857453E+02   -0.13720E-04   -0.73354E-07    96   0.190E-03    0.444E-04
DAV:  10    -0.977625979210E+02   -0.12176E-04   -0.10197E-06    96   0.178E-03    0.320E-04
DAV:  11    -0.977626034435E+02   -0.55225E-05   -0.20234E-07    96   0.947E-04    0.173E-04
DAV:  12    -0.977626055611E+02   -0.21176E-05   -0.59889E-08   108   0.521E-04    0.926E-05
DAV:  13    -0.977626068451E+02   -0.12840E-05   -0.13993E-08    84   0.314E-04    0.570E-05
DAV:  14    -0.977626076003E+02   -0.75512E-06   -0.52908E-09    96   0.229E-04
  22 F= -.97762608E+02 E0= -.97762608E+02  d E =-.863749E-11
       N       E                     dE             d eps       ncg     rms          rms(c)
DAV:   1    -0.977614249660E+02    0.11819E-02   -0.39931E-01    96   0.183E+00    0.190E-01
DAV:   2    -0.977628964774E+02   -0.14715E-02   -0.18102E-02   108   0.423E-01    0.108E-01
DAV:   3    -0.977628271443E+02    0.69333E-04   -0.29278E-04   132   0.600E-02    0.564E-02
DAV:   4    -0.977627837427E+02    0.43402E-04   -0.93340E-05   132   0.395E-02    0.101E-02
DAV:   5    -0.977627745918E+02    0.91509E-05   -0.22644E-05   132   0.183E-02    0.718E-03
DAV:   6    -0.977627773223E+02   -0.27305E-05   -0.71177E-06   132   0.832E-03    0.386E-03
DAV:   7    -0.977627881853E+02   -0.10863E-04   -0.11813E-06   108   0.440E-03    0.197E-03
DAV:   8    -0.977628104751E+02   -0.22290E-04   -0.22068E-06    96   0.437E-03    0.131E-03
DAV:   9    -0.977628284268E+02   -0.17952E-04   -0.10736E-06    96   0.290E-03    0.867E-04
DAV:  10    -0.977628432507E+02   -0.14824E-04   -0.78314E-07    96   0.199E-03    0.390E-04
DAV:  11    -0.977628522206E+02   -0.89700E-05   -0.27592E-07   108   0.113E-03    0.313E-04
DAV:  12    -0.977628575387E+02   -0.53181E-05   -0.12225E-07   108   0.747E-04    0.185E-04
DAV:  13    -0.977628601647E+02   -0.26260E-05   -0.43496E-08    96   0.450E-04    0.769E-05
DAV:  14    -0.977628617410E+02   -0.15764E-05   -0.14182E-08   108   0.305E-04    0.689E-05
DAV:  15    -0.977628623485E+02   -0.60744E-06   -0.10982E-09    84   0.182E-04
  23 F= -.97762862E+02 E0= -.97762862E+02  d E =-.840807E-11
       N       E                     dE             d eps       ncg     rms          rms(c)
DAV:   1    -0.977620603895E+02    0.80135E-03   -0.20046E-01   108   0.131E+00    0.136E-01
DAV:   2    -0.977627800687E+02   -0.71968E-03   -0.90983E-03   108   0.300E-01    0.820E-02
DAV:   3    -0.977627222479E+02    0.57821E-04   -0.12197E-04   132   0.378E-02    0.419E-02
DAV:   4    -0.977626773588E+02    0.44889E-04   -0.42422E-05   132   0.236E-02    0.734E-03
DAV:   5    -0.977626755484E+02    0.18104E-05   -0.64927E-06   132   0.107E-02    0.413E-03
DAV:   6    -0.977626894249E+02   -0.13877E-04   -0.56117E-06   132   0.831E-03    0.215E-03
DAV:   7    -0.977627069717E+02   -0.17547E-04   -0.25491E-06   132   0.500E-03    0.167E-03
DAV:   8    -0.977627262850E+02   -0.19313E-04   -0.11847E-06   120   0.253E-03    0.816E-04
DAV:   9    -0.977627463466E+02   -0.20062E-04   -0.20471E-06    96   0.296E-03    0.642E-04
DAV:  10    -0.977627598581E+02   -0.13512E-04   -0.13226E-06   120   0.227E-03    0.249E-04
DAV:  11    -0.977627633155E+02   -0.34573E-05   -0.13077E-07   108   0.896E-04    0.232E-04
DAV:  12    -0.977627660456E+02   -0.27301E-05   -0.10086E-07   108   0.669E-04    0.102E-04
DAV:  13    -0.977627673168E+02   -0.12712E-05   -0.34899E-08   108   0.386E-04    0.627E-05
DAV:  14    -0.977627680180E+02   -0.70114E-06   -0.50191E-09   108   0.241E-04
  24 F= -.97762768E+02 E0= -.97762768E+02  d E =-.650076E-11
       N       E                     dE             d eps       ncg     rms          rms(c)
DAV:   1    -0.977619314356E+02    0.83588E-03   -0.40691E-01   120   0.183E+00    0.181E-01
DAV:   2    -0.977632682717E+02   -0.13368E-02   -0.16559E-02   120   0.397E-01    0.984E-02
DAV:   3    -0.977632115926E+02    0.56679E-04   -0.30175E-04   144   0.588E-02    0.508E-02
DAV:   4    -0.977631656796E+02    0.45913E-04   -0.70166E-05   132   0.357E-02    0.942E-03
DAV:   5    -0.977631574751E+02    0.82045E-05   -0.20001E-05   132   0.176E-02    0.649E-03
DAV:   6    -0.977631607405E+02   -0.32654E-05   -0.57560E-06   132   0.836E-03    0.362E-03
DAV:   7    -0.977631721627E+02   -0.11422E-04   -0.13203E-06   120   0.490E-03    0.182E-03
DAV:   8    -0.977631924548E+02   -0.20292E-04   -0.15102E-06   120   0.426E-03    0.118E-03
DAV:   9    -0.977632132637E+02   -0.20809E-04   -0.15394E-06   120   0.340E-03    0.823E-04
DAV:  10    -0.977632276330E+02   -0.14369E-04   -0.60935E-07   108   0.205E-03    0.434E-04
DAV:  11    -0.977632352979E+02   -0.76649E-05   -0.23338E-07   108   0.106E-03    0.289E-04
DAV:  12    -0.977632412489E+02   -0.59510E-05   -0.16180E-07   108   0.809E-04    0.195E-04
DAV:  13    -0.977632440596E+02   -0.28107E-05   -0.50243E-08   108   0.485E-04    0.895E-05
DAV:  14    -0.977632458719E+02   -0.18123E-05   -0.23135E-08   108   0.334E-04    0.675E-05
DAV:  15    -0.977632464701E+02   -0.59817E-06   -0.63412E-10   108   0.189E-04
  25 F= -.97763246E+02 E0= -.97763246E+02  d E =-.142307E-10
       N       E                     dE             d eps       ncg     rms          rms(c)
DAV:   1    -0.977611286899E+02    0.21172E-02   -0.19975E-01   120   0.134E+00    0.141E-01
DAV:   2    -0.977621666771E+02   -0.10380E-02   -0.12771E-02   120   0.350E-01    0.830E-02
DAV:   3    -0.977621305524E+02    0.36125E-04   -0.18769E-04   132   0.444E-02    0.485E-02
DAV:   4    -0.977620940501E+02    0.36502E-04   -0.61178E-05   132   0.305E-02    0.805E-03
DAV:   5    -0.977620884006E+02    0.56494E-05   -0.14787E-05   132   0.140E-02    0.506E-03
DAV:   6    -0.977620924042E+02   -0.40036E-05   -0.48063E-06   132   0.784E-03    0.254E-03
DAV:   7    -0.977621039910E+02   -0.11587E-04   -0.15787E-06    96   0.465E-03    0.150E-03
DAV:   8    -0.977621249446E+02   -0.20954E-04   -0.14191E-06   108   0.348E-03    0.728E-04
DAV:   9    -0.977621396870E+02   -0.14742E-04   -0.10447E-06    96   0.260E-03    0.589E-04
DAV:  10    -0.977621525243E+02   -0.12837E-04   -0.65926E-07    96   0.183E-03    0.263E-04
DAV:  11    -0.977621578146E+02   -0.52903E-05   -0.29125E-07   108   0.102E-03    0.239E-04
DAV:  12    -0.977621619771E+02   -0.41625E-05   -0.13097E-07    96   0.754E-04    0.920E-05
DAV:  13    -0.977621638371E+02   -0.18600E-05   -0.55537E-08    96   0.486E-04    0.700E-05
DAV:  14    -0.977621647157E+02   -0.87862E-06   -0.92799E-09    96   0.255E-04
  26 F= -.97762165E+02 E0= -.97762165E+02  d E =-.814948E-11
       N       E                     dE             d eps       ncg     rms          rms(c)
DAV:   1    -0.977607478049E+02    0.14160E-02   -0.40869E-01   120   0.186E+00    0.203E-01
DAV:   2    -0.977621576402E+02   -0.14098E-02   -0.17540E-02   132   0.430E-01    0.122E-01
DAV:   3    -0.977620447276E+02    0.11291E-03   -0.26735E-04   132   0.577E-02    0.617E-02
DAV:   4    -0.977619842442E+02    0.60483E-04   -0.12060E-04   132   0.422E-02    0.106E-02
DAV:   5    -0.977619821964E+02    0.20478E-05   -0.28048E-05   132   0.193E-02    0.660E-03
DAV:   6    -0.977619965178E+02   -0.14321E-04   -0.10717E-05   132   0.924E-03    0.378E-03
DAV:   7    -0.977620198763E+02   -0.23359E-04   -0.13298E-06   108   0.377E-03    0.209E-03
DAV:   8    -0.977620604328E+02   -0.40557E-04   -0.50650E-06   132   0.476E-03    0.115E-03
DAV:   9    -0.977620826751E+02   -0.22242E-04   -0.16097E-06   120   0.287E-03    0.760E-04
DAV:  10    -0.977621022271E+02   -0.19552E-04   -0.15193E-06   108   0.247E-03    0.346E-04
DAV:  11    -0.977621098721E+02   -0.76450E-05   -0.27458E-07   108   0.118E-03    0.294E-04
DAV:  12    -0.977621159625E+02   -0.60903E-05   -0.28450E-07    84   0.104E-03    0.132E-04
DAV:  13    -0.977621176839E+02   -0.17214E-05   -0.47584E-08   108   0.459E-04    0.971E-05
DAV:  14    -0.977621192115E+02   -0.15276E-05   -0.17150E-08    96   0.338E-04    0.484E-05
DAV:  15    -0.977621197189E+02   -0.50736E-06   -0.27244E-09   108   0.197E-04
  27 F= -.97762120E+02 E0= -.97762120E+02  d E =-.107032E-10
       N       E                     dE             d eps       ncg     rms          rms(c)
DAV:   1    -0.977620487122E+02    0.70499E-04   -0.20394E-01   120   0.133E+00    0.131E-01
DAV:   2    -0.977627231605E+02   -0.67445E-03   -0.84255E-03   132   0.282E-01    0.736E-02
DAV:   3    -0.977626854776E+02    0.37683E-04   -0.13503E-04   132   0.390E-02    0.366E-02
DAV:   4    -0.977626568641E+02    0.28614E-04   -0.35773E-05   132   0.241E-02    0.682E-03
DAV:   5    -0.977626504546E+02    0.64095E-05   -0.85350E-06   132   0.117E-02    0.397E-03
DAV:   6    -0.977626526053E+02   -0.21506E-05   -0.36870E-06   132   0.681E-03    0.215E-03
DAV:   7    -0.977626601656E+02   -0.75604E-05   -0.97914E-07   108   0.394E-03    0.135E-03
DAV:   8    -0.977626731832E+02   -0.13018E-04   -0.95107E-07   120   0.280E-03    0.733E-04
DAV:   9    -0.977626850848E+02   -0.11902E-04   -0.64104E-07   108   0.212E-03    0.537E-04
DAV:  10    -0.977626962449E+02   -0.11160E-04   -0.55916E-07   108   0.158E-03    0.240E-04
DAV:  11    -0.977627020369E+02   -0.57920E-05   -0.17577E-07   108   0.845E-04    0.212E-04
DAV:  12    -0.977627054117E+02   -0.33747E-05   -0.46385E-08   108   0.498E-04    0.796E-05
DAV:  13    -0.977627073446E+02   -0.19329E-05   -0.34494E-08    84   0.377E-04    0.587E-05
DAV:  14    -0.977627082991E+02   -0.95450E-06   -0.31929E-09   108   0.220E-04
  28 F= -.97762708E+02 E0= -.97762708E+02  d E =-.915103E-11
       N       E                     dE             d eps       ncg     rms          rms(c)
DAV:   1    -0.977608563725E+02    0.18510E-02   -0.39967E-01    96   0.184E+00    0.191E-01
DAV:   2    -0.977623501313E+02   -0.14938E-02   -0.18651E-02   108   0.430E-01    0.114E-01
DAV:   3    -0.977622550753E+02    0.95056E-04   -0.25877E-04   132   0.555E-02    0.607E-02
DAV:   4    -0.977621799768E+02    0.75098E-04   -0.91757E-05   132   0.363E-02    0.105E-02
DAV:   5    -0.977621781180E+02    0.18588E-05   -0.16257E-05   132   0.164E-02    0.659E-03
DAV:   6    -0.977621995343E+02   -0.21416E-04   -0.94995E-06   132   0.106E-02    0.316E-03
DAV:   7    -0.977622277983E+02   -0.28264E-04   -0.43213E-06   132   0.664E-03    0.231E-03
DAV:   8    -0.977622641927E+02   -0.36394E-04   -0.28655E-06   120   0.411E-03    0.107E-03
DAV:   9    -0.977622932961E+02   -0.29103E-04   -0.30719E-06    96   0.390E-03    0.931E-04
DAV:  10    -0.977623160349E+02   -0.22739E-04   -0.24736E-06   120   0.322E-03    0.338E-04
DAV:  11    -0.977623217957E+02   -0.57608E-05   -0.24514E-07   108   0.127E-03    0.346E-04
DAV:  12    -0.977623257810E+02   -0.39853E-05   -0.14501E-07   108   0.816E-04    0.149E-04
DAV:  13    -0.977623278557E+02   -0.20747E-05   -0.64716E-08    96   0.520E-04    0.798E-05
DAV:  14    -0.977623288738E+02   -0.10181E-05   -0.95386E-09   108   0.293E-04    0.484E-05
DAV:  15    -0.977623293675E+02   -0.49377E-06   -0.21863E-09    96   0.195E-04
  29 F= -.97762329E+02 E0= -.97762329E+02  d E =-.780728E-11
       N       E                     dE             d eps       ncg     rms          rms(c)
DAV:   1    -0.977624975296E+02   -0.16866E-03   -0.20199E-01    96   0.126E+00    0.127E-01
DAV:   2    -0.977631854270E+02   -0.68790E-03   -0.83216E-03   108   0.284E-01    0.669E-02
DAV:   3    -0.977631642310E+02    0.21196E-04   -0.14166E-04   132   0.423E-02    0.359E-02
DAV:   4    -0.977631498887E+02    0.14342E-04   -0.39913E-05   132   0.292E-02    0.641E-03
DAV:   5    -0.977631475691E+02    0.23196E-05   -0.14834E-05   132   0.142E-02    0.544E-03
DAV:   6    -0.977631482163E+02   -0.64719E-06   -0.20613E-06   120   0.461E-03
  30 F= -.97763148E+02 E0= -.97763148E+02  d E =-.698922E-11
       N       E                     dE             d eps       ncg     rms          rms(c)
DAV:   1    -0.977621791711E+02    0.96840E-03   -0.40945E-01    96   0.179E+00    0.176E-01
DAV:   2    -0.977634851407E+02   -0.13060E-02   -0.15791E-02   132   0.382E-01    0.895E-02
DAV:   3    -0.977634582363E+02    0.26904E-04   -0.28602E-04   132   0.598E-02    0.470E-02
DAV:   4    -0.977634411416E+02    0.17095E-04   -0.72529E-05   132   0.390E-02    0.897E-03
DAV:   5    -0.977634397431E+02    0.13985E-05   -0.26023E-05   132   0.191E-02    0.736E-03
DAV:   6    -0.977634423909E+02   -0.26478E-05   -0.36046E-06   132   0.615E-03    0.472E-03
DAV:   7    -0.977634496229E+02   -0.72320E-05   -0.76850E-07   108   0.394E-03    0.185E-03
DAV:   8    -0.977634610968E+02   -0.11474E-04   -0.15612E-06   120   0.431E-03    0.143E-03
DAV:   9    -0.977634768957E+02   -0.15799E-04   -0.11287E-06    84   0.345E-03    0.707E-04
DAV:  10    -0.977634834719E+02   -0.65761E-05   -0.47456E-07   108   0.193E-03    0.673E-04
DAV:  11    -0.977634868722E+02   -0.34003E-05   -0.55144E-08   108   0.815E-04    0.384E-04
DAV:  12    -0.977634939074E+02   -0.70353E-05   -0.29862E-07    96   0.121E-03    0.354E-04
DAV:  13    -0.977634953069E+02   -0.13995E-05   -0.38666E-08   108   0.524E-04    0.296E-04
DAV:  14    -0.977634968903E+02   -0.15834E-05   -0.24525E-08    96   0.418E-04    0.822E-05
DAV:  15    -0.977634977479E+02   -0.85751E-06   -0.90057E-09   108   0.267E-04
  31 F= -.97763498E+02 E0= -.97763498E+02  d E =-.144378E-10
       N       E                     dE             d eps       ncg     rms          rms(c)
DAV:   1    -0.977617748160E+02    0.17221E-02   -0.19628E-01    96   0.134E+00    0.137E-01
DAV:   2    -0.977628128030E+02   -0.10380E-02   -0.12560E-02   132   0.329E-01    0.761E-02
DAV:   3    -0.977627737638E+02    0.39039E-04   -0.21149E-04   144   0.492E-02    0.424E-02
DAV:   4    -0.977627429849E+02    0.30779E-04   -0.49786E-05   132   0.308E-02    0.863E-03
DAV:   5    -0.977627359719E+02    0.70130E-05   -0.18660E-05   132   0.162E-02    0.544E-03
DAV:   6    -0.977627391285E+02   -0.31566E-05   -0.31975E-06   132   0.605E-03    0.348E-03
DAV:   7    -0.977627497320E+02   -0.10604E-04   -0.11004E-06   120   0.368E-03    0.136E-03
DAV:   8    -0.977627624869E+02   -0.12755E-04   -0.98451E-07   108   0.301E-03    0.940E-04
DAV:   9    -0.977627795164E+02   -0.17029E-04   -0.14077E-06   108   0.288E-03    0.506E-04
DAV:  10    -0.977627872904E+02   -0.77740E-05   -0.46174E-07   108   0.171E-03    0.366E-04
DAV:  11    -0.977627924026E+02   -0.51122E-05   -0.23282E-07   108   0.106E-03    0.194E-04
DAV:  12    -0.977627951772E+02   -0.27746E-05   -0.10342E-07    96   0.654E-04    0.141E-04
DAV:  13    -0.977627967629E+02   -0.15857E-05   -0.40048E-08    96   0.429E-04    0.755E-05
DAV:  14    -0.977627974564E+02   -0.69351E-06   -0.10605E-08   108   0.245E-04
  32 F= -.97762797E+02 E0= -.97762797E+02  d E =-.120041E-10
       N       E                     dE             d eps       ncg     rms          rms(c)
DAV:   1    -0.977608172798E+02    0.19795E-02   -0.38907E-01    96   0.167E+00    0.191E-01
DAV:   2    -0.977623931583E+02   -0.15759E-02   -0.19325E-02   132   0.395E-01    0.119E-01
DAV:   3    -0.977622673412E+02    0.12582E-03   -0.30291E-04   132   0.646E-02    0.610E-02
DAV:   4    -0.977622190022E+02    0.48339E-04   -0.14448E-04   132   0.450E-02    0.113E-02
DAV:   5    -0.977622082348E+02    0.10767E-04   -0.29852E-05   132   0.201E-02    0.721E-03
DAV:   6    -0.977622113104E+02   -0.30756E-05   -0.77921E-06   132   0.790E-03    0.406E-03
DAV:   7    -0.977622258965E+02   -0.14586E-04   -0.15328E-06   132   0.378E-03    0.185E-03
DAV:   8    -0.977622478362E+02   -0.21940E-04   -0.13840E-06    96   0.292E-03    0.110E-03
DAV:   9    -0.977622684518E+02   -0.20616E-04   -0.10737E-06   120   0.218E-03    0.775E-04
DAV:  10    -0.977622880770E+02   -0.19625E-04   -0.11874E-06    96   0.205E-03    0.376E-04
DAV:  11    -0.977622935060E+02   -0.54291E-05   -0.84342E-08   108   0.826E-04    0.244E-04
DAV:  12    -0.977623009113E+02   -0.74052E-05   -0.23194E-07    84   0.971E-04    0.128E-04
DAV:  13    -0.977623028675E+02   -0.19562E-05   -0.31541E-08   108   0.434E-04    0.865E-05
DAV:  14    -0.977623044335E+02   -0.15660E-05   -0.11228E-08    84   0.301E-04    0.438E-05
DAV:  15    -0.977623050093E+02   -0.57585E-06    0.22366E-10    96   0.169E-04
  33 F= -.97762305E+02 E0= -.97762305E+02  d E =-.674867E-11
       N       E                     dE             d eps       ncg     rms          rms(c)
DAV:   1    -0.977629855196E+02   -0.68109E-03   -0.19676E-01    96   0.122E+00    0.134E-01
DAV:   2    -0.977637355783E+02   -0.75006E-03   -0.91247E-03   120   0.289E-01    0.758E-02
DAV:   3    -0.977636848449E+02    0.50733E-04   -0.16032E-04   132   0.467E-02    0.394E-02
DAV:   4    -0.977636620051E+02    0.22840E-04   -0.61460E-05   132   0.309E-02    0.749E-03
DAV:   5    -0.977636586496E+02    0.33555E-05   -0.13003E-05   132   0.136E-02    0.497E-03
DAV:   6    -0.977636619918E+02   -0.33422E-05   -0.35009E-06   132   0.595E-03    0.250E-03
DAV:   7    -0.977636700196E+02   -0.80278E-05   -0.76061E-07   108   0.299E-03    0.124E-03
DAV:   8    -0.977636815656E+02   -0.11546E-04   -0.88355E-07   120   0.229E-03    0.682E-04
DAV:   9    -0.977636922289E+02   -0.10663E-04   -0.68282E-07   108   0.193E-03    0.488E-04
DAV:  10    -0.977637014887E+02   -0.92598E-05   -0.87232E-07   120   0.174E-03    0.223E-04
DAV:  11    -0.977637043991E+02   -0.29105E-05   -0.88638E-08   108   0.764E-04    0.179E-04
DAV:  12    -0.977637065225E+02   -0.21234E-05   -0.54634E-08   108   0.549E-04    0.916E-05
DAV:  13    -0.977637078651E+02   -0.13426E-05   -0.41642E-08   108   0.429E-04    0.569E-05
DAV:  14    -0.977637084486E+02   -0.58348E-06   -0.19580E-09   108   0.204E-04
  34 F= -.97763708E+02 E0= -.97763708E+02  d E =-.129983E-10
       N       E                     dE             d eps       ncg     rms          rms(c)
DAV:   1    -0.977624247986E+02    0.12831E-02   -0.40138E-01    96   0.172E+00    0.170E-01
DAV:   2    -0.977636337638E+02   -0.12090E-02   -0.14396E-02   132   0.357E-01    0.793E-02
DAV:   3    -0.977635848153E+02    0.48948E-04   -0.28431E-04   132   0.610E-02    0.394E-02
DAV:   4    -0.977635685456E+02    0.16270E-04   -0.72194E-05   132   0.370E-02    0.101E-02
DAV:   5    -0.977635652802E+02    0.32654E-05   -0.20352E-05   144   0.176E-02    0.618E-03
DAV:   6    -0.977635666524E+02   -0.13722E-05   -0.43321E-06   132   0.737E-03    0.321E-03
DAV:   7    -0.977635705759E+02   -0.39235E-05   -0.47245E-07   108   0.290E-03    0.145E-03
DAV:   8    -0.977635765456E+02   -0.59696E-05   -0.44020E-07   108   0.266E-03    0.732E-04
DAV:   9    -0.977635847299E+02   -0.81843E-05   -0.59471E-07   108   0.256E-03    0.404E-04
DAV:  10    -0.977635908418E+02   -0.61120E-05   -0.48044E-07   108   0.191E-03    0.301E-04
DAV:  11    -0.977635941800E+02   -0.33382E-05   -0.92869E-08   108   0.105E-03    0.167E-04
DAV:  12    -0.977635964817E+02   -0.23016E-05   -0.66425E-08   108   0.600E-04    0.122E-04
DAV:  13    -0.977635976589E+02   -0.11772E-05   -0.19508E-08   108   0.324E-04    0.669E-05
DAV:  14    -0.977635986001E+02   -0.94112E-06   -0.14768E-08   108   0.270E-04
  35 F= -.97763599E+02 E0= -.97763599E+02  d E =-.112826E-10
       N       E                     dE             d eps       ncg     rms          rms(c)
DAV:   1    -0.977625570639E+02    0.10406E-02   -0.20163E-01    96   0.124E+00    0.127E-01
DAV:   2    -0.977631432265E+02   -0.58616E-03   -0.70360E-03   108   0.247E-01    0.576E-02
DAV:   3    -0.977631173129E+02    0.25914E-04   -0.14561E-04   132   0.427E-02    0.288E-02
DAV:   4    -0.977631090885E+02    0.82245E-05   -0.36164E-05   132   0.256E-02    0.755E-03
DAV:   5    -0.977631073291E+02    0.17594E-05   -0.94501E-06   144   0.121E-02    0.440E-03
DAV:   6    -0.977631079738E+02   -0.64468E-06   -0.19855E-06   120   0.525E-03
  36 F= -.97763108E+02 E0= -.97763108E+02  d E =-.807031E-11
       N       E                     dE             d eps       ncg     rms          rms(c)
DAV:   1    -0.977622236961E+02    0.88363E-03   -0.40016E-01    96   0.172E+00    0.214E-01
DAV:   2    -0.977634879090E+02   -0.12642E-02   -0.15262E-02   132   0.370E-01    0.928E-02
DAV:   3    -0.977634255834E+02    0.62326E-04   -0.28255E-04   132   0.597E-02    0.478E-02
DAV:   4    -0.977634064088E+02    0.19175E-04   -0.92800E-05   108   0.371E-02    0.113E-02
DAV:   5    -0.977634007002E+02    0.57085E-05   -0.19599E-05   132   0.165E-02    0.631E-03
DAV:   6    -0.977634018207E+02   -0.11205E-05   -0.39621E-06   120   0.666E-03    0.320E-03
DAV:   7    -0.977634075788E+02   -0.57581E-05   -0.64423E-07   108   0.301E-03    0.133E-03
DAV:   8    -0.977634153969E+02   -0.78181E-05   -0.62912E-07   120   0.241E-03    0.736E-04
DAV:   9    -0.977634246346E+02   -0.92377E-05   -0.57642E-07    84   0.214E-03    0.437E-04
DAV:  10    -0.977634314716E+02   -0.68370E-05   -0.56224E-07   120   0.166E-03    0.270E-04
DAV:  11    -0.977634342460E+02   -0.27744E-05   -0.71506E-08   108   0.805E-04    0.188E-04
DAV:  12    -0.977634364627E+02   -0.22167E-05   -0.59821E-08    84   0.551E-04    0.114E-04
DAV:  13    -0.977634380270E+02   -0.15643E-05   -0.40793E-08    84   0.413E-04    0.763E-05
DAV:  14    -0.977634387122E+02   -0.68515E-06   -0.53172E-09   108   0.218E-04
  37 F= -.97763439E+02 E0= -.97763439E+02  d E =-.102132E-10
       N       E                     dE             d eps       ncg     rms          rms(c)
DAV:   1    -0.977622354445E+02    0.12026E-02   -0.19919E-01    96   0.130E+00    0.148E-01
DAV:   2    -0.977631742518E+02   -0.93881E-03   -0.11215E-02   108   0.311E-01    0.691E-02
DAV:   3    -0.977631336149E+02    0.40637E-04   -0.21365E-04   144   0.525E-02    0.375E-02
DAV:   4    -0.977631164394E+02    0.17175E-04   -0.57469E-05   132   0.308E-02    0.928E-03
DAV:   5    -0.977631127980E+02    0.36414E-05   -0.15739E-05   132   0.150E-02    0.547E-03
DAV:   6    -0.977631137141E+02   -0.91607E-06   -0.26891E-06   132   0.584E-03
  38 F= -.97763114E+02 E0= -.97763114E+02  d E =-.126570E-10
       N       E                     dE             d eps       ncg     rms          rms(c)
DAV:   1    -0.977618655864E+02    0.12472E-02   -0.40559E-01    96   0.174E+00    0.189E-01
DAV:   2    -0.977633159449E+02   -0.14504E-02   -0.17133E-02   132   0.384E-01    0.972E-02
DAV:   3    -0.977632568717E+02    0.59073E-04   -0.30523E-04   108   0.627E-02    0.512E-02
DAV:   4    -0.977632293479E+02    0.27524E-04   -0.10492E-04   132   0.414E-02    0.110E-02
DAV:   5    -0.977632232017E+02    0.61462E-05   -0.25672E-05   132   0.191E-02    0.686E-03
DAV:   6    -0.977632250627E+02   -0.18610E-05   -0.49279E-06   132   0.732E-03    0.377E-03
DAV:   7    -0.977632319328E+02   -0.68701E-05   -0.82585E-07   108   0.320E-03    0.164E-03
DAV:   8    -0.977632410967E+02   -0.91639E-05   -0.76186E-07   120   0.253E-03    0.824E-04
DAV:   9    -0.977632528893E+02   -0.11793E-04   -0.84478E-07   120   0.238E-03    0.505E-04
DAV:  10    -0.977632620482E+02   -0.91589E-05   -0.73475E-07   120   0.192E-03    0.299E-04
DAV:  11    -0.977632655942E+02   -0.35460E-05   -0.10253E-07   108   0.939E-04    0.186E-04
DAV:  12    -0.977632685686E+02   -0.29743E-05   -0.10599E-07   108   0.683E-04    0.115E-04
DAV:  13    -0.977632701977E+02   -0.16291E-05   -0.42507E-08   108   0.423E-04    0.720E-05
DAV:  14    -0.977632711070E+02   -0.90926E-06   -0.10616E-08   108   0.255E-04
  39 F= -.97763271E+02 E0= -.97763271E+02  d E =-.813948E-11
       N       E                     dE             d eps       ncg     rms          rms(c)
DAV:   1    -0.977623517100E+02    0.91849E-03   -0.20351E-01    96   0.121E+00    0.144E-01
DAV:   2    -0.977629528961E+02   -0.60119E-03   -0.73007E-03   108   0.254E-01    0.590E-02
DAV:   3    -0.977629249803E+02    0.27916E-04   -0.14525E-04   132   0.425E-02    0.303E-02
DAV:   4    -0.977629153244E+02    0.96559E-05   -0.37407E-05   132   0.250E-02    0.790E-03
DAV:   5    -0.977629129446E+02    0.23798E-05   -0.96373E-06   132   0.120E-02    0.444E-03
DAV:   6    -0.977629131263E+02   -0.18165E-06   -0.18857E-06   132   0.484E-03
  40 F= -.97762913E+02 E0= -.97762913E+02  d E =-.121279E-10
       N       E                     dE             d eps       ncg     rms          rms(c)
DAV:   1    -0.977609947670E+02    0.19182E-02   -0.39463E-01    96   0.172E+00    0.211E-01
DAV:   2    -0.977624178263E+02   -0.14231E-02   -0.17374E-02   132   0.388E-01    0.114E-01
DAV:   3    -0.977623078079E+02    0.11002E-03   -0.29732E-04   120   0.630E-02    0.573E-02
DAV:   4    -0.977622710430E+02    0.36765E-04   -0.13897E-04   108   0.428E-02    0.119E-02
DAV:   5    -0.977622610510E+02    0.99921E-05   -0.21623E-05   132   0.172E-02    0.677E-03
DAV:   6    -0.977622619969E+02   -0.94589E-06   -0.65030E-06   108   0.752E-03
  41 F= -.97762262E+02 E0= -.97762262E+02  d E =-.592726E-11
       N       E                     dE             d eps       ncg     rms          rms(c)
DAV:   1    -0.977630045039E+02   -0.74345E-03   -0.20079E-01    96   0.125E+00    0.149E-01
DAV:   2    -0.977636929271E+02   -0.68842E-03   -0.80621E-03   132   0.277E-01    0.686E-02
DAV:   3    -0.977636742127E+02    0.18714E-04   -0.14547E-04   132   0.441E-02    0.358E-02
DAV:   4    -0.977636823768E+02   -0.81641E-05   -0.52668E-05   108   0.284E-02    0.798E-03
DAV:   5    -0.977636844767E+02   -0.20999E-05   -0.11350E-05   132   0.127E-02    0.483E-03
DAV:   6    -0.977636860115E+02   -0.15349E-05   -0.21955E-06   132   0.510E-03    0.245E-03
DAV:   7    -0.977636883157E+02   -0.23041E-05   -0.38995E-07    84   0.247E-03    0.100E-03
DAV:   8    -0.977636907879E+02   -0.24722E-05   -0.22087E-07   108   0.172E-03    0.462E-04
DAV:   9    -0.977636936981E+02   -0.29101E-05   -0.19321E-07    84   0.143E-03    0.327E-04
DAV:  10    -0.977636963781E+02   -0.26801E-05   -0.17011E-07    96   0.111E-03    0.162E-04
DAV:  11    -0.977636975057E+02   -0.11276E-05   -0.32746E-08   108   0.574E-04    0.138E-04
DAV:  12    -0.977636987524E+02   -0.12467E-05   -0.30692E-08    96   0.428E-04    0.622E-05
DAV:  13    -0.977636993603E+02   -0.60793E-06   -0.12201E-08   108   0.265E-04
  42 F= -.97763699E+02 E0= -.97763699E+02  d E =-.167091E-10
       N       E                     dE             d eps       ncg     rms          rms(c)
DAV:   1    -0.977624374920E+02    0.12613E-02   -0.40854E-01    96   0.172E+00    0.174E-01
DAV:   2    -0.977636130446E+02   -0.11756E-02   -0.14136E-02   132   0.345E-01    0.794E-02
DAV:   3    -0.977635654331E+02    0.47612E-04   -0.28354E-04   132   0.610E-02    0.394E-02
DAV:   4    -0.977635508275E+02    0.14606E-04   -0.73376E-05   132   0.370E-02    0.104E-02
DAV:   5    -0.977635483225E+02    0.25051E-05   -0.19715E-05   132   0.174E-02    0.621E-03
DAV:   6    -0.977635502444E+02   -0.19219E-05   -0.40413E-06   132   0.701E-03    0.333E-03
DAV:   7    -0.977635545913E+02   -0.43469E-05   -0.40804E-07   108   0.270E-03    0.140E-03
DAV:   8    -0.977635605613E+02   -0.59700E-05   -0.38957E-07   108   0.248E-03    0.715E-04
DAV:   9    -0.977635701289E+02   -0.95677E-05   -0.74622E-07   108   0.288E-03    0.361E-04
DAV:  10    -0.977635752862E+02   -0.51573E-05   -0.46171E-07   108   0.185E-03    0.352E-04
DAV:  11    -0.977635768010E+02   -0.15147E-05   -0.37294E-08   108   0.757E-04    0.269E-04
DAV:  12    -0.977635795115E+02   -0.27105E-05   -0.75104E-08   108   0.749E-04    0.129E-04
DAV:  13    -0.977635807484E+02   -0.12369E-05   -0.40062E-08   108   0.456E-04    0.151E-04
DAV:  14    -0.977635815598E+02   -0.81142E-06   -0.76777E-09   108   0.295E-04
  43 F= -.97763582E+02 E0= -.97763582E+02  d E =-.836579E-11
       N       E                     dE             d eps       ncg     rms          rms(c)
DAV:   1    -0.977623750990E+02    0.12056E-02   -0.19996E-01    96   0.128E+00    0.137E-01
DAV:   2    -0.977633071350E+02   -0.93204E-03   -0.10940E-02   108   0.287E-01    0.626E-02
DAV:   3    -0.977632901845E+02    0.16950E-04   -0.19015E-04   132   0.442E-02    0.339E-02
DAV:   4    -0.977632805244E+02    0.96601E-05   -0.41977E-05   132   0.236E-02    0.866E-03
DAV:   5    -0.977632771328E+02    0.33916E-05   -0.67158E-06   132   0.101E-02    0.426E-03
DAV:   6    -0.977632775516E+02   -0.41880E-06   -0.22552E-06   120   0.558E-03
  44 F= -.97763278E+02 E0= -.97763278E+02  d E =-.127546E-10
       N       E                     dE             d eps       ncg     rms          rms(c)
DAV:   1    -0.977619723443E+02    0.13048E-02   -0.40690E-01    96   0.173E+00    0.190E-01
DAV:   2    -0.977633882522E+02   -0.14159E-02   -0.16720E-02   132   0.379E-01    0.929E-02
DAV:   3    -0.977633342233E+02    0.54029E-04   -0.30301E-04   108   0.622E-02    0.490E-02
DAV:   4    -0.977633093686E+02    0.24855E-04   -0.96383E-05   120   0.405E-02    0.110E-02
DAV:   5    -0.977633035799E+02    0.57888E-05   -0.25524E-05   132   0.192E-02    0.682E-03
DAV:   6    -0.977633049689E+02   -0.13890E-05   -0.45767E-06   132   0.724E-03    0.386E-03
DAV:   7    -0.977633106574E+02   -0.56885E-05   -0.68327E-07   108   0.299E-03    0.167E-03
DAV:   8    -0.977633184985E+02   -0.78411E-05   -0.64648E-07   120   0.251E-03    0.794E-04
DAV:   9    -0.977633288056E+02   -0.10307E-04   -0.69978E-07   120   0.234E-03    0.492E-04
DAV:  10    -0.977633368631E+02   -0.80575E-05   -0.58699E-07    96   0.190E-03    0.303E-04
DAV:  11    -0.977633398450E+02   -0.29819E-05   -0.13809E-07   108   0.101E-03    0.213E-04
DAV:  12    -0.977633426986E+02   -0.28536E-05   -0.10068E-07    96   0.703E-04    0.123E-04
DAV:  13    -0.977633441985E+02   -0.14999E-05   -0.47589E-08   108   0.445E-04    0.909E-05
DAV:  14    -0.977633452828E+02   -0.10843E-05   -0.24569E-08    96   0.317E-04    0.423E-05
DAV:  15    -0.977633457331E+02   -0.45035E-06   -0.16319E-09   108   0.184E-04
  45 F= -.97763346E+02 E0= -.97763346E+02  d E =-.718247E-11
       N       E                     dE             d eps       ncg     rms          rms(c)
DAV:   1    -0.977617645641E+02    0.15807E-02   -0.19747E-01    96   0.122E+00    0.137E-01
DAV:   2    -0.977625250085E+02   -0.76044E-03   -0.93400E-03   144   0.283E-01    0.827E-02
DAV:   3    -0.977624627940E+02    0.62215E-04   -0.15161E-04   132   0.464E-02    0.414E-02
DAV:   4    -0.977624367479E+02    0.26046E-04   -0.70161E-05   132   0.316E-02    0.789E-03
DAV:   5    -0.977624306147E+02    0.61332E-05   -0.13090E-05   132   0.135E-02    0.504E-03
DAV:   6    -0.977624316927E+02   -0.10780E-05   -0.38870E-06   132   0.583E-03    0.260E-03
DAV:   7    -0.977624386995E+02   -0.70068E-05   -0.73222E-07   108   0.287E-03    0.125E-03
DAV:   8    -0.977624504090E+02   -0.11710E-04   -0.81134E-07   120   0.221E-03    0.767E-04
DAV:   9    -0.977624619668E+02   -0.11558E-04   -0.55262E-07    84   0.169E-03    0.504E-04
DAV:  10    -0.977624719435E+02   -0.99767E-05   -0.57424E-07   108   0.142E-03    0.250E-04
DAV:  11    -0.977624761070E+02   -0.41635E-05   -0.10468E-07   108   0.714E-04    0.175E-04
DAV:  12    -0.977624798759E+02   -0.37688E-05   -0.79351E-08    84   0.623E-04    0.834E-05
DAV:  13    -0.977624811783E+02   -0.13024E-05   -0.21166E-08   108   0.342E-04    0.689E-05
DAV:  14    -0.977624821776E+02   -0.99928E-06   -0.42684E-09   108   0.238E-04
  46 F= -.97762482E+02 E0= -.97762482E+02  d E =-.576553E-11
       N       E                     dE             d eps       ncg     rms          rms(c)
DAV:   1    -0.977616608354E+02    0.82034E-03   -0.39581E-01    96   0.174E+00    0.217E-01
DAV:   2    -0.977630914578E+02   -0.14306E-02   -0.17478E-02   108   0.384E-01    0.111E-01
DAV:   3    -0.977629825496E+02    0.10891E-03   -0.31360E-04   144   0.638E-02    0.583E-02
DAV:   4    -0.977629373706E+02    0.45179E-04   -0.12639E-04   120   0.414E-02    0.116E-02
DAV:   5    -0.977629311440E+02    0.62265E-05   -0.23500E-05   132   0.176E-02    0.687E-03
DAV:   6    -0.977629381549E+02   -0.70109E-05   -0.62180E-06   120   0.747E-03    0.348E-03
DAV:   7    -0.977629546839E+02   -0.16529E-04   -0.18350E-06   108   0.405E-03    0.168E-03
DAV:   8    -0.977629755786E+02   -0.20895E-04   -0.15961E-06   120   0.287E-03    0.926E-04
DAV:   9    -0.977629926647E+02   -0.17086E-04   -0.12661E-06    96   0.230E-03    0.700E-04
DAV:  10    -0.977630092594E+02   -0.16595E-04   -0.16019E-06   120   0.226E-03    0.314E-04
DAV:  11    -0.977630139862E+02   -0.47268E-05   -0.13164E-07   108   0.845E-04    0.208E-04
DAV:  12    -0.977630180960E+02   -0.41098E-05   -0.16009E-07    96   0.766E-04    0.116E-04
DAV:  13    -0.977630198555E+02   -0.17595E-05   -0.50713E-08   108   0.439E-04    0.694E-05
DAV:  14    -0.977630207501E+02   -0.89457E-06   -0.51345E-09    96   0.234E-04
  47 F= -.97763021E+02 E0= -.97763021E+02  d E =-.132732E-10
       N       E                     dE             d eps       ncg     rms          rms(c)
DAV:   1    -0.977626564884E+02    0.36337E-03   -0.19697E-01    96   0.122E+00    0.143E-01
DAV:   2    -0.977633926828E+02   -0.73619E-03   -0.90417E-03   132   0.286E-01    0.814E-02
DAV:   3    -0.977633329716E+02    0.59711E-04   -0.14841E-04   132   0.451E-02    0.418E-02
DAV:   4    -0.977633074582E+02    0.25513E-04   -0.68147E-05   132   0.313E-02    0.787E-03
DAV:   5    -0.977633019065E+02    0.55517E-05   -0.13223E-05   132   0.137E-02    0.502E-03
DAV:   6    -0.977633028741E+02   -0.96761E-06   -0.35893E-06   132   0.573E-03
  48 F= -.97763303E+02 E0= -.97763303E+02  d E =-.130134E-10
       N       E                     dE             d eps       ncg     rms          rms(c)
DAV:   1    -0.977621381096E+02    0.11638E-02   -0.40566E-01    96   0.174E+00    0.175E-01
DAV:   2    -0.977634809273E+02   -0.13428E-02   -0.15862E-02   144   0.372E-01    0.898E-02
DAV:   3    -0.977634411852E+02    0.39742E-04   -0.29211E-04   132   0.624E-02    0.453E-02
DAV:   4    -0.977634365488E+02    0.46364E-05   -0.90532E-05   132   0.397E-02    0.104E-02
DAV:   5    -0.977634313690E+02    0.51798E-05   -0.21412E-05   132   0.177E-02    0.656E-03
DAV:   6    -0.977634302994E+02    0.10696E-05   -0.47368E-06   132   0.775E-03    0.311E-03
DAV:   7    -0.977634336215E+02   -0.33221E-05   -0.77604E-07   108   0.354E-03    0.145E-03
DAV:   8    -0.977634390304E+02   -0.54089E-05   -0.39652E-07   108   0.235E-03    0.698E-04
DAV:   9    -0.977634464748E+02   -0.74444E-05   -0.52364E-07   108   0.223E-03    0.448E-04
DAV:  10    -0.977634534373E+02   -0.69625E-05   -0.56164E-07    84   0.188E-03    0.235E-04
DAV:  11    -0.977634567218E+02   -0.32845E-05   -0.14248E-07   108   0.105E-03    0.193E-04
DAV:  12    -0.977634585714E+02   -0.18495E-05   -0.50211E-08    96   0.564E-04    0.100E-04
DAV:  13    -0.977634596711E+02   -0.10998E-05   -0.29381E-08   108   0.374E-04    0.609E-05
DAV:  14    -0.977634602562E+02   -0.58507E-06   -0.49161E-09   108   0.213E-04
  49 F= -.97763460E+02 E0= -.97763460E+02  d E =-.118331E-10
       N       E                     dE             d eps       ncg     rms          rms(c)
DAV:   1    -0.977623111946E+02    0.11485E-02   -0.20072E-01   120   0.133E+00    0.132E-01
DAV:   2    -0.977632503782E+02   -0.93918E-03   -0.11042E-02   120   0.312E-01    0.661E-02
DAV:   3    -0.977632305851E+02    0.19793E-04   -0.18340E-04   132   0.467E-02    0.373E-02
DAV:   4    -0.977632220548E+02    0.85303E-05   -0.54462E-05   132   0.306E-02    0.786E-03
DAV:   5    -0.977632198030E+02    0.22519E-05   -0.14638E-05   132   0.144E-02    0.528E-03
DAV:   6    -0.977632208295E+02   -0.10266E-05   -0.24481E-06   132   0.539E-03    0.294E-03
DAV:   7    -0.977632247592E+02   -0.39297E-05   -0.57005E-07   108   0.290E-03    0.116E-03
DAV:   8    -0.977632301677E+02   -0.54085E-05   -0.37695E-07   108   0.206E-03    0.608E-04
DAV:   9    -0.977632375195E+02   -0.73517E-05   -0.43876E-07   108   0.180E-03    0.400E-04
DAV:  10    -0.977632427693E+02   -0.52498E-05   -0.33109E-07   108   0.135E-03    0.209E-04
DAV:  11    -0.977632455625E+02   -0.27932E-05   -0.95769E-08   108   0.754E-04    0.173E-04
DAV:  12    -0.977632471127E+02   -0.15502E-05   -0.37054E-08   108   0.462E-04    0.915E-05
DAV:  13    -0.977632480688E+02   -0.95606E-06   -0.18019E-08   108   0.308E-04
  50 F= -.97763248E+02 E0= -.97763248E+02  d E =-.806453E-11
       N       E                     dE             d eps       ncg     rms          rms(c)
DAV:   1    -0.977622145114E+02    0.10326E-02   -0.41212E-01   120   0.184E+00    0.174E-01
DAV:   2    -0.977634625311E+02   -0.12480E-02   -0.15054E-02   120   0.372E-01    0.899E-02
DAV:   3    -0.977634222059E+02    0.40325E-04   -0.28141E-04   132   0.591E-02    0.464E-02
DAV:   4    -0.977633997627E+02    0.22443E-04   -0.78009E-05   132   0.417E-02    0.900E-03
DAV:   5    -0.977633967877E+02    0.29750E-05   -0.30312E-05   132   0.205E-02    0.675E-03
DAV:   6    -0.977633981467E+02   -0.13590E-05   -0.43015E-06   132   0.675E-03    0.426E-03
DAV:   7    -0.977634038888E+02   -0.57421E-05   -0.66050E-07   108   0.357E-03    0.189E-03
DAV:   8    -0.977634151114E+02   -0.11223E-04   -0.12508E-06   108   0.381E-03    0.109E-03
DAV:   9    -0.977634301556E+02   -0.15044E-04   -0.12909E-06   120   0.339E-03    0.753E-04
DAV:  10    -0.977634377628E+02   -0.76072E-05   -0.42629E-07   108   0.200E-03    0.521E-04
DAV:  11    -0.977634409860E+02   -0.32232E-05   -0.76440E-08   108   0.879E-04    0.285E-04
DAV:  12    -0.977634469080E+02   -0.59219E-05   -0.26858E-07   108   0.114E-03    0.267E-04
DAV:  13    -0.977634475129E+02   -0.60490E-06   -0.22798E-08   108   0.461E-04
  51 F= -.97763448E+02 E0= -.97763448E+02  d E =-.154840E-10
       N       E                     dE             d eps       ncg     rms          rms(c)
DAV:   1    -0.977617497901E+02    0.16971E-02   -0.20217E-01   120   0.130E+00    0.135E-01
DAV:   2    -0.977624325343E+02   -0.68274E-03   -0.86332E-03   132   0.291E-01    0.790E-02
DAV:   3    -0.977623798966E+02    0.52638E-04   -0.12858E-04   132   0.391E-02    0.391E-02
DAV:   4    -0.977623403970E+02    0.39500E-04   -0.41061E-05   132   0.246E-02    0.719E-03
DAV:   5    -0.977623392181E+02    0.11789E-05   -0.78783E-06   132   0.114E-02    0.408E-03
DAV:   6    -0.977623515013E+02   -0.12283E-04   -0.49872E-06   132   0.743E-03    0.217E-03
DAV:   7    -0.977623672206E+02   -0.15719E-04   -0.17046E-06   120   0.437E-03    0.153E-03
DAV:   8    -0.977623881135E+02   -0.20893E-04   -0.15883E-06   120   0.300E-03    0.712E-04
DAV:   9    -0.977624039116E+02   -0.15798E-04   -0.14005E-06   120   0.260E-03    0.591E-04
DAV:  10    -0.977624173163E+02   -0.13405E-04   -0.13469E-06   108   0.231E-03    0.224E-04
DAV:  11    -0.977624205695E+02   -0.32531E-05   -0.11645E-07   108   0.878E-04    0.216E-04
DAV:  12    -0.977624231690E+02   -0.25995E-05   -0.96888E-08    84   0.658E-04    0.805E-05
DAV:  13    -0.977624239458E+02   -0.77682E-06   -0.18442E-08   108   0.314E-04
  52 F= -.97762424E+02 E0= -.97762424E+02  d E =-.812529E-11
       N       E                     dE             d eps       ncg     rms          rms(c)
DAV:   1    -0.977614599762E+02    0.96319E-03   -0.40135E-01    96   0.184E+00    0.189E-01
DAV:   2    -0.977628689599E+02   -0.14090E-02   -0.17649E-02   144   0.418E-01    0.109E-01
DAV:   3    -0.977627858449E+02    0.83115E-04   -0.27372E-04   132   0.562E-02    0.552E-02
DAV:   4    -0.977627283374E+02    0.57507E-04   -0.78535E-05   132   0.343E-02    0.103E-02
DAV:   5    -0.977627164287E+02    0.11909E-04   -0.14722E-05   132   0.159E-02    0.607E-03
DAV:   6    -0.977627219109E+02   -0.54822E-05   -0.83268E-06   132   0.104E-02    0.296E-03
DAV:   7    -0.977627373806E+02   -0.15470E-04   -0.30039E-06   132   0.604E-03    0.222E-03
DAV:   8    -0.977627597717E+02   -0.22391E-04   -0.10472E-06   108   0.290E-03    0.106E-03
DAV:   9    -0.977627840263E+02   -0.24255E-04   -0.19556E-06   120   0.321E-03    0.940E-04
DAV:  10    -0.977628054901E+02   -0.21464E-04   -0.11811E-06   120   0.235E-03    0.313E-04
DAV:  11    -0.977628131023E+02   -0.76121E-05   -0.18045E-07   108   0.105E-03    0.364E-04
DAV:  12    -0.977628188973E+02   -0.57950E-05   -0.10191E-07   108   0.681E-04    0.155E-04
DAV:  13    -0.977628227898E+02   -0.38925E-05   -0.75659E-08   108   0.539E-04    0.785E-05
DAV:  14    -0.977628243906E+02   -0.16008E-05   -0.11669E-08   108   0.308E-04    0.516E-05
DAV:  15    -0.977628251414E+02   -0.75085E-06   -0.29836E-09   108   0.196E-04
  53 F= -.97762825E+02 E0= -.97762825E+02  d E =-.907095E-11
       N       E                     dE             d eps       ncg     rms          rms(c)
DAV:   1    -0.977612462216E+02    0.15782E-02   -0.19993E-01    96   0.127E+00    0.145E-01
DAV:   2    -0.977620761882E+02   -0.82997E-03   -0.10226E-02   108   0.321E-01    0.890E-02
DAV:   3    -0.977620200961E+02    0.56092E-04   -0.14763E-04   132   0.433E-02    0.484E-02
DAV:   4    -0.977619874284E+02    0.32668E-04   -0.69435E-05   132   0.323E-02    0.760E-03
DAV:   5    -0.977619836017E+02    0.38268E-05   -0.15759E-05   132   0.145E-02    0.544E-03
DAV:   6    -0.977619883842E+02   -0.47825E-05   -0.54516E-06   132   0.654E-03    0.309E-03
DAV:   7    -0.977620000029E+02   -0.11619E-04   -0.76886E-07   108   0.296E-03    0.161E-03
DAV:   8    -0.977620220818E+02   -0.22079E-04   -0.25338E-06    96   0.344E-03    0.949E-04
DAV:   9    -0.977620345911E+02   -0.12509E-04   -0.75371E-07   108   0.208E-03    0.719E-04
DAV:  10    -0.977620472200E+02   -0.12629E-04   -0.10805E-06    96   0.194E-03    0.267E-04
DAV:  11    -0.977620529725E+02   -0.57525E-05   -0.25384E-07   108   0.113E-03    0.276E-04
DAV:  12    -0.977620552374E+02   -0.22649E-05   -0.67906E-08   108   0.572E-04    0.177E-04
DAV:  13    -0.977620568078E+02   -0.15704E-05   -0.34549E-08    96   0.426E-04    0.662E-05
DAV:  14    -0.977620576257E+02   -0.81786E-06   -0.79427E-09   108   0.273E-04
  54 F= -.97762058E+02 E0= -.97762058E+02  d E =-.895415E-11
       N       E                     dE             d eps       ncg     rms          rms(c)
DAV:   1    -0.977604714212E+02    0.15854E-02   -0.40537E-01    96   0.183E+00    0.204E-01
DAV:   2    -0.977620365543E+02   -0.15651E-02   -0.19534E-02   120   0.440E-01    0.128E-01
DAV:   3    -0.977619205308E+02    0.11602E-03   -0.27383E-04   132   0.594E-02    0.688E-02
DAV:   4    -0.977618559456E+02    0.64585E-04   -0.14096E-04   132   0.448E-02    0.109E-02
DAV:   5    -0.977618547112E+02    0.12344E-05   -0.27765E-05   132   0.196E-02    0.761E-03
DAV:   6    -0.977618713869E+02   -0.16676E-04   -0.12636E-05   132   0.985E-03    0.390E-03
DAV:   7    -0.977618983292E+02   -0.26942E-04   -0.25583E-06   132   0.497E-03    0.222E-03
DAV:   8    -0.977619426441E+02   -0.44315E-04   -0.50969E-06   132   0.491E-03    0.121E-03
DAV:   9    -0.977619669460E+02   -0.24302E-04   -0.19650E-06   120   0.299E-03    0.888E-04
DAV:  10    -0.977619904610E+02   -0.23515E-04   -0.22239E-06   108   0.292E-03    0.495E-04
DAV:  11    -0.977619985802E+02   -0.81192E-05   -0.38823E-07    96   0.137E-03    0.294E-04
DAV:  12    -0.977620033304E+02   -0.47502E-05   -0.23347E-07    84   0.972E-04    0.191E-04
DAV:  13    -0.977620050996E+02   -0.17692E-05   -0.39706E-08   108   0.494E-04    0.829E-05
DAV:  14    -0.977620061411E+02   -0.10416E-05   -0.12177E-08    96   0.309E-04    0.485E-05
DAV:  15    -0.977620066229E+02   -0.48183E-06   -0.49493E-10   108   0.181E-04
  55 F= -.97762007E+02 E0= -.97762007E+02  d E =-.801623E-11
       N       E                     dE             d eps       ncg     rms          rms(c)
DAV:   1    -0.977620358626E+02   -0.29721E-04   -0.19902E-01    96   0.134E+00    0.142E-01
DAV:   2    -0.977630995607E+02   -0.10637E-02   -0.12884E-02   108   0.346E-01    0.813E-02
DAV:   3    -0.977630684482E+02    0.31113E-04   -0.18366E-04   132   0.444E-02    0.476E-02
DAV:   4    -0.977630422582E+02    0.26190E-04   -0.65161E-05   132   0.309E-02    0.761E-03
DAV:   5    -0.977630365810E+02    0.56772E-05   -0.15054E-05   132   0.139E-02    0.517E-03
DAV:   6    -0.977630387736E+02   -0.21926E-05   -0.39468E-06   120   0.644E-03    0.286E-03
DAV:   7    -0.977630482845E+02   -0.95109E-05   -0.13559E-06    96   0.387E-03    0.136E-03
DAV:   8    -0.977630641349E+02   -0.15850E-04   -0.91175E-07    96   0.257E-03    0.761E-04
DAV:   9    -0.977630779878E+02   -0.13853E-04   -0.10444E-06    96   0.218E-03    0.646E-04
DAV:  10    -0.977630903265E+02   -0.12339E-04   -0.70137E-07    96   0.185E-03    0.307E-04
DAV:  11    -0.977630941025E+02   -0.37760E-05   -0.17377E-07   108   0.868E-04    0.283E-04
DAV:  12    -0.977630981682E+02   -0.40656E-05   -0.12525E-07    96   0.831E-04    0.101E-04
DAV:  13    -0.977630995167E+02   -0.13485E-05   -0.36156E-08   108   0.449E-04    0.958E-05
DAV:  14    -0.977631004847E+02   -0.96793E-06   -0.78356E-09   108   0.270E-04
  56 F= -.97763100E+02 E0= -.97763100E+02  d E =-.741991E-11
       N       E                     dE             d eps       ncg     rms          rms(c)
DAV:   1    -0.977620619473E+02    0.10376E-02   -0.40971E-01   120   0.185E+00    0.177E-01
DAV:   2    -0.977633457036E+02   -0.12838E-02   -0.15585E-02   108   0.378E-01    0.939E-02
DAV:   3    -0.977632982274E+02    0.47476E-04   -0.28285E-04   132   0.591E-02    0.480E-02
DAV:   4    -0.977632708507E+02    0.27377E-04   -0.82204E-05   132   0.412E-02    0.925E-03
DAV:   5    -0.977632661429E+02    0.47079E-05   -0.28361E-05   132   0.199E-02    0.656E-03
DAV:   6    -0.977632676835E+02   -0.15407E-05   -0.50509E-06   132   0.731E-03    0.392E-03
DAV:   7    -0.977632746467E+02   -0.69632E-05   -0.70426E-07   108   0.377E-03    0.186E-03
DAV:   8    -0.977632885961E+02   -0.13949E-04   -0.14382E-06   108   0.389E-03    0.110E-03
DAV:   9    -0.977633045673E+02   -0.15971E-04   -0.10624E-06    96   0.316E-03    0.648E-04
DAV:  10    -0.977633132318E+02   -0.86646E-05   -0.56901E-07   108   0.198E-03    0.458E-04
DAV:  11    -0.977633187319E+02   -0.55001E-05   -0.10626E-07   108   0.960E-04    0.217E-04
DAV:  12    -0.977633240138E+02   -0.52819E-05   -0.20617E-07    96   0.945E-04    0.231E-04
DAV:  13    -0.977633256861E+02   -0.16723E-05   -0.31399E-08   108   0.429E-04    0.123E-04
DAV:  14    -0.977633271391E+02   -0.14530E-05   -0.21330E-08   108   0.338E-04    0.472E-05
DAV:  15    -0.977633278918E+02   -0.75270E-06   -0.51079E-09   108   0.217E-04
  57 F= -.97763328E+02 E0= -.97763328E+02  d E =-.154049E-10
       N       E                     dE             d eps       ncg     rms          rms(c)
DAV:   1    -0.977620818061E+02    0.12453E-02   -0.20457E-01    96   0.126E+00    0.117E-01
DAV:   2    -0.977626764612E+02   -0.59466E-03   -0.71764E-03   132   0.246E-01    0.572E-02
DAV:   3    -0.977626665174E+02    0.99438E-05   -0.13611E-04   132   0.424E-02    0.301E-02
DAV:   4    -0.977626593792E+02    0.71382E-05   -0.32357E-05   132   0.288E-02    0.593E-03
DAV:   5    -0.977626589079E+02    0.47131E-06   -0.15200E-05   132   0.144E-02    0.517E-03
DAV:   6    -0.977626594151E+02   -0.50722E-06   -0.12764E-06   120   0.368E-03
  58 F= -.97762659E+02 E0= -.97762659E+02  d E =-.799096E-11
       N       E                     dE             d eps       ncg     rms          rms(c)
DAV:   1    -0.977609003540E+02    0.17586E-02   -0.39751E-01   120   0.183E+00    0.193E-01
DAV:   2    -0.977624998550E+02   -0.15995E-02   -0.19319E-02   108   0.437E-01    0.115E-01
DAV:   3    -0.977624268417E+02    0.73013E-04   -0.29384E-04   132   0.602E-02    0.627E-02
DAV:   4    -0.977623716054E+02    0.55236E-04   -0.10934E-04   108   0.413E-02    0.103E-02
DAV:   5    -0.977623671080E+02    0.44974E-05   -0.23342E-05   132   0.183E-02    0.765E-03
DAV:   6    -0.977623761125E+02   -0.90045E-05   -0.77912E-06   132   0.851E-03    0.401E-03
DAV:   7    -0.977623947349E+02   -0.18622E-04   -0.24131E-06   120   0.518E-03    0.203E-03
DAV:   8    -0.977624246846E+02   -0.29950E-04   -0.31259E-06    96   0.448E-03    0.111E-03
DAV:   9    -0.977624433626E+02   -0.18678E-04   -0.17472E-06   120   0.312E-03    0.908E-04
DAV:  10    -0.977624593855E+02   -0.16023E-04   -0.13176E-06    96   0.242E-03    0.356E-04
DAV:  11    -0.977624663026E+02   -0.69172E-05   -0.37185E-07    96   0.129E-03    0.353E-04
DAV:  12    -0.977624706443E+02   -0.43417E-05   -0.23565E-07    84   0.943E-04    0.130E-04
DAV:  13    -0.977624724374E+02   -0.17931E-05   -0.57709E-08   108   0.499E-04    0.815E-05
DAV:  14    -0.977624733525E+02   -0.91511E-06   -0.93227E-09    96   0.281E-04
  59 F= -.97762473E+02 E0= -.97762473E+02  d E =-.861934E-11
       N       E                     dE             d eps       ncg     rms          rms(c)
DAV:   1    -0.977616344765E+02    0.83796E-03   -0.20151E-01    96   0.131E+00    0.133E-01
DAV:   2    -0.977623357292E+02   -0.70125E-03   -0.88109E-03   132   0.297E-01    0.756E-02
DAV:   3    -0.977622948317E+02    0.40897E-04   -0.12845E-04   132   0.377E-02    0.385E-02
DAV:   4    -0.977622613764E+02    0.33455E-04   -0.34326E-05   132   0.226E-02    0.696E-03
DAV:   5    -0.977622543346E+02    0.70418E-05   -0.69107E-06   132   0.110E-02    0.390E-03
DAV:   6    -0.977622571849E+02   -0.28503E-05   -0.39206E-06   132   0.738E-03    0.208E-03
DAV:   7    -0.977622665606E+02   -0.93757E-05   -0.15038E-06   120   0.452E-03    0.147E-03
DAV:   8    -0.977622796844E+02   -0.13124E-04   -0.61961E-07   108   0.228E-03    0.737E-04
DAV:   9    -0.977622936862E+02   -0.14002E-04   -0.99810E-07   120   0.225E-03    0.586E-04
DAV:  10    -0.977623066646E+02   -0.12978E-04   -0.60833E-07    96   0.173E-03    0.219E-04
DAV:  11    -0.977623111445E+02   -0.44800E-05   -0.15920E-07   108   0.848E-04    0.257E-04
DAV:  12    -0.977623155769E+02   -0.44324E-05   -0.80517E-08    96   0.635E-04    0.986E-05
DAV:  13    -0.977623171397E+02   -0.15628E-05   -0.25452E-08   108   0.363E-04    0.677E-05
DAV:  14    -0.977623182057E+02   -0.10660E-05   -0.74103E-09    96   0.245E-04    0.411E-05
DAV:  15    -0.977623187004E+02   -0.49474E-06    0.14943E-09   108   0.157E-04
  60 F= -.97762319E+02 E0= -.97762319E+02  d E =-.917945E-11
       N       E                     dE             d eps       ncg     rms          rms(c)
DAV:   1    -0.977607158760E+02    0.16023E-02   -0.40656E-01   120   0.183E+00    0.195E-01
DAV:   2    -0.977621446755E+02   -0.14288E-02   -0.18038E-02   144   0.414E-01    0.121E-01
DAV:   3    -0.977620279401E+02    0.11674E-03   -0.25091E-04   132   0.556E-02    0.614E-02
DAV:   4    -0.977619525578E+02    0.75382E-04   -0.10522E-04   132   0.378E-02    0.109E-02
DAV:   5    -0.977619526457E+02   -0.87994E-07   -0.16704E-05   132   0.162E-02    0.664E-03
DAV:   6    -0.977619779730E+02   -0.25327E-04   -0.12934E-05   132   0.111E-02    0.326E-03
DAV:   7    -0.977620080660E+02   -0.30093E-04   -0.41570E-06   132   0.638E-03    0.233E-03
DAV:   8    -0.977620496809E+02   -0.41615E-04   -0.38287E-06   120   0.445E-03    0.108E-03
DAV:   9    -0.977620794303E+02   -0.29749E-04   -0.30936E-06   120   0.373E-03    0.893E-04
DAV:  10    -0.977621024231E+02   -0.22993E-04   -0.24308E-06    96   0.306E-03    0.314E-04
DAV:  11    -0.977621090062E+02   -0.65831E-05   -0.30773E-07   108   0.128E-03    0.313E-04
DAV:  12    -0.977621131654E+02   -0.41592E-05   -0.17123E-07    96   0.844E-04    0.117E-04
DAV:  13    -0.977621147262E+02   -0.15608E-05   -0.41270E-08   108   0.435E-04    0.739E-05
DAV:  14    -0.977621158257E+02   -0.10995E-05   -0.12297E-08    84   0.322E-04    0.429E-05
DAV:  15    -0.977621161774E+02   -0.35173E-06    0.92269E-10   108   0.161E-04
  61 F= -.97762116E+02 E0= -.97762116E+02  d E =-.818077E-11
       N       E                     dE             d eps       ncg     rms          rms(c)
DAV:   1    -0.977652074675E+02   -0.30916E-02   -0.23277E-01   108   0.166E+00    0.131E-01
DAV:   2    -0.977656058313E+02   -0.39836E-03   -0.59838E-03   120   0.255E-01    0.783E-02
DAV:   3    -0.977655447871E+02    0.61044E-04   -0.15201E-04   132   0.431E-02    0.340E-02
DAV:   4    -0.977655269964E+02    0.17791E-04   -0.57824E-05   132   0.266E-02    0.715E-03
DAV:   5    -0.977655230711E+02    0.39253E-05   -0.81880E-06   132   0.111E-02    0.453E-03
DAV:   6    -0.977655248301E+02   -0.17590E-05   -0.36184E-06   132   0.599E-03    0.202E-03
DAV:   7    -0.977655298071E+02   -0.49770E-05   -0.50376E-07   108   0.290E-03    0.119E-03
DAV:   8    -0.977655388683E+02   -0.90612E-05   -0.62126E-07   108   0.230E-03    0.686E-04
DAV:   9    -0.977655473031E+02   -0.84349E-05   -0.48627E-07   108   0.174E-03    0.418E-04
[...]
DAV:  12    -0.977639149198E+02   -0.15410E-05   -0.54315E-08    96   0.475E-04    0.770E-05
DAV:  13    -0.977639155567E+02   -0.63693E-06   -0.10110E-08    84   0.273E-04
 129 F= -.97763916E+02 E0= -.97763916E+02  d E =-.718471E-11
       N       E                     dE             d eps       ncg     rms          rms(c)
DAV:   1    -0.977662414779E+02   -0.23266E-02   -0.26816E-01    96   0.152E+00    0.132E-01
DAV:   2    -0.977661861189E+02    0.55359E-04   -0.16354E-03   108   0.125E-01    0.732E-02
DAV:   3    -0.977661044069E+02    0.81712E-04   -0.24133E-04   132   0.429E-02    0.170E-02
DAV:   4    -0.977661026427E+02    0.17642E-05   -0.37196E-05   132   0.187E-02    0.728E-03
DAV:   5    -0.977661019928E+02    0.64990E-06   -0.28385E-06   120   0.623E-03
 130 F= -.97766102E+02 E0= -.97766102E+02  d E =-.847877E-11
       N       E                     dE             d eps       ncg     rms          rms(c)
DAV:   1    -0.977661482991E+02   -0.45656E-04   -0.52498E-01    96   0.231E+00    0.156E-01
DAV:   2    -0.977660420740E+02    0.10623E-03   -0.20297E-03   132   0.144E-01    0.906E-02
DAV:   3    -0.977659511955E+02    0.90878E-04   -0.35528E-04   132   0.593E-02    0.110E-02
DAV:   4    -0.977659575647E+02   -0.63692E-05   -0.53138E-05   132   0.242E-02    0.653E-03
DAV:   5    -0.977659584595E+02   -0.89477E-06   -0.16683E-06   108   0.463E-03
 131 F= -.97765958E+02 E0= -.97765958E+02  d E =-.870957E-11
       N       E                     dE             d eps       ncg     rms          rms(c)
DAV:   1    -0.977653692154E+02    0.58835E-03   -0.26198E-01    96   0.161E+00    0.110E-01
DAV:   2    -0.977653167399E+02    0.52476E-04   -0.10393E-03   132   0.103E-01    0.639E-02
DAV:   3    -0.977652703537E+02    0.46386E-04   -0.17670E-04   120   0.410E-02    0.834E-03
DAV:   4    -0.977652732195E+02   -0.28658E-05   -0.26401E-05   132   0.171E-02    0.501E-03
DAV:   5    -0.977652736486E+02   -0.42905E-06   -0.92177E-07   108   0.341E-03
 132 F= -.97765274E+02 E0= -.97765274E+02  d E =-.876631E-11
       N       E                     dE             d eps       ncg     rms          rms(c)
DAV:   1    -0.977660679502E+02   -0.79473E-03   -0.52799E-01    96   0.210E+00    0.168E-01
DAV:   2    -0.977659693395E+02    0.98611E-04   -0.25568E-03   120   0.153E-01    0.954E-02
DAV:   3    -0.977658570305E+02    0.11231E-03   -0.39934E-04   120   0.557E-02    0.167E-02
DAV:   4    -0.977658591094E+02   -0.20790E-05   -0.54528E-05   132   0.232E-02    0.853E-03
DAV:   5    -0.977658586229E+02    0.48653E-06   -0.33805E-06   120   0.594E-03
 133 F= -.97765859E+02 E0= -.97765859E+02  d E =-.746212E-11
       N       E                     dE             d eps       ncg     rms          rms(c)
DAV:   1    -0.977654931005E+02    0.36601E-03   -0.27078E-01    96   0.178E+00    0.144E-01
DAV:   2    -0.977654456892E+02    0.47411E-04   -0.18806E-03   120   0.140E-01    0.785E-02
DAV:   3    -0.977653699436E+02    0.75746E-04   -0.18376E-04   120   0.394E-02    0.233E-02
DAV:   4    -0.977653709237E+02   -0.98012E-06   -0.49282E-05   120   0.202E-02    0.693E-03
DAV:   5    -0.977653702686E+02    0.65508E-06   -0.30636E-06   132   0.624E-03
 134 F= -.97765370E+02 E0= -.97765370E+02  d E =-.833521E-11
       N       E                     dE             d eps       ncg     rms          rms(c)
DAV:   1    -0.977658935432E+02   -0.52262E-03   -0.55374E-01    96   0.211E+00    0.230E-01
DAV:   2    -0.977655432892E+02    0.35025E-03   -0.29953E-03   120   0.158E-01    0.121E-01
DAV:   3    -0.977653226343E+02    0.22065E-03   -0.54289E-04   132   0.594E-02    0.328E-02
DAV:   4    -0.977653203766E+02    0.22578E-05   -0.95314E-05   120   0.275E-02    0.123E-02
DAV:   5    -0.977653200544E+02    0.32219E-06   -0.53130E-06   132   0.854E-03
 135 F= -.97765320E+02 E0= -.97765320E+02  d E =-.748257E-11
       N       E                     dE             d eps       ncg     rms          rms(c)
DAV:   1    -0.977642966247E+02    0.10238E-02   -0.28970E-01    96   0.156E+00    0.212E-01
DAV:   2    -0.977640293011E+02    0.26732E-03   -0.22647E-03   132   0.137E-01    0.103E-01
DAV:   3    -0.977638892407E+02    0.14006E-03   -0.39871E-04   120   0.520E-02    0.354E-02
DAV:   4    -0.977638882130E+02    0.10277E-05   -0.93399E-05   120   0.266E-02    0.132E-02
DAV:   5    -0.977638868523E+02    0.13607E-05   -0.46546E-06   108   0.780E-03    0.528E-03
DAV:   6    -0.977638870088E+02   -0.15654E-06   -0.21706E-06   132   0.460E-03
 136 F= -.97763887E+02 E0= -.97763887E+02  d E =-.775072E-11
       N       E                     dE             d eps       ncg     rms          rms(c)
DAV:   1    -0.977655526320E+02   -0.16658E-02   -0.57425E-01    96   0.214E+00    0.272E-01
DAV:   2    -0.977649834483E+02    0.56918E-03   -0.42850E-03   108   0.189E-01    0.138E-01
DAV:   3    -0.977646850197E+02    0.29843E-03   -0.81615E-04   132   0.732E-02    0.430E-02
DAV:   4    -0.977646851484E+02   -0.12872E-06   -0.16567E-04   132   0.353E-02    0.174E-02
DAV:   5    -0.977646843668E+02    0.78170E-06   -0.75442E-06   132   0.940E-03
 137 F= -.97764684E+02 E0= -.97764684E+02  d E =-.794087E-11
       N       E                     dE             d eps       ncg     rms          rms(c)
DAV:   1    -0.977657983669E+02   -0.11132E-02   -0.28883E-01    96   0.155E+00    0.206E-01
DAV:   2    -0.977655195706E+02    0.27880E-03   -0.21564E-03   132   0.137E-01    0.101E-01
DAV:   3    -0.977653771737E+02    0.14240E-03   -0.40956E-04   120   0.542E-02    0.334E-02
DAV:   4    -0.977653777107E+02   -0.53707E-06   -0.94392E-05   132   0.275E-02    0.125E-02
DAV:   5    -0.977653768134E+02    0.89737E-06   -0.43304E-06   120   0.753E-03
 138 F= -.97765377E+02 E0= -.97765377E+02  d E =-.806353E-11
       N       E                     dE             d eps       ncg     rms          rms(c)
DAV:   1    -0.977660726817E+02   -0.69497E-03   -0.54752E-01    96   0.216E+00    0.226E-01
DAV:   2    -0.977657357548E+02    0.33693E-03   -0.31971E-03   120   0.171E-01    0.121E-01
DAV:   3    -0.977655289032E+02    0.20685E-03   -0.53683E-04   132   0.653E-02    0.311E-02
DAV:   4    -0.977655324071E+02   -0.35039E-05   -0.96272E-05   132   0.295E-02    0.120E-02
DAV:   5    -0.977655324150E+02   -0.79635E-08   -0.51895E-06   132   0.851E-03
 139 F= -.97765532E+02 E0= -.97765532E+02  d E =-.769578E-11
       N       E                     dE             d eps       ncg     rms          rms(c)
DAV:   1    -0.977652827802E+02    0.24963E-03   -0.27668E-01    96   0.154E+00    0.170E-01
DAV:   2    -0.977651544423E+02    0.12834E-03   -0.16949E-03   120   0.118E-01    0.878E-02
DAV:   3    -0.977650597618E+02    0.94680E-04   -0.25050E-04   132   0.383E-02    0.275E-02
DAV:   4    -0.977650550091E+02    0.47527E-05   -0.35851E-05   108   0.160E-02    0.933E-03
DAV:   5    -0.977650532635E+02    0.17456E-05   -0.29238E-06   132   0.649E-03    0.401E-03
DAV:   6    -0.977650534176E+02   -0.15412E-06   -0.18008E-06   108   0.433E-03
 140 F= -.97765053E+02 E0= -.97765053E+02  d E =-.829626E-11
       N       E                     dE             d eps       ncg     rms          rms(c)
DAV:   1    -0.977657213314E+02   -0.66807E-03   -0.55760E-01    96   0.212E+00    0.243E-01
DAV:   2    -0.977653355038E+02    0.38583E-03   -0.32204E-03   120   0.163E-01    0.125E-01
DAV:   3    -0.977651021396E+02    0.23336E-03   -0.58083E-04   120   0.612E-02    0.364E-02
DAV:   4    -0.977650953208E+02    0.68188E-05   -0.10881E-04   132   0.291E-02    0.136E-02
DAV:   5    -0.977650946523E+02    0.66858E-06   -0.61866E-06   120   0.937E-03
 141 F= -.97765095E+02 E0= -.97765095E+02  d E =-.742347E-11
       N       E                     dE             d eps       ncg     rms          rms(c)
DAV:   1    -0.977646339677E+02    0.46135E-03   -0.27363E-01    96   0.151E+00    0.139E-01
DAV:   2    -0.977644997807E+02    0.13419E-03   -0.14828E-03   132   0.112E-01    0.790E-02
DAV:   3    -0.977644133825E+02    0.86398E-04   -0.28118E-04   120   0.463E-02    0.155E-02
DAV:   4    -0.977644185728E+02   -0.51902E-05   -0.44710E-05   132   0.199E-02    0.782E-03
DAV:   5    -0.977644195433E+02   -0.97057E-06   -0.13424E-06   108   0.404E-03
 142 F= -.97764420E+02 E0= -.97764420E+02  d E =-.798830E-11
       N       E                     dE             d eps       ncg     rms          rms(c)
DAV:   1    -0.977644326217E+02   -0.14049E-04   -0.58087E-01    96   0.218E+00    0.291E-01
DAV:   2    -0.977638999453E+02    0.53268E-03   -0.46683E-03   120   0.193E-01    0.142E-01
DAV:   3    -0.977635871893E+02    0.31276E-03   -0.79398E-04   108   0.737E-02    0.495E-02
DAV:   4    -0.977635826010E+02    0.45883E-05   -0.20727E-04   132   0.383E-02    0.170E-02
DAV:   5    -0.977635799350E+02    0.26660E-05   -0.10813E-05   132   0.109E-02    0.813E-03
DAV:   6    -0.977635800548E+02   -0.11985E-06   -0.42980E-06   132   0.639E-03
 143 F= -.97763580E+02 E0= -.97763580E+02  d E =-.777335E-11
       N       E                     dE             d eps       ncg     rms          rms(c)
DAV:   1    -0.977664383407E+02   -0.28584E-02   -0.28201E-01    96   0.149E+00    0.168E-01
DAV:   2    -0.977662007281E+02    0.23761E-03   -0.17157E-03   120   0.132E-01    0.896E-02
DAV:   3    -0.977660850706E+02    0.11566E-03   -0.35884E-04   132   0.533E-02    0.238E-02
DAV:   4    -0.977660903616E+02   -0.52909E-05   -0.70826E-05   132   0.245E-02    0.110E-02
DAV:   5    -0.977660905451E+02   -0.18358E-06   -0.25993E-06   132   0.584E-03
 144 F= -.97766091E+02 E0= -.97766091E+02  d E =-.796213E-11
       N       E                     dE             d eps       ncg     rms          rms(c)
DAV:   1    -0.977663762109E+02   -0.28585E-03   -0.54172E-01    96   0.215E+00    0.201E-01
DAV:   2    -0.977660891597E+02    0.28705E-03   -0.27741E-03   120   0.165E-01    0.112E-01
DAV:   3    -0.977659120080E+02    0.17715E-03   -0.48182E-04   120   0.644E-02    0.220E-02
DAV:   4    -0.977659190276E+02   -0.70196E-05   -0.79060E-05   132   0.274E-02    0.869E-03
DAV:   5    -0.977659194662E+02   -0.43859E-06   -0.32377E-06   132   0.647E-03
 145 F= -.97765919E+02 E0= -.97765919E+02  d E =-.777187E-11
       N       E                     dE             d eps       ncg     rms          rms(c)
DAV:   1    -0.977652401035E+02    0.67892E-03   -0.27042E-01    96   0.198E+00    0.134E-01
DAV:   2    -0.977651728327E+02    0.67271E-04   -0.18414E-03   120   0.155E-01    0.765E-02
DAV:   3    -0.977650967232E+02    0.76110E-04   -0.23772E-04   120   0.504E-02    0.174E-02
DAV:   4    -0.977651003951E+02   -0.36719E-05   -0.49673E-05   132   0.230E-02    0.697E-03
DAV:   5    -0.977651002589E+02    0.13619E-06   -0.17403E-06    84   0.532E-03
 146 F= -.97765100E+02 E0= -.97765100E+02  d E =-.810074E-11
       N       E                     dE             d eps       ncg     rms          rms(c)
DAV:   1    -0.977656501826E+02   -0.54979E-03   -0.53605E-01    96   0.263E+00    0.178E-01
DAV:   2    -0.977655091550E+02    0.14103E-03   -0.31859E-03   120   0.185E-01    0.101E-01
DAV:   3    -0.977653492459E+02    0.15991E-03   -0.51341E-04   120   0.689E-02    0.194E-02
DAV:   4    -0.977653531714E+02   -0.39255E-05   -0.94895E-05   132   0.318E-02    0.102E-02
DAV:   5    -0.977653522399E+02    0.93151E-06   -0.30718E-06   132   0.610E-03
 147 F= -.97765352E+02 E0= -.97765352E+02  d E =-.766587E-11
       N       E                     dE             d eps       ncg     rms          rms(c)
DAV:   1    -0.977643738386E+02    0.97933E-03   -0.26442E-01    96   0.185E+00    0.112E-01
DAV:   2    -0.977643138897E+02    0.59949E-04   -0.10458E-03   120   0.105E-01    0.642E-02
DAV:   3    -0.977642510695E+02    0.62820E-04   -0.17241E-04   120   0.393E-02    0.101E-02
DAV:   4    -0.977642535908E+02   -0.25213E-05   -0.26211E-05   132   0.166E-02    0.514E-03
DAV:   5    -0.977642552276E+02   -0.16368E-05   -0.11349E-06   108   0.389E-03    0.284E-03
DAV:   6    -0.977642583344E+02   -0.31068E-05   -0.85435E-07   108   0.313E-03    0.693E-04
DAV:   7    -0.977642611557E+02   -0.28213E-05   -0.28372E-07   108   0.183E-03    0.521E-04
DAV:   8    -0.977642647923E+02   -0.36367E-05   -0.24815E-07    96   0.158E-03    0.309E-04
DAV:   9    -0.977642667952E+02   -0.20028E-05   -0.12617E-07   108   0.956E-04    0.202E-04
DAV:  10    -0.977642688464E+02   -0.20513E-05   -0.77440E-08    96   0.617E-04    0.125E-04
DAV:  11    -0.977642697377E+02   -0.89122E-06   -0.26411E-08   108   0.346E-04
 148 F= -.97764270E+02 E0= -.97764270E+02  d E =-.863538E-11
       N       E                     dE             d eps       ncg     rms          rms(c)
DAV:   1    -0.977641834220E+02    0.85424E-04   -0.54313E-01   108   0.250E+00    0.205E-01
DAV:   2    -0.977641569457E+02    0.26476E-04   -0.44738E-03   108   0.206E-01    0.112E-01
DAV:   3    -0.977639523507E+02    0.20460E-03   -0.45331E-04   132   0.602E-02    0.330E-02
DAV:   4    -0.977639378118E+02    0.14539E-04   -0.10389E-04   132   0.283E-02    0.102E-02
DAV:   5    -0.977639349359E+02    0.28759E-05   -0.74597E-06   132   0.107E-02    0.449E-03
DAV:   6    -0.977639377417E+02   -0.28058E-05   -0.41550E-06   132   0.698E-03    0.195E-03
DAV:   7    -0.977639430893E+02   -0.53476E-05   -0.10637E-06   120   0.352E-03    0.118E-03
DAV:   8    -0.977639488882E+02   -0.57989E-05   -0.39518E-07   108   0.233E-03    0.723E-04
DAV:   9    -0.977639556686E+02   -0.67804E-05   -0.43231E-07   108   0.162E-03    0.318E-04
DAV:  10    -0.977639608848E+02   -0.52162E-05   -0.25004E-07   108   0.109E-03    0.257E-04
DAV:  11    -0.977639636396E+02   -0.27549E-05   -0.41093E-08   108   0.546E-04    0.129E-04
DAV:  12    -0.977639665598E+02   -0.29202E-05   -0.67795E-08    96   0.516E-04    0.915E-05
DAV:  13    -0.977639672902E+02   -0.73033E-06   -0.44704E-09   108   0.232E-04
 149 F= -.97763967E+02 E0= -.97763967E+02  d E =-.696876E-11
       N       E                     dE             d eps       ncg     rms          rms(c)
DAV:   1    -0.977663496861E+02   -0.23831E-02   -0.26665E-01    96   0.177E+00    0.129E-01
DAV:   2    -0.977662615358E+02    0.88150E-04   -0.13782E-03   120   0.131E-01    0.718E-02
DAV:   3    -0.977661833363E+02    0.78199E-04   -0.22815E-04   132   0.456E-02    0.149E-02
DAV:   4    -0.977661835644E+02   -0.22803E-06   -0.36095E-05   132   0.194E-02    0.688E-03
DAV:   5    -0.977661840296E+02   -0.46520E-06   -0.20743E-06   120   0.523E-03
 150 F= -.97766184E+02 E0= -.97766184E+02  d E =-.881746E-11
       N       E                     dE             d eps       ncg     rms          rms(c)
DAV:   1    -0.977661258335E+02    0.57731E-04   -0.52475E-01    96   0.260E+00    0.160E-01
DAV:   2    -0.977659869613E+02    0.13887E-03   -0.19951E-03   120   0.151E-01    0.925E-02
DAV:   3    -0.977658735013E+02    0.11346E-03   -0.37438E-04   132   0.617E-02    0.116E-02
DAV:   4    -0.977658808241E+02   -0.73228E-05   -0.57244E-05   132   0.254E-02    0.734E-03
DAV:   5    -0.977658823189E+02   -0.14948E-05   -0.17094E-06   108   0.474E-03    0.487E-03
DAV:   6    -0.977658866457E+02   -0.43268E-05   -0.19922E-06   120   0.462E-03    0.898E-04
DAV:   7    -0.977658890924E+02   -0.24467E-05   -0.47475E-07   108   0.232E-03    0.802E-04
DAV:   8    -0.977658924785E+02   -0.33861E-05   -0.18394E-07    96   0.162E-03    0.444E-04
DAV:   9    -0.977658957324E+02   -0.32539E-05   -0.18958E-07    96   0.141E-03    0.225E-04
DAV:  10    -0.977658986056E+02   -0.28732E-05   -0.15053E-07    96   0.962E-04    0.166E-04
DAV:  11    -0.977658995480E+02   -0.94239E-06   -0.23165E-08   108   0.414E-04
 151 F= -.97765900E+02 E0= -.97765900E+02  d E =-.700906E-11
       N       E                     dE             d eps       ncg     rms          rms(c)
DAV:   1    -0.977641930445E+02    0.17056E-02   -0.26670E-01    96   0.192E+00    0.131E-01
DAV:   2    -0.977641403385E+02    0.52706E-04   -0.19152E-03   108   0.152E-01    0.714E-02
DAV:   3    -0.977640580560E+02    0.82282E-04   -0.22335E-04   132   0.490E-02    0.186E-02
DAV:   4    -0.977640595104E+02   -0.14545E-05   -0.59009E-05   132   0.238E-02    0.683E-03
DAV:   5    -0.977640597521E+02   -0.24171E-06   -0.25956E-06   132   0.580E-03
 152 F= -.97764060E+02 E0= -.97764060E+02  d E =-.766108E-11
       N       E                     dE             d eps       ncg     rms          rms(c)
DAV:   1    -0.977639970995E+02    0.62411E-04   -0.54478E-01   108   0.249E+00    0.207E-01
DAV:   2    -0.977639339589E+02    0.63141E-04   -0.47122E-03   120   0.217E-01    0.114E-01
DAV:   3    -0.977637198437E+02    0.21412E-03   -0.56134E-04   120   0.707E-02    0.306E-02
DAV:   4    -0.977637165777E+02    0.32659E-05   -0.13828E-04   120   0.344E-02    0.119E-02
DAV:   5    -0.977637137526E+02    0.28251E-05   -0.58195E-06   132   0.896E-03    0.654E-03
DAV:   6    -0.977637142413E+02   -0.48866E-06   -0.49393E-06   132   0.784E-03
 153 F= -.97763714E+02 E0= -.97763714E+02  d E =-.822162E-11
       N       E                     dE             d eps       ncg     rms          rms(c)
DAV:   1    -0.977659817414E+02   -0.22680E-02   -0.26879E-01    96   0.175E+00    0.140E-01
DAV:   2    -0.977659188501E+02    0.62891E-04   -0.18209E-03   132   0.141E-01    0.761E-02
DAV:   3    -0.977658409298E+02    0.77920E-04   -0.24145E-04   120   0.421E-02    0.195E-02
DAV:   4    -0.977658388184E+02    0.21114E-05   -0.34478E-05   120   0.179E-02    0.737E-03
DAV:   5    -0.977658376186E+02    0.11998E-05   -0.31687E-06   120   0.666E-03    0.311E-03
DAV:   6    -0.977658386282E+02   -0.10095E-05   -0.18415E-06   120   0.428E-03    0.110E-03
DAV:   7    -0.977658407501E+02   -0.21220E-05   -0.37204E-07    96   0.214E-03    0.639E-04
DAV:   8    -0.977658427203E+02   -0.19701E-05   -0.10521E-07    96   0.127E-03    0.347E-04
DAV:   9    -0.977658449301E+02   -0.22098E-05   -0.12005E-07    96   0.976E-04    0.195E-04
DAV:  10    -0.977658468556E+02   -0.19255E-05   -0.10109E-07    96   0.753E-04    0.112E-04
DAV:  11    -0.977658476887E+02   -0.83310E-06   -0.20426E-08    96   0.377E-04
 154 F= -.97765848E+02 E0= -.97765848E+02  d E =-.758844E-11
       N       E                     dE             d eps       ncg     rms          rms(c)
DAV:   1    -0.977663569499E+02   -0.51009E-03   -0.53099E-01    96   0.261E+00    0.161E-01
DAV:   2    -0.977662239098E+02    0.13304E-03   -0.20284E-03   108   0.151E-01    0.924E-02
DAV:   3    -0.977661060627E+02    0.11785E-03   -0.35584E-04   120   0.561E-02    0.137E-02
DAV:   4    -0.977661082463E+02   -0.21836E-05   -0.47757E-05   132   0.226E-02    0.710E-03
DAV:   5    -0.977661079572E+02    0.28905E-06   -0.20619E-06   120   0.529E-03
 155 F= -.97766108E+02 E0= -.97766108E+02  d E =-.810018E-11
       N       E                     dE             d eps       ncg     rms          rms(c)
DAV:   1    -0.977655025020E+02    0.60574E-03   -0.26584E-01    96   0.185E+00    0.116E-01
DAV:   2    -0.977654331166E+02    0.69385E-04   -0.10992E-03   132   0.113E-01    0.671E-02
DAV:   3    -0.977653795509E+02    0.53566E-04   -0.20672E-04   120   0.461E-02    0.850E-03
DAV:   4    -0.977653843327E+02   -0.47817E-05   -0.35912E-05   132   0.200E-02    0.575E-03
DAV:   5    -0.977653850406E+02   -0.70789E-06   -0.81593E-07   108   0.343E-03
 156 F= -.97765385E+02 E0= -.97765385E+02  d E =-.838149E-11
       N       E                     dE             d eps       ncg     rms          rms(c)
DAV:   1    -0.977659023144E+02   -0.51798E-03   -0.53256E-01    96   0.245E+00    0.174E-01
DAV:   2    -0.977657785877E+02    0.12373E-03   -0.25809E-03   132   0.170E-01    0.975E-02
DAV:   3    -0.977656427772E+02    0.13581E-03   -0.40663E-04   108   0.593E-02    0.192E-02
DAV:   4    -0.977656427092E+02    0.67957E-07   -0.58730E-05   132   0.245E-02    0.854E-03
DAV:   5    -0.977656427896E+02   -0.80442E-07   -0.38992E-06   132   0.688E-03
 157 F= -.97765643E+02 E0= -.97765643E+02  d E =-.758119E-11
