       N       E                     dE             d eps       ncg     rms          rms(c)
DAV:   1     0.210364185912E+03    0.21036E+03   -0.10456E+04   116   0.546E+02
DAV:   2    -0.232018271799E+02   -0.23357E+03   -0.21811E+03   144   0.103E+02
DAV:   3    -0.987387500494E+02   -0.75537E+02   -0.75349E+02   104   0.553E+01
DAV:   4    -0.103129538368E+03   -0.43908E+01   -0.43747E+01   112   0.190E+01
DAV:   5    -0.103193188026E+03   -0.63650E-01   -0.63595E-01   120   0.233E+00    0.141E+01
DAV:   6    -0.100094416845E+03    0.30988E+01   -0.15306E+00    96   0.446E+00    0.817E+00
DAV:   7    -0.984731607703E+02    0.16213E+01   -0.38970E+00   104   0.655E+00    0.121E+00
DAV:   8    -0.984164338323E+02    0.56727E-01   -0.25438E-01   112   0.209E+00    0.583E-01
DAV:   9    -0.983804309937E+02    0.36003E-01   -0.66267E-02   120   0.720E-01    0.324E-01
DAV:  10    -0.983814302646E+02   -0.99927E-03   -0.25892E-03   112   0.195E-01    0.131E-01
DAV:  11    -0.983812314595E+02    0.19881E-03   -0.70312E-03   104   0.241E-01    0.919E-02
DAV:  12    -0.983857087878E+02   -0.44773E-02   -0.10151E-03   104   0.909E-02    0.574E-02
DAV:  13    -0.983904899657E+02   -0.47812E-02   -0.15696E-03   112   0.103E-01    0.333E-02
DAV:  14    -0.983942319566E+02   -0.37420E-02   -0.30303E-04   112   0.500E-02    0.159E-02
DAV:  15    -0.983986369348E+02   -0.44050E-02   -0.53688E-04   104   0.595E-02    0.139E-02
DAV:  16    -0.983997677637E+02   -0.11308E-02   -0.64489E-05   112   0.215E-02    0.574E-03
DAV:  17    -0.984007688025E+02   -0.10010E-02   -0.90905E-05   112   0.227E-02    0.319E-03
DAV:  18    -0.984010143266E+02   -0.24552E-03   -0.86228E-06   104   0.864E-03    0.193E-03
DAV:  19    -0.984011485410E+02   -0.13421E-03   -0.47871E-06   104   0.549E-03    0.155E-03
DAV:  20    -0.984011895336E+02   -0.40993E-04   -0.77172E-07    88   0.293E-03    0.601E-04
DAV:  21    -0.984012084132E+02   -0.18880E-04   -0.59411E-07    88   0.195E-03    0.417E-04
DAV:  22    -0.984012146208E+02   -0.62076E-05   -0.14301E-07    88   0.111E-03    0.169E-04
DAV:  23    -0.984012178931E+02   -0.32723E-05   -0.72419E-08    88   0.706E-04    0.117E-04
DAV:  24    -0.984012194852E+02   -0.15922E-05   -0.23723E-08    88   0.424E-04    0.419E-05
DAV:  25    -0.984012199802E+02   -0.49496E-06   -0.65193E-09    88   0.233E-04
   1 F= -.98401220E+02 E0= -.98401220E+02  d E =-.984012E+02
       N       E                     dE             d eps       ncg     rms          rms(c)
DAV:   1    -0.984548873768E+02   -0.53668E-01   -0.33896E+00    84   0.694E+00    0.834E-01
DAV:   2    -0.984768449431E+02   -0.21958E-01   -0.23672E-01   120   0.177E+00    0.459E-01
DAV:   3    -0.984748488335E+02    0.19961E-02   -0.60011E-03   112   0.313E-01    0.256E-01
DAV:   4    -0.984742768963E+02    0.57194E-03   -0.34767E-03   112   0.209E-01    0.447E-02
DAV:   5    -0.984741870438E+02    0.89853E-04   -0.43320E-04   112   0.810E-02    0.308E-02
DAV:   6    -0.984742045945E+02   -0.17551E-04   -0.67037E-05   112   0.281E-02    0.219E-02
DAV:   7    -0.984743648782E+02   -0.16028E-03   -0.34582E-05   110   0.212E-02    0.534E-03
DAV:   8    -0.984744501273E+02   -0.85249E-04   -0.16687E-05   136   0.151E-02    0.643E-03
DAV:   9    -0.984745216368E+02   -0.71510E-04   -0.32728E-06   112   0.589E-03    0.460E-03
DAV:  10    -0.984746644888E+02   -0.14285E-03   -0.10400E-05   112   0.744E-03    0.203E-03
DAV:  11    -0.984747053914E+02   -0.40903E-04   -0.17401E-06    96   0.354E-03    0.142E-03
DAV:  12    -0.984747565976E+02   -0.51206E-04   -0.24085E-06   104   0.361E-03    0.524E-04
DAV:  13    -0.984747684246E+02   -0.11827E-04   -0.25253E-07    88   0.148E-03    0.534E-04
DAV:  14    -0.984747853518E+02   -0.16927E-04   -0.46836E-07    88   0.155E-03    0.286E-04
DAV:  15    -0.984747876113E+02   -0.22595E-05   -0.53578E-08    88   0.615E-04    0.376E-04
DAV:  16    -0.984747916373E+02   -0.40260E-05   -0.61693E-08    88   0.617E-04    0.190E-04
DAV:  17    -0.984747923106E+02   -0.67333E-06   -0.11878E-08    96   0.307E-04
   2 F= -.98474792E+02 E0= -.98474792E+02  d E =-.735723E-01
       N       E                     dE             d eps       ncg     rms          rms(c)
DAV:   1    -0.984831455748E+02   -0.83539E-02   -0.20798E-01    84   0.175E+00    0.191E-01
DAV:   2    -0.984845580453E+02   -0.14125E-02   -0.15270E-02   120   0.451E-01    0.119E-01
DAV:   3    -0.984844205806E+02    0.13746E-03   -0.40339E-04   120   0.806E-02    0.657E-02
DAV:   4    -0.984843751798E+02    0.45401E-04   -0.22967E-04   112   0.534E-02    0.114E-02
DAV:   5    -0.984843670561E+02    0.81237E-05   -0.29446E-05   112   0.210E-02    0.807E-03
DAV:   6    -0.984843712285E+02   -0.41725E-05   -0.46022E-06   112   0.709E-03    0.558E-03
DAV:   7    -0.984843928291E+02   -0.21601E-04   -0.31456E-06   104   0.590E-03    0.157E-03
DAV:   8    -0.984844013799E+02   -0.85507E-05   -0.12557E-06    88   0.419E-03    0.183E-03
DAV:   9    -0.984844093671E+02   -0.79872E-05   -0.42644E-07    88   0.218E-03    0.113E-03
DAV:  10    -0.984844257099E+02   -0.16343E-04   -0.14276E-06    96   0.261E-03    0.469E-04
DAV:  11    -0.984844303742E+02   -0.46642E-05   -0.22213E-07    88   0.115E-03    0.292E-04
DAV:  12    -0.984844349684E+02   -0.45942E-05   -0.27141E-07    88   0.108E-03    0.172E-04
DAV:  13    -0.984844361383E+02   -0.11699E-05   -0.32971E-08    88   0.456E-04    0.148E-04
DAV:  14    -0.984844375117E+02   -0.13734E-05   -0.50454E-08    86   0.500E-04    0.971E-05
DAV:  15    -0.984844377423E+02   -0.23055E-06   -0.58733E-09    88   0.200E-04
   3 F= -.98484438E+02 E0= -.98484438E+02  d E =-.832178E-01
       N       E                     dE             d eps       ncg     rms          rms(c)
DAV:   1    -0.984999862396E+02   -0.15549E-01   -0.35605E-01    84   0.251E+00    0.197E-01
DAV:   2    -0.985010569249E+02   -0.10707E-02   -0.14412E-02   112   0.392E-01    0.949E-02
DAV:   3    -0.985009127854E+02    0.14414E-03   -0.38608E-04   120   0.681E-02    0.516E-02
DAV:   4    -0.985008553898E+02    0.57396E-04   -0.15405E-04   112   0.405E-02    0.125E-02
DAV:   5    -0.985008548197E+02    0.57016E-06   -0.14185E-05   112   0.182E-02    0.689E-03
DAV:   6    -0.985008631490E+02   -0.83293E-05   -0.56583E-06   112   0.965E-03    0.254E-03
DAV:   7    -0.985008730092E+02   -0.98602E-05   -0.18847E-06   104   0.501E-03    0.156E-03
DAV:   8    -0.985008837185E+02   -0.10709E-04   -0.46577E-07    88   0.267E-03    0.734E-04
DAV:   9    -0.985008928897E+02   -0.91712E-05   -0.61462E-07    96   0.238E-03    0.438E-04
DAV:  10    -0.985009014444E+02   -0.85547E-05   -0.61222E-07    96   0.203E-03    0.247E-04
DAV:  11    -0.985009042296E+02   -0.27852E-05   -0.10842E-07    88   0.101E-03    0.187E-04
DAV:  12    -0.985009065295E+02   -0.23000E-05   -0.76510E-08    80   0.653E-04    0.107E-04
DAV:  13    -0.985009079590E+02   -0.14294E-05   -0.52652E-08    88   0.496E-04    0.568E-05
DAV:  14    -0.985009085661E+02   -0.60714E-06   -0.11272E-08    88   0.264E-04
   4 F= -.98500909E+02 E0= -.98500909E+02  d E =-.164708E-01
       N       E                     dE             d eps       ncg     rms          rms(c)
DAV:   1    -0.985042941307E+02   -0.33862E-02   -0.23749E-01    84   0.204E+00    0.159E-01
DAV:   2    -0.985049935015E+02   -0.69937E-03   -0.94424E-03   112   0.318E-01    0.769E-02
DAV:   3    -0.985048981711E+02    0.95330E-04   -0.25118E-04   120   0.550E-02    0.416E-02
DAV:   4    -0.985048580730E+02    0.40098E-04   -0.98735E-05   112   0.327E-02    0.100E-02
DAV:   5    -0.985048571763E+02    0.89672E-06   -0.94820E-06   112   0.147E-02
   5 F= -.98504857E+02 E0= -.98504857E+02  d E =-.204194E-01
       N       E                     dE             d eps       ncg     rms          rms(c)
DAV:   1    -0.985147660372E+02   -0.99080E-02   -0.44959E-01    84   0.282E+00    0.201E-01
DAV:   2    -0.985162825818E+02   -0.15165E-02   -0.18097E-02   110   0.494E-01    0.112E-01
DAV:   3    -0.985161439572E+02    0.13862E-03   -0.48204E-04   120   0.886E-02    0.598E-02
DAV:   4    -0.985161499634E+02   -0.60063E-05   -0.22601E-04   112   0.516E-02    0.145E-02
DAV:   5    -0.985161568895E+02   -0.69261E-05   -0.21532E-05   112   0.187E-02    0.691E-03
DAV:   6    -0.985161614728E+02   -0.45833E-05   -0.44751E-06   112   0.768E-03    0.297E-03
DAV:   7    -0.985161664905E+02   -0.50176E-05   -0.90299E-07    88   0.386E-03    0.820E-04
DAV:   8    -0.985161704987E+02   -0.40083E-05   -0.37977E-07    88   0.239E-03    0.788E-04
DAV:   9    -0.985161759280E+02   -0.54293E-05   -0.27950E-07    80   0.161E-03    0.300E-04
DAV:  10    -0.985161793096E+02   -0.33815E-05   -0.18479E-07    88   0.112E-03    0.231E-04
DAV:  11    -0.985161816679E+02   -0.23583E-05   -0.89405E-08    88   0.804E-04    0.124E-04
DAV:  12    -0.985161831199E+02   -0.14520E-05   -0.50592E-08    88   0.549E-04    0.732E-05
DAV:  13    -0.985161839175E+02   -0.79761E-06   -0.18720E-08    88   0.347E-04
   6 F= -.98516184E+02 E0= -.98516184E+02  d E =-.113267E-01
       N       E                     dE             d eps       ncg     rms          rms(c)
DAV:   1    -0.985186884302E+02   -0.25053E-02   -0.49234E-01    84   0.295E+00    0.210E-01
DAV:   2    -0.985203401367E+02   -0.16517E-02   -0.19662E-02   112   0.516E-01    0.118E-01
DAV:   3    -0.985201907591E+02    0.14938E-03   -0.52905E-04   120   0.924E-02    0.626E-02
DAV:   4    -0.985201908628E+02   -0.10365E-06   -0.24378E-04   112   0.536E-02    0.152E-02
DAV:   5    -0.985201897785E+02    0.10842E-05   -0.22798E-05   112   0.191E-02    0.715E-03
DAV:   6    -0.985201895929E+02    0.18560E-06   -0.46784E-06   112   0.772E-03
   7 F= -.98520190E+02 E0= -.98520190E+02  d E =-.153324E-01
       N       E                     dE             d eps       ncg     rms          rms(c)
DAV:   1    -0.985296808195E+02   -0.94910E-02   -0.41648E-01    84   0.294E+00    0.156E-01
DAV:   2    -0.985296867604E+02   -0.59409E-05   -0.41040E-03   120   0.263E-01    0.873E-02
DAV:   3    -0.985295056361E+02    0.18112E-03   -0.48217E-04   120   0.839E-02    0.274E-02
DAV:   4    -0.985295138308E+02   -0.81947E-05   -0.14956E-04   120   0.425E-02    0.136E-02
DAV:   5    -0.985295187006E+02   -0.48698E-05   -0.70646E-06   120   0.105E-02    0.792E-03
DAV:   6    -0.985295266897E+02   -0.79891E-05   -0.37706E-06   112   0.674E-03    0.148E-03
DAV:   7    -0.985295319371E+02   -0.52474E-05   -0.33270E-07    88   0.243E-03    0.980E-04
DAV:   8    -0.985295407216E+02   -0.87845E-05   -0.39711E-07    88   0.237E-03    0.558E-04
DAV:   9    -0.985295452812E+02   -0.45595E-05   -0.24478E-07    88   0.161E-03    0.288E-04
DAV:  10    -0.985295497622E+02   -0.44810E-05   -0.15278E-07    88   0.104E-03    0.292E-04
DAV:  11    -0.985295516179E+02   -0.18557E-05   -0.45997E-08    88   0.567E-04    0.117E-04
DAV:  12    -0.985295536518E+02   -0.20339E-05   -0.65977E-08    88   0.587E-04    0.124E-04
DAV:  13    -0.985295541085E+02   -0.45675E-06   -0.10750E-08    96   0.271E-04
   8 F= -.98529554E+02 E0= -.98529554E+02  d E =-.936452E-02
       N       E                     dE             d eps       ncg     rms          rms(c)
DAV:   1    -0.985353450211E+02   -0.57914E-02   -0.10189E+00    84   0.460E+00    0.243E-01
DAV:   2    -0.985353464143E+02   -0.13932E-05   -0.10073E-02   120   0.412E-01    0.136E-01
DAV:   3    -0.985348922138E+02    0.45420E-03   -0.11894E-03   120   0.132E-01    0.425E-02
DAV:   4    -0.985349093969E+02   -0.17183E-04   -0.37223E-04   120   0.672E-02    0.216E-02
DAV:   5    -0.985349194655E+02   -0.10069E-04   -0.17624E-05   120   0.166E-02    0.128E-02
DAV:   6    -0.985349387751E+02   -0.19310E-04   -0.95860E-06   112   0.108E-02    0.246E-03
DAV:   7    -0.985349515906E+02   -0.12815E-04   -0.95789E-07    88   0.408E-03    0.167E-03
DAV:   8    -0.985349741365E+02   -0.22546E-04   -0.14855E-06    96   0.441E-03    0.937E-04
DAV:   9    -0.985349845875E+02   -0.10451E-04   -0.72312E-07    88   0.287E-03    0.527E-04
DAV:  10    -0.985349952546E+02   -0.10667E-04   -0.57348E-07    88   0.189E-03    0.547E-04
DAV:  11    -0.985349996100E+02   -0.43554E-05   -0.13766E-07    88   0.103E-03    0.193E-04
DAV:  12    -0.985350038022E+02   -0.41922E-05   -0.19123E-07    88   0.102E-03    0.226E-04
DAV:  13    -0.985350046990E+02   -0.89681E-06   -0.29012E-08    88   0.446E-04
   9 F= -.98535005E+02 E0= -.98535005E+02  d E =-.148151E-01
       N       E                     dE             d eps       ncg     rms          rms(c)
DAV:   1    -0.985391321288E+02   -0.41283E-02   -0.35865E-01    84   0.263E+00    0.162E-01
DAV:   2    -0.985398662745E+02   -0.73415E-03   -0.99565E-03   120   0.387E-01    0.884E-02
DAV:   3    -0.985397712028E+02    0.95072E-04   -0.36938E-04   128   0.770E-02    0.448E-02
DAV:   4    -0.985397573174E+02    0.13885E-04   -0.12721E-04   112   0.406E-02    0.109E-02
DAV:   5    -0.985397521853E+02    0.51321E-05   -0.11065E-05   112   0.151E-02    0.527E-03
DAV:   6    -0.985397513720E+02    0.81329E-06   -0.42554E-06   112   0.936E-03
  10 F= -.98539751E+02 E0= -.98539751E+02  d E =-.474667E-02
       N       E                     dE             d eps       ncg     rms          rms(c)
DAV:   1    -0.985399250975E+02   -0.17291E-03   -0.28779E-02    84   0.744E-01    0.459E-02
DAV:   2    -0.985399842127E+02   -0.59115E-04   -0.81315E-04   120   0.111E-01    0.252E-02
DAV:   3    -0.985399758256E+02    0.83872E-05   -0.29877E-05   128   0.218E-02    0.130E-02
DAV:   4    -0.985399760502E+02   -0.22461E-06   -0.10105E-05   112   0.117E-02    0.309E-03
DAV:   5    -0.985399783451E+02   -0.22949E-05   -0.95266E-07    88   0.480E-03    0.154E-03
DAV:   6    -0.985399817463E+02   -0.34012E-05   -0.59146E-07    88   0.364E-03    0.788E-04
DAV:   7    -0.985399870371E+02   -0.52908E-05   -0.38829E-07    88   0.279E-03    0.497E-04
DAV:   8    -0.985399904822E+02   -0.34452E-05   -0.20942E-07    88   0.170E-03    0.471E-04
DAV:   9    -0.985399938443E+02   -0.33621E-05   -0.13307E-07    88   0.992E-04    0.158E-04
DAV:  10    -0.985399955565E+02   -0.17122E-05   -0.59734E-08    88   0.625E-04    0.106E-04
DAV:  11    -0.985399973536E+02   -0.17971E-05   -0.59570E-08    88   0.521E-04    0.474E-05
DAV:  12    -0.985399979557E+02   -0.60205E-06   -0.14987E-08    88   0.301E-04
  11 F= -.98539998E+02 E0= -.98539998E+02  d E =-.499326E-02
       N       E                     dE             d eps       ncg     rms          rms(c)
DAV:   1    -0.985402592670E+02   -0.26191E-03   -0.17867E-02    86   0.568E-01    0.425E-02
DAV:   2    -0.985403470613E+02   -0.87794E-04   -0.99366E-04   112   0.105E-01    0.242E-02
DAV:   3    -0.985403416800E+02    0.53812E-05   -0.20241E-05   120   0.168E-02    0.145E-02
DAV:   4    -0.985403396591E+02    0.20209E-05   -0.11100E-05   112   0.109E-02    0.288E-03
DAV:   5    -0.985403387755E+02    0.88356E-06   -0.15294E-06   104   0.430E-03
  12 F= -.98540339E+02 E0= -.98540339E+02  d E =-.340820E-03
       N       E                     dE             d eps       ncg     rms          rms(c)
DAV:   1    -0.985403465490E+02   -0.68899E-05   -0.34864E-04    88   0.794E-02    0.575E-03
DAV:   2    -0.985403484317E+02   -0.18827E-05   -0.18038E-05   110   0.143E-02    0.344E-03
DAV:   3    -0.985403487566E+02   -0.32496E-06   -0.34522E-07    80   0.240E-03
  13 F= -.98540349E+02 E0= -.98540349E+02  d E =-.350801E-03
       N       E                     dE             d eps       ncg     rms          rms(c)
DAV:   1    -0.985406137776E+02   -0.26535E-03   -0.84247E-03    84   0.417E-01    0.277E-02
DAV:   2    -0.985406271627E+02   -0.13385E-04   -0.20868E-04   112   0.552E-02    0.153E-02
DAV:   3    -0.985406263449E+02    0.81778E-06   -0.98335E-06   120   0.120E-02
  14 F= -.98540626E+02 E0= -.98540626E+02  d E =-.277588E-03
       N       E                     dE             d eps       ncg     rms          rms(c)
DAV:   1    -0.985407430033E+02   -0.11584E-03   -0.78590E-03    84   0.406E-01    0.281E-02
DAV:   2    -0.985407543012E+02   -0.11298E-04   -0.19305E-04   120   0.528E-02    0.155E-02
DAV:   3    -0.985407531456E+02    0.11556E-05   -0.90790E-06   120   0.115E-02    0.705E-03
DAV:   4    -0.985407537432E+02   -0.59759E-06   -0.23319E-06    88   0.633E-03
  15 F= -.98540754E+02 E0= -.98540754E+02  d E =-.404987E-03
