       N       E                     dE             d eps       ncg     rms          rms(c)
DAV:   1     0.216203871711E+03    0.21620E+03   -0.10438E+04   116   0.546E+02
DAV:   2    -0.197041230825E+02   -0.23591E+03   -0.21999E+03   144   0.104E+02
DAV:   3    -0.963753475349E+02   -0.76671E+02   -0.76498E+02   112   0.561E+01
DAV:   4    -0.100833718846E+03   -0.44584E+01   -0.44415E+01   104   0.182E+01
DAV:   5    -0.100887612606E+03   -0.53894E-01   -0.53841E-01   128   0.214E+00    0.137E+01
DAV:   6    -0.978284832743E+02    0.30591E+01   -0.15575E+00   112   0.446E+00    0.786E+00
DAV:   7    -0.962404466174E+02    0.15880E+01   -0.37671E+00   104   0.643E+00    0.119E+00
DAV:   8    -0.961792364948E+02    0.61210E-01   -0.26136E-01   112   0.208E+00    0.557E-01
DAV:   9    -0.961447026908E+02    0.34534E-01   -0.64679E-02   112   0.701E-01    0.293E-01
DAV:  10    -0.961450982046E+02   -0.39551E-03   -0.21527E-03   112   0.186E-01    0.120E-01
DAV:  11    -0.961450268911E+02    0.71313E-04   -0.65452E-03   104   0.239E-01    0.888E-02
DAV:  12    -0.961507589039E+02   -0.57320E-02   -0.21832E-03   104   0.121E-01    0.437E-02
DAV:  13    -0.961545897089E+02   -0.38308E-02   -0.88597E-04   112   0.791E-02    0.334E-02
DAV:  14    -0.961598210307E+02   -0.52313E-02   -0.51382E-04   112   0.668E-02    0.148E-02
DAV:  15    -0.961627586428E+02   -0.29376E-02   -0.28695E-04   112   0.451E-02    0.814E-03
DAV:  16    -0.961639741378E+02   -0.12155E-02   -0.87811E-05   112   0.225E-02    0.504E-03
DAV:  17    -0.961647949862E+02   -0.82085E-03   -0.59732E-05   112   0.179E-02    0.276E-03
DAV:  18    -0.961650189980E+02   -0.22401E-03   -0.73949E-06   104   0.695E-03    0.172E-03
DAV:  19    -0.961651406023E+02   -0.12160E-03   -0.39432E-06   104   0.469E-03    0.740E-04
DAV:  20    -0.961651712003E+02   -0.30598E-04   -0.45384E-07    88   0.202E-03    0.653E-04
DAV:  21    -0.961651889344E+02   -0.17734E-04   -0.52814E-07    80   0.174E-03    0.224E-04
DAV:  22    -0.961651949569E+02   -0.60226E-05   -0.14497E-07    88   0.990E-04    0.230E-04
DAV:  23    -0.961651974671E+02   -0.25101E-05   -0.58400E-08    88   0.652E-04    0.970E-05
DAV:  24    -0.961651987571E+02   -0.12900E-05   -0.21643E-08    88   0.393E-04    0.409E-05
DAV:  25    -0.961651990532E+02   -0.29613E-06   -0.34243E-09    80   0.179E-04
   1 F= -.96165199E+02 E0= -.96165199E+02  d E =-.961652E+02
       N       E                     dE             d eps       ncg     rms          rms(c)
DAV:   1    -0.962331836996E+02   -0.67985E-01   -0.22259E+00    84   0.556E+00    0.621E-01
DAV:   2    -0.962481447259E+02   -0.14961E-01   -0.16530E-01   104   0.141E+00    0.338E-01
DAV:   3    -0.962469857127E+02    0.11590E-02   -0.38365E-03   120   0.244E-01    0.189E-01
DAV:   4    -0.962467941203E+02    0.19159E-03   -0.23459E-03   112   0.162E-01    0.375E-02
DAV:   5    -0.962467399927E+02    0.54128E-04   -0.33402E-04   112   0.667E-02    0.245E-02
DAV:   6    -0.962467390251E+02    0.96767E-06   -0.38883E-05   120   0.196E-02    0.158E-02
DAV:   7    -0.962467764840E+02   -0.37459E-04   -0.87662E-06   112   0.105E-02    0.358E-03
DAV:   8    -0.962468039501E+02   -0.27466E-04   -0.68382E-06   120   0.899E-03    0.376E-03
DAV:   9    -0.962468274471E+02   -0.23497E-04   -0.15651E-06   112   0.412E-03    0.259E-03
DAV:  10    -0.962468769782E+02   -0.49531E-04   -0.31126E-06   104   0.385E-03    0.144E-03
DAV:  11    -0.962468932774E+02   -0.16299E-04   -0.63308E-07    96   0.204E-03    0.799E-04
DAV:  12    -0.962469171464E+02   -0.23869E-04   -0.95052E-07    96   0.208E-03    0.323E-04
DAV:  13    -0.962469223754E+02   -0.52290E-05   -0.84553E-08    88   0.781E-04    0.278E-04
DAV:  14    -0.962469320759E+02   -0.97005E-05   -0.18587E-07    88   0.105E-03    0.342E-04
DAV:  15    -0.962469332171E+02   -0.11413E-05   -0.35901E-08    88   0.484E-04    0.158E-04
DAV:  16    -0.962469350046E+02   -0.17875E-05   -0.17286E-08    88   0.372E-04    0.100E-04
DAV:  17    -0.962469359905E+02   -0.98592E-06   -0.12996E-08    80   0.296E-04
   2 F= -.96246936E+02 E0= -.96246936E+02  d E =-.817369E-01
       N       E                     dE             d eps       ncg     rms          rms(c)
DAV:   1    -0.962472205412E+02   -0.28554E-03   -0.10499E-02    84   0.385E-01    0.416E-02
DAV:   2    -0.962472922977E+02   -0.71757E-04   -0.81397E-04   104   0.983E-02    0.242E-02
DAV:   3    -0.962472858934E+02    0.64043E-05   -0.19118E-05   128   0.172E-02    0.136E-02
DAV:   4    -0.962472845914E+02    0.13020E-05   -0.12408E-05   104   0.117E-02    0.263E-03
DAV:   5    -0.962472837778E+02    0.81359E-06   -0.18527E-06   112   0.491E-03
   3 F= -.96247284E+02 E0= -.96247284E+02  d E =-.820847E-01
       N       E                     dE             d eps       ncg     rms          rms(c)
DAV:   1    -0.962964206672E+02   -0.49136E-01   -0.15927E+00    84   0.563E+00    0.393E-01
DAV:   2    -0.962986456452E+02   -0.22250E-02   -0.41816E-02   112   0.725E-01    0.212E-01
DAV:   3    -0.962977893329E+02    0.85631E-03   -0.16110E-03   120   0.144E-01    0.981E-02
DAV:   4    -0.962976818069E+02    0.10753E-03   -0.74642E-04   120   0.901E-02    0.276E-02
DAV:   5    -0.962977103934E+02   -0.28586E-04   -0.53235E-05   102   0.326E-02    0.115E-02
DAV:   6    -0.962977396560E+02   -0.29263E-04   -0.23102E-05   112   0.170E-02    0.373E-03
DAV:   7    -0.962977594553E+02   -0.19799E-04   -0.26885E-06    96   0.650E-03    0.251E-03
DAV:   8    -0.962977925791E+02   -0.33124E-04   -0.26772E-06   104   0.518E-03    0.117E-03
DAV:   9    -0.962978011719E+02   -0.85928E-05   -0.44046E-07    88   0.250E-03    0.835E-04
DAV:  10    -0.962978243169E+02   -0.23145E-04   -0.17536E-06    96   0.343E-03    0.508E-04
DAV:  11    -0.962978289514E+02   -0.46345E-05   -0.23534E-07    88   0.158E-03    0.326E-04
DAV:  12    -0.962978356299E+02   -0.66785E-05   -0.24125E-07    88   0.128E-03    0.267E-04
DAV:  13    -0.962978379336E+02   -0.23037E-05   -0.89315E-08    88   0.669E-04    0.165E-04
DAV:  14    -0.962978396344E+02   -0.17009E-05   -0.41204E-08    88   0.477E-04    0.695E-05
DAV:  15    -0.962978404038E+02   -0.76934E-06   -0.17031E-08    96   0.304E-04
   4 F= -.96297840E+02 E0= -.96297840E+02  d E =-.505566E-01
       N       E                     dE             d eps       ncg     rms          rms(c)
DAV:   1    -0.963082302301E+02   -0.10391E-01   -0.95545E-01    84   0.436E+00    0.301E-01
DAV:   2    -0.963095615144E+02   -0.13313E-02   -0.24905E-02   112   0.559E-01    0.162E-01
DAV:   3    -0.963090503518E+02    0.51116E-03   -0.96351E-04   120   0.111E-01    0.746E-02
DAV:   4    -0.963089782911E+02    0.72061E-04   -0.42610E-04   120   0.683E-02    0.211E-02
DAV:   5    -0.963089975392E+02   -0.19248E-04   -0.30114E-05   102   0.246E-02    0.868E-03
DAV:   6    -0.963090174234E+02   -0.19884E-04   -0.13437E-05   112   0.129E-02    0.290E-03
DAV:   7    -0.963090311623E+02   -0.13739E-04   -0.14562E-06    88   0.487E-03    0.187E-03
DAV:   8    -0.963090536462E+02   -0.22484E-04   -0.17618E-06    96   0.419E-03    0.946E-04
DAV:   9    -0.963090588009E+02   -0.51547E-05   -0.27909E-07    88   0.202E-03    0.644E-04
DAV:  10    -0.963090748774E+02   -0.16076E-04   -0.10942E-06    96   0.269E-03    0.355E-04
DAV:  11    -0.963090780228E+02   -0.31454E-05   -0.14659E-07    88   0.122E-03    0.256E-04
DAV:  12    -0.963090825888E+02   -0.45660E-05   -0.15338E-07    88   0.102E-03    0.178E-04
DAV:  13    -0.963090842529E+02   -0.16642E-05   -0.57303E-08    88   0.536E-04    0.114E-04
DAV:  14    -0.963090856236E+02   -0.13707E-05   -0.34416E-08    88   0.424E-04    0.478E-05
DAV:  15    -0.963090860515E+02   -0.42790E-06   -0.90646E-09    96   0.226E-04
   5 F= -.96309086E+02 E0= -.96309086E+02  d E =-.618023E-01
       N       E                     dE             d eps       ncg     rms          rms(c)
DAV:   1    -0.963367059998E+02   -0.27620E-01   -0.15073E+00    84   0.529E+00    0.381E-01
DAV:   2    -0.963412901407E+02   -0.45841E-02   -0.59721E-02   112   0.893E-01    0.213E-01
DAV:   3    -0.963406695434E+02    0.62060E-03   -0.18441E-03   120   0.168E-01    0.109E-01
DAV:   4    -0.963406637854E+02    0.57580E-05   -0.88564E-04   120   0.105E-01    0.311E-02
DAV:   5    -0.963406738235E+02   -0.10038E-04   -0.75074E-05   112   0.343E-02    0.110E-02
DAV:   6    -0.963406805101E+02   -0.66866E-05   -0.15170E-05   112   0.128E-02    0.417E-03
DAV:   7    -0.963406871397E+02   -0.66296E-05   -0.93688E-07    88   0.406E-03    0.132E-03
DAV:   8    -0.963406935006E+02   -0.63609E-05   -0.56118E-07    88   0.263E-03    0.688E-04
DAV:   9    -0.963407015063E+02   -0.80057E-05   -0.39759E-07    88   0.184E-03    0.388E-04
DAV:  10    -0.963407079113E+02   -0.64050E-05   -0.31432E-07    88   0.133E-03    0.329E-04
DAV:  11    -0.963407112006E+02   -0.32893E-05   -0.12074E-07    96   0.891E-04    0.167E-04
DAV:  12    -0.963407139607E+02   -0.27601E-05   -0.10288E-07    88   0.693E-04    0.819E-05
DAV:  13    -0.963407150628E+02   -0.11021E-05   -0.29792E-08    96   0.382E-04    0.802E-05
DAV:  14    -0.963407159428E+02   -0.87999E-06   -0.22617E-08    88   0.312E-04
   6 F= -.96340716E+02 E0= -.96340716E+02  d E =-.316299E-01
       N       E                     dE             d eps       ncg     rms          rms(c)
DAV:   1    -0.963455454695E+02   -0.48304E-02   -0.10215E+00    84   0.435E+00    0.313E-01
DAV:   2    -0.963486549590E+02   -0.31095E-02   -0.40463E-02   112   0.735E-01    0.175E-01
DAV:   3    -0.963482350015E+02    0.41996E-03   -0.12383E-03   120   0.138E-01    0.893E-02
DAV:   4    -0.963482280687E+02    0.69328E-05   -0.59563E-04   120   0.857E-02    0.251E-02
DAV:   5    -0.963482357577E+02   -0.76890E-05   -0.50408E-05   112   0.281E-02    0.908E-03
DAV:   6    -0.963482406415E+02   -0.48838E-05   -0.10165E-05   112   0.105E-02    0.346E-03
DAV:   7    -0.963482456800E+02   -0.50385E-05   -0.66960E-07    88   0.341E-03    0.106E-03
DAV:   8    -0.963482504100E+02   -0.47300E-05   -0.37915E-07    88   0.215E-03    0.577E-04
DAV:   9    -0.963482566606E+02   -0.62507E-05   -0.28870E-07    88   0.154E-03    0.309E-04
DAV:  10    -0.963482613810E+02   -0.47204E-05   -0.21910E-07    88   0.109E-03    0.273E-04
DAV:  11    -0.963482638623E+02   -0.24813E-05   -0.83789E-08    88   0.738E-04    0.142E-04
DAV:  12    -0.963482659301E+02   -0.20678E-05   -0.72762E-08    88   0.578E-04    0.688E-05
DAV:  13    -0.963482668267E+02   -0.89653E-06   -0.22919E-08    88   0.329E-04
   7 F= -.96348267E+02 E0= -.96348267E+02  d E =-.391808E-01
       N       E                     dE             d eps       ncg     rms          rms(c)
DAV:   1    -0.963642985068E+02   -0.16033E-01   -0.97183E-01    84   0.450E+00    0.246E-01
DAV:   2    -0.963646403814E+02   -0.34187E-03   -0.13022E-02   120   0.462E-01    0.133E-01
DAV:   3    -0.963642133393E+02    0.42704E-03   -0.85871E-04   120   0.108E-01    0.555E-02
DAV:   4    -0.963641404990E+02    0.72840E-04   -0.30628E-04   120   0.620E-02    0.169E-02
DAV:   5    -0.963641496099E+02   -0.91109E-05   -0.31056E-05   110   0.259E-02    0.770E-03
DAV:   6    -0.963641691208E+02   -0.19511E-04   -0.12489E-05   112   0.148E-02    0.355E-03
DAV:   7    -0.963641947557E+02   -0.25635E-04   -0.30507E-06   102   0.691E-03    0.247E-03
DAV:   8    -0.963642301300E+02   -0.35374E-04   -0.25302E-06    96   0.604E-03    0.113E-03
DAV:   9    -0.963642454253E+02   -0.15295E-04   -0.11125E-06    88   0.347E-03    0.814E-04
DAV:  10    -0.963642659086E+02   -0.20483E-04   -0.14648E-06    96   0.293E-03    0.501E-04
DAV:  11    -0.963642749558E+02   -0.90472E-05   -0.43164E-07    88   0.179E-03    0.271E-04
DAV:  12    -0.963642820515E+02   -0.70957E-05   -0.35373E-07    88   0.128E-03    0.201E-04
DAV:  13    -0.963642853630E+02   -0.33114E-05   -0.17115E-07    88   0.845E-04    0.140E-04
DAV:  14    -0.963642865214E+02   -0.11585E-05   -0.26280E-08    96   0.401E-04    0.614E-05
DAV:  15    -0.963642871702E+02   -0.64875E-06   -0.17625E-08    88   0.289E-04
   8 F= -.96364287E+02 E0= -.96364287E+02  d E =-.160203E-01
       N       E                     dE             d eps       ncg     rms          rms(c)
DAV:   1    -0.963663739596E+02   -0.20874E-02   -0.25946E-01    84   0.232E+00    0.127E-01
DAV:   2    -0.963664638411E+02   -0.89881E-04   -0.35055E-03   120   0.240E-01    0.689E-02
DAV:   3    -0.963663438687E+02    0.11997E-03   -0.22752E-04   120   0.556E-02    0.288E-02
DAV:   4    -0.963663198334E+02    0.24035E-04   -0.81018E-05   120   0.319E-02    0.873E-03
DAV:   5    -0.963663216172E+02   -0.17838E-05   -0.80859E-06   110   0.134E-02    0.394E-03
DAV:   6    -0.963663270229E+02   -0.54057E-05   -0.33118E-06   112   0.772E-03    0.184E-03
DAV:   7    -0.963663350380E+02   -0.80151E-05   -0.71699E-07    84   0.359E-03    0.115E-03
DAV:   8    -0.963663465529E+02   -0.11515E-04   -0.73194E-07    88   0.344E-03    0.625E-04
DAV:   9    -0.963663513746E+02   -0.48217E-05   -0.37432E-07    88   0.198E-03    0.406E-04
DAV:  10    -0.963663587997E+02   -0.74251E-05   -0.36319E-07    88   0.150E-03    0.199E-04
DAV:  11    -0.963663623093E+02   -0.35096E-05   -0.17599E-07    88   0.990E-04    0.149E-04
DAV:  12    -0.963663657190E+02   -0.34096E-05   -0.16795E-07    88   0.893E-04    0.960E-05
DAV:  13    -0.963663663040E+02   -0.58500E-06   -0.31641E-08    96   0.385E-04
   9 F= -.96366366E+02 E0= -.96366366E+02  d E =-.180995E-01
       N       E                     dE             d eps       ncg     rms          rms(c)
DAV:   1    -0.963737135181E+02   -0.73478E-02   -0.10512E+00    84   0.452E+00    0.259E-01
DAV:   2    -0.963755160397E+02   -0.18025E-02   -0.26140E-02   120   0.584E-01    0.134E-01
DAV:   3    -0.963752998207E+02    0.21622E-03   -0.98089E-04   120   0.119E-01    0.661E-02
DAV:   4    -0.963753015364E+02   -0.17157E-05   -0.32545E-04   112   0.668E-02    0.152E-02
DAV:   5    -0.963753048413E+02   -0.33049E-05   -0.35838E-05   112   0.238E-02    0.809E-03
DAV:   6    -0.963753071707E+02   -0.23294E-05   -0.52118E-06   112   0.820E-03    0.364E-03
DAV:   7    -0.963753114401E+02   -0.42695E-05   -0.52974E-07    88   0.305E-03    0.124E-03
DAV:   8    -0.963753162616E+02   -0.48214E-05   -0.28464E-07    88   0.215E-03    0.674E-04
DAV:   9    -0.963753229949E+02   -0.67333E-05   -0.33658E-07    88   0.202E-03    0.328E-04
DAV:  10    -0.963753274466E+02   -0.44518E-05   -0.27331E-07    88   0.155E-03    0.216E-04
DAV:  11    -0.963753302495E+02   -0.28029E-05   -0.77565E-08    88   0.895E-04    0.150E-04
DAV:  12    -0.963753316178E+02   -0.13682E-05   -0.32236E-08    88   0.438E-04    0.119E-04
DAV:  13    -0.963753327723E+02   -0.11546E-05   -0.18716E-08    88   0.309E-04    0.556E-05
DAV:  14    -0.963753335333E+02   -0.76094E-06   -0.15101E-08    88   0.264E-04
  10 F= -.96375334E+02 E0= -.96375334E+02  d E =-.896723E-02
       N       E                     dE             d eps       ncg     rms          rms(c)
DAV:   1    -0.963753542660E+02   -0.21494E-04   -0.25632E-03    88   0.223E-01    0.128E-02
DAV:   2    -0.963753583556E+02   -0.40897E-05   -0.63115E-05   120   0.287E-02    0.662E-03
DAV:   3    -0.963753577218E+02    0.63387E-06   -0.22907E-06    96   0.589E-03
  11 F= -.96375358E+02 E0= -.96375358E+02  d E =-.899142E-02
       N       E                     dE             d eps       ncg     rms          rms(c)
DAV:   1    -0.963787567375E+02   -0.33984E-02   -0.16952E-01    84   0.188E+00    0.107E-01
DAV:   2    -0.963789587104E+02   -0.20197E-03   -0.34365E-03   120   0.221E-01    0.586E-02
DAV:   3    -0.963789253710E+02    0.33339E-04   -0.11469E-04   120   0.394E-02    0.285E-02
DAV:   4    -0.963789241744E+02    0.11966E-05   -0.45039E-05   112   0.230E-02    0.597E-03
DAV:   5    -0.963789236286E+02    0.54582E-06   -0.35855E-06   112   0.843E-03
  12 F= -.96378924E+02 E0= -.96378924E+02  d E =-.356591E-02
       N       E                     dE             d eps       ncg     rms          rms(c)
DAV:   1    -0.963797830212E+02   -0.85885E-03   -0.12887E-01    84   0.164E+00    0.937E-02
DAV:   2    -0.963799403266E+02   -0.15731E-03   -0.26494E-03   120   0.194E-01    0.513E-02
DAV:   3    -0.963799148693E+02    0.25457E-04   -0.86983E-05   120   0.344E-02    0.251E-02
DAV:   4    -0.963799146728E+02    0.19646E-06   -0.34750E-05   112   0.203E-02    0.531E-03
DAV:   5    -0.963799155483E+02   -0.87545E-06   -0.28486E-06   112   0.761E-03
  13 F= -.96379916E+02 E0= -.96379916E+02  d E =-.455783E-02
       N       E                     dE             d eps       ncg     rms          rms(c)
DAV:   1    -0.963798834987E+02    0.31174E-04   -0.63868E-02    94   0.111E+00    0.836E-02
DAV:   2    -0.963800301878E+02   -0.14669E-03   -0.19304E-03   112   0.158E-01    0.422E-02
DAV:   3    -0.963800116763E+02    0.18511E-04   -0.49614E-05   120   0.248E-02    0.224E-02
DAV:   4    -0.963800062702E+02    0.54061E-05   -0.23285E-05   112   0.148E-02    0.379E-03
DAV:   5    -0.963800061179E+02    0.15232E-06   -0.18095E-06    96   0.576E-03
  14 F= -.96380006E+02 E0= -.96380006E+02  d E =-.905696E-04
       N       E                     dE             d eps       ncg     rms          rms(c)
DAV:   1    -0.963803030036E+02   -0.29673E-03   -0.13833E-02    94   0.516E-01    0.387E-02
DAV:   2    -0.963803354660E+02   -0.32462E-04   -0.40951E-04   112   0.727E-02    0.197E-02
DAV:   3    -0.963803332953E+02    0.21707E-05   -0.10607E-05   120   0.115E-02    0.104E-02
DAV:   4    -0.963803346532E+02   -0.13580E-05   -0.50312E-06   112   0.676E-03    0.167E-03
DAV:   5    -0.963803356400E+02   -0.98679E-06   -0.36325E-07    88   0.246E-03
  15 F= -.96380336E+02 E0= -.96380336E+02  d E =-.420092E-03
       N       E                     dE             d eps       ncg     rms          rms(c)
DAV:   1    -0.963806337215E+02   -0.29907E-03   -0.10236E-02    84   0.477E-01    0.278E-02
DAV:   2    -0.963806342844E+02   -0.56284E-06   -0.24704E-04   120   0.584E-02    0.174E-02
DAV:   3    -0.963806301191E+02    0.41653E-05   -0.20768E-05   120   0.154E-02    0.819E-03
DAV:   4    -0.963806291157E+02    0.10034E-05   -0.25151E-06    96   0.580E-03    0.241E-03
DAV:   5    -0.963806287775E+02    0.33819E-06   -0.38414E-07    88   0.241E-03
  16 F= -.96380629E+02 E0= -.96380629E+02  d E =-.293137E-03
