       N       E                     dE             d eps       ncg     rms          rms(c)
DAV:   1     0.249271603296E+03    0.24927E+03   -0.10133E+04   120   0.484E+02
DAV:   2    -0.200395566442E+02   -0.26931E+03   -0.25522E+03   156   0.916E+01
DAV:   3    -0.999480964262E+02   -0.79909E+02   -0.79691E+02   120   0.559E+01
DAV:   4    -0.103796441582E+03   -0.38483E+01   -0.38352E+01   120   0.175E+01
DAV:   5    -0.103863407548E+03   -0.66966E-01   -0.66910E-01   156   0.253E+00    0.145E+01
DAV:   6    -0.100584525122E+03    0.32789E+01   -0.15432E+00   108   0.428E+00    0.833E+00
DAV:   7    -0.989444169804E+02    0.16401E+01   -0.40536E+00   120   0.617E+00    0.128E+00
DAV:   8    -0.988847050014E+02    0.59712E-01   -0.33904E-01   132   0.220E+00    0.672E-01
DAV:   9    -0.988497074431E+02    0.34998E-01   -0.61786E-02   144   0.668E-01    0.359E-01
DAV:  10    -0.988488532157E+02    0.85423E-03   -0.32918E-03   132   0.188E-01    0.146E-01
DAV:  11    -0.988479267328E+02    0.92648E-03   -0.62051E-03   120   0.215E-01    0.108E-01
DAV:  12    -0.988537347580E+02   -0.58080E-02   -0.16998E-03   132   0.111E-01    0.594E-02
DAV:  13    -0.988573419727E+02   -0.36072E-02   -0.18153E-03   120   0.117E-01    0.465E-02
DAV:  14    -0.988601431496E+02   -0.28012E-02   -0.21957E-04   144   0.504E-02    0.234E-02
DAV:  15    -0.988647528273E+02   -0.46097E-02   -0.52011E-04    96   0.584E-02    0.142E-02
DAV:  16    -0.988665947561E+02   -0.18419E-02   -0.15033E-04   132   0.345E-02    0.881E-03
DAV:  17    -0.988675253572E+02   -0.93060E-03   -0.67275E-05   108   0.186E-02    0.567E-03
DAV:  18    -0.988678891969E+02   -0.36384E-03   -0.13099E-05   132   0.834E-03    0.164E-03
DAV:  19    -0.988680936248E+02   -0.20443E-03   -0.86574E-06   108   0.671E-03    0.210E-03
DAV:  20    -0.988681546875E+02   -0.61063E-04   -0.13729E-06   108   0.342E-03    0.732E-04
DAV:  21    -0.988681714752E+02   -0.16788E-04   -0.30560E-07    96   0.163E-03    0.594E-04
DAV:  22    -0.988681857118E+02   -0.14237E-04   -0.32551E-07    96   0.134E-03    0.233E-04
DAV:  23    -0.988681894418E+02   -0.37301E-05   -0.73919E-08   108   0.608E-04    0.159E-04
DAV:  24    -0.988681931735E+02   -0.37317E-05   -0.54759E-08    96   0.505E-04    0.682E-05
DAV:  25    -0.988681939135E+02   -0.73993E-06   -0.54364E-09   108   0.263E-04
   1 F= -.98868194E+02 E0= -.98868194E+02  d E =-.173229E-10
       N       E                     dE             d eps       ncg     rms          rms(c)
DAV:   1    -0.988646547087E+02    0.35385E-02   -0.82891E-02    96   0.790E-01    0.116E-01
DAV:   2    -0.988650219013E+02   -0.36719E-03   -0.39831E-03   120   0.201E-01    0.542E-02
DAV:   3    -0.988650122975E+02    0.96038E-05   -0.13480E-04   144   0.425E-02    0.276E-02
DAV:   4    -0.988650153318E+02   -0.30343E-05   -0.30958E-05   120   0.207E-02    0.761E-03
DAV:   5    -0.988650147041E+02    0.62766E-06   -0.63073E-06   132   0.950E-03
   2 F= -.98865015E+02 E0= -.98865015E+02  d E =-.162081E-10
       N       E                     dE             d eps       ncg     rms          rms(c)
DAV:   1    -0.988637692947E+02    0.12460E-02   -0.32909E-01    96   0.159E+00    0.243E-01
DAV:   2    -0.988652461139E+02   -0.14768E-02   -0.15994E-02   120   0.398E-01    0.109E-01
DAV:   3    -0.988652122895E+02    0.33824E-04   -0.52405E-04   132   0.831E-02    0.577E-02
DAV:   4    -0.988652278626E+02   -0.15573E-04   -0.12508E-04   120   0.409E-02    0.161E-02
DAV:   5    -0.988652242648E+02    0.35978E-05   -0.25962E-05   132   0.189E-02    0.820E-03
DAV:   6    -0.988652240480E+02    0.21680E-06   -0.47602E-06   132   0.718E-03
   3 F= -.98865224E+02 E0= -.98865224E+02  d E =-.191014E-10
       N       E                     dE             d eps       ncg     rms          rms(c)
DAV:   1    -0.988645696548E+02    0.65461E-03   -0.16707E-01    96   0.114E+00    0.155E-01
DAV:   2    -0.988652603125E+02   -0.69066E-03   -0.74504E-03   120   0.279E-01    0.746E-02
DAV:   3    -0.988652535854E+02    0.67271E-05   -0.25095E-04   144   0.585E-02    0.375E-02
DAV:   4    -0.988652653627E+02   -0.11777E-04   -0.54675E-05   120   0.276E-02    0.109E-02
DAV:   5    -0.988652649530E+02    0.40975E-06   -0.96963E-06   132   0.123E-02
   4 F= -.98865265E+02 E0= -.98865265E+02  d E =-.162701E-10
       N       E                     dE             d eps       ncg     rms          rms(c)
DAV:   1    -0.988637297820E+02    0.15356E-02   -0.32981E-01    96   0.161E+00    0.196E-01
DAV:   2    -0.988651680648E+02   -0.14383E-02   -0.15178E-02   120   0.397E-01    0.105E-01
DAV:   3    -0.988651662795E+02    0.17853E-05   -0.51812E-04   120   0.857E-02    0.519E-02
DAV:   4    -0.988651839630E+02   -0.17684E-04   -0.11607E-04   120   0.414E-02    0.139E-02
DAV:   5    -0.988651792852E+02    0.46779E-05   -0.21909E-05   132   0.184E-02    0.789E-03
DAV:   6    -0.988651787410E+02    0.54411E-06   -0.64446E-06   132   0.864E-03
   5 F= -.98865179E+02 E0= -.98865179E+02  d E =-.175732E-10
       N       E                     dE             d eps       ncg     rms          rms(c)
DAV:   1    -0.988628658419E+02    0.23134E-02   -0.16562E-01    96   0.116E+00    0.147E-01
DAV:   2    -0.988637580567E+02   -0.89221E-03   -0.93744E-03   120   0.315E-01    0.890E-02
DAV:   3    -0.988637355724E+02    0.22484E-04   -0.29100E-04   132   0.662E-02    0.456E-02
DAV:   4    -0.988637448651E+02   -0.92926E-05   -0.10149E-04   132   0.370E-02    0.106E-02
DAV:   5    -0.988637435859E+02    0.12792E-05   -0.18513E-05   132   0.160E-02    0.706E-03
DAV:   6    -0.988637454002E+02   -0.18143E-05   -0.40746E-06   132   0.644E-03    0.395E-03
DAV:   7    -0.988637506265E+02   -0.52263E-05   -0.62609E-07   108   0.291E-03    0.144E-03
DAV:   8    -0.988637562533E+02   -0.56268E-05   -0.38087E-07   108   0.193E-03    0.579E-04
DAV:   9    -0.988637629403E+02   -0.66870E-05   -0.41911E-07    96   0.168E-03    0.539E-04
DAV:  10    -0.988637696068E+02   -0.66665E-05   -0.55733E-07   120   0.156E-03    0.217E-04
DAV:  11    -0.988637716053E+02   -0.19985E-05   -0.55744E-08   108   0.713E-04    0.157E-04
DAV:  12    -0.988637731993E+02   -0.15939E-05   -0.39133E-08    96   0.457E-04    0.917E-05
DAV:  13    -0.988637743540E+02   -0.11548E-05   -0.23743E-08   108   0.343E-04    0.706E-05
DAV:  14    -0.988637749947E+02   -0.64067E-06   -0.68580E-09    96   0.227E-04
   6 F= -.98863775E+02 E0= -.98863775E+02  d E =-.195402E-10
       N       E                     dE             d eps       ncg     rms          rms(c)
DAV:   1    -0.988617578193E+02    0.20165E-02   -0.33829E-01    96   0.163E+00    0.262E-01
DAV:   2    -0.988639783768E+02   -0.22206E-02   -0.24079E-02   120   0.478E-01    0.166E-01
DAV:   3    -0.988638236893E+02    0.15469E-03   -0.68469E-04   132   0.102E-01    0.853E-02
DAV:   4    -0.988638239490E+02   -0.25971E-06   -0.41402E-04   120   0.680E-02    0.163E-02
DAV:   5    -0.988638150239E+02    0.89251E-05   -0.61171E-05   132   0.273E-02    0.118E-02
DAV:   6    -0.988638153404E+02   -0.31652E-06   -0.12048E-05   132   0.902E-03    0.761E-03
DAV:   7    -0.988638268647E+02   -0.11524E-04   -0.11508E-06   120   0.353E-03    0.317E-03
DAV:   8    -0.988638471900E+02   -0.20325E-04   -0.20126E-06   120   0.437E-03    0.127E-03
DAV:   9    -0.988638619723E+02   -0.14782E-04   -0.10882E-06   120   0.236E-03    0.154E-03
DAV:  10    -0.988638842022E+02   -0.22230E-04   -0.12399E-06   108   0.230E-03    0.600E-04
DAV:  11    -0.988638886385E+02   -0.44362E-05   -0.11895E-07   108   0.898E-04    0.406E-04
DAV:  12    -0.988638973752E+02   -0.87368E-05   -0.25757E-07   108   0.104E-03    0.235E-04
DAV:  13    -0.988639002577E+02   -0.28825E-05   -0.77924E-08   108   0.544E-04    0.217E-04
DAV:  14    -0.988639023385E+02   -0.20808E-05   -0.17397E-08    96   0.370E-04    0.871E-05
DAV:  15    -0.988639033309E+02   -0.99238E-06   -0.88474E-09   108   0.258E-04
   7 F= -.98863903E+02 E0= -.98863903E+02  d E =-.163677E-10
       N       E                     dE             d eps       ncg     rms          rms(c)
DAV:   1    -0.988628182031E+02    0.10841E-02   -0.19217E-01    96   0.125E+00    0.187E-01
DAV:   2    -0.988641877681E+02   -0.13696E-02   -0.14172E-02   120   0.389E-01    0.119E-01
DAV:   3    -0.988641106817E+02    0.77086E-04   -0.39304E-04   144   0.795E-02    0.646E-02
DAV:   4    -0.988641097922E+02    0.88946E-06   -0.21160E-04   120   0.525E-02    0.121E-02
DAV:   5    -0.988641054472E+02    0.43450E-05   -0.40163E-05   132   0.217E-02    0.920E-03
DAV:   6    -0.988641058786E+02   -0.43142E-06   -0.45026E-06   132   0.641E-03
   8 F= -.98864106E+02 E0= -.98864106E+02  d E =-.222831E-10
       N       E                     dE             d eps       ncg     rms          rms(c)
DAV:   1    -0.988624168667E+02    0.16886E-02   -0.33985E-01    96   0.161E+00    0.252E-01
DAV:   2    -0.988642777122E+02   -0.18608E-02   -0.19193E-02   120   0.423E-01    0.152E-01
DAV:   3    -0.988642294835E+02    0.48229E-04   -0.53555E-04   120   0.816E-02    0.818E-02
DAV:   4    -0.988642285148E+02    0.96875E-06   -0.19694E-04   120   0.496E-02    0.147E-02
DAV:   5    -0.988642193966E+02    0.91182E-05   -0.35720E-05   144   0.214E-02    0.978E-03
DAV:   6    -0.988642194178E+02   -0.21212E-07   -0.77423E-06   120   0.856E-03
   9 F= -.98864219E+02 E0= -.98864219E+02  d E =-.148430E-10
       N       E                     dE             d eps       ncg     rms          rms(c)
DAV:   1    -0.988621550791E+02    0.20643E-02   -0.17222E-01    96   0.112E+00    0.179E-01
DAV:   2    -0.988632435848E+02   -0.10885E-02   -0.10976E-02   132   0.330E-01    0.114E-01
DAV:   3    -0.988632277458E+02    0.15839E-04   -0.27770E-04   144   0.641E-02    0.602E-02
DAV:   4    -0.988632476773E+02   -0.19932E-04   -0.16124E-04   120   0.443E-02    0.116E-02
DAV:   5    -0.988632432609E+02    0.44164E-05   -0.29557E-05   132   0.188E-02    0.805E-03
DAV:   6    -0.988632436263E+02   -0.36539E-06   -0.71457E-06   132   0.737E-03
  10 F= -.98863244E+02 E0= -.98863244E+02  d E =-.187240E-10
       N       E                     dE             d eps       ncg     rms          rms(c)
DAV:   1    -0.988607591632E+02    0.24841E-02   -0.35188E-01    96   0.160E+00    0.256E-01
DAV:   2    -0.988634983818E+02   -0.27392E-02   -0.27549E-02   132   0.515E-01    0.184E-01
DAV:   3    -0.988633538844E+02    0.14450E-03   -0.62511E-04   132   0.101E-01    0.940E-02
DAV:   4    -0.988633817359E+02   -0.27851E-04   -0.51982E-04   132   0.780E-02    0.179E-02
DAV:   5    -0.988633642029E+02    0.17533E-04   -0.10655E-04   132   0.347E-02    0.120E-02
DAV:   6    -0.988633645979E+02   -0.39503E-06   -0.17090E-05   132   0.101E-02    0.672E-03
DAV:   7    -0.988633774222E+02   -0.12824E-04   -0.11022E-06   132   0.303E-03    0.343E-03
DAV:   8    -0.988633972848E+02   -0.19863E-04   -0.40356E-06   132   0.549E-03    0.168E-03
DAV:   9    -0.988634104621E+02   -0.13177E-04   -0.14559E-06   132   0.293E-03    0.163E-03
DAV:  10    -0.988634263076E+02   -0.15846E-04   -0.12614E-06   120   0.242E-03    0.630E-04
DAV:  11    -0.988634309931E+02   -0.46855E-05   -0.17918E-07   108   0.114E-03    0.335E-04
DAV:  12    -0.988634381705E+02   -0.71774E-05   -0.31408E-07    96   0.114E-03    0.199E-04
DAV:  13    -0.988634399871E+02   -0.18166E-05   -0.54232E-08   108   0.482E-04    0.186E-04
DAV:  14    -0.988634417356E+02   -0.17485E-05   -0.19774E-08   108   0.369E-04    0.107E-04
DAV:  15    -0.988634425827E+02   -0.84711E-06   -0.12191E-08    96   0.272E-04
  11 F= -.98863443E+02 E0= -.98863443E+02  d E =-.183238E-10
       N       E                     dE             d eps       ncg     rms          rms(c)
DAV:   1    -0.988638627351E+02   -0.42100E-03   -0.17233E-01    96   0.114E+00    0.171E-01
DAV:   2    -0.988651408247E+02   -0.12781E-02   -0.13034E-02   132   0.352E-01    0.121E-01
DAV:   3    -0.988650746412E+02    0.66184E-04   -0.30588E-04   144   0.684E-02    0.628E-02
DAV:   4    -0.988650776142E+02   -0.29730E-05   -0.21281E-04   132   0.513E-02    0.115E-02
DAV:   5    -0.988650716620E+02    0.59522E-05   -0.46901E-05   132   0.234E-02    0.863E-03
DAV:   6    -0.988650732107E+02   -0.15487E-05   -0.74157E-06   132   0.703E-03    0.534E-03
DAV:   7    -0.988650832674E+02   -0.10057E-04   -0.93655E-07   120   0.317E-03    0.226E-03
DAV:   8    -0.988650977287E+02   -0.14461E-04   -0.20604E-06   108   0.419E-03    0.123E-03
DAV:   9    -0.988651115303E+02   -0.13802E-04   -0.13406E-06   108   0.291E-03    0.110E-03
DAV:  10    -0.988651202578E+02   -0.87274E-05   -0.53529E-07   108   0.179E-03    0.501E-04
DAV:  11    -0.988651238220E+02   -0.35642E-05   -0.15706E-07   108   0.951E-04    0.270E-04
DAV:  12    -0.988651285874E+02   -0.47654E-05   -0.21706E-07    96   0.981E-04    0.195E-04
DAV:  13    -0.988651297046E+02   -0.11172E-05   -0.39706E-08   108   0.453E-04    0.220E-04
DAV:  14    -0.988651309236E+02   -0.12191E-05   -0.18292E-08   108   0.347E-04    0.873E-05
DAV:  15    -0.988651315495E+02   -0.62583E-06   -0.81473E-09   108   0.268E-04
  12 F= -.98865132E+02 E0= -.98865132E+02  d E =-.188911E-10
       N       E                     dE             d eps       ncg     rms          rms(c)
DAV:   1    -0.988629910475E+02    0.21399E-02   -0.32792E-01    96   0.152E+00    0.217E-01
DAV:   2    -0.988646777517E+02   -0.16867E-02   -0.17296E-02   132   0.394E-01    0.127E-01
DAV:   3    -0.988646598643E+02    0.17887E-04   -0.49610E-04   132   0.806E-02    0.672E-02
DAV:   4    -0.988646706367E+02   -0.10772E-04   -0.15570E-04   132   0.507E-02    0.128E-02
DAV:   5    -0.988646646447E+02    0.59920E-05   -0.41846E-05   132   0.240E-02    0.925E-03
DAV:   6    -0.988646647198E+02   -0.75044E-07   -0.65724E-06   132   0.786E-03
  13 F= -.98864665E+02 E0= -.98864665E+02  d E =-.189471E-10
       N       E                     dE             d eps       ncg     rms          rms(c)
DAV:   1    -0.988623767486E+02    0.22879E-02   -0.16538E-01    96   0.122E+00    0.158E-01
DAV:   2    -0.988636385806E+02   -0.12618E-02   -0.12871E-02   144   0.361E-01    0.107E-01
DAV:   3    -0.988636136239E+02    0.24957E-04   -0.31468E-04   132   0.686E-02    0.604E-02
DAV:   4    -0.988636301536E+02   -0.16530E-04   -0.13997E-04   120   0.464E-02    0.104E-02
DAV:   5    -0.988636299389E+02    0.21466E-06   -0.35551E-05   132   0.217E-02    0.785E-03
DAV:   6    -0.988636309188E+02   -0.97984E-06   -0.44734E-06   132   0.679E-03
  14 F= -.98863631E+02 E0= -.98863631E+02  d E =-.135732E-10
       N       E                     dE             d eps       ncg     rms          rms(c)
DAV:   1    -0.988619138319E+02    0.17161E-02   -0.34389E-01    96   0.164E+00    0.224E-01
DAV:   2    -0.988640404728E+02   -0.21266E-02   -0.21418E-02   132   0.461E-01    0.160E-01
DAV:   3    -0.988640061458E+02    0.34327E-04   -0.51339E-04   120   0.862E-02    0.802E-02
DAV:   4    -0.988639871548E+02    0.18991E-04   -0.24303E-04   120   0.523E-02    0.148E-02
DAV:   5    -0.988639767264E+02    0.10428E-04   -0.33465E-05   132   0.206E-02    0.954E-03
DAV:   6    -0.988639818160E+02   -0.50895E-05   -0.13986E-05   132   0.106E-02    0.518E-03
DAV:   7    -0.988640031691E+02   -0.21353E-04   -0.30464E-06   120   0.559E-03    0.198E-03
DAV:   8    -0.988640261544E+02   -0.22985E-04   -0.20909E-06    96   0.397E-03    0.113E-03
DAV:   9    -0.988640514519E+02   -0.25298E-04   -0.29829E-06   108   0.378E-03    0.987E-04
DAV:  10    -0.988640676305E+02   -0.16179E-04   -0.14117E-06   120   0.252E-03    0.380E-04
DAV:  11    -0.988640743181E+02   -0.66876E-05   -0.31788E-07   108   0.121E-03    0.281E-04
DAV:  12    -0.988640787510E+02   -0.44329E-05   -0.23068E-07    96   0.912E-04    0.163E-04
DAV:  13    -0.988640804879E+02   -0.17369E-05   -0.45384E-08   108   0.463E-04    0.659E-05
DAV:  14    -0.988640813320E+02   -0.84408E-06   -0.88804E-09    84   0.284E-04
  15 F= -.98864081E+02 E0= -.98864081E+02  d E =-.242394E-10
       N       E                     dE             d eps       ncg     rms          rms(c)
DAV:   1    -0.988641255531E+02   -0.45065E-04   -0.16846E-01    96   0.114E+00    0.150E-01
DAV:   2    -0.988651240642E+02   -0.99851E-03   -0.10180E-02   108   0.312E-01    0.102E-01
DAV:   3    -0.988651003871E+02    0.23677E-04   -0.24426E-04   132   0.598E-02    0.527E-02
DAV:   4    -0.988651016555E+02   -0.12684E-05   -0.11883E-04   132   0.406E-02    0.101E-02
DAV:   5    -0.988650975242E+02    0.41314E-05   -0.26289E-05   132   0.188E-02    0.694E-03
DAV:   6    -0.988650972301E+02    0.29408E-06   -0.50426E-06   132   0.661E-03
  16 F= -.98865097E+02 E0= -.98865097E+02  d E =-.167267E-10
       N       E                     dE             d eps       ncg     rms          rms(c)
DAV:   1    -0.988636431952E+02    0.14543E-02   -0.33230E-01    96   0.154E+00    0.193E-01
DAV:   2    -0.988651322710E+02   -0.14891E-02   -0.14865E-02   132   0.362E-01    0.111E-01
DAV:   3    -0.988651715029E+02   -0.39232E-04   -0.46782E-04   132   0.794E-02    0.558E-02
DAV:   4    -0.988652038852E+02   -0.32382E-04   -0.13056E-04   144   0.488E-02    0.115E-02
DAV:   5    -0.988652044247E+02   -0.53948E-06   -0.34695E-05   132   0.216E-02    0.858E-03
DAV:   6    -0.988652057673E+02   -0.13426E-05   -0.55787E-06   132   0.724E-03    0.456E-03
DAV:   7    -0.988652092933E+02   -0.35260E-05   -0.93735E-07   108   0.386E-03    0.186E-03
DAV:   8    -0.988652146712E+02   -0.53780E-05   -0.60288E-07   108   0.334E-03    0.835E-04
DAV:   9    -0.988652211561E+02   -0.64849E-05   -0.47807E-07   108   0.270E-03    0.688E-04
DAV:  10    -0.988652274611E+02   -0.63050E-05   -0.40390E-07   108   0.210E-03    0.309E-04
DAV:  11    -0.988652306132E+02   -0.31521E-05   -0.12131E-07   108   0.117E-03    0.256E-04
DAV:  12    -0.988652337659E+02   -0.31528E-05   -0.95873E-08    96   0.766E-04    0.145E-04
DAV:  13    -0.988652346412E+02   -0.87531E-06   -0.19022E-08   108   0.387E-04
  17 F= -.98865235E+02 E0= -.98865235E+02  d E =-.186233E-10
       N       E                     dE             d eps       ncg     rms          rms(c)
DAV:   1    -0.988625781456E+02    0.26556E-02   -0.16803E-01    96   0.113E+00    0.144E-01
DAV:   2    -0.988635368638E+02   -0.95872E-03   -0.97520E-03   132   0.305E-01    0.961E-02
DAV:   3    -0.988635228617E+02    0.14002E-04   -0.24295E-04   132   0.596E-02    0.502E-02
DAV:   4    -0.988635308583E+02   -0.79966E-05   -0.11275E-04   144   0.421E-02    0.100E-02
DAV:   5    -0.988635283774E+02    0.24808E-05   -0.30644E-05   132   0.201E-02    0.740E-03
DAV:   6    -0.988635276074E+02    0.77009E-06   -0.48011E-06   132   0.655E-03
  18 F= -.98863528E+02 E0= -.98863528E+02  d E =-.236285E-10
       N       E                     dE             d eps       ncg     rms          rms(c)
DAV:   1    -0.988608161433E+02    0.27122E-02   -0.34903E-01    96   0.161E+00    0.242E-01
DAV:   2    -0.988634512619E+02   -0.26351E-02   -0.26483E-02   132   0.499E-01    0.178E-01
DAV:   3    -0.988633546910E+02    0.96571E-04   -0.61887E-04   144   0.954E-02    0.980E-02
DAV:   4    -0.988633595387E+02   -0.48477E-05   -0.41557E-04   120   0.699E-02    0.170E-02
DAV:   5    -0.988633499428E+02    0.95959E-05   -0.93135E-05   132   0.318E-02    0.123E-02
DAV:   6    -0.988633484531E+02    0.14897E-05   -0.17517E-05   132   0.107E-02    0.729E-03
DAV:   7    -0.988633650618E+02   -0.16609E-04   -0.31244E-06   132   0.528E-03    0.297E-03
DAV:   8    -0.988633907415E+02   -0.25680E-04   -0.32477E-06    96   0.454E-03    0.117E-03
DAV:   9    -0.988634110756E+02   -0.20334E-04   -0.22709E-06   120   0.323E-03    0.166E-03
DAV:  10    -0.988634298052E+02   -0.18730E-04   -0.17343E-06    96   0.291E-03    0.434E-04
DAV:  11    -0.988634344475E+02   -0.46423E-05   -0.21324E-07   108   0.119E-03    0.378E-04
DAV:  12    -0.988634398452E+02   -0.53977E-05   -0.27078E-07    84   0.104E-03    0.206E-04
DAV:  13    -0.988634415342E+02   -0.16890E-05   -0.57988E-08   108   0.525E-04    0.135E-04
DAV:  14    -0.988634429971E+02   -0.14629E-05   -0.23741E-08    96   0.381E-04    0.494E-05
DAV:  15    -0.988634435597E+02   -0.56259E-06   -0.59069E-09   108   0.219E-04
  19 F= -.98863444E+02 E0= -.98863444E+02  d E =-.139730E-10
       N       E                     dE             d eps       ncg     rms          rms(c)
DAV:   1    -0.988627985996E+02    0.64440E-03   -0.18567E-01    96   0.134E+00    0.163E-01
DAV:   2    -0.988641296913E+02   -0.13311E-02   -0.14291E-02   132   0.403E-01    0.113E-01
DAV:   3    -0.988640762733E+02    0.53418E-04   -0.23992E-04   144   0.599E-02    0.680E-02
DAV:   4    -0.988640677562E+02    0.85171E-05   -0.17297E-04   120   0.494E-02    0.103E-02
DAV:   5    -0.988640635218E+02    0.42344E-05   -0.46427E-05   132   0.236E-02    0.741E-03
DAV:   6    -0.988640616844E+02    0.18374E-05   -0.69905E-06   120   0.830E-03    0.485E-03
DAV:   7    -0.988640684075E+02   -0.67231E-05   -0.22122E-06   120   0.481E-03    0.182E-03
DAV:   8    -0.988640810220E+02   -0.12614E-04   -0.10513E-06    96   0.319E-03    0.847E-04
DAV:   9    -0.988640918431E+02   -0.10821E-04   -0.64991E-07    96   0.211E-03    0.965E-04
DAV:  10    -0.988641029685E+02   -0.11125E-04   -0.62585E-07    84   0.177E-03    0.261E-04
DAV:  11    -0.988641076100E+02   -0.46416E-05   -0.17055E-07   108   0.890E-04    0.229E-04
DAV:  12    -0.988641106916E+02   -0.30815E-05   -0.63541E-08    96   0.577E-04    0.116E-04
DAV:  13    -0.988641119846E+02   -0.12931E-05   -0.18680E-08   108   0.330E-04    0.654E-05
DAV:  14    -0.988641131406E+02   -0.11560E-05   -0.11181E-08    96   0.272E-04    0.286E-05
DAV:  15    -0.988641134605E+02   -0.31991E-06    0.23271E-09   108   0.137E-04
  20 F= -.98864113E+02 E0= -.98864113E+02  d E =-.152999E-10
       N       E                     dE             d eps       ncg     rms          rms(c)
DAV:   1    -0.988627601893E+02    0.13530E-02   -0.40973E-01   108   0.190E+00    0.216E-01
DAV:   2    -0.988641584028E+02   -0.13982E-02   -0.17230E-02   120   0.444E-01    0.122E-01
DAV:   3    -0.988640493315E+02    0.10907E-03   -0.28313E-04   132   0.605E-02    0.630E-02
DAV:   4    -0.988639904872E+02    0.58844E-04   -0.11792E-04   132   0.421E-02    0.109E-02
DAV:   5    -0.988639870168E+02    0.34704E-05   -0.26810E-05   132   0.192E-02    0.694E-03
DAV:   6    -0.988639998514E+02   -0.12835E-04   -0.10165E-05   132   0.930E-03    0.389E-03
DAV:   7    -0.988640223066E+02   -0.22455E-04   -0.17008E-06   120   0.430E-03    0.212E-03
DAV:   8    -0.988640593404E+02   -0.37034E-04   -0.40380E-06   120   0.461E-03    0.114E-03
DAV:   9    -0.988640798671E+02   -0.20527E-04   -0.14614E-06   108   0.282E-03    0.828E-04
DAV:  10    -0.988641001965E+02   -0.20329E-04   -0.17312E-06   108   0.264E-03    0.332E-04
DAV:  11    -0.988641075095E+02   -0.73130E-05   -0.28283E-07   108   0.122E-03    0.302E-04
DAV:  12    -0.988641137135E+02   -0.62040E-05   -0.31731E-07    96   0.111E-03    0.120E-04
DAV:  13    -0.988641151006E+02   -0.13871E-05   -0.41397E-08   108   0.452E-04    0.898E-05
DAV:  14    -0.988641164546E+02   -0.13541E-05   -0.15775E-08    96   0.332E-04    0.458E-05
DAV:  15    -0.988641169949E+02   -0.54024E-06   -0.43826E-09   108   0.212E-04
  21 F= -.98864117E+02 E0= -.98864117E+02  d E =-.224098E-10
       N       E                     dE             d eps       ncg     rms          rms(c)
DAV:   1    -0.988637082070E+02    0.40825E-03   -0.20156E-01   108   0.133E+00    0.149E-01
DAV:   2    -0.988644325970E+02   -0.72439E-03   -0.89858E-03   120   0.322E-01    0.915E-02
DAV:   3    -0.988643670715E+02    0.65526E-04   -0.14494E-04   132   0.447E-02    0.459E-02
DAV:   4    -0.988643335948E+02    0.33477E-04   -0.68701E-05   132   0.308E-02    0.782E-03
DAV:   5    -0.988643288956E+02    0.46992E-05   -0.13804E-05   132   0.139E-02    0.499E-03
DAV:   6    -0.988643360966E+02   -0.72010E-05   -0.57166E-06   132   0.659E-03    0.237E-03
DAV:   7    -0.988643492005E+02   -0.13104E-04   -0.56975E-07   108   0.235E-03    0.134E-03
DAV:   8    -0.988643725326E+02   -0.23332E-04   -0.25764E-06   108   0.326E-03    0.875E-04
DAV:   9    -0.988643865357E+02   -0.14003E-04   -0.73524E-07   108   0.194E-03    0.414E-04
DAV:  10    -0.988643975672E+02   -0.11031E-04   -0.92178E-07   108   0.171E-03    0.284E-04
DAV:  11    -0.988644035731E+02   -0.60059E-05   -0.23394E-07    96   0.103E-03    0.177E-04
DAV:  12    -0.988644053097E+02   -0.17366E-05   -0.48192E-08   108   0.490E-04    0.889E-05
DAV:  13    -0.988644066299E+02   -0.13202E-05   -0.17609E-08    96   0.334E-04    0.488E-05
DAV:  14    -0.988644073946E+02   -0.76473E-06   -0.55165E-09    96   0.232E-04
  22 F= -.98864407E+02 E0= -.98864407E+02  d E =-.146505E-10
       N       E                     dE             d eps       ncg     rms          rms(c)
DAV:   1    -0.988632555582E+02    0.11511E-02   -0.40016E-01    96   0.192E+00    0.215E-01
DAV:   2    -0.988647092990E+02   -0.14537E-02   -0.17740E-02   132   0.437E-01    0.112E-01
DAV:   3    -0.988646266035E+02    0.82696E-04   -0.31145E-04   132   0.633E-02    0.580E-02
DAV:   4    -0.988645836221E+02    0.42981E-04   -0.98701E-05   132   0.402E-02    0.111E-02
DAV:   5    -0.988645738086E+02    0.98135E-05   -0.23071E-05   132   0.188E-02    0.733E-03
DAV:   6    -0.988645760841E+02   -0.22754E-05   -0.70113E-06   132   0.859E-03    0.411E-03
DAV:   7    -0.988645873520E+02   -0.11268E-04   -0.12076E-06   108   0.453E-03    0.197E-03
DAV:   8    -0.988646074190E+02   -0.20067E-04   -0.18682E-06   108   0.421E-03    0.128E-03
DAV:   9    -0.988646259987E+02   -0.18580E-04   -0.11967E-06   120   0.299E-03    0.837E-04
DAV:  10    -0.988646389165E+02   -0.12918E-04   -0.51812E-07   108   0.181E-03    0.378E-04
DAV:  11    -0.988646459200E+02   -0.70035E-05   -0.20614E-07   108   0.101E-03    0.280E-04
DAV:  12    -0.988646532478E+02   -0.73278E-05   -0.22825E-07    96   0.967E-04    0.177E-04
DAV:  13    -0.988646552012E+02   -0.19535E-05   -0.32240E-08   108   0.428E-04    0.120E-04
DAV:  14    -0.988646571764E+02   -0.19751E-05   -0.25574E-08    96   0.351E-04    0.486E-05
DAV:  15    -0.988646578150E+02   -0.63861E-06   -0.15038E-09   108   0.195E-04
  23 F= -.98864658E+02 E0= -.98864658E+02  d E =-.185854E-10
       N       E                     dE             d eps       ncg     rms          rms(c)
DAV:   1    -0.988643423247E+02    0.31485E-03   -0.20164E-01    96   0.135E+00    0.147E-01
DAV:   2    -0.988650346797E+02   -0.69236E-03   -0.87363E-03   132   0.308E-01    0.823E-02
DAV:   3    -0.988649765065E+02    0.58173E-04   -0.13329E-04   132   0.410E-02    0.413E-02
DAV:   4    -0.988649333117E+02    0.43195E-04   -0.40423E-05   132   0.233E-02    0.770E-03
DAV:   5    -0.988649302801E+02    0.30316E-05   -0.58294E-06   132   0.106E-02    0.417E-03
DAV:   6    -0.988649435532E+02   -0.13273E-04   -0.48646E-06   120   0.832E-03    0.211E-03
DAV:   7    -0.988649620382E+02   -0.18485E-04   -0.25948E-06   120   0.525E-03    0.156E-03
DAV:   8    -0.988649818937E+02   -0.19855E-04   -0.12894E-06   120   0.284E-03    0.791E-04
DAV:   9    -0.988649993534E+02   -0.17460E-04   -0.15714E-06    96   0.272E-03    0.548E-04
DAV:  10    -0.988650112465E+02   -0.11893E-04   -0.10249E-06   108   0.212E-03    0.223E-04
DAV:  11    -0.988650157144E+02   -0.44679E-05   -0.21125E-07   108   0.110E-03    0.193E-04
DAV:  12    -0.988650180245E+02   -0.23101E-05   -0.83932E-08    96   0.609E-04    0.977E-05
DAV:  13    -0.988650193511E+02   -0.13266E-05   -0.39133E-08   108   0.413E-04    0.487E-05
DAV:  14    -0.988650199469E+02   -0.59584E-06   -0.46040E-09   108   0.241E-04
  24 F= -.98865020E+02 E0= -.98865020E+02  d E =-.170845E-10
       N       E                     dE             d eps       ncg     rms          rms(c)
DAV:   1    -0.988635029154E+02    0.15164E-02   -0.40719E-01    96   0.189E+00    0.184E-01
DAV:   2    -0.988648475115E+02   -0.13446E-02   -0.16511E-02   132   0.418E-01    0.100E-01
DAV:   3    -0.988647822283E+02    0.65283E-04   -0.27866E-04   132   0.584E-02    0.511E-02
DAV:   4    -0.988647376035E+02    0.44625E-04   -0.73740E-05   132   0.358E-02    0.982E-03
DAV:   5    -0.988647281357E+02    0.94677E-05   -0.18901E-05   132   0.177E-02    0.652E-03
DAV:   6    -0.988647314545E+02   -0.33188E-05   -0.61410E-06   132   0.903E-03    0.368E-03
DAV:   7    -0.988647431160E+02   -0.11661E-04   -0.13868E-06   108   0.549E-03    0.171E-03
DAV:   8    -0.988647610968E+02   -0.17981E-04   -0.16184E-06   108   0.449E-03    0.128E-03
DAV:   9    -0.988647849417E+02   -0.23845E-04   -0.17290E-06   108   0.358E-03    0.560E-04
DAV:  10    -0.988647954265E+02   -0.10485E-04   -0.40780E-07   108   0.180E-03    0.461E-04
DAV:  11    -0.988648059004E+02   -0.10474E-04   -0.36525E-07    96   0.128E-03    0.211E-04
DAV:  12    -0.988648100224E+02   -0.41221E-05   -0.97558E-08   108   0.657E-04    0.162E-04
DAV:  13    -0.988648132746E+02   -0.32521E-05   -0.49153E-08    84   0.496E-04    0.676E-05
DAV:  14    -0.988648145008E+02   -0.12263E-05   -0.12957E-08    96   0.275E-04    0.581E-05
DAV:  15    -0.988648154557E+02   -0.95486E-06   -0.53559E-09    84   0.229E-04
  25 F= -.98864815E+02 E0= -.98864815E+02  d E =-.214323E-10
       N       E                     dE             d eps       ncg     rms          rms(c)
DAV:   1    -0.988629310614E+02    0.18834E-02   -0.20041E-01    96   0.138E+00    0.146E-01
DAV:   2    -0.988640102848E+02   -0.10792E-02   -0.13058E-02   132   0.355E-01    0.848E-02
DAV:   3    -0.988639711864E+02    0.39098E-04   -0.19562E-04   132   0.466E-02    0.500E-02
DAV:   4    -0.988639357250E+02    0.35461E-04   -0.70019E-05   132   0.327E-02    0.838E-03
DAV:   5    -0.988639302265E+02    0.54985E-05   -0.16990E-05   132   0.152E-02    0.526E-03
DAV:   6    -0.988639340761E+02   -0.38496E-05   -0.48030E-06   132   0.779E-03    0.283E-03
DAV:   7    -0.988639460496E+02   -0.11974E-04   -0.14581E-06    96   0.451E-03    0.145E-03
DAV:   8    -0.988639648557E+02   -0.18806E-04   -0.12660E-06   108   0.342E-03    0.791E-04
DAV:   9    -0.988639804129E+02   -0.15557E-04   -0.10949E-06    96   0.269E-03    0.644E-04
DAV:  10    -0.988639937312E+02   -0.13318E-04   -0.84557E-07   108   0.200E-03    0.300E-04
DAV:  11    -0.988639978912E+02   -0.41600E-05   -0.11135E-07   108   0.827E-04    0.259E-04
DAV:  12    -0.988640026949E+02   -0.48037E-05   -0.19756E-07    96   0.923E-04    0.100E-04
DAV:  13    -0.988640037910E+02   -0.10961E-05   -0.30311E-08   108   0.403E-04    0.829E-05
DAV:  14    -0.988640046121E+02   -0.82101E-06   -0.45226E-09   108   0.252E-04
  26 F= -.98864005E+02 E0= -.98864005E+02  d E =-.152688E-10
       N       E                     dE             d eps       ncg     rms          rms(c)
DAV:   1    -0.988626585508E+02    0.13452E-02   -0.40966E-01   120   0.189E+00    0.216E-01
DAV:   2    -0.988640644357E+02   -0.14059E-02   -0.17357E-02   120   0.446E-01    0.124E-01
DAV:   3    -0.988639501515E+02    0.11428E-03   -0.28436E-04   132   0.608E-02    0.636E-02
DAV:   4    -0.988638918422E+02    0.58309E-04   -0.12158E-04   132   0.423E-02    0.109E-02
DAV:   5    -0.988638879723E+02    0.38699E-05   -0.26685E-05   132   0.191E-02    0.694E-03
DAV:   6    -0.988639010407E+02   -0.13068E-04   -0.10632E-05   132   0.933E-03    0.386E-03
DAV:   7    -0.988639237928E+02   -0.22752E-04   -0.15951E-06   108   0.407E-03    0.210E-03
DAV:   8    -0.988639615254E+02   -0.37733E-04   -0.41525E-06   120   0.455E-03    0.115E-03
DAV:   9    -0.988639830525E+02   -0.21527E-04   -0.14946E-06   108   0.277E-03    0.795E-04
DAV:  10    -0.988640040557E+02   -0.21003E-04   -0.17743E-06   108   0.263E-03    0.340E-04
DAV:  11    -0.988640116235E+02   -0.75678E-05   -0.27252E-07   108   0.119E-03    0.295E-04
DAV:  12    -0.988640179069E+02   -0.62834E-05   -0.31462E-07    96   0.109E-03    0.120E-04
DAV:  13    -0.988640193225E+02   -0.14156E-05   -0.37084E-08   108   0.437E-04    0.875E-05
DAV:  14    -0.988640208063E+02   -0.14837E-05   -0.18453E-08    96   0.344E-04    0.470E-05
DAV:  15    -0.988640213140E+02   -0.50769E-06   -0.28795E-09   108   0.199E-04
  27 F= -.98864021E+02 E0= -.98864021E+02  d E =-.227514E-10
       N       E                     dE             d eps       ncg     rms          rms(c)
DAV:   1    -0.988636824575E+02    0.33835E-03   -0.20348E-01    96   0.136E+00    0.152E-01
DAV:   2    -0.988644021957E+02   -0.71974E-03   -0.87741E-03   120   0.315E-01    0.782E-02
DAV:   3    -0.988643566652E+02    0.45531E-04   -0.13844E-04   132   0.417E-02    0.416E-02
DAV:   4    -0.988643282599E+02    0.28405E-04   -0.47074E-05   132   0.270E-02    0.794E-03
DAV:   5    -0.988643218801E+02    0.63798E-05   -0.10574E-05   132   0.128E-02    0.476E-03
DAV:   6    -0.988643227467E+02   -0.86662E-06   -0.35919E-06   132   0.686E-03
  28 F= -.98864323E+02 E0= -.98864323E+02  d E =-.199534E-10
       N       E                     dE             d eps       ncg     rms          rms(c)
DAV:   1    -0.988628745483E+02    0.14473E-02   -0.40171E-01    96   0.191E+00    0.219E-01
DAV:   2    -0.988643207062E+02   -0.14462E-02   -0.17551E-02   120   0.437E-01    0.115E-01
DAV:   3    -0.988642451473E+02    0.75559E-04   -0.29868E-04   132   0.620E-02    0.585E-02
DAV:   4    -0.988641838059E+02    0.61341E-04   -0.85737E-05   132   0.344E-02    0.114E-02
DAV:   5    -0.988641765536E+02    0.72523E-05   -0.13142E-05   132   0.150E-02    0.644E-03
DAV:   6    -0.988641903448E+02   -0.13791E-04   -0.76010E-06   132   0.100E-02    0.315E-03
DAV:   7    -0.988642137167E+02   -0.23372E-04   -0.37130E-06   132   0.643E-03    0.209E-03
DAV:   8    -0.988642393829E+02   -0.25666E-04   -0.18104E-06   108   0.344E-03    0.104E-03
DAV:   9    -0.988642612675E+02   -0.21885E-04   -0.19787E-06   108   0.315E-03    0.765E-04
DAV:  10    -0.988642792174E+02   -0.17950E-04   -0.17614E-06   108   0.270E-03    0.313E-04
DAV:  11    -0.988642859590E+02   -0.67417E-05   -0.36274E-07   108   0.139E-03    0.258E-04
DAV:  12    -0.988642896235E+02   -0.36645E-05   -0.15358E-07    96   0.801E-04    0.121E-04
DAV:  13    -0.988642913565E+02   -0.17330E-05   -0.63555E-08   108   0.507E-04    0.648E-05
DAV:  14    -0.988642921881E+02   -0.83154E-06   -0.98707E-09    96   0.288E-04
  29 F= -.98864292E+02 E0= -.98864292E+02  d E =-.143875E-10
       N       E                     dE             d eps       ncg     rms          rms(c)
DAV:   1    -0.988647006040E+02   -0.40925E-03   -0.20156E-01    96   0.135E+00    0.146E-01
DAV:   2    -0.988653800496E+02   -0.67945E-03   -0.82106E-03   132   0.294E-01    0.702E-02
DAV:   3    -0.988653522279E+02    0.27822E-04   -0.15559E-04   132   0.448E-02    0.366E-02
DAV:   4    -0.988653386958E+02    0.13532E-04   -0.42303E-05   132   0.288E-02    0.758E-03
DAV:   5    -0.988653358761E+02    0.28197E-05   -0.13827E-05   132   0.140E-02    0.551E-03
DAV:   6    -0.988653365763E+02   -0.70023E-06   -0.23753E-06   132   0.498E-03
  30 F= -.98865337E+02 E0= -.98865337E+02  d E =-.188626E-10
       N       E                     dE             d eps       ncg     rms          rms(c)
DAV:   1    -0.988637628734E+02    0.15730E-02   -0.40902E-01    96   0.187E+00    0.187E-01
DAV:   2    -0.988650776050E+02   -0.13147E-02   -0.15795E-02   132   0.401E-01    0.925E-02
DAV:   3    -0.988650403028E+02    0.37302E-04   -0.29047E-04   132   0.601E-02    0.487E-02
DAV:   4    -0.988650219968E+02    0.18306E-04   -0.75284E-05   132   0.388E-02    0.981E-03
DAV:   5    -0.988650190802E+02    0.29165E-05   -0.24801E-05   132   0.191E-02    0.735E-03
DAV:   6    -0.988650214895E+02   -0.24093E-05   -0.43489E-06   132   0.707E-03    0.474E-03
DAV:   7    -0.988650285997E+02   -0.71102E-05   -0.73378E-07   108   0.400E-03    0.191E-03
DAV:   8    -0.988650390728E+02   -0.10473E-04   -0.12519E-06   120   0.403E-03    0.122E-03
DAV:   9    -0.988650549778E+02   -0.15905E-04   -0.11175E-06    96   0.343E-03    0.625E-04
DAV:  10    -0.988650619039E+02   -0.69261E-05   -0.51697E-07   108   0.200E-03    0.640E-04
DAV:  11    -0.988650655867E+02   -0.36829E-05   -0.66854E-08   108   0.862E-04    0.422E-04
DAV:  12    -0.988650718450E+02   -0.62583E-05   -0.23213E-07    96   0.107E-03    0.291E-04
DAV:  13    -0.988650736404E+02   -0.17954E-05   -0.44196E-08   108   0.504E-04    0.294E-04
DAV:  14    -0.988650752200E+02   -0.15795E-05   -0.22204E-08    84   0.427E-04    0.670E-05
DAV:  15    -0.988650759344E+02   -0.71438E-06   -0.59504E-09    96   0.250E-04
  31 F= -.98865076E+02 E0= -.98865076E+02  d E =-.199995E-10
       N       E                     dE             d eps       ncg     rms          rms(c)
DAV:   1    -0.988634670293E+02    0.16082E-02   -0.19713E-01    96   0.133E+00    0.141E-01
DAV:   2    -0.988645102681E+02   -0.10432E-02   -0.12580E-02   120   0.322E-01    0.774E-02
DAV:   3    -0.988644697092E+02    0.40559E-04   -0.22027E-04   144   0.497E-02    0.427E-02
DAV:   4    -0.988644394089E+02    0.30300E-04   -0.49543E-05   132   0.301E-02    0.907E-03
DAV:   5    -0.988644318510E+02    0.75579E-05   -0.16915E-05   132   0.158E-02    0.551E-03
DAV:   6    -0.988644351520E+02   -0.33010E-05   -0.32120E-06   132   0.602E-03    0.367E-03
DAV:   7    -0.988644459737E+02   -0.10822E-04   -0.10159E-06   120   0.339E-03    0.136E-03
DAV:   8    -0.988644582677E+02   -0.12294E-04   -0.96408E-07   120   0.298E-03    0.997E-04
DAV:   9    -0.988644760581E+02   -0.17790E-04   -0.15464E-06   108   0.305E-03    0.490E-04
DAV:  10    -0.988644831276E+02   -0.70695E-05   -0.43117E-07   108   0.174E-03    0.466E-04
DAV:  11    -0.988644870351E+02   -0.39075E-05   -0.13833E-07    96   0.924E-04    0.224E-04
DAV:  12    -0.988644908916E+02   -0.38565E-05   -0.17329E-07    96   0.847E-04    0.179E-04
DAV:  13    -0.988644923365E+02   -0.14448E-05   -0.42372E-08   108   0.450E-04    0.109E-04
DAV:  14    -0.988644931954E+02   -0.85892E-06   -0.17852E-08    84   0.300E-04
  32 F= -.98864493E+02 E0= -.98864493E+02  d E =-.187287E-10
       N       E                     dE             d eps       ncg     rms          rms(c)
DAV:   1    -0.988627799228E+02    0.17124E-02   -0.39052E-01    96   0.165E+00    0.194E-01
DAV:   2    -0.988643685253E+02   -0.15886E-02   -0.19605E-02   144   0.364E-01    0.118E-01
DAV:   3    -0.988642467950E+02    0.12173E-03   -0.33074E-04   132   0.640E-02    0.598E-02
DAV:   4    -0.988641997125E+02    0.47083E-04   -0.12826E-04   132   0.419E-02    0.114E-02
DAV:   5    -0.988641885867E+02    0.11126E-04   -0.24433E-05   132   0.181E-02    0.697E-03
DAV:   6    -0.988641925694E+02   -0.39826E-05   -0.71775E-06   120   0.723E-03    0.372E-03
DAV:   7    -0.988642078174E+02   -0.15248E-04   -0.14712E-06   120   0.352E-03    0.177E-03
DAV:   8    -0.988642307590E+02   -0.22942E-04   -0.13822E-06    96   0.272E-03    0.106E-03
DAV:   9    -0.988642511588E+02   -0.20400E-04   -0.10356E-06   108   0.208E-03    0.746E-04
DAV:  10    -0.988642705630E+02   -0.19404E-04   -0.11552E-06    96   0.197E-03    0.374E-04
DAV:  11    -0.988642758981E+02   -0.53352E-05   -0.80222E-08   108   0.789E-04    0.235E-04
DAV:  12    -0.988642828613E+02   -0.69632E-05   -0.21146E-07    84   0.923E-04    0.124E-04
DAV:  13    -0.988642846178E+02   -0.17565E-05   -0.24192E-08   108   0.405E-04    0.842E-05
DAV:  14    -0.988642860907E+02   -0.14729E-05   -0.10103E-08    84   0.294E-04    0.424E-05
DAV:  15    -0.988642865845E+02   -0.49380E-06    0.11971E-09   108   0.159E-04
  33 F= -.98864287E+02 E0= -.98864287E+02  d E =-.241175E-10
       N       E                     dE             d eps       ncg     rms          rms(c)
DAV:   1    -0.988648219731E+02   -0.53588E-03   -0.19873E-01    96   0.116E+00    0.136E-01
DAV:   2    -0.988655735446E+02   -0.75157E-03   -0.91781E-03   132   0.266E-01    0.759E-02
DAV:   3    -0.988655232685E+02    0.50276E-04   -0.15907E-04   132   0.450E-02    0.391E-02
DAV:   4    -0.988655001261E+02    0.23142E-04   -0.56546E-05   120   0.293E-02    0.760E-03
DAV:   5    -0.988654963096E+02    0.38165E-05   -0.11777E-05   132   0.130E-02    0.482E-03
DAV:   6    -0.988654998757E+02   -0.35661E-05   -0.32755E-06   132   0.561E-03    0.241E-03
DAV:   7    -0.988655083560E+02   -0.84803E-05   -0.79144E-07   120   0.281E-03    0.121E-03
DAV:   8    -0.988655199849E+02   -0.11629E-04   -0.76931E-07   120   0.207E-03    0.639E-04
DAV:   9    -0.988655307965E+02   -0.10812E-04   -0.76576E-07   120   0.186E-03    0.487E-04
DAV:  10    -0.988655404538E+02   -0.96573E-05   -0.84586E-07   108   0.174E-03    0.239E-04
DAV:  11    -0.988655427398E+02   -0.22860E-05   -0.50653E-08   108   0.677E-04    0.156E-04
DAV:  12    -0.988655452650E+02   -0.25251E-05   -0.94254E-08    96   0.640E-04    0.765E-05
DAV:  13    -0.988655460654E+02   -0.80037E-06   -0.17988E-08   108   0.314E-04
  34 F= -.98865546E+02 E0= -.98865546E+02  d E =-.384555E-10
       N       E                     dE             d eps       ncg     rms          rms(c)
DAV:   1    -0.988643585283E+02    0.11867E-02   -0.40864E-01    96   0.169E+00    0.171E-01
DAV:   2    -0.988655326010E+02   -0.11741E-02   -0.13999E-02   132   0.339E-01    0.792E-02
DAV:   3    -0.988654869872E+02    0.45614E-04   -0.28045E-04   132   0.594E-02    0.399E-02
DAV:   4    -0.988654697913E+02    0.17196E-04   -0.67663E-05   132   0.367E-02    0.979E-03
DAV:   5    -0.988654668629E+02    0.29284E-05   -0.21771E-05   132   0.182E-02    0.626E-03
DAV:   6    -0.988654682419E+02   -0.13790E-05   -0.42432E-06   132   0.718E-03    0.352E-03
DAV:   7    -0.988654719329E+02   -0.36910E-05   -0.37180E-07   108   0.267E-03    0.161E-03
DAV:   8    -0.988654780116E+02   -0.60787E-05   -0.52872E-07    84   0.287E-03    0.772E-04
DAV:   9    -0.988654866884E+02   -0.86768E-05   -0.69768E-07    96   0.286E-03    0.488E-04
DAV:  10    -0.988654923362E+02   -0.56478E-05   -0.47670E-07   108   0.194E-03    0.449E-04
DAV:  11    -0.988654943909E+02   -0.20547E-05   -0.49296E-08    96   0.890E-04    0.269E-04
DAV:  12    -0.988654974254E+02   -0.30345E-05   -0.87933E-08    96   0.786E-04    0.179E-04
DAV:  13    -0.988654986862E+02   -0.12608E-05   -0.30818E-08   108   0.424E-04    0.157E-04
DAV:  14    -0.988654999926E+02   -0.13064E-05   -0.26849E-08    84   0.362E-04    0.472E-05
DAV:  15    -0.988655003330E+02   -0.34038E-06   -0.76117E-11   108   0.179E-04
  35 F= -.98865500E+02 E0= -.98865500E+02  d E =-.290161E-10
       N       E                     dE             d eps       ncg     rms          rms(c)
DAV:   1    -0.988645899660E+02    0.91003E-03   -0.20447E-01    96   0.120E+00    0.128E-01
DAV:   2    -0.988651820829E+02   -0.59212E-03   -0.71024E-03   108   0.244E-01    0.576E-02
DAV:   3    -0.988651578390E+02    0.24244E-04   -0.14429E-04   132   0.421E-02    0.292E-02
DAV:   4    -0.988651492270E+02    0.86120E-05   -0.35405E-05   120   0.262E-02    0.744E-03
DAV:   5    -0.988651476103E+02    0.16168E-05   -0.10662E-05   132   0.128E-02    0.446E-03
DAV:   6    -0.988651482658E+02   -0.65556E-06   -0.20182E-06   120   0.513E-03
  36 F= -.98865148E+02 E0= -.98865148E+02  d E =-.925574E-11
       N       E                     dE             d eps       ncg     rms          rms(c)
DAV:   1    -0.988639074260E+02    0.12402E-02   -0.40492E-01    96   0.168E+00    0.212E-01
DAV:   2    -0.988652478886E+02   -0.13405E-02   -0.16092E-02   144   0.358E-01    0.931E-02
DAV:   3    -0.988651891215E+02    0.58767E-04   -0.30576E-04   132   0.607E-02    0.479E-02
DAV:   4    -0.988651708431E+02    0.18278E-04   -0.90787E-05   132   0.371E-02    0.117E-02
DAV:   5    -0.988651649223E+02    0.59207E-05   -0.19785E-05   132   0.168E-02    0.629E-03
DAV:   6    -0.988651663298E+02   -0.14074E-05   -0.40397E-06   132   0.656E-03    0.340E-03
DAV:   7    -0.988651720526E+02   -0.57228E-05   -0.53596E-07   108   0.272E-03    0.140E-03
DAV:   8    -0.988651794508E+02   -0.73982E-05   -0.59045E-07   120   0.235E-03    0.766E-04
DAV:   9    -0.988651883834E+02   -0.89327E-05   -0.57733E-07   120   0.214E-03    0.455E-04
DAV:  10    -0.988651952782E+02   -0.68947E-05   -0.44731E-07   108   0.167E-03    0.288E-04
DAV:  11    -0.988651975935E+02   -0.23153E-05   -0.95329E-08   108   0.855E-04    0.210E-04
DAV:  12    -0.988652000882E+02   -0.24947E-05   -0.71085E-08   108   0.605E-04    0.113E-04
DAV:  13    -0.988652016983E+02   -0.16101E-05   -0.55016E-08    96   0.460E-04    0.973E-05
DAV:  14    -0.988652025834E+02   -0.88511E-06   -0.14998E-08   108   0.276E-04
  37 F= -.98865203E+02 E0= -.98865203E+02  d E =-.430653E-10
       N       E                     dE             d eps       ncg     rms          rms(c)
DAV:   1    -0.988641792657E+02    0.10224E-02   -0.20071E-01    96   0.130E+00    0.149E-01
DAV:   2    -0.988651120126E+02   -0.93275E-03   -0.11156E-02   120   0.310E-01    0.689E-02
DAV:   3    -0.988650711981E+02    0.40815E-04   -0.20706E-04   132   0.514E-02    0.376E-02
DAV:   4    -0.988650537716E+02    0.17426E-04   -0.60266E-05   132   0.312E-02    0.932E-03
DAV:   5    -0.988650502724E+02    0.34992E-05   -0.15705E-05   132   0.150E-02    0.566E-03
DAV:   6    -0.988650510441E+02   -0.77162E-06   -0.27563E-06   132   0.606E-03
  38 F= -.98865051E+02 E0= -.98865051E+02  d E =-.417212E-10
       N       E                     dE             d eps       ncg     rms          rms(c)
DAV:   1    -0.988635813353E+02    0.14689E-02   -0.40732E-01    96   0.175E+00    0.188E-01
DAV:   2    -0.988650932811E+02   -0.15119E-02   -0.17740E-02   132   0.393E-01    0.980E-02
DAV:   3    -0.988650346284E+02    0.58653E-04   -0.30688E-04   132   0.630E-02    0.520E-02
DAV:   4    -0.988650065794E+02    0.28049E-04   -0.11053E-04   120   0.422E-02    0.109E-02
DAV:   5    -0.988650002848E+02    0.62946E-05   -0.27027E-05   132   0.196E-02    0.709E-03
DAV:   6    -0.988650020127E+02   -0.17279E-05   -0.50427E-06   132   0.735E-03    0.401E-03
DAV:   7    -0.988650088343E+02   -0.68216E-05   -0.89022E-07   108   0.326E-03    0.169E-03
DAV:   8    -0.988650176539E+02   -0.88196E-05   -0.61103E-07   108   0.244E-03    0.806E-04
DAV:   9    -0.988650295937E+02   -0.11940E-04   -0.10033E-06   108   0.245E-03    0.576E-04
DAV:  10    -0.988650396357E+02   -0.10042E-04   -0.88309E-07   108   0.210E-03    0.307E-04
DAV:  11    -0.988650425948E+02   -0.29591E-05   -0.81394E-08   108   0.914E-04    0.229E-04
DAV:  12    -0.988650458765E+02   -0.32816E-05   -0.11847E-07    96   0.766E-04    0.121E-04
DAV:  13    -0.988650473401E+02   -0.14636E-05   -0.42187E-08   108   0.434E-04    0.101E-04
DAV:  14    -0.988650482878E+02   -0.94770E-06   -0.10183E-08    96   0.278E-04
  39 F= -.98865048E+02 E0= -.98865048E+02  d E =-.126611E-10
       N       E                     dE             d eps       ncg     rms          rms(c)
DAV:   1    -0.988640298127E+02    0.10175E-02   -0.20574E-01    96   0.124E+00    0.145E-01
DAV:   2    -0.988646248254E+02   -0.59501E-03   -0.72197E-03   144   0.256E-01    0.590E-02
DAV:   3    -0.988645972857E+02    0.27540E-04   -0.14110E-04   120   0.418E-02    0.303E-02
DAV:   4    -0.988645874534E+02    0.98323E-05   -0.36280E-05   144   0.248E-02    0.792E-03
DAV:   5    -0.988645850736E+02    0.23798E-05   -0.92140E-06   132   0.118E-02    0.429E-03
DAV:   6    -0.988645852796E+02   -0.20599E-06   -0.19568E-06   132   0.502E-03
  40 F= -.98864585E+02 E0= -.98864585E+02  d E =-.315709E-10
       N       E                     dE             d eps       ncg     rms          rms(c)
DAV:   1    -0.988630013257E+02    0.15837E-02   -0.39511E-01    96   0.177E+00    0.211E-01
DAV:   2    -0.988644656582E+02   -0.14643E-02   -0.17782E-02   132   0.406E-01    0.115E-01
DAV:   3    -0.988643545960E+02    0.11106E-03   -0.29125E-04   120   0.631E-02    0.591E-02
DAV:   4    -0.988643161248E+02    0.38471E-04   -0.14027E-04   120   0.437E-02    0.119E-02
DAV:   5    -0.988643058257E+02    0.10299E-04   -0.23961E-05   132   0.182E-02    0.691E-03
DAV:   6    -0.988643065503E+02   -0.72457E-06   -0.65790E-06   132   0.774E-03
  41 F= -.98864307E+02 E0= -.98864307E+02  d E =-.123870E-10
       N       E                     dE             d eps       ncg     rms          rms(c)
DAV:   1    -0.988650311203E+02   -0.72529E-03   -0.20060E-01    96   0.125E+00    0.151E-01
DAV:   2    -0.988657246771E+02   -0.69356E-03   -0.81173E-03   132   0.276E-01    0.691E-02
DAV:   3    -0.988657065511E+02    0.18126E-04   -0.14294E-04   132   0.430E-02    0.363E-02
DAV:   4    -0.988657140571E+02   -0.75059E-05   -0.49131E-05   120   0.278E-02    0.790E-03
DAV:   5    -0.988657159908E+02   -0.19337E-05   -0.10656E-05   132   0.124E-02    0.493E-03
DAV:   6    -0.988657173774E+02   -0.13866E-05   -0.20305E-06   120   0.518E-03    0.246E-03
DAV:   7    -0.988657197268E+02   -0.23494E-05   -0.49171E-07   108   0.275E-03    0.994E-04
DAV:   8    -0.988657224122E+02   -0.26854E-05   -0.25941E-07    96   0.192E-03    0.456E-04
DAV:   9    -0.988657253212E+02   -0.29090E-05   -0.20043E-07   108   0.148E-03    0.329E-04
DAV:  10    -0.988657280929E+02   -0.27717E-05   -0.16813E-07    96   0.112E-03    0.161E-04
DAV:  11    -0.988657292981E+02   -0.12053E-05   -0.35902E-08   108   0.585E-04    0.143E-04
DAV:  12    -0.988657305894E+02   -0.12912E-05   -0.35310E-08    84   0.467E-04    0.604E-05
DAV:  13    -0.988657310767E+02   -0.48737E-06   -0.79563E-09    96   0.255E-04
  42 F= -.98865731E+02 E0= -.98865731E+02  d E =-.156143E-10
       N       E                     dE             d eps       ncg     rms          rms(c)
DAV:   1    -0.988641810856E+02    0.15495E-02   -0.41057E-01    96   0.177E+00    0.176E-01
DAV:   2    -0.988653499670E+02   -0.11689E-02   -0.14091E-02   132   0.344E-01    0.782E-02
DAV:   3    -0.988653067025E+02    0.43264E-04   -0.29576E-04   132   0.609E-02    0.390E-02
DAV:   4    -0.988652919925E+02    0.14710E-04   -0.65730E-05   132   0.361E-02    0.102E-02
DAV:   5    -0.988652897883E+02    0.22042E-05   -0.19062E-05   132   0.172E-02    0.650E-03
DAV:   6    -0.988652916527E+02   -0.18644E-05   -0.35256E-06   132   0.658E-03    0.374E-03
DAV:   7    -0.988652960105E+02   -0.43579E-05   -0.35745E-07   108   0.262E-03    0.149E-03
DAV:   8    -0.988653018242E+02   -0.58136E-05   -0.38500E-07   108   0.257E-03    0.774E-04
DAV:   9    -0.988653121142E+02   -0.10290E-04   -0.83041E-07    84   0.315E-03    0.386E-04
DAV:  10    -0.988653167332E+02   -0.46190E-05   -0.45090E-07   108   0.187E-03    0.449E-04
DAV:  11    -0.988653179028E+02   -0.11696E-05   -0.29769E-08   108   0.695E-04    0.364E-04
DAV:  12    -0.988653207544E+02   -0.28516E-05   -0.70063E-08   108   0.789E-04    0.141E-04
DAV:  13    -0.988653223396E+02   -0.15852E-05   -0.59727E-08   108   0.559E-04    0.227E-04
DAV:  14    -0.988653230208E+02   -0.68124E-06   -0.36975E-09   108   0.304E-04
  43 F= -.98865323E+02 E0= -.98865323E+02  d E =-.284281E-10
       N       E                     dE             d eps       ncg     rms          rms(c)
DAV:   1    -0.988642833401E+02    0.10390E-02   -0.20219E-01    96   0.127E+00    0.139E-01
DAV:   2    -0.988652226367E+02   -0.93930E-03   -0.11028E-02   108   0.287E-01    0.628E-02
DAV:   3    -0.988652066601E+02    0.15977E-04   -0.19680E-04   132   0.445E-02    0.344E-02
DAV:   4    -0.988651966608E+02    0.99994E-05   -0.41372E-05   120   0.233E-02    0.875E-03
DAV:   5    -0.988651931363E+02    0.35245E-05   -0.68220E-06   132   0.104E-02    0.454E-03
DAV:   6    -0.988651934206E+02   -0.28437E-06   -0.23456E-06   120   0.603E-03
  44 F= -.98865193E+02 E0= -.98865193E+02  d E =-.431079E-10
       N       E                     dE             d eps       ncg     rms          rms(c)
DAV:   1    -0.988637294053E+02    0.14637E-02   -0.40912E-01    96   0.175E+00    0.189E-01
DAV:   2    -0.988651905438E+02   -0.14611E-02   -0.17159E-02   132   0.386E-01    0.936E-02
DAV:   3    -0.988651367499E+02    0.53794E-04   -0.30473E-04   132   0.624E-02    0.496E-02
DAV:   4    -0.988651119294E+02    0.24820E-04   -0.10107E-04   132   0.412E-02    0.110E-02
DAV:   5    -0.988651060814E+02    0.58480E-05   -0.26580E-05   132   0.195E-02    0.702E-03
DAV:   6    -0.988651073708E+02   -0.12894E-05   -0.46938E-06   132   0.727E-03    0.404E-03
DAV:   7    -0.988651130053E+02   -0.56345E-05   -0.70760E-07    96   0.307E-03    0.169E-03
DAV:   8    -0.988651206901E+02   -0.76848E-05   -0.65432E-07   120   0.255E-03    0.810E-04
DAV:   9    -0.988651316229E+02   -0.10933E-04   -0.78501E-07   108   0.247E-03    0.485E-04
DAV:  10    -0.988651392102E+02   -0.75873E-05   -0.54243E-07   108   0.186E-03    0.317E-04
DAV:  11    -0.988651424784E+02   -0.32682E-05   -0.14364E-07   108   0.101E-03    0.202E-04
DAV:  12    -0.988651453699E+02   -0.28915E-05   -0.10775E-07    96   0.711E-04    0.124E-04
DAV:  13    -0.988651466590E+02   -0.12891E-05   -0.34482E-08   108   0.402E-04    0.898E-05
DAV:  14    -0.988651477547E+02   -0.10957E-05   -0.25958E-08    84   0.325E-04    0.396E-05
DAV:  15    -0.988651481876E+02   -0.43294E-06   -0.13223E-09    96   0.182E-04
  45 F= -.98865148E+02 E0= -.98865148E+02  d E =-.121416E-10
       N       E                     dE             d eps       ncg     rms          rms(c)
DAV:   1    -0.988637228941E+02    0.14249E-02   -0.19833E-01    96   0.123E+00    0.137E-01
DAV:   2    -0.988644860136E+02   -0.76312E-03   -0.93773E-03   132   0.287E-01    0.832E-02
DAV:   3    -0.988644236365E+02    0.62377E-04   -0.15260E-04   132   0.464E-02    0.417E-02
DAV:   4    -0.988643977260E+02    0.25911E-04   -0.68329E-05   120   0.312E-02    0.804E-03
DAV:   5    -0.988643915500E+02    0.61760E-05   -0.12089E-05   132   0.131E-02    0.523E-03
DAV:   6    -0.988643925581E+02   -0.10081E-05   -0.39554E-06   120   0.604E-03    0.253E-03
DAV:   7    -0.988643995580E+02   -0.69999E-05   -0.82248E-07    96   0.305E-03    0.125E-03
DAV:   8    -0.988644119491E+02   -0.12391E-04   -0.85777E-07    96   0.226E-03    0.765E-04
DAV:   9    -0.988644230674E+02   -0.11118E-04   -0.51763E-07    96   0.165E-03    0.517E-04
DAV:  10    -0.988644336150E+02   -0.10548E-04   -0.60426E-07    84   0.145E-03    0.270E-04
DAV:  11    -0.988644373403E+02   -0.37254E-05   -0.91106E-08   108   0.673E-04    0.188E-04
DAV:  12    -0.988644414017E+02   -0.40614E-05   -0.94544E-08    84   0.680E-04    0.923E-05
DAV:  13    -0.988644424941E+02   -0.10924E-05   -0.17076E-08   108   0.336E-04    0.816E-05
DAV:  14    -0.988644433665E+02   -0.87240E-06   -0.19068E-09    96   0.233E-04
  46 F= -.98864443E+02 E0= -.98864443E+02  d E =-.140186E-10
       N       E                     dE             d eps       ncg     rms          rms(c)
DAV:   1    -0.988633300539E+02    0.11124E-02   -0.39316E-01    96   0.178E+00    0.221E-01
DAV:   2    -0.988648246337E+02   -0.14946E-02   -0.18142E-02   120   0.406E-01    0.113E-01
DAV:   3    -0.988647159842E+02    0.10865E-03   -0.31030E-04   144   0.637E-02    0.603E-02
DAV:   4    -0.988646686642E+02    0.47320E-04   -0.12439E-04   120   0.421E-02    0.116E-02
DAV:   5    -0.988646620169E+02    0.66473E-05   -0.24355E-05   132   0.181E-02    0.711E-03
DAV:   6    -0.988646688718E+02   -0.68548E-05   -0.62821E-06   120   0.791E-03    0.359E-03
DAV:   7    -0.988646858505E+02   -0.16979E-04   -0.20896E-06   132   0.441E-03    0.171E-03
DAV:   8    -0.988647073775E+02   -0.21527E-04   -0.16576E-06   120   0.302E-03    0.950E-04
DAV:   9    -0.988647237461E+02   -0.16369E-04   -0.11497E-06   120   0.227E-03    0.733E-04
DAV:  10    -0.988647409738E+02   -0.17228E-04   -0.16807E-06   120   0.237E-03    0.319E-04
DAV:  11    -0.988647455323E+02   -0.45585E-05   -0.12501E-07   108   0.850E-04    0.224E-04
DAV:  12    -0.988647499536E+02   -0.44213E-05   -0.17579E-07    96   0.824E-04    0.118E-04
DAV:  13    -0.988647517959E+02   -0.18424E-05   -0.58101E-08   108   0.475E-04    0.755E-05
DAV:  14    -0.988647527471E+02   -0.95118E-06   -0.59240E-09    96   0.250E-04
  47 F= -.98864753E+02 E0= -.98864753E+02  d E =-.230243E-10
       N       E                     dE             d eps       ncg     rms          rms(c)
DAV:   1    -0.988647611107E+02   -0.93147E-05   -0.19763E-01    96   0.125E+00    0.143E-01
DAV:   2    -0.988654986663E+02   -0.73756E-03   -0.90464E-03   132   0.287E-01    0.812E-02
DAV:   3    -0.988654388910E+02    0.59775E-04   -0.14511E-04   132   0.446E-02    0.415E-02
DAV:   4    -0.988654139952E+02    0.24896E-04   -0.65612E-05   132   0.309E-02    0.791E-03
DAV:   5    -0.988654082739E+02    0.57212E-05   -0.13050E-05   132   0.136E-02    0.487E-03
DAV:   6    -0.988654094854E+02   -0.12114E-05   -0.34807E-06   132   0.571E-03    0.268E-03
DAV:   7    -0.988654164586E+02   -0.69733E-05   -0.68624E-07   108   0.286E-03    0.124E-03
DAV:   8    -0.988654279104E+02   -0.11452E-04   -0.82588E-07   108   0.235E-03    0.778E-04
DAV:   9    -0.988654387748E+02   -0.10864E-04   -0.51607E-07   108   0.172E-03    0.543E-04
DAV:  10    -0.988654482370E+02   -0.94623E-05   -0.52463E-07    96   0.140E-03    0.237E-04
DAV:  11    -0.988654521691E+02   -0.39321E-05   -0.93286E-08   108   0.699E-04    0.181E-04
DAV:  12    -0.988654560191E+02   -0.38500E-05   -0.82889E-08    96   0.629E-04    0.852E-05
DAV:  13    -0.988654573388E+02   -0.13197E-05   -0.20329E-08   108   0.332E-04    0.632E-05
DAV:  14    -0.988654584599E+02   -0.11210E-05   -0.76677E-09    96   0.252E-04    0.283E-05
DAV:  15    -0.988654588532E+02   -0.39338E-06    0.18983E-09   108   0.144E-04
  48 F= -.98865459E+02 E0= -.98865459E+02  d E =-.142187E-10
       N       E                     dE             d eps       ncg     rms          rms(c)
DAV:   1    -0.988639006656E+02    0.15578E-02   -0.40749E-01    96   0.178E+00    0.175E-01
DAV:   2    -0.988651802801E+02   -0.12796E-02   -0.15412E-02   132   0.370E-01    0.879E-02
DAV:   3    -0.988651189280E+02    0.61352E-04   -0.28388E-04   132   0.610E-02    0.443E-02
DAV:   4    -0.988650942780E+02    0.24650E-04   -0.83804E-05   132   0.391E-02    0.991E-03
DAV:   5    -0.988650906732E+02    0.36048E-05   -0.22582E-05   132   0.182E-02    0.657E-03
DAV:   6    -0.988650939701E+02   -0.32969E-05   -0.42381E-06   132   0.713E-03    0.350E-03
DAV:   7    -0.988651021116E+02   -0.81415E-05   -0.76532E-07   108   0.346E-03    0.152E-03
DAV:   8    -0.988651130993E+02   -0.10988E-04   -0.79644E-07   120   0.287E-03    0.868E-04
DAV:   9    -0.988651271715E+02   -0.14072E-04   -0.10278E-06   120   0.279E-03    0.464E-04
DAV:  10    -0.988651365866E+02   -0.94151E-05   -0.63916E-07   108   0.201E-03    0.319E-04
DAV:  11    -0.988651404343E+02   -0.38477E-05   -0.15844E-07   108   0.106E-03    0.203E-04
DAV:  12    -0.988651441664E+02   -0.37321E-05   -0.15917E-07    96   0.836E-04    0.111E-04
DAV:  13    -0.988651452904E+02   -0.11240E-05   -0.32365E-08   108   0.407E-04    0.825E-05
DAV:  14    -0.988651462650E+02   -0.97466E-06   -0.15288E-08    84   0.286E-04
  49 F= -.98865146E+02 E0= -.98865146E+02  d E =-.353058E-10
       N       E                     dE             d eps       ncg     rms          rms(c)
DAV:   1    -0.988643049479E+02    0.84034E-03   -0.20200E-01   120   0.134E+00    0.131E-01
DAV:   2    -0.988652627811E+02   -0.95783E-03   -0.11261E-02   132   0.317E-01    0.663E-02
DAV:   3    -0.988652448811E+02    0.17900E-04   -0.19841E-04   132   0.482E-02    0.376E-02
DAV:   4    -0.988652363262E+02    0.85549E-05   -0.53333E-05   132   0.303E-02    0.812E-03
DAV:   5    -0.988652339721E+02    0.23541E-05   -0.14513E-05   132   0.144E-02    0.522E-03
DAV:   6    -0.988652349879E+02   -0.10158E-05   -0.24998E-06   132   0.557E-03    0.295E-03
DAV:   7    -0.988652390043E+02   -0.40164E-05   -0.59891E-07   108   0.299E-03    0.115E-03
DAV:   8    -0.988652444000E+02   -0.53957E-05   -0.36812E-07   108   0.209E-03    0.618E-04
DAV:   9    -0.988652521141E+02   -0.77141E-05   -0.47099E-07   108   0.189E-03    0.365E-04
DAV:  10    -0.988652570300E+02   -0.49159E-05   -0.31266E-07   108   0.134E-03    0.214E-04
DAV:  11    -0.988652597982E+02   -0.27682E-05   -0.90868E-08   108   0.748E-04    0.181E-04
DAV:  12    -0.988652614592E+02   -0.16610E-05   -0.42807E-08   108   0.497E-04    0.899E-05
DAV:  13    -0.988652623958E+02   -0.93659E-06   -0.18076E-08   108   0.314E-04
  50 F= -.98865262E+02 E0= -.98865262E+02  d E =-.235243E-10
       N       E                     dE             d eps       ncg     rms          rms(c)
DAV:   1    -0.988639769133E+02    0.12845E-02   -0.41371E-01   120   0.186E+00    0.175E-01
DAV:   2    -0.988652217768E+02   -0.12449E-02   -0.15011E-02   108   0.373E-01    0.887E-02
DAV:   3    -0.988651842263E+02    0.37551E-04   -0.30637E-04   144   0.603E-02    0.465E-02
DAV:   4    -0.988651600745E+02    0.24152E-04   -0.77398E-05   132   0.414E-02    0.865E-03
DAV:   5    -0.988651575385E+02    0.25360E-05   -0.30868E-05   132   0.204E-02    0.684E-03
DAV:   6    -0.988651587265E+02   -0.11879E-05   -0.43509E-06   132   0.677E-03    0.423E-03
DAV:   7    -0.988651644782E+02   -0.57518E-05   -0.69648E-07   108   0.376E-03    0.189E-03
DAV:   8    -0.988651764411E+02   -0.11963E-04   -0.14449E-06   108   0.400E-03    0.116E-03
DAV:   9    -0.988651905947E+02   -0.14154E-04   -0.96255E-07   108   0.311E-03    0.665E-04
DAV:  10    -0.988651980372E+02   -0.74425E-05   -0.49538E-07   108   0.192E-03    0.483E-04
DAV:  11    -0.988652033339E+02   -0.52967E-05   -0.10938E-07    96   0.978E-04    0.202E-04
DAV:  12    -0.988652076418E+02   -0.43079E-05   -0.16263E-07    96   0.836E-04    0.233E-04
DAV:  13    -0.988652093249E+02   -0.16831E-05   -0.27282E-08   108   0.402E-04    0.117E-04
DAV:  14    -0.988652107197E+02   -0.13948E-05   -0.22838E-08    84   0.338E-04    0.480E-05
DAV:  15    -0.988652114341E+02   -0.71437E-06   -0.47772E-09    96   0.210E-04
  51 F= -.98865211E+02 E0= -.98865211E+02  d E =-.310924E-10
       N       E                     dE             d eps       ncg     rms          rms(c)
DAV:   1    -0.988638735421E+02    0.13372E-02   -0.20234E-01   120   0.134E+00    0.135E-01
DAV:   2    -0.988645252246E+02   -0.65168E-03   -0.83112E-03   108   0.294E-01    0.784E-02
DAV:   3    -0.988644719660E+02    0.53259E-04   -0.12802E-04   132   0.391E-02    0.383E-02
DAV:   4    -0.988644321646E+02    0.39801E-04   -0.39376E-05   132   0.241E-02    0.710E-03
DAV:   5    -0.988644311422E+02    0.10224E-05   -0.80632E-06   132   0.115E-02    0.399E-03
DAV:   6    -0.988644434273E+02   -0.12285E-04   -0.50042E-06   132   0.742E-03    0.222E-03
DAV:   7    -0.988644592656E+02   -0.15838E-04   -0.15844E-06   120   0.432E-03    0.151E-03
DAV:   8    -0.988644803937E+02   -0.21128E-04   -0.16317E-06   108   0.305E-03    0.710E-04
DAV:   9    -0.988644961564E+02   -0.15763E-04   -0.13886E-06   108   0.262E-03    0.595E-04
DAV:  10    -0.988645094661E+02   -0.13310E-04   -0.13081E-06   108   0.230E-03    0.230E-04
DAV:  11    -0.988645126720E+02   -0.32059E-05   -0.10734E-07   108   0.845E-04    0.219E-04
DAV:  12    -0.988645154899E+02   -0.28178E-05   -0.10977E-07    96   0.699E-04    0.837E-05
DAV:  13    -0.988645162044E+02   -0.71454E-06   -0.15843E-08   108   0.309E-04
  52 F= -.98864516E+02 E0= -.98864516E+02  d E =-.150943E-10
       N       E                     dE             d eps       ncg     rms          rms(c)
DAV:   1    -0.988631617474E+02    0.13537E-02   -0.40244E-01    96   0.190E+00    0.190E-01
DAV:   2    -0.988645216129E+02   -0.13599E-02   -0.17100E-02   132   0.420E-01    0.108E-01
DAV:   3    -0.988644358858E+02    0.85727E-04   -0.26195E-04   132   0.550E-02    0.538E-02
DAV:   4    -0.988643774558E+02    0.58430E-04   -0.74243E-05   108   0.333E-02    0.993E-03
DAV:   5    -0.988643655116E+02    0.11944E-04   -0.14869E-05   132   0.163E-02    0.559E-03
DAV:   6    -0.988643720025E+02   -0.64909E-05   -0.85749E-06   132   0.105E-02    0.299E-03
DAV:   7    -0.988643883492E+02   -0.16347E-04   -0.25778E-06   108   0.579E-03    0.210E-03
DAV:   8    -0.988644123430E+02   -0.23994E-04   -0.12474E-06    84   0.312E-03    0.982E-04
DAV:   9    -0.988644344039E+02   -0.22061E-04   -0.16566E-06   108   0.297E-03    0.880E-04
DAV:  10    -0.988644565711E+02   -0.22167E-04   -0.12324E-06    96   0.232E-03    0.304E-04
DAV:  11    -0.988644635459E+02   -0.69748E-05   -0.14542E-07   108   0.952E-04    0.337E-04
DAV:  12    -0.988644703455E+02   -0.67997E-05   -0.13250E-07    84   0.764E-04    0.110E-04
DAV:  13    -0.988644731272E+02   -0.27817E-05   -0.48904E-08   108   0.450E-04    0.794E-05
DAV:  14    -0.988644747720E+02   -0.16448E-05   -0.96836E-09   108   0.300E-04    0.485E-05
DAV:  15    -0.988644754032E+02   -0.63121E-06   -0.11005E-09   108   0.184E-04
  53 F= -.98864475E+02 E0= -.98864475E+02  d E =-.273758E-10
       N       E                     dE             d eps       ncg     rms          rms(c)
DAV:   1    -0.988630379728E+02    0.14368E-02   -0.20068E-01   108   0.128E+00    0.145E-01
DAV:   2    -0.988638244983E+02   -0.78653E-03   -0.97508E-03   120   0.326E-01    0.882E-02
DAV:   3    -0.988637674877E+02    0.57011E-04   -0.14228E-04   132   0.430E-02    0.469E-02
DAV:   4    -0.988637341853E+02    0.33302E-04   -0.64090E-05   132   0.314E-02    0.748E-03
DAV:   5    -0.988637303295E+02    0.38558E-05   -0.14514E-05   132   0.141E-02    0.521E-03
DAV:   6    -0.988637356149E+02   -0.52854E-05   -0.53373E-06   132   0.656E-03    0.304E-03
DAV:   7    -0.988637477042E+02   -0.12089E-04   -0.70691E-07   108   0.284E-03    0.158E-03
DAV:   8    -0.988637698956E+02   -0.22191E-04   -0.25083E-06   108   0.346E-03    0.944E-04
DAV:   9    -0.988637823573E+02   -0.12462E-04   -0.75279E-07   108   0.210E-03    0.707E-04
DAV:  10    -0.988637951295E+02   -0.12772E-04   -0.10992E-06   108   0.199E-03    0.295E-04
DAV:  11    -0.988638002415E+02   -0.51120E-05   -0.19185E-07   108   0.106E-03    0.266E-04
DAV:  12    -0.988638030105E+02   -0.27690E-05   -0.85302E-08    96   0.643E-04    0.173E-04
DAV:  13    -0.988638044247E+02   -0.14142E-05   -0.29051E-08   108   0.403E-04    0.785E-05
DAV:  14    -0.988638052722E+02   -0.84745E-06   -0.58706E-09   108   0.269E-04
  54 F= -.98863805E+02 E0= -.98863805E+02  d E =-.241738E-10
       N       E                     dE             d eps       ncg     rms          rms(c)
DAV:   1    -0.988624978688E+02    0.13066E-02   -0.40555E-01   120   0.186E+00    0.204E-01
DAV:   2    -0.988640087366E+02   -0.15109E-02   -0.18853E-02   120   0.457E-01    0.128E-01
DAV:   3    -0.988638900836E+02    0.11865E-03   -0.26308E-04   132   0.586E-02    0.680E-02
DAV:   4    -0.988638233643E+02    0.66719E-04   -0.13542E-04   132   0.446E-02    0.108E-02
DAV:   5    -0.988638224177E+02    0.94656E-06   -0.26891E-05   132   0.195E-02    0.757E-03
DAV:   6    -0.988638391477E+02   -0.16730E-04   -0.12389E-05   132   0.998E-03    0.407E-03
DAV:   7    -0.988638666135E+02   -0.27466E-04   -0.23238E-06   120   0.489E-03    0.222E-03
DAV:   8    -0.988639128094E+02   -0.46196E-04   -0.57211E-06   120   0.533E-03    0.130E-03
DAV:   9    -0.988639370386E+02   -0.24229E-04   -0.19423E-06   120   0.315E-03    0.874E-04
DAV:  10    -0.988639584132E+02   -0.21375E-04   -0.18264E-06   108   0.273E-03    0.433E-04
DAV:  11    -0.988639676405E+02   -0.92273E-05   -0.46824E-07   108   0.145E-03    0.322E-04
DAV:  12    -0.988639724988E+02   -0.48583E-05   -0.24318E-07   108   0.973E-04    0.138E-04
DAV:  13    -0.988639743704E+02   -0.18716E-05   -0.42832E-08    96   0.480E-04    0.797E-05
DAV:  14    -0.988639754555E+02   -0.10851E-05   -0.11645E-08    96   0.303E-04    0.502E-05
DAV:  15    -0.988639758798E+02   -0.42422E-06   -0.68390E-12   108   0.171E-04
  55 F= -.98863976E+02 E0= -.98863976E+02  d E =-.138555E-10
       N       E                     dE             d eps       ncg     rms          rms(c)
DAV:   1    -0.988640684196E+02   -0.92964E-04   -0.19977E-01   120   0.133E+00    0.140E-01
DAV:   2    -0.988651353671E+02   -0.10669E-02   -0.12927E-02   120   0.353E-01    0.822E-02
DAV:   3    -0.988651031422E+02    0.32225E-04   -0.18644E-04   132   0.450E-02    0.489E-02
DAV:   4    -0.988650756345E+02    0.27508E-04   -0.70342E-05   132   0.325E-02    0.751E-03
DAV:   5    -0.988650702091E+02    0.54254E-05   -0.16361E-05   132   0.146E-02    0.526E-03
DAV:   6    -0.988650721589E+02   -0.19498E-05   -0.43329E-06   108   0.666E-03    0.291E-03
DAV:   7    -0.988650814879E+02   -0.93290E-05   -0.12382E-06   108   0.397E-03    0.138E-03
DAV:   8    -0.988650980967E+02   -0.16609E-04   -0.15180E-06    96   0.315E-03    0.934E-04
DAV:   9    -0.988651126097E+02   -0.14513E-04   -0.79829E-07   108   0.222E-03    0.567E-04
DAV:  10    -0.988651235879E+02   -0.10978E-04   -0.70664E-07    84   0.167E-03    0.275E-04
DAV:  11    -0.988651297953E+02   -0.62074E-05   -0.27125E-07   108   0.104E-03    0.216E-04
DAV:  12    -0.988651322542E+02   -0.24589E-05   -0.42929E-08   108   0.528E-04    0.888E-05
DAV:  13    -0.988651340818E+02   -0.18276E-05   -0.41422E-08    96   0.434E-04    0.593E-05
DAV:  14    -0.988651348033E+02   -0.72142E-06   -0.30592E-09   108   0.221E-04
  56 F= -.98865135E+02 E0= -.98865135E+02  d E =-.223813E-10
       N       E                     dE             d eps       ncg     rms          rms(c)
DAV:   1    -0.988638285717E+02    0.13055E-02   -0.41262E-01   120   0.187E+00    0.178E-01
DAV:   2    -0.988650851450E+02   -0.12566E-02   -0.15238E-02   120   0.381E-01    0.928E-02
DAV:   3    -0.988650393783E+02    0.45767E-04   -0.30422E-04   144   0.599E-02    0.480E-02
DAV:   4    -0.988650099094E+02    0.29469E-04   -0.80530E-05   132   0.408E-02    0.889E-03
DAV:   5    -0.988650056543E+02    0.42551E-05   -0.29022E-05   132   0.200E-02    0.664E-03
DAV:   6    -0.988650070413E+02   -0.13869E-05   -0.51767E-06   132   0.738E-03    0.393E-03
DAV:   7    -0.988650140185E+02   -0.69772E-05   -0.73442E-07   108   0.385E-03    0.189E-03
DAV:   8    -0.988650287775E+02   -0.14759E-04   -0.15787E-06   108   0.407E-03    0.115E-03
DAV:   9    -0.988650436098E+02   -0.14832E-04   -0.94768E-07    96   0.298E-03    0.694E-04
DAV:  10    -0.988650532466E+02   -0.96368E-05   -0.57069E-07   108   0.194E-03    0.439E-04
DAV:  11    -0.988650598702E+02   -0.66236E-05   -0.16436E-07    96   0.107E-03    0.213E-04
DAV:  12    -0.988650639242E+02   -0.40541E-05   -0.12327E-07    96   0.749E-04    0.217E-04
DAV:  13    -0.988650659862E+02   -0.20620E-05   -0.33947E-08    96   0.421E-04    0.973E-05
DAV:  14    -0.988650673830E+02   -0.13968E-05   -0.18682E-08    84   0.322E-04    0.465E-05
DAV:  15    -0.988650680880E+02   -0.70502E-06   -0.42636E-09   108   0.206E-04
  57 F= -.98865068E+02 E0= -.98865068E+02  d E =-.312235E-10
       N       E                     dE             d eps       ncg     rms          rms(c)
DAV:   1    -0.988638066351E+02    0.12607E-02   -0.20650E-01   120   0.128E+00    0.119E-01
DAV:   2    -0.988644052323E+02   -0.59860E-03   -0.72121E-03   108   0.241E-01    0.562E-02
DAV:   3    -0.988643960134E+02    0.92189E-05   -0.14805E-04   144   0.427E-02    0.298E-02
DAV:   4    -0.988643882369E+02    0.77765E-05   -0.31588E-05   132   0.290E-02    0.556E-03
DAV:   5    -0.988643880172E+02    0.21964E-06   -0.16249E-05   132   0.148E-02    0.535E-03
DAV:   6    -0.988643884110E+02   -0.39371E-06   -0.10460E-06   108   0.348E-03
  58 F= -.98864388E+02 E0= -.98864388E+02  d E =-.254859E-10
       N       E                     dE             d eps       ncg     rms          rms(c)
DAV:   1    -0.988630306411E+02    0.13574E-02   -0.40129E-01   108   0.183E+00    0.195E-01
DAV:   2    -0.988645197351E+02   -0.14891E-02   -0.18135E-02   132   0.435E-01    0.113E-01
DAV:   3    -0.988644435038E+02    0.76231E-04   -0.27621E-04   120   0.586E-02    0.594E-02
DAV:   4    -0.988643879380E+02    0.55566E-04   -0.94145E-05   132   0.391E-02    0.104E-02
DAV:   5    -0.988643828744E+02    0.50635E-05   -0.20296E-05   132   0.174E-02    0.701E-03
DAV:   6    -0.988643936918E+02   -0.10817E-04   -0.83105E-06   132   0.894E-03    0.372E-03
DAV:   7    -0.988644128658E+02   -0.19174E-04   -0.20839E-06   120   0.493E-03    0.202E-03
DAV:   8    -0.988644423707E+02   -0.29505E-04   -0.30303E-06   108   0.432E-03    0.105E-03
DAV:   9    -0.988644607667E+02   -0.18396E-04   -0.16872E-06   120   0.306E-03    0.894E-04
DAV:  10    -0.988644773575E+02   -0.16591E-04   -0.14536E-06   108   0.253E-03    0.325E-04
DAV:  11    -0.988644837176E+02   -0.63602E-05   -0.30858E-07   108   0.121E-03    0.328E-04
DAV:  12    -0.988644883807E+02   -0.46630E-05   -0.25573E-07    96   0.978E-04    0.117E-04
DAV:  13    -0.988644898778E+02   -0.14972E-05   -0.45090E-08   108   0.450E-04    0.753E-05
DAV:  14    -0.988644908417E+02   -0.96387E-06   -0.91308E-09    96   0.283E-04
  59 F= -.98864491E+02 E0= -.98864491E+02  d E =-.167013E-10
       N       E                     dE             d eps       ncg     rms          rms(c)
DAV:   1    -0.988632883389E+02    0.12015E-02   -0.20206E-01    96   0.134E+00    0.133E-01
DAV:   2    -0.988640059224E+02   -0.71758E-03   -0.89506E-03   132   0.310E-01    0.761E-02
DAV:   3    -0.988639635154E+02    0.42407E-04   -0.12155E-04   132   0.368E-02    0.401E-02
DAV:   4    -0.988639284288E+02    0.35087E-04   -0.37258E-05   132   0.232E-02    0.682E-03
DAV:   5    -0.988639213684E+02    0.70603E-05   -0.73342E-06   132   0.114E-02    0.378E-03
DAV:   6    -0.988639243174E+02   -0.29489E-05   -0.41583E-06   108   0.778E-03    0.209E-03
DAV:   7    -0.988639341538E+02   -0.98365E-05   -0.16409E-06   120   0.463E-03    0.145E-03
DAV:   8    -0.988639466724E+02   -0.12519E-04   -0.59859E-07    84   0.229E-03    0.754E-04
DAV:   9    -0.988639610793E+02   -0.14407E-04   -0.10190E-06   108   0.227E-03    0.551E-04
DAV:  10    -0.988639739145E+02   -0.12835E-04   -0.60492E-07    96   0.172E-03    0.226E-04
DAV:  11    -0.988639785728E+02   -0.46582E-05   -0.15466E-07   108   0.846E-04    0.228E-04
DAV:  12    -0.988639830159E+02   -0.44432E-05   -0.88881E-08    84   0.629E-04    0.811E-05
DAV:  13    -0.988639844371E+02   -0.14211E-05   -0.19310E-08   108   0.334E-04    0.571E-05
DAV:  14    -0.988639854866E+02   -0.10495E-05   -0.67195E-09   108   0.232E-04    0.356E-05
DAV:  15    -0.988639859921E+02   -0.50547E-06    0.12246E-09    96   0.157E-04
  60 F= -.98863986E+02 E0= -.98863986E+02  d E =-.280204E-10
       N       E                     dE             d eps       ncg     rms          rms(c)
DAV:   1    -0.988627553247E+02    0.12302E-02   -0.40701E-01   120   0.189E+00    0.195E-01
DAV:   2    -0.988641928797E+02   -0.14376E-02   -0.18029E-02   144   0.438E-01    0.122E-01
DAV:   3    -0.988640728458E+02    0.12003E-03   -0.23502E-04   132   0.544E-02    0.637E-02
DAV:   4    -0.988639954455E+02    0.77400E-04   -0.11017E-04   132   0.391E-02    0.108E-02
DAV:   5    -0.988639958998E+02   -0.45423E-06   -0.18961E-05   132   0.173E-02    0.676E-03
DAV:   6    -0.988640198083E+02   -0.23909E-04   -0.12723E-05   132   0.111E-02    0.349E-03
DAV:   7    -0.988640504037E+02   -0.30595E-04   -0.40007E-06   132   0.647E-03    0.234E-03
DAV:   8    -0.988640928424E+02   -0.42439E-04   -0.40447E-06   120   0.467E-03    0.111E-03
DAV:   9    -0.988641234481E+02   -0.30606E-04   -0.32228E-06   120   0.384E-03    0.885E-04
DAV:  10    -0.988641461752E+02   -0.22727E-04   -0.23021E-06   108   0.299E-03    0.385E-04
DAV:  11    -0.988641528873E+02   -0.67121E-05   -0.30605E-07   108   0.129E-03    0.297E-04
DAV:  12    -0.988641572219E+02   -0.43346E-05   -0.18534E-07    96   0.900E-04    0.154E-04
DAV:  13    -0.988641589412E+02   -0.17193E-05   -0.43292E-08   108   0.496E-04    0.872E-05
DAV:  14    -0.988641599276E+02   -0.98639E-06   -0.95928E-09    96   0.325E-04
  61 F= -.98864160E+02 E0= -.98864160E+02  d E =-.128797E-10
       N       E                     dE             d eps       ncg     rms          rms(c)
DAV:   1    -0.988671035067E+02   -0.29446E-02   -0.23274E-01    96   0.171E+00    0.131E-01
DAV:   2    -0.988675457247E+02   -0.44222E-03   -0.64491E-03   132   0.269E-01    0.799E-02
DAV:   3    -0.988674851753E+02    0.60549E-04   -0.14690E-04   132   0.421E-02    0.376E-02
DAV:   4    -0.988674654559E+02    0.19719E-04   -0.62976E-05   132   0.278E-02    0.713E-03
DAV:   5    -0.988674613750E+02    0.40809E-05   -0.97315E-06   132   0.119E-02    0.474E-03
DAV:   6    -0.988674627472E+02   -0.13722E-05   -0.36611E-06   132   0.600E-03    0.230E-03
DAV:   7    -0.988674678690E+02   -0.51218E-05   -0.55223E-07   108   0.302E-03    0.120E-03
DAV:   8    -0.988674767560E+02   -0.88870E-05   -0.67511E-07    96   0.251E-03    0.772E-04
DAV:   9    -0.988674859302E+02   -0.91742E-05   -0.57736E-07   108   0.195E-03    0.481E-04
DAV:  10    -0.988674933732E+02   -0.74430E-05   -0.34308E-07   108   0.137E-03    0.249E-04
DAV:  11    -0.988674972980E+02   -0.39248E-05   -0.78889E-08   108   0.684E-04    0.192E-04
DAV:  12    -0.988675004701E+02   -0.31721E-05   -0.71765E-08    96   0.585E-04    0.947E-05
DAV:  13    -0.988675013676E+02   -0.89748E-06   -0.77612E-09   108   0.274E-04
  62 F= -.98867501E+02 E0= -.98867501E+02  d E =-.158534E-10
       N       E                     dE             d eps       ncg     rms          rms(c)
DAV:   1    -0.988675073817E+02   -0.69115E-05   -0.52737E-01    96   0.273E+00    0.173E-01
DAV:   2    -0.988673870071E+02    0.12037E-03   -0.27221E-03   120   0.186E-01    0.982E-02
DAV:   3    -0.988672392628E+02    0.14774E-03   -0.42034E-04   132   0.635E-02    0.187E-02
DAV:   4    -0.988672424701E+02   -0.32073E-05   -0.73309E-05   132   0.272E-02    0.936E-03
DAV:   5    -0.988672433754E+02   -0.90522E-06   -0.33999E-06   132   0.660E-03
  63 F= -.98867243E+02 E0= -.98867243E+02  d E =-.187480E-10
       N       E                     dE             d eps       ncg     rms          rms(c)
DAV:   1    -0.988663632207E+02    0.87925E-03   -0.27150E-01    96   0.197E+00    0.147E-01
DAV:   2    -0.988663739176E+02   -0.10697E-04   -0.24326E-03   120   0.168E-01    0.803E-02
DAV:   3    -0.988662828370E+02    0.91081E-04   -0.23196E-04   120   0.460E-02    0.244E-02
DAV:   4    -0.988662789285E+02    0.39085E-05   -0.60657E-05   132   0.225E-02    0.773E-03
DAV:   5    -0.988662771955E+02    0.17330E-05   -0.36008E-06   120   0.761E-03    0.370E-03
DAV:   6    -0.988662775689E+02   -0.37341E-06   -0.24352E-06   120   0.544E-03
  64 F= -.98866278E+02 E0= -.98866278E+02  d E =-.200528E-10
       N       E                     dE             d eps       ncg     rms          rms(c)
DAV:   1    -0.988664697047E+02   -0.19251E-03   -0.53806E-01    96   0.277E+00    0.200E-01
DAV:   2    -0.988663986838E+02    0.71021E-04   -0.42038E-03   120   0.231E-01    0.108E-01
DAV:   3    -0.988662074982E+02    0.19119E-03   -0.45021E-04   120   0.604E-02    0.314E-02
DAV:   4    -0.988661915499E+02    0.15948E-04   -0.83242E-05   132   0.271E-02    0.104E-02
DAV:   5    -0.988661910097E+02    0.54020E-06   -0.77911E-06   132   0.105E-02
  65 F= -.98866191E+02 E0= -.98866191E+02  d E =-.144683E-10
       N       E                     dE             d eps       ncg     rms          rms(c)
DAV:   1    -0.988674501514E+02   -0.12586E-02   -0.27186E-01   108   0.196E+00    0.144E-01
DAV:   2    -0.988674349080E+02    0.15243E-04   -0.23391E-03   132   0.174E-01    0.789E-02
DAV:   3    -0.988673523785E+02    0.82529E-04   -0.25747E-04   132   0.516E-02    0.217E-02
DAV:   4    -0.988673553183E+02   -0.29398E-05   -0.64165E-05   132   0.246E-02    0.763E-03
DAV:   5    -0.988673547969E+02    0.52136E-06   -0.32020E-06   108   0.685E-03
  66 F= -.98867355E+02 E0= -.98867355E+02  d E =-.179281E-10
       N       E                     dE             d eps       ncg     rms          rms(c)
DAV:   1    -0.988676660655E+02   -0.31075E-03   -0.53469E-01    96   0.274E+00    0.171E-01
[...]
DAV:   8    -0.988658266846E+02   -0.62835E-05   -0.29908E-07   108   0.159E-03    0.590E-04
DAV:   9    -0.988658359342E+02   -0.92495E-05   -0.92634E-07   108   0.184E-03    0.289E-04
DAV:  10    -0.988658389007E+02   -0.29665E-05   -0.14696E-07   108   0.953E-04    0.178E-04
DAV:  11    -0.988658410427E+02   -0.21421E-05   -0.84715E-08   108   0.583E-04    0.128E-04
DAV:  12    -0.988658427814E+02   -0.17387E-05   -0.62145E-08    96   0.467E-04    0.720E-05
DAV:  13    -0.988658434407E+02   -0.65925E-06   -0.13165E-08   108   0.262E-04
 129 F= -.98865843E+02 E0= -.98865843E+02  d E =-.160419E-10
       N       E                     dE             d eps       ncg     rms          rms(c)
DAV:   1    -0.988681009298E+02   -0.22581E-02   -0.26832E-01    96   0.127E+00    0.132E-01
DAV:   2    -0.988680347093E+02    0.66220E-04   -0.15812E-03   120   0.110E-01    0.734E-02
DAV:   3    -0.988679534657E+02    0.81244E-04   -0.25522E-04   132   0.403E-02    0.159E-02
DAV:   4    -0.988679515477E+02    0.19180E-05   -0.32020E-05   132   0.169E-02    0.688E-03
DAV:   5    -0.988679509494E+02    0.59835E-06   -0.33821E-06   132   0.590E-03
 130 F= -.98867951E+02 E0= -.98867951E+02  d E =-.193412E-10
       N       E                     dE             d eps       ncg     rms          rms(c)
DAV:   1    -0.988680423319E+02   -0.90784E-04   -0.52578E-01    96   0.187E+00    0.156E-01
DAV:   2    -0.988679305502E+02    0.11178E-03   -0.19385E-03   120   0.125E-01    0.907E-02
DAV:   3    -0.988678375598E+02    0.92990E-04   -0.37391E-04   132   0.583E-02    0.104E-02
DAV:   4    -0.988678439607E+02   -0.64009E-05   -0.55284E-05   132   0.243E-02    0.658E-03
DAV:   5    -0.988678448405E+02   -0.87972E-06   -0.19055E-06   120   0.470E-03
 131 F= -.98867845E+02 E0= -.98867845E+02  d E =-.198159E-10
       N       E                     dE             d eps       ncg     rms          rms(c)
DAV:   1    -0.988673258832E+02    0.51808E-03   -0.26232E-01    96   0.132E+00    0.110E-01
DAV:   2    -0.988672742888E+02    0.51594E-04   -0.10608E-03   132   0.929E-02    0.639E-02
DAV:   3    -0.988672269947E+02    0.47294E-04   -0.18222E-04   132   0.402E-02    0.822E-03
DAV:   4    -0.988672299685E+02   -0.29738E-05   -0.27162E-05   120   0.171E-02    0.507E-03
DAV:   5    -0.988672304237E+02   -0.45522E-06   -0.97515E-07   108   0.344E-03
 132 F= -.98867230E+02 E0= -.98867230E+02  d E =-.207620E-10
       N       E                     dE             d eps       ncg     rms          rms(c)
DAV:   1    -0.988679215504E+02   -0.69158E-03   -0.52833E-01    96   0.186E+00    0.167E-01
DAV:   2    -0.988678246948E+02    0.96856E-04   -0.25539E-03   120   0.139E-01    0.952E-02
DAV:   3    -0.988677096490E+02    0.11505E-03   -0.39697E-04   120   0.545E-02    0.172E-02
DAV:   4    -0.988677120149E+02   -0.23660E-05   -0.55104E-05   132   0.229E-02    0.848E-03
DAV:   5    -0.988677114905E+02    0.52446E-06   -0.31929E-06   120   0.570E-03
 133 F= -.98867711E+02 E0= -.98867711E+02  d E =-.155285E-10
       N       E                     dE             d eps       ncg     rms          rms(c)
DAV:   1    -0.988674931779E+02    0.21884E-03   -0.27078E-01    96   0.175E+00    0.142E-01
DAV:   2    -0.988674311873E+02    0.61991E-04   -0.17861E-03   120   0.135E-01    0.779E-02
DAV:   3    -0.988673584552E+02    0.72732E-04   -0.19698E-04   120   0.399E-02    0.206E-02
DAV:   4    -0.988673591436E+02   -0.68846E-06   -0.41238E-05   132   0.187E-02    0.684E-03
DAV:   5    -0.988673584901E+02    0.65355E-06   -0.25596E-06   132   0.567E-03
 134 F= -.98867358E+02 E0= -.98867358E+02  d E =-.176504E-10
       N       E                     dE             d eps       ncg     rms          rms(c)
DAV:   1    -0.988676401578E+02   -0.28101E-03   -0.55274E-01    96   0.233E+00    0.230E-01
DAV:   2    -0.988672742187E+02    0.36594E-03   -0.29846E-03   120   0.166E-01    0.121E-01
DAV:   3    -0.988670596378E+02    0.21458E-03   -0.52344E-04   132   0.593E-02    0.339E-02
DAV:   4    -0.988670564500E+02    0.31877E-05   -0.93134E-05   120   0.275E-02    0.126E-02
DAV:   5    -0.988670565223E+02   -0.72270E-07   -0.53193E-06   132   0.859E-03
 135 F= -.98867057E+02 E0= -.98867057E+02  d E =-.171813E-10
       N       E                     dE             d eps       ncg     rms          rms(c)
DAV:   1    -0.988665558932E+02    0.50056E-03   -0.28981E-01    96   0.170E+00    0.210E-01
DAV:   2    -0.988662924942E+02    0.26340E-03   -0.23004E-03   120   0.150E-01    0.102E-01
DAV:   3    -0.988661520724E+02    0.14042E-03   -0.39881E-04   120   0.552E-02    0.352E-02
DAV:   4    -0.988661517012E+02    0.37127E-06   -0.99770E-05   120   0.288E-02    0.142E-02
DAV:   5    -0.988661502087E+02    0.14925E-05   -0.52251E-06   120   0.832E-03    0.592E-03
DAV:   6    -0.988661502497E+02   -0.41039E-07   -0.23220E-06   120   0.497E-03
 136 F= -.98866150E+02 E0= -.98866150E+02  d E =-.167116E-10
       N       E                     dE             d eps       ncg     rms          rms(c)
DAV:   1    -0.988670350865E+02   -0.88488E-03   -0.57382E-01    96   0.235E+00    0.270E-01
DAV:   2    -0.988664727964E+02    0.56229E-03   -0.43168E-03   120   0.213E-01    0.137E-01
DAV:   3    -0.988661721582E+02    0.30064E-03   -0.82274E-04   132   0.830E-02    0.424E-02
DAV:   4    -0.988661750179E+02   -0.28597E-05   -0.19546E-04   132   0.411E-02    0.195E-02
DAV:   5    -0.988661740773E+02    0.94063E-06   -0.79050E-06   132   0.100E-02
 137 F= -.98866174E+02 E0= -.98866174E+02  d E =-.179155E-10
       N       E                     dE             d eps       ncg     rms          rms(c)
DAV:   1    -0.988677436740E+02   -0.15687E-02   -0.28870E-01    96   0.170E+00    0.200E-01
DAV:   2    -0.988674516870E+02    0.29199E-03   -0.21794E-03   132   0.151E-01    0.101E-01
DAV:   3    -0.988673125344E+02    0.13915E-03   -0.43023E-04   132   0.587E-02    0.304E-02
DAV:   4    -0.988673155067E+02   -0.29723E-05   -0.97007E-05   120   0.287E-02    0.140E-02
DAV:   5    -0.988673143065E+02    0.12002E-05   -0.41077E-06   132   0.777E-03    0.517E-03
DAV:   6    -0.988673146193E+02   -0.31285E-06   -0.25637E-06   132   0.511E-03
 138 F= -.98867315E+02 E0= -.98867315E+02  d E =-.193828E-10
       N       E                     dE             d eps       ncg     rms          rms(c)
DAV:   1    -0.988678951848E+02   -0.58088E-03   -0.54846E-01    96   0.233E+00    0.225E-01
DAV:   2    -0.988675444415E+02    0.35074E-03   -0.30961E-03   120   0.176E-01    0.120E-01
DAV:   3    -0.988673419053E+02    0.20254E-03   -0.53794E-04   132   0.662E-02    0.303E-02
DAV:   4    -0.988673443610E+02   -0.24557E-05   -0.93789E-05   120   0.297E-02    0.122E-02
DAV:   5    -0.988673443197E+02    0.41330E-07   -0.50206E-06   132   0.846E-03
 139 F= -.98867344E+02 E0= -.98867344E+02  d E =-.157541E-10
       N       E                     dE             d eps       ncg     rms          rms(c)
DAV:   1    -0.988672898675E+02    0.54494E-04   -0.27642E-01    96   0.174E+00    0.168E-01
DAV:   2    -0.988671711078E+02    0.11876E-03   -0.18512E-03   120   0.134E-01    0.874E-02
DAV:   3    -0.988670824926E+02    0.88615E-04   -0.25831E-04   120   0.401E-02    0.264E-02
DAV:   4    -0.988670786002E+02    0.38924E-05   -0.35589E-05   120   0.164E-02    0.978E-03
DAV:   5    -0.988670769582E+02    0.16419E-05   -0.29697E-06   120   0.661E-03    0.404E-03
DAV:   6    -0.988670771227E+02   -0.16447E-06   -0.19098E-06   132   0.436E-03
 140 F= -.98867077E+02 E0= -.98867077E+02  d E =-.177271E-10
       N       E                     dE             d eps       ncg     rms          rms(c)
DAV:   1    -0.988674289073E+02   -0.35195E-03   -0.55658E-01    96   0.234E+00    0.242E-01
DAV:   2    -0.988670259452E+02    0.40296E-03   -0.31930E-03   120   0.172E-01    0.124E-01
DAV:   3    -0.988668018605E+02    0.22408E-03   -0.56836E-04   132   0.617E-02    0.371E-02
DAV:   4    -0.988667957412E+02    0.61194E-05   -0.10681E-04   132   0.294E-02    0.142E-02
DAV:   5    -0.988667954449E+02    0.29629E-06   -0.61004E-06   132   0.943E-03
 141 F= -.98866795E+02 E0= -.98866795E+02  d E =-.172757E-10
       N       E                     dE             d eps       ncg     rms          rms(c)
DAV:   1    -0.988661630324E+02    0.63271E-03   -0.27263E-01    96   0.165E+00    0.138E-01
DAV:   2    -0.988660347536E+02    0.12828E-03   -0.14743E-03   132   0.123E-01    0.787E-02
DAV:   3    -0.988659469801E+02    0.87774E-04   -0.27531E-04   120   0.482E-02    0.153E-02
DAV:   4    -0.988659519904E+02   -0.50103E-05   -0.47086E-05   132   0.211E-02    0.802E-03
DAV:   5    -0.988659526977E+02   -0.70733E-06   -0.11923E-06   108   0.394E-03
 142 F= -.98865953E+02 E0= -.98865953E+02  d E =-.172250E-10
       N       E                     dE             d eps       ncg     rms          rms(c)
DAV:   1    -0.988667015325E+02   -0.74954E-03   -0.58052E-01    96   0.242E+00    0.283E-01
DAV:   2    -0.988661250017E+02    0.57653E-03   -0.45467E-03   120   0.218E-01    0.142E-01
DAV:   3    -0.988658169850E+02    0.30802E-03   -0.85680E-04   120   0.831E-02    0.445E-02
DAV:   4    -0.988658192652E+02   -0.22802E-05   -0.21332E-04   108   0.418E-02    0.192E-02
DAV:   5    -0.988658165365E+02    0.27287E-05   -0.86545E-06   132   0.107E-02    0.786E-03
DAV:   6    -0.988658167485E+02   -0.21200E-06   -0.49759E-06   120   0.713E-03
 143 F= -.98865817E+02 E0= -.98865817E+02  d E =-.177632E-10
       N       E                     dE             d eps       ncg     rms          rms(c)
DAV:   1    -0.988682017341E+02   -0.23852E-02   -0.28193E-01    96   0.165E+00    0.167E-01
DAV:   2    -0.988679745211E+02    0.22721E-03   -0.17990E-03   120   0.137E-01    0.895E-02
DAV:   3    -0.988678581004E+02    0.11642E-03   -0.36092E-04   132   0.543E-02    0.237E-02
DAV:   4    -0.988678637823E+02   -0.56819E-05   -0.75293E-05   132   0.260E-02    0.118E-02
DAV:   5    -0.988678639827E+02   -0.20036E-06   -0.26562E-06   132   0.597E-03
 144 F= -.98867864E+02 E0= -.98867864E+02  d E =-.188660E-10
       N       E                     dE             d eps       ncg     rms          rms(c)
DAV:   1    -0.988683449722E+02   -0.48119E-03   -0.54244E-01    96   0.232E+00    0.199E-01
DAV:   2    -0.988680585853E+02    0.28639E-03   -0.26059E-03   120   0.165E-01    0.112E-01
DAV:   3    -0.988678815088E+02    0.17708E-03   -0.48276E-04   120   0.637E-02    0.203E-02
DAV:   4    -0.988678882016E+02   -0.66928E-05   -0.73835E-05   132   0.265E-02    0.886E-03
DAV:   5    -0.988678884869E+02   -0.28533E-06   -0.29472E-06   132   0.599E-03
 145 F= -.98867888E+02 E0= -.98867888E+02  d E =-.157407E-10
       N       E                     dE             d eps       ncg     rms          rms(c)
DAV:   1    -0.988671344895E+02    0.75371E-03   -0.27027E-01    96   0.202E+00    0.134E-01
DAV:   2    -0.988670764684E+02    0.58021E-04   -0.18856E-03   120   0.162E-01    0.761E-02
DAV:   3    -0.988670012591E+02    0.75209E-04   -0.23073E-04   120   0.507E-02    0.179E-02
DAV:   4    -0.988670050745E+02   -0.38154E-05   -0.51660E-05   132   0.236E-02    0.747E-03
DAV:   5    -0.988670049993E+02    0.75219E-07   -0.15895E-06   108   0.526E-03
 146 F= -.98867005E+02 E0= -.98867005E+02  d E =-.172528E-10
       N       E                     dE             d eps       ncg     rms          rms(c)
DAV:   1    -0.988674785575E+02   -0.47348E-03   -0.53510E-01    96   0.270E+00    0.177E-01
DAV:   2    -0.988673580112E+02    0.12055E-03   -0.33532E-03   120   0.211E-01    0.100E-01
DAV:   3    -0.988672027744E+02    0.15524E-03   -0.46410E-04   120   0.713E-02    0.211E-02
DAV:   4    -0.988672067714E+02   -0.39970E-05   -0.10272E-04   132   0.339E-02    0.108E-02
DAV:   5    -0.988672058333E+02    0.93807E-06   -0.26162E-06   132   0.618E-03
 147 F= -.98867206E+02 E0= -.98867206E+02  d E =-.178444E-10
       N       E                     dE             d eps       ncg     rms          rms(c)
DAV:   1    -0.988659931267E+02    0.12136E-02   -0.26411E-01    96   0.190E+00    0.112E-01
DAV:   2    -0.988659352586E+02    0.57868E-04   -0.10622E-03   108   0.113E-01    0.639E-02
DAV:   3    -0.988658761442E+02    0.59114E-04   -0.16947E-04   132   0.403E-02    0.107E-02
DAV:   4    -0.988658785196E+02   -0.23754E-05   -0.24551E-05   132   0.168E-02    0.559E-03
DAV:   5    -0.988658799545E+02   -0.14349E-05   -0.98746E-07   108   0.365E-03    0.353E-03
DAV:   6    -0.988658832554E+02   -0.33009E-05   -0.86250E-07   108   0.333E-03    0.685E-04
DAV:   7    -0.988658854119E+02   -0.21564E-05   -0.30126E-07   108   0.190E-03    0.615E-04
DAV:   8    -0.988658888471E+02   -0.34353E-05   -0.20530E-07    96   0.159E-03    0.279E-04
DAV:   9    -0.988658908936E+02   -0.20465E-05   -0.14303E-07   108   0.105E-03    0.216E-04
DAV:  10    -0.988658930517E+02   -0.21582E-05   -0.83464E-08    96   0.722E-04    0.113E-04
DAV:  11    -0.988658938735E+02   -0.82173E-06   -0.27585E-08   108   0.384E-04
 148 F= -.98865894E+02 E0= -.98865894E+02  d E =-.167612E-10
       N       E                     dE             d eps       ncg     rms          rms(c)
DAV:   1    -0.988662679554E+02   -0.37490E-03   -0.54347E-01    96   0.273E+00    0.205E-01
DAV:   2    -0.988662212765E+02    0.46679E-04   -0.44347E-03   108   0.234E-01    0.111E-01
DAV:   3    -0.988660228829E+02    0.19839E-03   -0.46134E-04   132   0.650E-02    0.333E-02
DAV:   4    -0.988660101879E+02    0.12695E-04   -0.10530E-04   132   0.304E-02    0.103E-02
DAV:   5    -0.988660072675E+02    0.29204E-05   -0.71459E-06   132   0.113E-02    0.466E-03
DAV:   6    -0.988660099795E+02   -0.27119E-05   -0.44186E-06   132   0.764E-03    0.186E-03
DAV:   7    -0.988660144677E+02   -0.44882E-05   -0.11220E-06   108   0.380E-03    0.118E-03
DAV:   8    -0.988660201190E+02   -0.56513E-05   -0.37442E-07   108   0.213E-03    0.596E-04
DAV:   9    -0.988660254371E+02   -0.53181E-05   -0.34617E-07   108   0.178E-03    0.400E-04
DAV:  10    -0.988660318069E+02   -0.63698E-05   -0.36176E-07   108   0.140E-03    0.173E-04
DAV:  11    -0.988660343122E+02   -0.25053E-05   -0.62646E-08   108   0.670E-04    0.151E-04
DAV:  12    -0.988660364946E+02   -0.21824E-05   -0.31088E-08    96   0.413E-04    0.716E-05
DAV:  13    -0.988660378653E+02   -0.13707E-05   -0.24046E-08    96   0.328E-04    0.435E-05
DAV:  14    -0.988660386639E+02   -0.79858E-06   -0.33620E-09    96   0.204E-04
 149 F= -.98866039E+02 E0= -.98866039E+02  d E =-.177924E-10
       N       E                     dE             d eps       ncg     rms          rms(c)
DAV:   1    -0.988681289138E+02   -0.20910E-02   -0.26608E-01    96   0.194E+00    0.128E-01
DAV:   2    -0.988680526774E+02    0.76236E-04   -0.15246E-03   108   0.145E-01    0.717E-02
DAV:   3    -0.988679777956E+02    0.74882E-04   -0.21767E-04   132   0.462E-02    0.159E-02
DAV:   4    -0.988679780899E+02   -0.29435E-06   -0.38151E-05   132   0.202E-02    0.726E-03
DAV:   5    -0.988679784994E+02   -0.40948E-06   -0.16304E-06   108   0.500E-03
 150 F= -.98867978E+02 E0= -.98867978E+02  d E =-.159570E-10
       N       E                     dE             d eps       ncg     rms          rms(c)
DAV:   1    -0.988680544168E+02   -0.76327E-04   -0.52507E-01    96   0.270E+00    0.159E-01
DAV:   2    -0.988679245441E+02    0.12987E-03   -0.20427E-03   120   0.162E-01    0.922E-02
DAV:   3    -0.988678151621E+02    0.10938E-03   -0.36473E-04   132   0.615E-02    0.117E-02
DAV:   4    -0.988678217036E+02   -0.65415E-05   -0.52845E-05   120   0.245E-02    0.744E-03
DAV:   5    -0.988678229568E+02   -0.12532E-05   -0.15615E-06   108   0.454E-03    0.509E-03
DAV:   6    -0.988678270123E+02   -0.40555E-05   -0.18626E-06   108   0.456E-03    0.881E-04
DAV:   7    -0.988678292798E+02   -0.22675E-05   -0.44934E-07   108   0.226E-03    0.833E-04
DAV:   8    -0.988678325914E+02   -0.33116E-05   -0.17131E-07   108   0.161E-03    0.431E-04
DAV:   9    -0.988678358813E+02   -0.32899E-05   -0.19465E-07   108   0.146E-03    0.243E-04
DAV:  10    -0.988678387645E+02   -0.28832E-05   -0.15284E-07   108   0.989E-04    0.143E-04
DAV:  11    -0.988678396447E+02   -0.88025E-06   -0.22753E-08   108   0.411E-04
 151 F= -.98867840E+02 E0= -.98867840E+02  d E =-.184192E-10
       N       E                     dE             d eps       ncg     rms          rms(c)
DAV:   1    -0.988659281597E+02    0.19106E-02   -0.26653E-01   108   0.201E+00    0.131E-01
DAV:   2    -0.988658720541E+02    0.56106E-04   -0.19326E-03   108   0.167E-01    0.710E-02
DAV:   3    -0.988657936088E+02    0.78445E-04   -0.22614E-04   132   0.514E-02    0.190E-02
DAV:   4    -0.988657952686E+02   -0.16598E-05   -0.57371E-05   132   0.246E-02    0.719E-03
DAV:   5    -0.988657955764E+02   -0.30774E-06   -0.23638E-06   120   0.589E-03
 152 F= -.98865796E+02 E0= -.98865796E+02  d E =-.178765E-10
       N       E                     dE             d eps       ncg     rms          rms(c)
DAV:   1    -0.988660438420E+02   -0.24857E-03   -0.54515E-01    96   0.271E+00    0.206E-01
DAV:   2    -0.988659151273E+02    0.12871E-03   -0.43663E-03   132   0.244E-01    0.113E-01
DAV:   3    -0.988657105773E+02    0.20455E-03   -0.59156E-04   120   0.790E-02    0.292E-02
DAV:   4    -0.988657111349E+02   -0.55766E-06   -0.14311E-04   132   0.381E-02    0.126E-02
DAV:   5    -0.988657087551E+02    0.23798E-05   -0.48920E-06   132   0.912E-03    0.700E-03
DAV:   6    -0.988657094084E+02   -0.65328E-06   -0.50859E-06   132   0.885E-03
 153 F= -.98865709E+02 E0= -.98865709E+02  d E =-.175563E-10
       N       E                     dE             d eps       ncg     rms          rms(c)
DAV:   1    -0.988677854296E+02   -0.20767E-02   -0.26882E-01    96   0.191E+00    0.140E-01
DAV:   2    -0.988677217442E+02    0.63685E-04   -0.18261E-03   132   0.154E-01    0.758E-02
DAV:   3    -0.988676460729E+02    0.75671E-04   -0.24027E-04   120   0.452E-02    0.199E-02
DAV:   4    -0.988676445244E+02    0.15485E-05   -0.36221E-05   132   0.189E-02    0.793E-03
DAV:   5    -0.988676436198E+02    0.90462E-06   -0.27195E-06   120   0.663E-03
 154 F= -.98867644E+02 E0= -.98867644E+02  d E =-.163638E-10
       N       E                     dE             d eps       ncg     rms          rms(c)
DAV:   1    -0.988682503503E+02   -0.60583E-03   -0.53071E-01    96   0.262E+00    0.161E-01
DAV:   2    -0.988681359832E+02    0.11437E-03   -0.20401E-03   120   0.159E-01    0.920E-02
DAV:   3    -0.988680295926E+02    0.10639E-03   -0.34576E-04   120   0.578E-02    0.141E-02
DAV:   4    -0.988680319613E+02   -0.23687E-05   -0.45148E-05   132   0.229E-02    0.741E-03
DAV:   5    -0.988680313777E+02    0.58360E-06   -0.17811E-06   120   0.496E-03
 155 F= -.98868031E+02 E0= -.98868031E+02  d E =-.182049E-10
       N       E                     dE             d eps       ncg     rms          rms(c)
DAV:   1    -0.988673912563E+02    0.64070E-03   -0.26496E-01    96   0.189E+00    0.116E-01
DAV:   2    -0.988673273899E+02    0.63866E-04   -0.11558E-03   132   0.126E-01    0.667E-02
DAV:   3    -0.988672765936E+02    0.50796E-04   -0.18872E-04   144   0.460E-02    0.926E-03
DAV:   4    -0.988672803327E+02   -0.37391E-05   -0.32824E-05   132   0.193E-02    0.600E-03
DAV:   5    -0.988672807415E+02   -0.40871E-06   -0.70626E-07   108   0.330E-03
 156 F= -.98867281E+02 E0= -.98867281E+02  d E =-.199120E-10
       N       E                     dE             d eps       ncg     rms          rms(c)
DAV:   1    -0.988677285026E+02   -0.44817E-03   -0.53092E-01    96   0.267E+00    0.173E-01
DAV:   2    -0.988676186976E+02    0.10981E-03   -0.27275E-03   120   0.194E-01    0.972E-02
DAV:   3    -0.988674869422E+02    0.13176E-03   -0.38542E-04   132   0.602E-02    0.197E-02
DAV:   4    -0.988674868346E+02    0.10757E-06   -0.58663E-05   132   0.246E-02    0.891E-03
DAV:   5    -0.988674869354E+02   -0.10077E-06   -0.33352E-06   132   0.663E-03
 157 F= -.98867487E+02 E0= -.98867487E+02  d E =-.151087E-10
