       N       E                     dE             d eps       ncg     rms          rms(c)
DAV:   1     0.213047000679E+03    0.21305E+03   -0.10449E+04   116   0.546E+02
DAV:   2    -0.215765215977E+02   -0.23462E+03   -0.21994E+03   144   0.103E+02
DAV:   3    -0.978546053636E+02   -0.76278E+02   -0.76108E+02   112   0.557E+01
DAV:   4    -0.102256661828E+03   -0.44021E+01   -0.43869E+01   104   0.182E+01
DAV:   5    -0.102317205207E+03   -0.60543E-01   -0.60488E-01   128   0.229E+00    0.141E+01
DAV:   6    -0.991994933963E+02    0.31177E+01   -0.15943E+00   112   0.452E+00    0.808E+00
DAV:   7    -0.975823688904E+02    0.16171E+01   -0.38912E+00   104   0.656E+00    0.120E+00
DAV:   8    -0.975236673056E+02    0.58702E-01   -0.27201E-01   112   0.216E+00    0.579E-01
DAV:   9    -0.974889284651E+02    0.34739E-01   -0.66212E-02   112   0.723E-01    0.303E-01
DAV:  10    -0.974886466527E+02    0.28181E-03   -0.22320E-03   112   0.191E-01    0.132E-01
DAV:  11    -0.974885155583E+02    0.13109E-03   -0.63785E-03   104   0.238E-01    0.856E-02
DAV:  12    -0.974939722291E+02   -0.54567E-02   -0.19255E-03   102   0.119E-01    0.468E-02
DAV:  13    -0.974978661942E+02   -0.38940E-02   -0.11750E-03   112   0.898E-02    0.350E-02
DAV:  14    -0.975030162819E+02   -0.51501E-02   -0.47464E-04   112   0.664E-02    0.159E-02
DAV:  15    -0.975060099776E+02   -0.29937E-02   -0.27397E-04   112   0.439E-02    0.999E-03
DAV:  16    -0.975074425793E+02   -0.14326E-02   -0.10920E-04   112   0.261E-02    0.565E-03
DAV:  17    -0.975083296634E+02   -0.88708E-03   -0.71034E-05   112   0.200E-02    0.277E-03
DAV:  18    -0.975085914406E+02   -0.26178E-03   -0.91591E-06   104   0.783E-03    0.160E-03
DAV:  19    -0.975086791175E+02   -0.87677E-04   -0.21096E-06    96   0.370E-03    0.772E-04
DAV:  20    -0.975087264653E+02   -0.47348E-04   -0.97197E-07    88   0.283E-03    0.566E-04
DAV:  21    -0.975087416926E+02   -0.15227E-04   -0.43819E-07    88   0.163E-03    0.285E-04
DAV:  22    -0.975087489337E+02   -0.72411E-05   -0.17941E-07    88   0.113E-03    0.201E-04
DAV:  23    -0.975087511859E+02   -0.22522E-05   -0.42015E-08    88   0.613E-04    0.111E-04
DAV:  24    -0.975087530786E+02   -0.18927E-05   -0.30192E-08    86   0.449E-04    0.618E-05
DAV:  25    -0.975087533098E+02   -0.23119E-06   -0.41832E-09    88   0.200E-04
   1 F= -.97508753E+02 E0= -.97508753E+02  d E =-.975088E+02
       N       E                     dE             d eps       ncg     rms          rms(c)
DAV:   1    -0.976294031624E+02   -0.12065E+00   -0.45596E+00    84   0.843E+00    0.976E-01
DAV:   2    -0.976501117504E+02   -0.20709E-01   -0.24637E-01   120   0.189E+00    0.468E-01
DAV:   3    -0.976476104621E+02    0.25013E-02   -0.79853E-03   120   0.352E-01    0.247E-01
DAV:   4    -0.976470589789E+02    0.55148E-03   -0.37667E-03   112   0.221E-01    0.561E-02
DAV:   5    -0.976469373092E+02    0.12167E-03   -0.47373E-04   112   0.894E-02    0.349E-02
DAV:   6    -0.976469471029E+02   -0.97937E-05   -0.91467E-05   120   0.348E-02    0.199E-02
DAV:   7    -0.976470464969E+02   -0.99394E-04   -0.34094E-05   118   0.275E-02    0.557E-03
DAV:   8    -0.976471186422E+02   -0.72145E-04   -0.22705E-05   112   0.193E-02    0.777E-03
DAV:   9    -0.976471697608E+02   -0.51119E-04   -0.37872E-06   112   0.730E-03    0.615E-03
DAV:  10    -0.976472892419E+02   -0.11948E-03   -0.95844E-06   112   0.734E-03    0.317E-03
DAV:  11    -0.976473114236E+02   -0.22182E-04   -0.73463E-07    88   0.322E-03    0.187E-03
DAV:  12    -0.976473696578E+02   -0.58234E-04   -0.39099E-06   104   0.541E-03    0.187E-03
DAV:  13    -0.976473736959E+02   -0.40381E-05   -0.30527E-07    96   0.255E-03    0.619E-04
DAV:  14    -0.976473877301E+02   -0.14034E-04   -0.25133E-07    88   0.188E-03    0.578E-04
DAV:  15    -0.976473981071E+02   -0.10377E-04   -0.29534E-07    88   0.130E-03    0.386E-04
DAV:  16    -0.976474024254E+02   -0.43182E-05   -0.60262E-08    88   0.624E-04    0.140E-04
DAV:  17    -0.976474046704E+02   -0.22450E-05   -0.31702E-08    88   0.419E-04    0.208E-04
DAV:  18    -0.976474057851E+02   -0.11147E-05   -0.15456E-08    88   0.322E-04    0.820E-05
DAV:  19    -0.976474060600E+02   -0.27487E-06   -0.26306E-09    80   0.158E-04
   2 F= -.97647406E+02 E0= -.97647406E+02  d E =-.138653E+00
       N       E                     dE             d eps       ncg     rms          rms(c)
DAV:   1    -0.976475098036E+02   -0.10402E-03   -0.34730E-03    84   0.234E-01    0.257E-02
DAV:   2    -0.976475251942E+02   -0.15391E-04   -0.18856E-04   120   0.525E-02    0.134E-02
DAV:   3    -0.976475226939E+02    0.25003E-05   -0.65835E-06   120   0.101E-02    0.679E-03
DAV:   4    -0.976475217573E+02    0.93666E-06   -0.29357E-06   112   0.620E-03
   3 F= -.97647522E+02 E0= -.97647522E+02  d E =-.138768E+00
       N       E                     dE             d eps       ncg     rms          rms(c)
DAV:   1    -0.976887481262E+02   -0.41225E-01   -0.10852E+00    84   0.469E+00    0.353E-01
DAV:   2    -0.976905035821E+02   -0.17555E-02   -0.31837E-02   112   0.617E-01    0.167E-01
DAV:   3    -0.976899200283E+02    0.58355E-03   -0.15144E-03   120   0.140E-01    0.827E-02
DAV:   4    -0.976898141400E+02    0.10589E-03   -0.57046E-04   112   0.763E-02    0.253E-02
DAV:   5    -0.976898305207E+02   -0.16381E-04   -0.23296E-05   112   0.234E-02    0.137E-02
DAV:   6    -0.976898612131E+02   -0.30692E-04   -0.16663E-05   112   0.174E-02    0.366E-03
DAV:   7    -0.976898843649E+02   -0.23152E-04   -0.59376E-06   112   0.909E-03    0.258E-03
DAV:   8    -0.976899022676E+02   -0.17903E-04   -0.70361E-07    88   0.275E-03    0.144E-03
DAV:   9    -0.976899234943E+02   -0.21227E-04   -0.13574E-06    96   0.303E-03    0.662E-04
DAV:  10    -0.976899432602E+02   -0.19766E-04   -0.15634E-06    96   0.316E-03    0.458E-04
DAV:  11    -0.976899491062E+02   -0.58461E-05   -0.27178E-07    88   0.153E-03    0.231E-04
DAV:  12    -0.976899534037E+02   -0.42975E-05   -0.13948E-07    88   0.975E-04    0.179E-04
DAV:  13    -0.976899556611E+02   -0.22574E-05   -0.76131E-08    88   0.651E-04    0.133E-04
DAV:  14    -0.976899566047E+02   -0.94361E-06   -0.21739E-08    88   0.382E-04
   4 F= -.97689957E+02 E0= -.97689957E+02  d E =-.424348E-01
       N       E                     dE             d eps       ncg     rms          rms(c)
DAV:   1    -0.976974968023E+02   -0.75411E-02   -0.50922E-01    84   0.321E+00    0.240E-01
DAV:   2    -0.976983383377E+02   -0.84154E-03   -0.15008E-02   112   0.423E-01    0.114E-01
DAV:   3    -0.976980618373E+02    0.27650E-03   -0.71132E-04   120   0.956E-02    0.560E-02
DAV:   4    -0.976980069344E+02    0.54903E-04   -0.26139E-04   112   0.518E-02    0.173E-02
DAV:   5    -0.976980122943E+02   -0.53600E-05   -0.10856E-05   110   0.159E-02    0.932E-03
DAV:   6    -0.976980256035E+02   -0.13309E-04   -0.76121E-06   112   0.118E-02    0.250E-03
DAV:   7    -0.976980371695E+02   -0.11566E-04   -0.26434E-06   104   0.615E-03    0.169E-03
DAV:   8    -0.976980466315E+02   -0.94620E-05   -0.38686E-07    88   0.204E-03    0.979E-04
DAV:   9    -0.976980580543E+02   -0.11423E-04   -0.57070E-07    88   0.205E-03    0.434E-04
DAV:  10    -0.976980701025E+02   -0.12048E-04   -0.91878E-07    88   0.229E-03    0.379E-04
DAV:  11    -0.976980739680E+02   -0.38655E-05   -0.22843E-07    88   0.122E-03    0.166E-04
DAV:  12    -0.976980755225E+02   -0.15545E-05   -0.43264E-08    88   0.631E-04    0.146E-04
DAV:  13    -0.976980773244E+02   -0.18019E-05   -0.78282E-08    88   0.646E-04    0.915E-05
DAV:  14    -0.976980776346E+02   -0.31015E-06   -0.84908E-09    88   0.270E-04
   5 F= -.97698078E+02 E0= -.97698078E+02  d E =-.505559E-01
       N       E                     dE             d eps       ncg     rms          rms(c)
DAV:   1    -0.977218388236E+02   -0.23761E-01   -0.10216E+00    84   0.437E+00    0.315E-01
DAV:   2    -0.977252284339E+02   -0.33896E-02   -0.46138E-02   104   0.768E-01    0.178E-01
DAV:   3    -0.977247769358E+02    0.45150E-03   -0.13917E-03   128   0.144E-01    0.932E-02
DAV:   4    -0.977247207277E+02    0.56208E-04   -0.58099E-04   104   0.847E-02    0.240E-02
DAV:   5    -0.977247196717E+02    0.10560E-05   -0.46549E-05   112   0.281E-02    0.103E-02
DAV:   6    -0.977247294582E+02   -0.97866E-05   -0.13304E-05   112   0.121E-02    0.484E-03
DAV:   7    -0.977247533782E+02   -0.23920E-04   -0.22252E-06    94   0.491E-03    0.160E-03
DAV:   8    -0.977247677086E+02   -0.14330E-04   -0.60651E-07    88   0.239E-03    0.129E-03
DAV:   9    -0.977247930894E+02   -0.25381E-04   -0.15343E-06    96   0.283E-03    0.650E-04
DAV:  10    -0.977248085033E+02   -0.15414E-04   -0.93912E-07    88   0.220E-03    0.522E-04
DAV:  11    -0.977248153316E+02   -0.68284E-05   -0.22245E-07    88   0.116E-03    0.218E-04
DAV:  12    -0.977248215580E+02   -0.62264E-05   -0.24694E-07    88   0.106E-03    0.205E-04
DAV:  13    -0.977248233629E+02   -0.18049E-05   -0.43153E-08    88   0.512E-04    0.914E-05
DAV:  14    -0.977248257139E+02   -0.23510E-05   -0.77007E-08    88   0.557E-04    0.458E-05
DAV:  15    -0.977248261432E+02   -0.42924E-06   -0.71889E-09    88   0.234E-04
   6 F= -.97724826E+02 E0= -.97724826E+02  d E =-.267485E-01
       N       E                     dE             d eps       ncg     rms          rms(c)
DAV:   1    -0.977290578291E+02   -0.42321E-02   -0.54628E-01    84   0.319E+00    0.231E-01
DAV:   2    -0.977308704977E+02   -0.18127E-02   -0.24739E-02   112   0.563E-01    0.131E-01
DAV:   3    -0.977306228927E+02    0.24760E-03   -0.76875E-04   120   0.106E-01    0.681E-02
DAV:   4    -0.977305926832E+02    0.30209E-04   -0.30423E-04   112   0.612E-02    0.179E-02
DAV:   5    -0.977305907592E+02    0.19240E-05   -0.21512E-05   112   0.194E-02    0.729E-03
DAV:   6    -0.977305960922E+02   -0.53330E-05   -0.69510E-06   112   0.881E-03    0.344E-03
DAV:   7    -0.977306103751E+02   -0.14283E-04   -0.12733E-06    78   0.377E-03    0.119E-03
DAV:   8    -0.977306176600E+02   -0.72849E-05   -0.36127E-07    88   0.179E-03    0.102E-03
DAV:   9    -0.977306354363E+02   -0.17776E-04   -0.10851E-06    88   0.244E-03    0.652E-04
DAV:  10    -0.977306421118E+02   -0.66756E-05   -0.44867E-07    88   0.147E-03    0.444E-04
DAV:  11    -0.977306460781E+02   -0.39663E-05   -0.92789E-08    88   0.847E-04    0.192E-04
DAV:  12    -0.977306503051E+02   -0.42270E-05   -0.16826E-07    88   0.853E-04    0.155E-04
DAV:  13    -0.977306521930E+02   -0.18879E-05   -0.54165E-08    88   0.488E-04    0.867E-05
DAV:  14    -0.977306530898E+02   -0.89680E-06   -0.19498E-08    88   0.315E-04
   7 F= -.97730653E+02 E0= -.97730653E+02  d E =-.325755E-01
       N       E                     dE             d eps       ncg     rms          rms(c)
DAV:   1    -0.977495576903E+02   -0.18905E-01   -0.12060E+00    84   0.497E+00    0.310E-01
DAV:   2    -0.977511268220E+02   -0.15691E-02   -0.27228E-02   112   0.641E-01    0.172E-01
DAV:   3    -0.977506044459E+02    0.52238E-03   -0.12900E-03   120   0.147E-01    0.780E-02
DAV:   4    -0.977505886163E+02    0.15830E-04   -0.57948E-04   112   0.868E-02    0.234E-02
DAV:   5    -0.977506006558E+02   -0.12039E-04   -0.57585E-05   104   0.314E-02    0.104E-02
DAV:   6    -0.977506105826E+02   -0.99268E-05   -0.11558E-05   112   0.118E-02    0.461E-03
DAV:   7    -0.977506265248E+02   -0.15942E-04   -0.11912E-06    88   0.424E-03    0.150E-03
DAV:   8    -0.977506390525E+02   -0.12528E-04   -0.88019E-07    88   0.340E-03    0.104E-03
DAV:   9    -0.977506579937E+02   -0.18941E-04   -0.13178E-06    96   0.392E-03    0.923E-04
DAV:  10    -0.977506640983E+02   -0.61047E-05   -0.40504E-07    88   0.212E-03    0.440E-04
DAV:  11    -0.977506681204E+02   -0.40221E-05   -0.13962E-07    88   0.119E-03    0.230E-04
DAV:  12    -0.977506723091E+02   -0.41887E-05   -0.13951E-07    88   0.895E-04    0.128E-04
DAV:  13    -0.977506749566E+02   -0.26475E-05   -0.83724E-08    88   0.635E-04    0.899E-05
DAV:  14    -0.977506766532E+02   -0.16966E-05   -0.49966E-08    88   0.463E-04    0.722E-05
DAV:  15    -0.977506772647E+02   -0.61147E-06   -0.11281E-08    88   0.264E-04
   8 F= -.97750677E+02 E0= -.97750677E+02  d E =-.200242E-01
       N       E                     dE             d eps       ncg     rms          rms(c)
DAV:   1    -0.977528670069E+02   -0.21904E-02   -0.31525E-01    84   0.254E+00    0.158E-01
DAV:   2    -0.977532721461E+02   -0.40514E-03   -0.71127E-03   112   0.328E-01    0.878E-02
DAV:   3    -0.977531311213E+02    0.14102E-03   -0.33663E-04   120   0.751E-02    0.397E-02
DAV:   4    -0.977531240666E+02    0.70546E-05   -0.14965E-04   112   0.442E-02    0.118E-02
DAV:   5    -0.977531273821E+02   -0.33155E-05   -0.14599E-05   112   0.159E-02    0.530E-03
DAV:   6    -0.977531301332E+02   -0.27511E-05   -0.28558E-06   104   0.602E-03    0.236E-03
DAV:   7    -0.977531351012E+02   -0.49680E-05   -0.44709E-07    88   0.256E-03    0.750E-04
DAV:   8    -0.977531390038E+02   -0.39025E-05   -0.26269E-07    88   0.189E-03    0.558E-04
DAV:   9    -0.977531456477E+02   -0.66439E-05   -0.37164E-07    88   0.204E-03    0.446E-04
DAV:  10    -0.977531481328E+02   -0.24851E-05   -0.16235E-07    88   0.116E-03    0.248E-04
DAV:  11    -0.977531497223E+02   -0.15895E-05   -0.50741E-08    88   0.726E-04    0.130E-04
DAV:  12    -0.977531512584E+02   -0.15362E-05   -0.53744E-08    88   0.530E-04    0.691E-05
DAV:  13    -0.977531522966E+02   -0.10381E-05   -0.27172E-08    88   0.368E-04    0.472E-05
DAV:  14    -0.977531528782E+02   -0.58160E-06   -0.13724E-08    88   0.255E-04
   9 F= -.97753153E+02 E0= -.97753153E+02  d E =-.224998E-01
       N       E                     dE             d eps       ncg     rms          rms(c)
DAV:   1    -0.977599912912E+02   -0.68390E-02   -0.38636E-01    84   0.278E+00    0.168E-01
DAV:   2    -0.977606474197E+02   -0.65613E-03   -0.10226E-02   120   0.372E-01    0.903E-02
DAV:   3    -0.977605232270E+02    0.12419E-03   -0.37291E-04   120   0.726E-02    0.453E-02
DAV:   4    -0.977604888708E+02    0.34356E-04   -0.12992E-04   112   0.413E-02    0.103E-02
DAV:   5    -0.977604859648E+02    0.29060E-05   -0.14732E-05   112   0.170E-02    0.541E-03
DAV:   6    -0.977604901221E+02   -0.41573E-05   -0.47198E-06   112   0.907E-03    0.290E-03
DAV:   7    -0.977604992834E+02   -0.91613E-05   -0.96708E-07    88   0.473E-03    0.120E-03
DAV:   8    -0.977605086241E+02   -0.93407E-05   -0.56450E-07    88   0.335E-03    0.849E-04
DAV:   9    -0.977605215550E+02   -0.12931E-04   -0.84450E-07    88   0.300E-03    0.342E-04
DAV:  10    -0.977605286188E+02   -0.70638E-05   -0.49793E-07    88   0.201E-03    0.266E-04
DAV:  11    -0.977605323558E+02   -0.37370E-05   -0.12037E-07    88   0.105E-03    0.192E-04
DAV:  12    -0.977605354074E+02   -0.30516E-05   -0.12321E-07    88   0.834E-04    0.913E-05
DAV:  13    -0.977605366288E+02   -0.12213E-05   -0.43876E-08    88   0.453E-04    0.597E-05
DAV:  14    -0.977605373983E+02   -0.76955E-06   -0.15781E-08    88   0.295E-04
  10 F= -.97760537E+02 E0= -.97760537E+02  d E =-.738452E-02
       N       E                     dE             d eps       ncg     rms          rms(c)
DAV:   1    -0.977612846586E+02   -0.74803E-03   -0.89907E-02    84   0.134E+00    0.811E-02
DAV:   2    -0.977614338809E+02   -0.14922E-03   -0.23661E-03   120   0.179E-01    0.435E-02
DAV:   3    -0.977614037437E+02    0.30137E-04   -0.86865E-05   120   0.349E-02    0.217E-02
DAV:   4    -0.977613944485E+02    0.92951E-05   -0.29475E-05   112   0.197E-02    0.496E-03
DAV:   5    -0.977613931359E+02    0.13127E-05   -0.32641E-06   104   0.811E-03    0.253E-03
DAV:   6    -0.977613938548E+02   -0.71892E-06   -0.10048E-06    88   0.454E-03
  11 F= -.97761394E+02 E0= -.97761394E+02  d E =-.824098E-02
       N       E                     dE             d eps       ncg     rms          rms(c)
DAV:   1    -0.977638366908E+02   -0.24436E-02   -0.13646E-01    84   0.167E+00    0.981E-02
DAV:   2    -0.977640326234E+02   -0.19593E-03   -0.29370E-03   120   0.219E-01    0.582E-02
DAV:   3    -0.977639987390E+02    0.33884E-04   -0.11675E-04   120   0.444E-02    0.278E-02
DAV:   4    -0.977639960269E+02    0.27121E-05   -0.50515E-05   112   0.258E-02    0.551E-03
DAV:   5    -0.977639954441E+02    0.58283E-06   -0.50754E-06   112   0.952E-03
  12 F= -.97763995E+02 E0= -.97763995E+02  d E =-.260159E-02
       N       E                     dE             d eps       ncg     rms          rms(c)
DAV:   1    -0.977641198387E+02   -0.12381E-03   -0.10611E-02    84   0.466E-01    0.277E-02
DAV:   2    -0.977641354363E+02   -0.15598E-04   -0.23804E-04   120   0.624E-02    0.163E-02
DAV:   3    -0.977641327444E+02    0.26919E-05   -0.89481E-06   120   0.122E-02    0.795E-03
DAV:   4    -0.977641338548E+02   -0.11104E-05   -0.39202E-06   112   0.716E-03    0.162E-03
DAV:   5    -0.977641357592E+02   -0.19044E-05   -0.40365E-07    88   0.278E-03    0.985E-04
DAV:   6    -0.977641383194E+02   -0.25603E-05   -0.23771E-07    88   0.177E-03    0.534E-04
DAV:   7    -0.977641419306E+02   -0.36111E-05   -0.14892E-07    88   0.118E-03    0.269E-04
DAV:   8    -0.977641449346E+02   -0.30040E-05   -0.11225E-07    88   0.851E-04    0.248E-04
DAV:   9    -0.977641476875E+02   -0.27529E-05   -0.11067E-07    88   0.701E-04    0.101E-04
DAV:  10    -0.977641491210E+02   -0.14335E-05   -0.49199E-08    88   0.474E-04    0.758E-05
DAV:  11    -0.977641497752E+02   -0.65421E-06   -0.13451E-08    88   0.260E-04
  13 F= -.97764150E+02 E0= -.97764150E+02  d E =-.275592E-02
       N       E                     dE             d eps       ncg     rms          rms(c)
DAV:   1    -0.977659995137E+02   -0.18504E-02   -0.11586E-01    84   0.153E+00    0.903E-02
DAV:   2    -0.977662063723E+02   -0.20686E-03   -0.31392E-03   120   0.212E-01    0.525E-02
DAV:   3    -0.977661799842E+02    0.26388E-04   -0.96503E-05   120   0.393E-02    0.272E-02
DAV:   4    -0.977661770737E+02    0.29104E-05   -0.38780E-05   112   0.246E-02    0.494E-03
DAV:   5    -0.977661767668E+02    0.30695E-06   -0.57034E-06   112   0.101E-02
  14 F= -.97766177E+02 E0= -.97766177E+02  d E =-.202699E-02
       N       E                     dE             d eps       ncg     rms          rms(c)
DAV:   1    -0.977663483027E+02   -0.17123E-03   -0.22132E-02    84   0.670E-01    0.399E-02
DAV:   2    -0.977663882197E+02   -0.39917E-04   -0.61132E-04   120   0.935E-02    0.230E-02
DAV:   3    -0.977663836375E+02    0.45823E-05   -0.18277E-05   120   0.171E-02    0.121E-02
DAV:   4    -0.977663843505E+02   -0.71306E-06   -0.73503E-06   112   0.109E-02
  15 F= -.97766384E+02 E0= -.97766384E+02  d E =-.223458E-02
       N       E                     dE             d eps       ncg     rms          rms(c)
DAV:   1    -0.977668321885E+02   -0.44855E-03   -0.31353E-02    84   0.800E-01    0.561E-02
DAV:   2    -0.977669054533E+02   -0.73265E-04   -0.10223E-03   120   0.119E-01    0.303E-02
DAV:   3    -0.977668974251E+02    0.80282E-05   -0.33661E-05   120   0.227E-02    0.164E-02
DAV:   4    -0.977668984047E+02   -0.97959E-06   -0.15830E-05   112   0.153E-02    0.296E-03
DAV:   5    -0.977668993442E+02   -0.93949E-06   -0.24521E-06   104   0.692E-03
  16 F= -.97766899E+02 E0= -.97766899E+02  d E =-.514994E-03
       N       E                     dE             d eps       ncg     rms          rms(c)
DAV:   1    -0.977669003782E+02   -0.19735E-05   -0.13303E-05   104   0.164E-02    0.211E-03
DAV:   2    -0.977669010971E+02   -0.71887E-06   -0.70903E-07    88   0.324E-03
  17 F= -.97766901E+02 E0= -.97766901E+02  d E =-.516747E-03
       N       E                     dE             d eps       ncg     rms          rms(c)
DAV:   1    -0.977670349383E+02   -0.13456E-03   -0.10350E-02    86   0.460E-01    0.320E-02
DAV:   2    -0.977670667208E+02   -0.31783E-04   -0.45500E-04   120   0.795E-02    0.187E-02
DAV:   3    -0.977670629817E+02    0.37391E-05   -0.14047E-05   120   0.143E-02    0.106E-02
DAV:   4    -0.977670619044E+02    0.10774E-05   -0.56559E-06   112   0.874E-03    0.205E-03
DAV:   5    -0.977670621059E+02   -0.20158E-06   -0.70915E-07    88   0.372E-03
  18 F= -.97767062E+02 E0= -.97767062E+02  d E =-.161009E-03
