       N       E                     dE             d eps       ncg     rms          rms(c)
DAV:   1     0.248832495199E+03    0.24883E+03   -0.10131E+04   120   0.484E+02
DAV:   2    -0.199156570580E+02   -0.26875E+03   -0.25497E+03   156   0.919E+01
DAV:   3    -0.995098931068E+02   -0.79594E+02   -0.79376E+02   120   0.559E+01
DAV:   4    -0.103323774269E+03   -0.38139E+01   -0.38006E+01   132   0.174E+01
DAV:   5    -0.103372476879E+03   -0.48703E-01   -0.48588E-01   132   0.191E+00    0.142E+01
DAV:   6    -0.100216975211E+03    0.31555E+01   -0.14359E+00   120   0.410E+00    0.817E+00
DAV:   7    -0.986166735697E+02    0.16003E+01   -0.38460E+00   120   0.598E+00    0.127E+00
DAV:   8    -0.985558533040E+02    0.60820E-01   -0.30739E-01   132   0.209E+00    0.628E-01
DAV:   9    -0.985224734751E+02    0.33380E-01   -0.55760E-02   144   0.643E-01    0.344E-01
DAV:  10    -0.985212568213E+02    0.12167E-02   -0.44151E-03   120   0.211E-01    0.126E-01
DAV:  11    -0.985205937281E+02    0.66309E-03   -0.62410E-03   120   0.206E-01    0.111E-01
DAV:  12    -0.985270187808E+02   -0.64251E-02   -0.14593E-03   132   0.996E-02    0.470E-02
DAV:  13    -0.985300694167E+02   -0.30506E-02   -0.14751E-03   108   0.101E-01    0.441E-02
DAV:  14    -0.985338537444E+02   -0.37843E-02   -0.31517E-04   132   0.552E-02    0.155E-02
DAV:  15    -0.985374695905E+02   -0.36158E-02   -0.34309E-04   108   0.451E-02    0.123E-02
DAV:  16    -0.985391838873E+02   -0.17143E-02   -0.11164E-04   132   0.252E-02    0.558E-03
DAV:  17    -0.985401649336E+02   -0.98105E-03   -0.75360E-05   108   0.184E-02    0.503E-03
DAV:  18    -0.985405385410E+02   -0.37361E-03   -0.16082E-05   132   0.919E-03    0.283E-03
DAV:  19    -0.985406600883E+02   -0.12155E-03   -0.32099E-06   108   0.449E-03    0.166E-03
DAV:  20    -0.985407128623E+02   -0.52774E-04   -0.93850E-07   108   0.262E-03    0.560E-04
DAV:  21    -0.985407377314E+02   -0.24869E-04   -0.57019E-07    84   0.181E-03    0.336E-04
DAV:  22    -0.985407489097E+02   -0.11178E-04   -0.31556E-07    96   0.119E-03    0.261E-04
DAV:  23    -0.985407513482E+02   -0.24385E-05   -0.35306E-08    96   0.450E-04    0.156E-04
DAV:  24    -0.985407543765E+02   -0.30284E-05   -0.54861E-08    84   0.560E-04    0.166E-04
DAV:  25    -0.985407547595E+02   -0.38298E-06   -0.10934E-09   120   0.240E-04
   1 F= -.98540755E+02 E0= -.98540755E+02  d E =-.265065E-10
       N       E                     dE             d eps       ncg     rms          rms(c)
DAV:   1    -0.985374188088E+02    0.33356E-02   -0.83162E-02    96   0.839E-01    0.922E-02
DAV:   2    -0.985377851451E+02   -0.36634E-03   -0.38308E-03   108   0.205E-01    0.504E-02
DAV:   3    -0.985377846916E+02    0.45351E-06   -0.11398E-04   144   0.409E-02    0.237E-02
DAV:   4    -0.985377870334E+02   -0.23418E-05   -0.24118E-05   120   0.198E-02    0.627E-03
DAV:   5    -0.985377861127E+02    0.92064E-06   -0.49773E-06   132   0.854E-03
   2 F= -.98537786E+02 E0= -.98537786E+02  d E =-.283033E-10
       N       E                     dE             d eps       ncg     rms          rms(c)
DAV:   1    -0.985362418867E+02    0.15451E-02   -0.33519E-01    96   0.167E+00    0.188E-01
DAV:   2    -0.985377935672E+02   -0.15517E-02   -0.16081E-02   144   0.411E-01    0.102E-01
DAV:   3    -0.985377996575E+02   -0.60904E-05   -0.48847E-04   120   0.822E-02    0.514E-02
DAV:   4    -0.985378165373E+02   -0.16880E-04   -0.95755E-05   108   0.398E-02    0.127E-02
DAV:   5    -0.985378126849E+02    0.38524E-05   -0.21491E-05   132   0.178E-02    0.664E-03
DAV:   6    -0.985378128522E+02   -0.16726E-06   -0.54943E-06   132   0.763E-03
   3 F= -.98537813E+02 E0= -.98537813E+02  d E =-.272930E-10
       N       E                     dE             d eps       ncg     rms          rms(c)
DAV:   1    -0.985368683442E+02    0.94434E-03   -0.16865E-01    96   0.120E+00    0.134E-01
DAV:   2    -0.985376220863E+02   -0.75374E-03   -0.77777E-03   120   0.283E-01    0.707E-02
DAV:   3    -0.985376289714E+02   -0.68851E-05   -0.22914E-04   132   0.562E-02    0.350E-02
DAV:   4    -0.985376404744E+02   -0.11503E-04   -0.45286E-05   120   0.266E-02    0.896E-03
DAV:   5    -0.985376397568E+02    0.71757E-06   -0.96755E-06   132   0.120E-02
   4 F= -.98537640E+02 E0= -.98537640E+02  d E =-.190690E-10
       N       E                     dE             d eps       ncg     rms          rms(c)
DAV:   1    -0.985362822253E+02    0.13582E-02   -0.33756E-01    96   0.166E+00    0.189E-01
DAV:   2    -0.985378715949E+02   -0.15894E-02   -0.16413E-02   120   0.414E-01    0.104E-01
DAV:   3    -0.985378699143E+02    0.16806E-05   -0.47489E-04   132   0.820E-02    0.522E-02
DAV:   4    -0.985378855852E+02   -0.15671E-04   -0.10122E-04   108   0.397E-02    0.136E-02
DAV:   5    -0.985378806959E+02    0.48893E-05   -0.21158E-05   132   0.178E-02    0.598E-03
DAV:   6    -0.985378809828E+02   -0.28684E-06   -0.56723E-06   132   0.784E-03
   5 F= -.98537881E+02 E0= -.98537881E+02  d E =-.487965E-10
       N       E                     dE             d eps       ncg     rms          rms(c)
DAV:   1    -0.985355923934E+02    0.22883E-02   -0.16813E-01    96   0.119E+00    0.144E-01
DAV:   2    -0.985365436350E+02   -0.95124E-03   -0.98364E-03   120   0.319E-01    0.901E-02
DAV:   3    -0.985365211149E+02    0.22520E-04   -0.26059E-04   120   0.624E-02    0.493E-02
DAV:   4    -0.985365283374E+02   -0.72225E-05   -0.94594E-05   108   0.359E-02    0.105E-02
DAV:   5    -0.985365274026E+02    0.93481E-06   -0.18698E-05   132   0.155E-02    0.646E-03
DAV:   6    -0.985365290570E+02   -0.16544E-05   -0.32551E-06   108   0.577E-03    0.406E-03
DAV:   7    -0.985365348755E+02   -0.58185E-05   -0.69835E-07   108   0.280E-03    0.144E-03
DAV:   8    -0.985365409874E+02   -0.61119E-05   -0.35138E-07    84   0.189E-03    0.581E-04
DAV:   9    -0.985365486577E+02   -0.76703E-05   -0.59040E-07    96   0.182E-03    0.599E-04
DAV:  10    -0.985365550477E+02   -0.63900E-05   -0.49287E-07   108   0.152E-03    0.256E-04
DAV:  11    -0.985365567754E+02   -0.17277E-05   -0.37067E-08   108   0.618E-04    0.184E-04
DAV:  12    -0.985365588455E+02   -0.20701E-05   -0.65492E-08    84   0.564E-04    0.772E-05
DAV:  13    -0.985365596579E+02   -0.81231E-06   -0.14108E-08    96   0.293E-04
   6 F= -.98536560E+02 E0= -.98536560E+02  d E =-.376213E-10
       N       E                     dE             d eps       ncg     rms          rms(c)
DAV:   1    -0.985339095290E+02    0.26493E-02   -0.33750E-01    96   0.165E+00    0.252E-01
DAV:   2    -0.985362254733E+02   -0.23159E-02   -0.24843E-02   132   0.492E-01    0.166E-01
DAV:   3    -0.985360839384E+02    0.14153E-03   -0.62826E-04   132   0.979E-02    0.880E-02
DAV:   4    -0.985360781557E+02    0.57827E-05   -0.36327E-04   108   0.661E-02    0.152E-02
DAV:   5    -0.985360695378E+02    0.86179E-05   -0.60801E-05   132   0.269E-02    0.112E-02
DAV:   6    -0.985360702304E+02   -0.69258E-06   -0.10405E-05   108   0.855E-03    0.763E-03
DAV:   7    -0.985360832170E+02   -0.12987E-04   -0.11188E-06   120   0.343E-03    0.330E-03
DAV:   8    -0.985361032658E+02   -0.20049E-04   -0.19149E-06   108   0.447E-03    0.136E-03
DAV:   9    -0.985361184523E+02   -0.15186E-04   -0.11363E-06   108   0.254E-03    0.151E-03
DAV:  10    -0.985361424883E+02   -0.24036E-04   -0.14578E-06   108   0.252E-03    0.866E-04
DAV:  11    -0.985361464245E+02   -0.39362E-05   -0.94303E-08   108   0.943E-04    0.516E-04
DAV:  12    -0.985361550059E+02   -0.85814E-05   -0.24738E-07    84   0.111E-03    0.309E-04
DAV:  13    -0.985361580481E+02   -0.30422E-05   -0.85868E-08   108   0.622E-04    0.250E-04
DAV:  14    -0.985361602557E+02   -0.22076E-05   -0.18059E-08    84   0.393E-04    0.813E-05
DAV:  15    -0.985361614684E+02   -0.12127E-05   -0.18236E-08    96   0.310E-04    0.715E-05
DAV:  16    -0.985361619150E+02   -0.44665E-06    0.36800E-09    96   0.139E-04
   7 F= -.98536162E+02 E0= -.98536162E+02  d E =-.209218E-10
       N       E                     dE             d eps       ncg     rms          rms(c)
DAV:   1    -0.985353984185E+02    0.76305E-03   -0.16719E-01    96   0.124E+00    0.157E-01
DAV:   2    -0.985367865368E+02   -0.13881E-02   -0.14630E-02   132   0.394E-01    0.117E-01
DAV:   3    -0.985367145131E+02    0.72024E-04   -0.33216E-04   144   0.715E-02    0.683E-02
DAV:   4    -0.985366951786E+02    0.19335E-04   -0.18044E-04   108   0.509E-02    0.102E-02
DAV:   5    -0.985366915232E+02    0.36553E-05   -0.47400E-05   132   0.235E-02    0.855E-03
DAV:   6    -0.985366923331E+02   -0.80986E-06   -0.58686E-06   120   0.729E-03
   8 F= -.98536692E+02 E0= -.98536692E+02  d E =-.367780E-10
       N       E                     dE             d eps       ncg     rms          rms(c)
DAV:   1    -0.985341824405E+02    0.25091E-02   -0.33395E-01    96   0.168E+00    0.242E-01
DAV:   2    -0.985364765541E+02   -0.22941E-02   -0.24114E-02   120   0.489E-01    0.158E-01
DAV:   3    -0.985363721508E+02    0.10440E-03   -0.61504E-04   132   0.977E-02    0.830E-02
DAV:   4    -0.985363873431E+02   -0.15192E-04   -0.33811E-04   108   0.649E-02    0.154E-02
DAV:   5    -0.985363791761E+02    0.81669E-05   -0.59782E-05   132   0.271E-02    0.111E-02
DAV:   6    -0.985363776352E+02    0.15409E-05   -0.10011E-05   132   0.885E-03    0.729E-03
DAV:   7    -0.985363837489E+02   -0.61137E-05   -0.90892E-07    96   0.342E-03    0.305E-03
DAV:   8    -0.985363944872E+02   -0.10738E-04   -0.12368E-06   120   0.399E-03    0.104E-03
DAV:   9    -0.985364046637E+02   -0.10176E-04   -0.92772E-07   120   0.249E-03    0.123E-03
DAV:  10    -0.985364194991E+02   -0.14835E-04   -0.82046E-07    96   0.207E-03    0.636E-04
DAV:  11    -0.985364226554E+02   -0.31563E-05   -0.91821E-08   108   0.896E-04    0.439E-04
DAV:  12    -0.985364283869E+02   -0.57315E-05   -0.15823E-07    96   0.903E-04    0.211E-04
DAV:  13    -0.985364311436E+02   -0.27568E-05   -0.79730E-08   108   0.584E-04    0.188E-04
DAV:  14    -0.985364331824E+02   -0.20388E-05   -0.22801E-08    84   0.383E-04    0.780E-05
DAV:  15    -0.985364339227E+02   -0.74030E-06   -0.68137E-09   108   0.230E-04
   9 F= -.98536434E+02 E0= -.98536434E+02  d E =-.209512E-10
       N       E                     dE             d eps       ncg     rms          rms(c)
DAV:   1    -0.985366901020E+02   -0.25692E-03   -0.16704E-01    96   0.118E+00    0.156E-01
DAV:   2    -0.985377335839E+02   -0.10435E-02   -0.10972E-02   108   0.346E-01    0.104E-01
DAV:   3    -0.985376837248E+02    0.49859E-04   -0.28114E-04   144   0.677E-02    0.565E-02
DAV:   4    -0.985376811223E+02    0.26026E-05   -0.13283E-04   108   0.440E-02    0.118E-02
DAV:   5    -0.985376772862E+02    0.38361E-05   -0.26348E-05   132   0.187E-02    0.792E-03
DAV:   6    -0.985376787049E+02   -0.14188E-05   -0.42496E-06   132   0.652E-03    0.501E-03
DAV:   7    -0.985376860235E+02   -0.73186E-05   -0.66720E-07   108   0.293E-03    0.180E-03
DAV:   8    -0.985376941174E+02   -0.80939E-05   -0.59749E-07   120   0.232E-03    0.721E-04
DAV:   9    -0.985377040443E+02   -0.99269E-05   -0.71866E-07   120   0.218E-03    0.737E-04
DAV:  10    -0.985377123955E+02   -0.83512E-05   -0.60113E-07   120   0.174E-03    0.423E-04
DAV:  11    -0.985377156292E+02   -0.32337E-05   -0.10872E-07   108   0.847E-04    0.256E-04
DAV:  12    -0.985377182473E+02   -0.26181E-05   -0.89770E-08   108   0.656E-04    0.100E-04
DAV:  13    -0.985377194412E+02   -0.11940E-05   -0.30167E-08   108   0.392E-04    0.141E-04
DAV:  14    -0.985377202469E+02   -0.80565E-06   -0.78091E-09   108   0.255E-04
  10 F= -.98537720E+02 E0= -.98537720E+02  d E =-.194831E-10
       N       E                     dE             d eps       ncg     rms          rms(c)
DAV:   1    -0.985362581821E+02    0.14613E-02   -0.32904E-01    96   0.167E+00    0.187E-01
DAV:   2    -0.985378437332E+02   -0.15856E-02   -0.16543E-02   108   0.419E-01    0.103E-01
DAV:   3    -0.985378359331E+02    0.78001E-05   -0.48791E-04   144   0.841E-02    0.499E-02
DAV:   4    -0.985378464798E+02   -0.10547E-04   -0.98852E-05   132   0.402E-02    0.127E-02
DAV:   5    -0.985378430907E+02    0.33891E-05   -0.21305E-05   132   0.181E-02    0.674E-03
DAV:   6    -0.985378448918E+02   -0.18011E-05   -0.61198E-06   132   0.815E-03    0.375E-03
DAV:   7    -0.985378492041E+02   -0.43123E-05   -0.54241E-07   108   0.273E-03    0.182E-03
DAV:   8    -0.985378560873E+02   -0.68832E-05   -0.60557E-07    96   0.293E-03    0.832E-04
DAV:   9    -0.985378614581E+02   -0.53708E-05   -0.32895E-07   108   0.190E-03    0.602E-04
DAV:  10    -0.985378690944E+02   -0.76363E-05   -0.46874E-07    84   0.204E-03    0.347E-04
DAV:  11    -0.985378715012E+02   -0.24068E-05   -0.14363E-07   108   0.116E-03    0.338E-04
DAV:  12    -0.985378734953E+02   -0.19941E-05   -0.35166E-08   108   0.610E-04    0.149E-04
DAV:  13    -0.985378760695E+02   -0.25742E-05   -0.85865E-08    84   0.611E-04    0.121E-04
DAV:  14    -0.985378773926E+02   -0.13230E-05   -0.30335E-08   108   0.364E-04    0.111E-04
DAV:  15    -0.985378779095E+02   -0.51695E-06   -0.14437E-09    96   0.189E-04
  11 F= -.98537878E+02 E0= -.98537878E+02  d E =-.435169E-10
       N       E                     dE             d eps       ncg     rms          rms(c)
DAV:   1    -0.985366770606E+02    0.12003E-02   -0.16582E-01    96   0.119E+00    0.135E-01
DAV:   2    -0.985374604713E+02   -0.78341E-03   -0.81826E-03   108   0.291E-01    0.730E-02
DAV:   3    -0.985374546929E+02    0.57784E-05   -0.22572E-04   132   0.574E-02    0.362E-02
DAV:   4    -0.985374601853E+02   -0.54924E-05   -0.53885E-05   132   0.292E-02    0.925E-03
DAV:   5    -0.985374582387E+02    0.19466E-05   -0.12174E-05   132   0.134E-02    0.455E-03
DAV:   6    -0.985374590242E+02   -0.78552E-06   -0.30449E-06   132   0.584E-03
  12 F= -.98537459E+02 E0= -.98537459E+02  d E =-.166002E-10
       N       E                     dE             d eps       ncg     rms          rms(c)
DAV:   1    -0.985359167589E+02    0.15415E-02   -0.33378E-01    96   0.168E+00    0.198E-01
DAV:   2    -0.985376386843E+02   -0.17219E-02   -0.17859E-02   120   0.443E-01    0.118E-01
DAV:   3    -0.985376167924E+02    0.21892E-04   -0.49704E-04   108   0.859E-02    0.643E-02
DAV:   4    -0.985376305225E+02   -0.13730E-04   -0.14194E-04   120   0.474E-02    0.147E-02
DAV:   5    -0.985376263888E+02    0.41337E-05   -0.31737E-05   120   0.211E-02    0.811E-03
DAV:   6    -0.985376270124E+02   -0.62357E-06   -0.57055E-06   132   0.796E-03
  13 F= -.98537627E+02 E0= -.98537627E+02  d E =-.498368E-10
       N       E                     dE             d eps       ncg     rms          rms(c)
DAV:   1    -0.985361387581E+02    0.14876E-02   -0.16539E-01    96   0.122E+00    0.142E-01
DAV:   2    -0.985372448777E+02   -0.11061E-02   -0.11556E-02   120   0.349E-01    0.879E-02
DAV:   3    -0.985372195333E+02    0.25344E-04   -0.30087E-04   132   0.677E-02    0.476E-02
DAV:   4    -0.985372307253E+02   -0.11192E-04   -0.10325E-04   108   0.404E-02    0.104E-02
DAV:   5    -0.985372304194E+02    0.30596E-06   -0.25610E-05   132   0.187E-02    0.675E-03
DAV:   6    -0.985372307256E+02   -0.30623E-06   -0.38632E-06   132   0.659E-03
  14 F= -.98537231E+02 E0= -.98537231E+02  d E =-.202436E-10
       N       E                     dE             d eps       ncg     rms          rms(c)
DAV:   1    -0.985356369388E+02    0.15935E-02   -0.34071E-01    96   0.168E+00    0.204E-01
DAV:   2    -0.985375213736E+02   -0.18844E-02   -0.19454E-02   144   0.453E-01    0.127E-01
DAV:   3    -0.985374778147E+02    0.43559E-04   -0.52119E-04   108   0.882E-02    0.685E-02
DAV:   4    -0.985374889406E+02   -0.11126E-04   -0.18890E-04   120   0.516E-02    0.154E-02
DAV:   5    -0.985374823892E+02    0.65515E-05   -0.37509E-05   132   0.223E-02    0.866E-03
DAV:   6    -0.985374820962E+02    0.29294E-06   -0.67820E-06   132   0.835E-03
  15 F= -.98537482E+02 E0= -.98537482E+02  d E =-.444914E-10
       N       E                     dE             d eps       ncg     rms          rms(c)
DAV:   1    -0.985359963286E+02    0.14861E-02   -0.16869E-01    96   0.118E+00    0.135E-01
DAV:   2    -0.985367736993E+02   -0.77737E-03   -0.80111E-03   144   0.289E-01    0.745E-02
DAV:   3    -0.985367760891E+02   -0.23898E-05   -0.23401E-04   120   0.577E-02    0.371E-02
DAV:   4    -0.985367897600E+02   -0.13671E-04   -0.52311E-05   108   0.279E-02    0.968E-03
DAV:   5    -0.985367912092E+02   -0.14492E-05   -0.10183E-05   132   0.124E-02    0.451E-03
DAV:   6    -0.985367939109E+02   -0.27017E-05   -0.30148E-06   108   0.558E-03    0.249E-03
DAV:   7    -0.985367977432E+02   -0.38322E-05   -0.34205E-07    96   0.199E-03    0.107E-03
DAV:   8    -0.985368022256E+02   -0.44825E-05   -0.28688E-07    84   0.165E-03    0.481E-04
DAV:   9    -0.985368065023E+02   -0.42767E-05   -0.22725E-07    96   0.144E-03    0.362E-04
DAV:  10    -0.985368109050E+02   -0.44027E-05   -0.31168E-07    84   0.141E-03    0.213E-04
DAV:  11    -0.985368121893E+02   -0.12843E-05   -0.49965E-08   108   0.750E-04    0.158E-04
DAV:  12    -0.985368135726E+02   -0.13834E-05   -0.33291E-08    84   0.483E-04    0.888E-05
DAV:  13    -0.985368144410E+02   -0.86835E-06   -0.18346E-08    96   0.312E-04
  16 F= -.98536814E+02 E0= -.98536814E+02  d E =-.325368E-10
       N       E                     dE             d eps       ncg     rms          rms(c)
DAV:   1    -0.985344872437E+02    0.23263E-02   -0.33297E-01    96   0.166E+00    0.235E-01
DAV:   2    -0.985367373282E+02   -0.22501E-02   -0.23801E-02   108   0.480E-01    0.154E-01
DAV:   3    -0.985366171849E+02    0.12014E-03   -0.58680E-04   132   0.937E-02    0.840E-02
DAV:   4    -0.985366112740E+02    0.59109E-05   -0.30485E-04   108   0.619E-02    0.152E-02
DAV:   5    -0.985366047975E+02    0.64765E-05   -0.59430E-05   132   0.267E-02    0.111E-02
DAV:   6    -0.985366048500E+02   -0.52543E-07   -0.88998E-06   108   0.868E-03
  17 F= -.98536605E+02 E0= -.98536605E+02  d E =-.237100E-10
       N       E                     dE             d eps       ncg     rms          rms(c)
DAV:   1    -0.985368173086E+02   -0.21251E-03   -0.16720E-01    96   0.117E+00    0.144E-01
DAV:   2    -0.985377638789E+02   -0.94657E-03   -0.96772E-03   132   0.329E-01    0.901E-02
DAV:   3    -0.985377564529E+02    0.74259E-05   -0.26030E-04   144   0.655E-02    0.467E-02
DAV:   4    -0.985377857754E+02   -0.29322E-04   -0.10696E-04   108   0.395E-02    0.109E-02
DAV:   5    -0.985377891199E+02   -0.33445E-05   -0.20285E-05   132   0.168E-02    0.705E-03
DAV:   6    -0.985377912099E+02   -0.20900E-05   -0.37143E-06   132   0.632E-03    0.418E-03
DAV:   7    -0.985377944156E+02   -0.32057E-05   -0.47799E-07   108   0.271E-03    0.136E-03
DAV:   8    -0.985377969885E+02   -0.25729E-05   -0.19606E-07   108   0.175E-03    0.476E-04
DAV:   9    -0.985378001078E+02   -0.31194E-05   -0.18782E-07   108   0.155E-03    0.423E-04
DAV:  10    -0.985378025063E+02   -0.23984E-05   -0.15557E-07   108   0.118E-03    0.207E-04
DAV:  11    -0.985378035378E+02   -0.10315E-05   -0.37505E-08   108   0.633E-04    0.168E-04
DAV:  12    -0.985378044488E+02   -0.91097E-06   -0.15957E-08   108   0.365E-04
  18 F= -.98537804E+02 E0= -.98537804E+02  d E =-.211593E-10
       N       E                     dE             d eps       ncg     rms          rms(c)
DAV:   1    -0.985363523258E+02    0.14512E-02   -0.34069E-01    96   0.166E+00    0.189E-01
DAV:   2    -0.985378235141E+02   -0.14712E-02   -0.15361E-02   144   0.405E-01    0.101E-01
DAV:   3    -0.985378255065E+02   -0.19925E-05   -0.47191E-04   132   0.800E-02    0.530E-02
DAV:   4    -0.985378375044E+02   -0.11998E-04   -0.82759E-05   132   0.384E-02    0.133E-02
DAV:   5    -0.985378351339E+02    0.23705E-05   -0.20514E-05   132   0.178E-02    0.636E-03
DAV:   6    -0.985378371777E+02   -0.20438E-05   -0.53730E-06   132   0.760E-03    0.379E-03
DAV:   7    -0.985378418147E+02   -0.46370E-05   -0.47145E-07   108   0.246E-03    0.187E-03
DAV:   8    -0.985378488023E+02   -0.69875E-05   -0.53896E-07   108   0.268E-03    0.845E-04
DAV:   9    -0.985378537826E+02   -0.49803E-05   -0.28667E-07   108   0.187E-03    0.626E-04
DAV:  10    -0.985378615977E+02   -0.78151E-05   -0.46559E-07    84   0.209E-03    0.430E-04
DAV:  11    -0.985378637496E+02   -0.21519E-05   -0.14804E-07   108   0.119E-03    0.399E-04
DAV:  12    -0.985378651844E+02   -0.14348E-05   -0.24446E-08    96   0.570E-04    0.171E-04
DAV:  13    -0.985378674611E+02   -0.22767E-05   -0.71300E-08   108   0.606E-04    0.127E-04
DAV:  14    -0.985378685743E+02   -0.11133E-05   -0.26905E-08   108   0.367E-04    0.143E-04
DAV:  15    -0.985378691548E+02   -0.58044E-06   -0.31717E-09   108   0.221E-04
  19 F= -.98537869E+02 E0= -.98537869E+02  d E =-.408063E-10
       N       E                     dE             d eps       ncg     rms          rms(c)
DAV:   1    -0.985361040649E+02    0.17645E-02   -0.18230E-01    96   0.130E+00    0.156E-01
DAV:   2    -0.985371047080E+02   -0.10006E-02   -0.11086E-02   144   0.333E-01    0.778E-02
DAV:   3    -0.985370769091E+02    0.27799E-04   -0.24387E-04   144   0.557E-02    0.434E-02
DAV:   4    -0.985370623849E+02    0.14524E-04   -0.61710E-05   132   0.283E-02    0.998E-03
DAV:   5    -0.985370569878E+02    0.53971E-05   -0.95989E-06   132   0.118E-02    0.521E-03
DAV:   6    -0.985370596937E+02   -0.27059E-05   -0.28220E-06   132   0.623E-03    0.263E-03
DAV:   7    -0.985370691144E+02   -0.94207E-05   -0.12614E-06   120   0.409E-03    0.107E-03
DAV:   8    -0.985370795629E+02   -0.10448E-04   -0.57829E-07    84   0.271E-03    0.787E-04
DAV:   9    -0.985370906677E+02   -0.11105E-04   -0.86910E-07    96   0.218E-03    0.486E-04
DAV:  10    -0.985370987489E+02   -0.80812E-05   -0.52619E-07   108   0.161E-03    0.252E-04
DAV:  11    -0.985371012997E+02   -0.25507E-05   -0.12648E-07   108   0.791E-04    0.166E-04
DAV:  12    -0.985371042927E+02   -0.29930E-05   -0.13437E-07    84   0.755E-04    0.892E-05
DAV:  13    -0.985371050787E+02   -0.78601E-06   -0.26967E-08   108   0.371E-04
  20 F= -.98537105E+02 E0= -.98537105E+02  d E =-.239900E-10
       N       E                     dE             d eps       ncg     rms          rms(c)
DAV:   1    -0.985358365130E+02    0.12678E-02   -0.40271E-01   108   0.178E+00    0.213E-01
DAV:   2    -0.985372443743E+02   -0.14079E-02   -0.17161E-02   108   0.418E-01    0.113E-01
DAV:   3    -0.985371488924E+02    0.95482E-04   -0.27505E-04   132   0.586E-02    0.579E-02
DAV:   4    -0.985370953100E+02    0.53582E-04   -0.90029E-05   132   0.359E-02    0.115E-02
DAV:   5    -0.985370830315E+02    0.12278E-04   -0.16828E-05   132   0.167E-02    0.638E-03
DAV:   6    -0.985370870955E+02   -0.40640E-05   -0.63166E-06   132   0.873E-03    0.357E-03
DAV:   7    -0.985371028906E+02   -0.15795E-04   -0.24297E-06   108   0.599E-03    0.171E-03
DAV:   8    -0.985371229656E+02   -0.20075E-04   -0.13232E-06   120   0.391E-03    0.123E-03
DAV:   9    -0.985371463335E+02   -0.23368E-04   -0.14848E-06   108   0.299E-03    0.666E-04
DAV:  10    -0.985371594035E+02   -0.13070E-04   -0.45230E-07    96   0.152E-03    0.428E-04
DAV:  11    -0.985371668961E+02   -0.74927E-05   -0.20069E-07    96   0.950E-04    0.260E-04
DAV:  12    -0.985371755510E+02   -0.86549E-05   -0.27447E-07    84   0.103E-03    0.141E-04
DAV:  13    -0.985371774702E+02   -0.19191E-05   -0.34433E-08   108   0.454E-04    0.102E-04
DAV:  14    -0.985371796801E+02   -0.22099E-05   -0.27696E-08    84   0.384E-04    0.504E-05
DAV:  15    -0.985371801839E+02   -0.50381E-06   -0.96929E-10   108   0.198E-04
  21 F= -.98537180E+02 E0= -.98537180E+02  d E =-.303633E-10
       N       E                     dE             d eps       ncg     rms          rms(c)
DAV:   1    -0.985356228837E+02    0.15568E-02   -0.20455E-01    96   0.126E+00    0.154E-01
DAV:   2    -0.985363376813E+02   -0.71480E-03   -0.87832E-03   120   0.291E-01    0.832E-02
DAV:   3    -0.985362847737E+02    0.52908E-04   -0.14739E-04   132   0.439E-02    0.424E-02
DAV:   4    -0.985362520508E+02    0.32723E-04   -0.49308E-05   120   0.274E-02    0.801E-03
DAV:   5    -0.985362482531E+02    0.37977E-05   -0.10728E-05   132   0.126E-02    0.489E-03
DAV:   6    -0.985362547426E+02   -0.64895E-05   -0.40287E-06   120   0.607E-03    0.272E-03
DAV:   7    -0.985362674615E+02   -0.12719E-04   -0.11722E-06   120   0.345E-03    0.142E-03
DAV:   8    -0.985362853663E+02   -0.17905E-04   -0.16006E-06   132   0.307E-03    0.820E-04
DAV:   9    -0.985362980128E+02   -0.12646E-04   -0.95940E-07   120   0.222E-03    0.572E-04
DAV:  10    -0.985363094845E+02   -0.11472E-04   -0.95887E-07    96   0.189E-03    0.267E-04
DAV:  11    -0.985363134269E+02   -0.39424E-05   -0.13303E-07   108   0.825E-04    0.220E-04
DAV:  12    -0.985363174836E+02   -0.40567E-05   -0.21577E-07    96   0.881E-04    0.955E-05
DAV:  13    -0.985363182530E+02   -0.76943E-06   -0.18632E-08   108   0.335E-04
  22 F= -.98536318E+02 E0= -.98536318E+02  d E =-.315259E-10
       N       E                     dE             d eps       ncg     rms          rms(c)
DAV:   1    -0.985347340188E+02    0.15835E-02   -0.40235E-01    96   0.171E+00    0.213E-01
DAV:   2    -0.985365089805E+02   -0.17750E-02   -0.21297E-02   132   0.438E-01    0.137E-01
DAV:   3    -0.985363769026E+02    0.13208E-03   -0.27610E-04   132   0.602E-02    0.777E-02
DAV:   4    -0.985363134253E+02    0.63477E-04   -0.18532E-04   132   0.503E-02    0.114E-02
DAV:   5    -0.985363029765E+02    0.10449E-04   -0.48327E-05   132   0.242E-02    0.778E-03
DAV:   6    -0.985363107654E+02   -0.77888E-05   -0.12650E-05   132   0.878E-03    0.463E-03
DAV:   7    -0.985363328063E+02   -0.22041E-04   -0.14848E-06   132   0.349E-03    0.232E-03
DAV:   8    -0.985363692496E+02   -0.36443E-04   -0.46041E-06   108   0.470E-03    0.137E-03
DAV:   9    -0.985363913772E+02   -0.22128E-04   -0.13871E-06   132   0.260E-03    0.980E-04
DAV:  10    -0.985364141000E+02   -0.22723E-04   -0.18797E-06   108   0.261E-03    0.379E-04
DAV:  11    -0.985364223221E+02   -0.82221E-05   -0.22814E-07   108   0.112E-03    0.312E-04
DAV:  12    -0.985364295512E+02   -0.72291E-05   -0.29532E-07    84   0.105E-03    0.157E-04
DAV:  13    -0.985364318152E+02   -0.22641E-05   -0.44741E-08   108   0.455E-04    0.901E-05
DAV:  14    -0.985364338010E+02   -0.19858E-05   -0.28198E-08   108   0.376E-04    0.694E-05
DAV:  15    -0.985364343478E+02   -0.54674E-06   -0.83116E-10   108   0.179E-04
  23 F= -.98536434E+02 E0= -.98536434E+02  d E =-.238783E-10
       N       E                     dE             d eps       ncg     rms          rms(c)
DAV:   1    -0.985367907148E+02   -0.35691E-03   -0.19866E-01   108   0.123E+00    0.152E-01
DAV:   2    -0.985376382436E+02   -0.84753E-03   -0.10245E-02   108   0.310E-01    0.911E-02
DAV:   3    -0.985375783431E+02    0.59900E-04   -0.14298E-04   132   0.436E-02    0.507E-02
DAV:   4    -0.985375469754E+02    0.31368E-04   -0.76766E-05   132   0.332E-02    0.822E-03
DAV:   5    -0.985375419869E+02    0.49885E-05   -0.18473E-05   132   0.155E-02    0.550E-03
DAV:   6    -0.985375458981E+02   -0.39112E-05   -0.53435E-06   132   0.647E-03    0.310E-03
DAV:   7    -0.985375569985E+02   -0.11100E-04   -0.98878E-07   120   0.310E-03    0.156E-03
DAV:   8    -0.985375755289E+02   -0.18530E-04   -0.18787E-06    96   0.315E-03    0.905E-04
DAV:   9    -0.985375868076E+02   -0.11279E-04   -0.64567E-07   108   0.194E-03    0.652E-04
DAV:  10    -0.985375998928E+02   -0.13085E-04   -0.12423E-06   108   0.203E-03    0.249E-04
DAV:  11    -0.985376048974E+02   -0.50047E-05   -0.19089E-07   108   0.993E-04    0.239E-04
DAV:  12    -0.985376082155E+02   -0.33181E-05   -0.12753E-07    84   0.715E-04    0.114E-04
DAV:  13    -0.985376095763E+02   -0.13608E-05   -0.29008E-08   108   0.372E-04    0.613E-05
DAV:  14    -0.985376105334E+02   -0.95707E-06   -0.81317E-09    96   0.255E-04
  24 F= -.98537611E+02 E0= -.98537611E+02  d E =-.363319E-10
       N       E                     dE             d eps       ncg     rms          rms(c)
DAV:   1    -0.985365000025E+02    0.11096E-02   -0.40349E-01    96   0.178E+00    0.218E-01
DAV:   2    -0.985377742289E+02   -0.12742E-02   -0.15447E-02   108   0.389E-01    0.988E-02
DAV:   3    -0.985377101474E+02    0.64081E-04   -0.30357E-04   132   0.628E-02    0.508E-02
DAV:   4    -0.985376855710E+02    0.24576E-04   -0.85036E-05   132   0.404E-02    0.115E-02
DAV:   5    -0.985376800907E+02    0.54803E-05   -0.28622E-05   132   0.202E-02    0.756E-03
DAV:   6    -0.985376811298E+02   -0.10391E-05   -0.40126E-06   132   0.680E-03    0.473E-03
DAV:   7    -0.985376873802E+02   -0.62504E-05   -0.71270E-07    84   0.381E-03    0.166E-03
DAV:   8    -0.985376963034E+02   -0.89232E-05   -0.10595E-06   108   0.380E-03    0.123E-03
DAV:   9    -0.985377123125E+02   -0.16009E-04   -0.12079E-06    96   0.369E-03    0.608E-04
DAV:  10    -0.985377186420E+02   -0.63295E-05   -0.40737E-07   108   0.202E-03    0.695E-04
DAV:  11    -0.985377216301E+02   -0.29881E-05   -0.66757E-08   108   0.883E-04    0.439E-04
DAV:  12    -0.985377279570E+02   -0.63269E-05   -0.23059E-07    84   0.114E-03    0.296E-04
DAV:  13    -0.985377292454E+02   -0.12884E-05   -0.34803E-08   108   0.499E-04    0.282E-04
DAV:  14    -0.985377311429E+02   -0.18975E-05   -0.33061E-08   108   0.453E-04    0.522E-05
DAV:  15    -0.985377319600E+02   -0.81716E-06   -0.11305E-08   108   0.281E-04
  25 F= -.98537732E+02 E0= -.98537732E+02  d E =-.209099E-10
       N       E                     dE             d eps       ncg     rms          rms(c)
DAV:   1    -0.985356136876E+02    0.21175E-02   -0.20032E-01   108   0.134E+00    0.166E-01
DAV:   2    -0.985366120094E+02   -0.99832E-03   -0.12020E-02   108   0.337E-01    0.843E-02
DAV:   3    -0.985365573110E+02    0.54698E-04   -0.22284E-04   144   0.538E-02    0.476E-02
DAV:   4    -0.985365263855E+02    0.30926E-04   -0.75713E-05   132   0.361E-02    0.973E-03
DAV:   5    -0.985365187449E+02    0.76406E-05   -0.25156E-05   132   0.182E-02    0.683E-03
DAV:   6    -0.985365190745E+02   -0.32963E-06   -0.37905E-06   132   0.659E-03
  26 F= -.98536519E+02 E0= -.98536519E+02  d E =-.261493E-10
       N       E                     dE             d eps       ncg     rms          rms(c)
DAV:   1    -0.985350930143E+02    0.14257E-02   -0.40336E-01   108   0.173E+00    0.215E-01
DAV:   2    -0.985368169625E+02   -0.17239E-02   -0.20164E-02   132   0.438E-01    0.129E-01
DAV:   3    -0.985367287754E+02    0.88187E-04   -0.29306E-04   108   0.621E-02    0.716E-02
DAV:   4    -0.985366839841E+02    0.44791E-04   -0.15736E-04   120   0.467E-02    0.114E-02
DAV:   5    -0.985366741972E+02    0.97869E-05   -0.36109E-05   132   0.218E-02    0.757E-03
DAV:   6    -0.985366787262E+02   -0.45290E-05   -0.98528E-06   132   0.857E-03    0.440E-03
DAV:   7    -0.985366943708E+02   -0.15645E-04   -0.17492E-06   132   0.407E-03    0.211E-03
DAV:   8    -0.985367180852E+02   -0.23714E-04   -0.28315E-06    96   0.395E-03    0.116E-03
DAV:   9    -0.985367326776E+02   -0.14592E-04   -0.10223E-06   120   0.233E-03    0.905E-04
DAV:  10    -0.985367495992E+02   -0.16922E-04   -0.15804E-06   108   0.246E-03    0.342E-04
DAV:  11    -0.985367545584E+02   -0.49593E-05   -0.18598E-07   108   0.103E-03    0.303E-04
DAV:  12    -0.985367598626E+02   -0.53041E-05   -0.29443E-07    84   0.107E-03    0.121E-04
DAV:  13    -0.985367611563E+02   -0.12938E-05   -0.44046E-08   108   0.459E-04    0.955E-05
DAV:  14    -0.985367624986E+02   -0.13423E-05   -0.22691E-08   108   0.361E-04    0.415E-05
DAV:  15    -0.985367628995E+02   -0.40092E-06   -0.30734E-09   108   0.196E-04
  27 F= -.98536763E+02 E0= -.98536763E+02  d E =-.282919E-10
       N       E                     dE             d eps       ncg     rms          rms(c)
DAV:   1    -0.985363865708E+02    0.37593E-03   -0.19938E-01   120   0.122E+00    0.150E-01
DAV:   2    -0.985371637649E+02   -0.77719E-03   -0.94099E-03   108   0.293E-01    0.935E-02
DAV:   3    -0.985370958136E+02    0.67951E-04   -0.13042E-04   132   0.416E-02    0.501E-02
DAV:   4    -0.985370608065E+02    0.35007E-04   -0.75858E-05   132   0.320E-02    0.769E-03
DAV:   5    -0.985370556019E+02    0.52046E-05   -0.19111E-05   132   0.156E-02    0.511E-03
DAV:   6    -0.985370611174E+02   -0.55154E-05   -0.53077E-06   132   0.580E-03    0.288E-03
DAV:   7    -0.985370744269E+02   -0.13310E-04   -0.61230E-07   108   0.218E-03    0.146E-03
DAV:   8    -0.985370957054E+02   -0.21278E-04   -0.24004E-06   132   0.315E-03    0.939E-04
DAV:   9    -0.985371108585E+02   -0.15153E-04   -0.92313E-07   120   0.203E-03    0.533E-04
DAV:  10    -0.985371215389E+02   -0.10680E-04   -0.67383E-07   108   0.160E-03    0.284E-04
DAV:  11    -0.985371262718E+02   -0.47329E-05   -0.18372E-07   108   0.845E-04    0.191E-04
DAV:  12    -0.985371302015E+02   -0.39296E-05   -0.15484E-07   108   0.742E-04    0.951E-05
DAV:  13    -0.985371311173E+02   -0.91582E-06   -0.13968E-08   108   0.308E-04
  28 F= -.98537131E+02 E0= -.98537131E+02  d E =-.330885E-10
       N       E                     dE             d eps       ncg     rms          rms(c)
DAV:   1    -0.985358545049E+02    0.12757E-02   -0.40259E-01    96   0.178E+00    0.215E-01
DAV:   2    -0.985372379659E+02   -0.13835E-02   -0.16741E-02   108   0.411E-01    0.114E-01
DAV:   3    -0.985371447931E+02    0.93173E-04   -0.29252E-04   132   0.615E-02    0.588E-02
DAV:   4    -0.985371041602E+02    0.40633E-04   -0.10766E-04   132   0.413E-02    0.113E-02
DAV:   5    -0.985370942365E+02    0.99237E-05   -0.26443E-05   132   0.195E-02    0.706E-03
DAV:   6    -0.985370964753E+02   -0.22388E-05   -0.71617E-06   132   0.804E-03    0.417E-03
DAV:   7    -0.985371075889E+02   -0.11114E-04   -0.10899E-06   108   0.401E-03    0.190E-03
DAV:   8    -0.985371251851E+02   -0.17596E-04   -0.16979E-06   132   0.383E-03    0.126E-03
DAV:   9    -0.985371425603E+02   -0.17375E-04   -0.99251E-07   120   0.269E-03    0.749E-04
DAV:  10    -0.985371568576E+02   -0.14297E-04   -0.70021E-07   108   0.194E-03    0.400E-04
DAV:  11    -0.985371625560E+02   -0.56984E-05   -0.16891E-07   108   0.101E-03    0.308E-04
DAV:  12    -0.985371701855E+02   -0.76295E-05   -0.25329E-07   108   0.105E-03    0.203E-04
DAV:  13    -0.985371718880E+02   -0.17025E-05   -0.39077E-08   108   0.464E-04    0.144E-04
DAV:  14    -0.985371737497E+02   -0.18617E-05   -0.22275E-08   108   0.359E-04    0.551E-05
DAV:  15    -0.985371745610E+02   -0.81126E-06   -0.44382E-09   108   0.225E-04
  29 F= -.98537175E+02 E0= -.98537175E+02  d E =-.245377E-10
       N       E                     dE             d eps       ncg     rms          rms(c)
DAV:   1    -0.985366452526E+02    0.52850E-03   -0.20155E-01    96   0.128E+00    0.156E-01
DAV:   2    -0.985373239696E+02   -0.67872E-03   -0.85459E-03    96   0.286E-01    0.836E-02
DAV:   3    -0.985372661054E+02    0.57864E-04   -0.14271E-04   132   0.421E-02    0.419E-02
DAV:   4    -0.985372259285E+02    0.40177E-04   -0.40416E-05   120   0.229E-02    0.792E-03
DAV:   5    -0.985372219481E+02    0.39804E-05   -0.58092E-06   132   0.996E-03    0.425E-03
DAV:   6    -0.985372341617E+02   -0.12214E-04   -0.44532E-06   120   0.739E-03    0.209E-03
DAV:   7    -0.985372519783E+02   -0.17817E-04   -0.23960E-06   132   0.476E-03    0.148E-03
DAV:   8    -0.985372711207E+02   -0.19142E-04   -0.12243E-06   120   0.262E-03    0.748E-04
DAV:   9    -0.985372871428E+02   -0.16022E-04   -0.13766E-06   120   0.244E-03    0.525E-04
DAV:  10    -0.985372991503E+02   -0.12008E-04   -0.10908E-06    96   0.199E-03    0.231E-04
DAV:  11    -0.985373034142E+02   -0.42638E-05   -0.18786E-07   108   0.951E-04    0.176E-04
DAV:  12    -0.985373057431E+02   -0.23290E-05   -0.88869E-08   108   0.586E-04    0.997E-05
DAV:  13    -0.985373066163E+02   -0.87316E-06   -0.21127E-08   108   0.332E-04
  30 F= -.98537307E+02 E0= -.98537307E+02  d E =-.338265E-10
       N       E                     dE             d eps       ncg     rms          rms(c)
DAV:   1    -0.985360845733E+02    0.12212E-02   -0.40265E-01    96   0.180E+00    0.214E-01
DAV:   2    -0.985374863046E+02   -0.14017E-02   -0.16971E-02   108   0.414E-01    0.108E-01
DAV:   3    -0.985374012042E+02    0.85100E-04   -0.28380E-04   132   0.602E-02    0.558E-02
DAV:   4    -0.985373593546E+02    0.41850E-04   -0.90216E-05   132   0.382E-02    0.117E-02
DAV:   5    -0.985373494196E+02    0.99350E-05   -0.22426E-05   132   0.186E-02    0.695E-03
DAV:   6    -0.985373520796E+02   -0.26600E-05   -0.52042E-06   132   0.794E-03    0.415E-03
DAV:   7    -0.985373641956E+02   -0.12116E-04   -0.14827E-06   132   0.523E-03    0.153E-03
DAV:   8    -0.985373791859E+02   -0.14990E-04   -0.12455E-06   108   0.415E-03    0.131E-03
DAV:   9    -0.985374013389E+02   -0.22153E-04   -0.16248E-06   132   0.350E-03    0.651E-04
DAV:  10    -0.985374109163E+02   -0.95774E-05   -0.36807E-07   108   0.164E-03    0.473E-04
DAV:  11    -0.985374174132E+02   -0.64969E-05   -0.16159E-07   108   0.927E-04    0.256E-04
DAV:  12    -0.985374247366E+02   -0.73234E-05   -0.23245E-07   108   0.968E-04    0.178E-04
DAV:  13    -0.985374266603E+02   -0.19237E-05   -0.29895E-08   108   0.430E-04    0.999E-05
DAV:  14    -0.985374289567E+02   -0.22964E-05   -0.38790E-08   108   0.396E-04    0.646E-05
DAV:  15    -0.985374295183E+02   -0.56164E-06   -0.20741E-09   108   0.205E-04
  31 F= -.98537430E+02 E0= -.98537430E+02  d E =-.233854E-10
       N       E                     dE             d eps       ncg     rms          rms(c)
DAV:   1    -0.985355640601E+02    0.18649E-02   -0.20159E-01   120   0.136E+00    0.158E-01
DAV:   2    -0.985365393846E+02   -0.97532E-03   -0.11745E-02   108   0.351E-01    0.849E-02
DAV:   3    -0.985364959719E+02    0.43413E-04   -0.19158E-04   132   0.473E-02    0.483E-02
DAV:   4    -0.985364606367E+02    0.35335E-04   -0.63266E-05   132   0.308E-02    0.847E-03
DAV:   5    -0.985364547741E+02    0.58626E-05   -0.14416E-05   132   0.142E-02    0.561E-03
DAV:   6    -0.985364585249E+02   -0.37508E-05   -0.43762E-06   132   0.738E-03    0.290E-03
DAV:   7    -0.985364701533E+02   -0.11628E-04   -0.10543E-06    84   0.413E-03    0.141E-03
DAV:   8    -0.985364896648E+02   -0.19512E-04   -0.18163E-06    96   0.391E-03    0.987E-04
DAV:   9    -0.985365045634E+02   -0.14899E-04   -0.10291E-06   108   0.271E-03    0.594E-04
DAV:  10    -0.985365146906E+02   -0.10127E-04   -0.46281E-07    84   0.160E-03    0.323E-04
DAV:  11    -0.985365199574E+02   -0.52668E-05   -0.21666E-07    96   0.943E-04    0.232E-04
DAV:  12    -0.985365250445E+02   -0.50871E-05   -0.21973E-07    84   0.932E-04    0.107E-04
DAV:  13    -0.985365262311E+02   -0.11866E-05   -0.28930E-08   108   0.393E-04    0.812E-05
DAV:  14    -0.985365274718E+02   -0.12407E-05   -0.18604E-08    84   0.322E-04    0.390E-05
DAV:  15    -0.985365278619E+02   -0.39005E-06   -0.19772E-09   108   0.195E-04
  32 F= -.98536528E+02 E0= -.98536528E+02  d E =-.232064E-10
       N       E                     dE             d eps       ncg     rms          rms(c)
DAV:   1    -0.985351220677E+02    0.14054E-02   -0.40718E-01   120   0.185E+00    0.217E-01
DAV:   2    -0.985365920977E+02   -0.14700E-02   -0.18121E-02   108   0.436E-01    0.126E-01
DAV:   3    -0.985364752622E+02    0.11684E-03   -0.26630E-04   132   0.591E-02    0.662E-02
DAV:   4    -0.985364134901E+02    0.61772E-04   -0.12787E-04   120   0.436E-02    0.108E-02
DAV:   5    -0.985364092296E+02    0.42604E-05   -0.31492E-05   132   0.207E-02    0.688E-03
DAV:   6    -0.985364219900E+02   -0.12760E-04   -0.10137E-05   120   0.874E-03    0.423E-03
DAV:   7    -0.985364462171E+02   -0.24227E-04   -0.15199E-06    96   0.375E-03    0.217E-03
DAV:   8    -0.985364836737E+02   -0.37457E-04   -0.41650E-06    96   0.451E-03    0.123E-03
DAV:   9    -0.985365061324E+02   -0.22459E-04   -0.16143E-06   120   0.286E-03    0.869E-04
DAV:  10    -0.985365269213E+02   -0.20789E-04   -0.17709E-06    96   0.263E-03    0.360E-04
DAV:  11    -0.985365337820E+02   -0.68607E-05   -0.21529E-07    96   0.112E-03    0.304E-04
DAV:  12    -0.985365408030E+02   -0.70210E-05   -0.35581E-07    84   0.118E-03    0.177E-04
DAV:  13    -0.985365422500E+02   -0.14470E-05   -0.41757E-08   108   0.474E-04    0.121E-04
DAV:  14    -0.985365437718E+02   -0.15219E-05   -0.19394E-08    84   0.365E-04    0.540E-05
DAV:  15    -0.985365443596E+02   -0.58774E-06   -0.39025E-09    96   0.221E-04
  33 F= -.98536544E+02 E0= -.98536544E+02  d E =-.426106E-10
       N       E                     dE             d eps       ncg     rms          rms(c)
DAV:   1    -0.985362316267E+02    0.31215E-03   -0.20288E-01    96   0.134E+00    0.152E-01
DAV:   2    -0.985369475612E+02   -0.71593E-03   -0.87682E-03   144   0.291E-01    0.791E-02
DAV:   3    -0.985369013565E+02    0.46205E-04   -0.13126E-04   132   0.393E-02    0.421E-02
DAV:   4    -0.985368731555E+02    0.28201E-04   -0.46902E-05   132   0.266E-02    0.788E-03
DAV:   5    -0.985368663978E+02    0.67577E-05   -0.11387E-05   144   0.129E-02    0.470E-03
DAV:   6    -0.985368674870E+02   -0.10892E-05   -0.32337E-06   132   0.592E-03    0.258E-03
DAV:   7    -0.985368744687E+02   -0.69816E-05   -0.88699E-07   108   0.370E-03    0.131E-03
DAV:   8    -0.985368869927E+02   -0.12524E-04   -0.11993E-06   120   0.338E-03    0.918E-04
DAV:   9    -0.985368990194E+02   -0.12027E-04   -0.69499E-07   108   0.228E-03    0.541E-04
DAV:  10    -0.985369074442E+02   -0.84248E-05   -0.36954E-07   108   0.135E-03    0.298E-04
DAV:  11    -0.985369135767E+02   -0.61325E-05   -0.15384E-07   108   0.821E-04    0.181E-04
DAV:  12    -0.985369172676E+02   -0.36908E-05   -0.74508E-08   108   0.576E-04    0.965E-05
DAV:  13    -0.985369192920E+02   -0.20244E-05   -0.31703E-08   108   0.373E-04    0.546E-05
DAV:  14    -0.985369204942E+02   -0.12021E-05   -0.94371E-09   108   0.258E-04    0.363E-05
DAV:  15    -0.985369208428E+02   -0.34867E-06    0.16932E-09   108   0.136E-04
  34 F= -.98536921E+02 E0= -.98536921E+02  d E =-.281223E-10
       N       E                     dE             d eps       ncg     rms          rms(c)
DAV:   1    -0.985355493842E+02    0.13711E-02   -0.40557E-01    96   0.179E+00    0.219E-01
DAV:   2    -0.985368946725E+02   -0.13453E-02   -0.16898E-02    96   0.399E-01    0.114E-01
DAV:   3    -0.985367951679E+02    0.99505E-04   -0.27780E-04   144   0.571E-02    0.580E-02
DAV:   4    -0.985367239495E+02    0.71218E-04   -0.81239E-05   132   0.340E-02    0.108E-02
DAV:   5    -0.985367221561E+02    0.17934E-05   -0.15804E-05   132   0.157E-02    0.625E-03
DAV:   6    -0.985367412546E+02   -0.19099E-04   -0.81401E-06   132   0.932E-03    0.329E-03
DAV:   7    -0.985367700016E+02   -0.28747E-04   -0.36575E-06   132   0.606E-03    0.213E-03
DAV:   8    -0.985368030291E+02   -0.33028E-04   -0.26335E-06   120   0.396E-03    0.107E-03
DAV:   9    -0.985368289930E+02   -0.25964E-04   -0.24411E-06   120   0.342E-03    0.850E-04
DAV:  10    -0.985368504459E+02   -0.21453E-04   -0.21448E-06   120   0.286E-03    0.319E-04
DAV:  11    -0.985368570934E+02   -0.66475E-05   -0.28279E-07   108   0.122E-03    0.263E-04
DAV:  12    -0.985368618653E+02   -0.47719E-05   -0.22465E-07   108   0.926E-04    0.124E-04
DAV:  13    -0.985368632033E+02   -0.13380E-05   -0.36944E-08   108   0.422E-04    0.653E-05
DAV:  14    -0.985368641631E+02   -0.95979E-06   -0.11410E-08   108   0.300E-04
  35 F= -.98536864E+02 E0= -.98536864E+02  d E =-.333865E-10
       N       E                     dE             d eps       ncg     rms          rms(c)
DAV:   1    -0.985372056176E+02   -0.34241E-03   -0.20465E-01   120   0.127E+00    0.150E-01
DAV:   2    -0.985378589901E+02   -0.65337E-03   -0.78608E-03   108   0.263E-01    0.689E-02
DAV:   3    -0.985378289420E+02    0.30048E-04   -0.13797E-04   132   0.409E-02    0.364E-02
DAV:   4    -0.985378147819E+02    0.14160E-04   -0.40958E-05   132   0.286E-02    0.715E-03
DAV:   5    -0.985378121864E+02    0.25955E-05   -0.15073E-05   132   0.144E-02    0.487E-03
DAV:   6    -0.985378128891E+02   -0.70268E-06   -0.22933E-06   132   0.483E-03
  36 F= -.98537813E+02 E0= -.98537813E+02  d E =-.220248E-10
       N       E                     dE             d eps       ncg     rms          rms(c)
DAV:   1    -0.985364644342E+02    0.13478E-02   -0.41601E-01   120   0.168E+00    0.188E-01
DAV:   2    -0.985377604359E+02   -0.12960E-02   -0.15413E-02    96   0.356E-01    0.921E-02
DAV:   3    -0.985377201770E+02    0.40259E-04   -0.28123E-04   144   0.577E-02    0.497E-02
DAV:   4    -0.985376998681E+02    0.20309E-04   -0.75654E-05   108   0.386E-02    0.923E-03
DAV:   5    -0.985376973188E+02    0.25493E-05   -0.27373E-05   132   0.194E-02    0.676E-03
DAV:   6    -0.985376996544E+02   -0.23356E-05   -0.41125E-06   132   0.668E-03    0.415E-03
DAV:   7    -0.985377071121E+02   -0.74576E-05   -0.78597E-07   108   0.396E-03    0.162E-03
DAV:   8    -0.985377174894E+02   -0.10377E-04   -0.12359E-06   120   0.389E-03    0.120E-03
DAV:   9    -0.985377329201E+02   -0.15431E-04   -0.10158E-06   108   0.322E-03    0.519E-04
DAV:  10    -0.985377396283E+02   -0.67081E-05   -0.46725E-07   108   0.185E-03    0.549E-04
DAV:  11    -0.985377446810E+02   -0.50527E-05   -0.10087E-07   108   0.943E-04    0.273E-04
DAV:  12    -0.985377495640E+02   -0.48830E-05   -0.16470E-07   108   0.859E-04    0.241E-04
DAV:  13    -0.985377514063E+02   -0.18423E-05   -0.30666E-08   108   0.416E-04    0.152E-04
DAV:  14    -0.985377529431E+02   -0.15368E-05   -0.21450E-08   108   0.339E-04    0.512E-05
DAV:  15    -0.985377537046E+02   -0.76145E-06   -0.44460E-09   108   0.213E-04
  37 F= -.98537754E+02 E0= -.98537754E+02  d E =-.625039E-10
       N       E                     dE             d eps       ncg     rms          rms(c)
DAV:   1    -0.985369932698E+02    0.75967E-03   -0.19674E-01    96   0.122E+00    0.130E-01
DAV:   2    -0.985377642244E+02   -0.77095E-03   -0.94856E-03   120   0.279E-01    0.637E-02
DAV:   3    -0.985377393978E+02    0.24827E-04   -0.15455E-04   144   0.413E-02    0.353E-02
DAV:   4    -0.985377163764E+02    0.23021E-04   -0.31415E-05   108   0.249E-02    0.739E-03
DAV:   5    -0.985377122660E+02    0.41104E-05   -0.11626E-05   132   0.131E-02    0.459E-03
DAV:   6    -0.985377148723E+02   -0.26063E-05   -0.25448E-06   132   0.548E-03    0.294E-03
DAV:   7    -0.985377217120E+02   -0.68397E-05   -0.47608E-07    84   0.268E-03    0.125E-03
DAV:   8    -0.985377313556E+02   -0.96436E-05   -0.83484E-07   108   0.286E-03    0.852E-04
DAV:   9    -0.985377435686E+02   -0.12213E-04   -0.10293E-06    96   0.262E-03    0.520E-04
DAV:  10    -0.985377498621E+02   -0.62936E-05   -0.34701E-07    96   0.159E-03    0.418E-04
DAV:  11    -0.985377521857E+02   -0.23236E-05   -0.62573E-08   108   0.727E-04    0.228E-04
DAV:  12    -0.985377562860E+02   -0.41003E-05   -0.19141E-07    84   0.936E-04    0.232E-04
DAV:  13    -0.985377568333E+02   -0.54731E-06   -0.16557E-08   108   0.374E-04
  38 F= -.98537757E+02 E0= -.98537757E+02  d E =-.781887E-10
       N       E                     dE             d eps       ncg     rms          rms(c)
DAV:   1    -0.985364630700E+02    0.12932E-02   -0.41224E-01    96   0.158E+00    0.176E-01
DAV:   2    -0.985378228294E+02   -0.13598E-02   -0.16374E-02   120   0.344E-01    0.894E-02
DAV:   3    -0.985377626943E+02    0.60135E-04   -0.25116E-04   132   0.561E-02    0.464E-02
DAV:   4    -0.985377320171E+02    0.30677E-04   -0.73258E-05   108   0.375E-02    0.988E-03
DAV:   5    -0.985377277853E+02    0.42318E-05   -0.22856E-05   132   0.184E-02    0.625E-03
DAV:   6    -0.985377318820E+02   -0.40968E-05   -0.45850E-06   132   0.707E-03    0.355E-03
DAV:   7    -0.985377408059E+02   -0.89238E-05   -0.74983E-07   120   0.306E-03    0.179E-03
DAV:   8    -0.985377543338E+02   -0.13528E-04   -0.94809E-07    96   0.283E-03    0.842E-04
DAV:   9    -0.985377686079E+02   -0.14274E-04   -0.10914E-06   120   0.262E-03    0.645E-04
DAV:  10    -0.985377794620E+02   -0.10854E-04   -0.83111E-07   108   0.206E-03    0.348E-04
DAV:  11    -0.985377838990E+02   -0.44370E-05   -0.12955E-07   108   0.102E-03    0.211E-04
DAV:  12    -0.985377869002E+02   -0.30013E-05   -0.10164E-07   108   0.673E-04    0.154E-04
DAV:  13    -0.985377885110E+02   -0.16108E-05   -0.39485E-08   108   0.413E-04    0.748E-05
DAV:  14    -0.985377892075E+02   -0.69646E-06   -0.36191E-09   108   0.217E-04
  39 F= -.98537789E+02 E0= -.98537789E+02  d E =-.325348E-10
       N       E                     dE             d eps       ncg     rms          rms(c)
DAV:   1    -0.985364266676E+02    0.13618E-02   -0.19799E-01    96   0.112E+00    0.135E-01
DAV:   2    -0.985371951356E+02   -0.76847E-03   -0.95408E-03   144   0.241E-01    0.818E-02
DAV:   3    -0.985371362547E+02    0.58881E-04   -0.13897E-04   132   0.414E-02    0.408E-02
DAV:   4    -0.985371090001E+02    0.27255E-04   -0.56515E-05   132   0.278E-02    0.785E-03
DAV:   5    -0.985371021525E+02    0.68476E-05   -0.11634E-05   132   0.125E-02    0.445E-03
DAV:   6    -0.985371038989E+02   -0.17464E-05   -0.35038E-06   132   0.497E-03    0.233E-03
DAV:   7    -0.985371117272E+02   -0.78284E-05   -0.62198E-07   108   0.240E-03    0.124E-03
DAV:   8    -0.985371250670E+02   -0.13340E-04   -0.86263E-07   120   0.212E-03    0.695E-04
DAV:   9    -0.985371357072E+02   -0.10640E-04   -0.50618E-07   120   0.151E-03    0.526E-04
DAV:  10    -0.985371464033E+02   -0.10696E-04   -0.52937E-07   120   0.136E-03    0.227E-04
DAV:  11    -0.985371496844E+02   -0.32812E-05   -0.50163E-08   108   0.573E-04    0.177E-04
DAV:  12    -0.985371539372E+02   -0.42528E-05   -0.10926E-07   108   0.671E-04    0.793E-05
DAV:  13    -0.985371549549E+02   -0.10178E-05   -0.12130E-08   108   0.298E-04    0.549E-05
DAV:  14    -0.985371559710E+02   -0.10160E-05   -0.41567E-09   108   0.234E-04    0.292E-05
DAV:  15    -0.985371563222E+02   -0.35124E-06    0.25530E-09   108   0.135E-04
  40 F= -.98537156E+02 E0= -.98537156E+02  d E =-.543596E-10
       N       E                     dE             d eps       ncg     rms          rms(c)
DAV:   1    -0.985359199536E+02    0.12360E-02   -0.40342E-01    96   0.156E+00    0.187E-01
DAV:   2    -0.985373694487E+02   -0.14495E-02   -0.17755E-02   120   0.338E-01    0.108E-01
DAV:   3    -0.985372705229E+02    0.98926E-04   -0.25302E-04   132   0.558E-02    0.562E-02
DAV:   4    -0.985372206072E+02    0.49916E-04   -0.10055E-04   132   0.388E-02    0.106E-02
DAV:   5    -0.985372140825E+02    0.65247E-05   -0.24465E-05   132   0.182E-02    0.622E-03
DAV:   6    -0.985372230367E+02   -0.89542E-05   -0.62747E-06   120   0.699E-03    0.351E-03
DAV:   7    -0.985372408341E+02   -0.17797E-04   -0.15157E-06   132   0.348E-03    0.177E-03
DAV:   8    -0.985372636533E+02   -0.22819E-04   -0.18579E-06   132   0.296E-03    0.963E-04
DAV:   9    -0.985372821271E+02   -0.18474E-04   -0.14101E-06   120   0.240E-03    0.693E-04
DAV:  10    -0.985372986358E+02   -0.16509E-04   -0.15482E-06   120   0.223E-03    0.308E-04
DAV:  11    -0.985373037998E+02   -0.51640E-05   -0.15846E-07   108   0.954E-04    0.217E-04
DAV:  12    -0.985373085412E+02   -0.47414E-05   -0.21419E-07   108   0.885E-04    0.130E-04
DAV:  13    -0.985373098052E+02   -0.12640E-05   -0.34248E-08   108   0.406E-04    0.698E-05
DAV:  14    -0.985373107727E+02   -0.96757E-06   -0.79225E-09   108   0.265E-04
  41 F= -.98537311E+02 E0= -.98537311E+02  d E =-.304481E-10
       N       E                     dE             d eps       ncg     rms          rms(c)
DAV:   1    -0.985370846297E+02    0.22518E-03   -0.19655E-01    96   0.111E+00    0.134E-01
DAV:   2    -0.985378433991E+02   -0.75877E-03   -0.93684E-03   132   0.244E-01    0.797E-02
DAV:   3    -0.985377877350E+02    0.55664E-04   -0.13482E-04   132   0.407E-02    0.404E-02
DAV:   4    -0.985377606494E+02    0.27086E-04   -0.52869E-05   132   0.273E-02    0.754E-03
DAV:   5    -0.985377541826E+02    0.64668E-05   -0.12404E-05   132   0.127E-02    0.442E-03
DAV:   6    -0.985377557431E+02   -0.15605E-05   -0.33566E-06   132   0.499E-03    0.249E-03
DAV:   7    -0.985377633393E+02   -0.75962E-05   -0.55872E-07    96   0.241E-03    0.125E-03
DAV:   8    -0.985377762281E+02   -0.12889E-04   -0.94797E-07   120   0.226E-03    0.733E-04
DAV:   9    -0.985377871778E+02   -0.10950E-04   -0.53891E-07   120   0.161E-03    0.545E-04
DAV:  10    -0.985377966595E+02   -0.94817E-05   -0.39114E-07   108   0.126E-03    0.223E-04
DAV:  11    -0.985378004927E+02   -0.38332E-05   -0.10277E-07   108   0.667E-04    0.167E-04
DAV:  12    -0.985378046264E+02   -0.41337E-05   -0.10747E-07   108   0.647E-04    0.905E-05
DAV:  13    -0.985378059293E+02   -0.13029E-05   -0.18625E-08   108   0.324E-04    0.565E-05
DAV:  14    -0.985378070902E+02   -0.11608E-05   -0.10584E-08   108   0.254E-04    0.286E-05
DAV:  15    -0.985378074334E+02   -0.34321E-06    0.30174E-09   108   0.129E-04
  42 F= -.98537807E+02 E0= -.98537807E+02  d E =-.558762E-10
       N       E                     dE             d eps       ncg     rms          rms(c)
DAV:   1    -0.985364960004E+02    0.13111E-02   -0.41051E-01    96   0.157E+00    0.174E-01
DAV:   2    -0.985378293228E+02   -0.13333E-02   -0.16115E-02   120   0.341E-01    0.885E-02
DAV:   3    -0.985377721001E+02    0.57223E-04   -0.25391E-04   132   0.568E-02    0.456E-02
DAV:   4    -0.985377435960E+02    0.28504E-04   -0.73954E-05   132   0.374E-02    0.985E-03
DAV:   5    -0.985377389507E+02    0.46453E-05   -0.21280E-05   132   0.178E-02    0.615E-03
DAV:   6    -0.985377428357E+02   -0.38851E-05   -0.46254E-06   132   0.707E-03    0.340E-03
DAV:   7    -0.985377510680E+02   -0.82323E-05   -0.66272E-07   108   0.300E-03    0.175E-03
DAV:   8    -0.985377640178E+02   -0.12950E-04   -0.95287E-07   120   0.280E-03    0.838E-04
DAV:   9    -0.985377780775E+02   -0.14060E-04   -0.10284E-06   120   0.261E-03    0.595E-04
DAV:  10    -0.985377886483E+02   -0.10571E-04   -0.77003E-07   120   0.200E-03    0.339E-04
DAV:  11    -0.985377934478E+02   -0.47995E-05   -0.14646E-07   108   0.105E-03    0.180E-04
DAV:  12    -0.985377961953E+02   -0.27475E-05   -0.88531E-08   108   0.618E-04    0.142E-04
DAV:  13    -0.985377977884E+02   -0.15931E-05   -0.37879E-08   108   0.403E-04    0.642E-05
DAV:  14    -0.985377984030E+02   -0.61452E-06   -0.24606E-09   108   0.203E-04
  43 F= -.98537798E+02 E0= -.98537798E+02  d E =-.531282E-10
       N       E                     dE             d eps       ncg     rms          rms(c)
DAV:   1    -0.985358175491E+02    0.19802E-02   -0.19649E-01    96   0.131E+00    0.141E-01
DAV:   2    -0.985367556562E+02   -0.93811E-03   -0.11524E-02   108   0.312E-01    0.770E-02
DAV:   3    -0.985367168312E+02    0.38825E-04   -0.19602E-04   144   0.466E-02    0.426E-02
DAV:   4    -0.985366904977E+02    0.26334E-04   -0.48451E-05   120   0.288E-02    0.856E-03
DAV:   5    -0.985366832220E+02    0.72757E-05   -0.13370E-05   132   0.140E-02    0.524E-03
DAV:   6    -0.985366838570E+02   -0.63503E-06   -0.29862E-06   132   0.629E-03
  44 F= -.98536684E+02 E0= -.98536684E+02  d E =-.385920E-10
       N       E                     dE             d eps       ncg     rms          rms(c)
DAV:   1    -0.985354815534E+02    0.12017E-02   -0.40727E-01    96   0.181E+00    0.208E-01
DAV:   2    -0.985368745995E+02   -0.13930E-02   -0.16982E-02   132   0.403E-01    0.116E-01
DAV:   3    -0.985367967885E+02    0.77811E-04   -0.24958E-04   120   0.537E-02    0.586E-02
DAV:   4    -0.985367231767E+02    0.73612E-04   -0.87930E-05   108   0.336E-02    0.104E-02
DAV:   5    -0.985367132888E+02    0.98879E-05   -0.14715E-05   132   0.155E-02    0.576E-03
DAV:   6    -0.985367271818E+02   -0.13893E-04   -0.87766E-06   120   0.952E-03    0.322E-03
DAV:   7    -0.985367515834E+02   -0.24402E-04   -0.31442E-06   132   0.575E-03    0.195E-03
DAV:   8    -0.985367780524E+02   -0.26469E-04   -0.20475E-06   120   0.350E-03    0.101E-03
DAV:   9    -0.985368017072E+02   -0.23655E-04   -0.21562E-06   120   0.311E-03    0.734E-04
DAV:  10    -0.985368202193E+02   -0.18512E-04   -0.17166E-06   120   0.253E-03    0.319E-04
DAV:  11    -0.985368264507E+02   -0.62314E-05   -0.26198E-07   108   0.113E-03    0.211E-04
DAV:  12    -0.985368307514E+02   -0.43007E-05   -0.21576E-07   108   0.903E-04    0.140E-04
DAV:  13    -0.985368320160E+02   -0.12646E-05   -0.27306E-08   108   0.412E-04    0.550E-05
DAV:  14    -0.985368328986E+02   -0.88268E-06   -0.10176E-08   108   0.299E-04
  45 F= -.98536833E+02 E0= -.98536833E+02  d E =-.304862E-10
       N       E                     dE             d eps       ncg     rms          rms(c)
DAV:   1    -0.985373975367E+02   -0.56552E-03   -0.20361E-01    96   0.130E+00    0.153E-01
DAV:   2    -0.985381045205E+02   -0.70698E-03   -0.85725E-03   108   0.289E-01    0.770E-02
DAV:   3    -0.985380625838E+02    0.41937E-04   -0.13167E-04   144   0.404E-02    0.411E-02
DAV:   4    -0.985380391671E+02    0.23417E-04   -0.48425E-05   132   0.283E-02    0.756E-03
DAV:   5    -0.985380341613E+02    0.50058E-05   -0.13533E-05   132   0.138E-02    0.489E-03
DAV:   6    -0.985380351361E+02   -0.97483E-06   -0.31363E-06   132   0.568E-03
  46 F= -.98538035E+02 E0= -.98538035E+02  d E =-.194211E-10
       N       E                     dE             d eps       ncg     rms          rms(c)
DAV:   1    -0.985366390415E+02    0.13951E-02   -0.41771E-01   120   0.168E+00    0.204E-01
DAV:   2    -0.985378641887E+02   -0.12251E-02   -0.14428E-02    96   0.333E-01    0.851E-02
DAV:   3    -0.985378417399E+02    0.22449E-04   -0.29893E-04   144   0.599E-02    0.458E-02
DAV:   4    -0.985378370336E+02    0.47063E-05   -0.68351E-05   132   0.399E-02    0.924E-03
DAV:   5    -0.985378388665E+02   -0.18329E-05   -0.32344E-05   144   0.207E-02    0.706E-03
DAV:   6    -0.985378403712E+02   -0.15047E-05   -0.27184E-06   132   0.542E-03    0.473E-03
DAV:   7    -0.985378442410E+02   -0.38698E-05   -0.56971E-07   108   0.324E-03    0.177E-03
DAV:   8    -0.985378490223E+02   -0.47813E-05   -0.74136E-07   108   0.320E-03    0.101E-03
DAV:   9    -0.985378582032E+02   -0.91809E-05   -0.69023E-07    84   0.326E-03    0.567E-04
DAV:  10    -0.985378614028E+02   -0.31996E-05   -0.31995E-07   108   0.179E-03    0.678E-04
DAV:  11    -0.985378626067E+02   -0.12039E-05   -0.24669E-08   108   0.642E-04    0.534E-04
DAV:  12    -0.985378665168E+02   -0.39101E-05   -0.11608E-07   108   0.857E-04    0.148E-04
DAV:  13    -0.985378680692E+02   -0.15523E-05   -0.44785E-08   108   0.502E-04    0.279E-04
DAV:  14    -0.985378691808E+02   -0.11117E-05   -0.13529E-08   108   0.346E-04    0.850E-05
DAV:  15    -0.985378697669E+02   -0.58605E-06   -0.58968E-09   108   0.234E-04
  47 F= -.98537870E+02 E0= -.98537870E+02  d E =-.654215E-10
       N       E                     dE             d eps       ncg     rms          rms(c)
DAV:   1    -0.985357735455E+02    0.20956E-02   -0.20444E-01   108   0.123E+00    0.150E-01
DAV:   2    -0.985364325002E+02   -0.65895E-03   -0.79685E-03   108   0.279E-01    0.715E-02
DAV:   3    -0.985363989679E+02    0.33532E-04   -0.13855E-04   144   0.419E-02    0.374E-02
DAV:   4    -0.985363856443E+02    0.13324E-04   -0.45924E-05   120   0.300E-02    0.741E-03
DAV:   5    -0.985363825868E+02    0.30575E-05   -0.15888E-05   132   0.148E-02    0.499E-03
DAV:   6    -0.985363831478E+02   -0.56102E-06   -0.25809E-06   132   0.510E-03
  48 F= -.98536383E+02 E0= -.98536383E+02  d E =-.316830E-10
       N       E                     dE             d eps       ncg     rms          rms(c)
DAV:   1    -0.985351123100E+02    0.12703E-02   -0.40554E-01   108   0.184E+00    0.213E-01
DAV:   2    -0.985365707077E+02   -0.14584E-02   -0.17748E-02   108   0.429E-01    0.128E-01
DAV:   3    -0.985364663584E+02    0.10435E-03   -0.26546E-04   120   0.594E-02    0.657E-02
DAV:   4    -0.985364108309E+02    0.55527E-04   -0.13403E-04   108   0.432E-02    0.109E-02
DAV:   5    -0.985364017347E+02    0.90963E-05   -0.28129E-05   132   0.199E-02    0.670E-03
DAV:   6    -0.985364116032E+02   -0.98685E-05   -0.10325E-05   132   0.866E-03    0.399E-03
DAV:   7    -0.985364323382E+02   -0.20735E-04   -0.14215E-06   120   0.374E-03    0.203E-03
DAV:   8    -0.985364636231E+02   -0.31285E-04   -0.35687E-06    96   0.426E-03    0.113E-03
DAV:   9    -0.985364832121E+02   -0.19589E-04   -0.15232E-06   120   0.275E-03    0.791E-04
DAV:  10    -0.985365006841E+02   -0.17472E-04   -0.15470E-06   120   0.243E-03    0.329E-04
DAV:  11    -0.985365069839E+02   -0.62999E-05   -0.23513E-07   108   0.111E-03    0.271E-04
DAV:  12    -0.985365126672E+02   -0.56832E-05   -0.32790E-07    96   0.110E-03    0.147E-04
DAV:  13    -0.985365138786E+02   -0.12114E-05   -0.38444E-08   108   0.444E-04    0.939E-05
DAV:  14    -0.985365151009E+02   -0.12223E-05   -0.17582E-08    96   0.346E-04    0.507E-05
DAV:  15    -0.985365155120E+02   -0.41110E-06   -0.14517E-09   108   0.193E-04
  49 F= -.98536516E+02 E0= -.98536516E+02  d E =-.318200E-10
       N       E                     dE             d eps       ncg     rms          rms(c)
DAV:   1    -0.985367154908E+02   -0.20039E-03   -0.19954E-01   120   0.137E+00    0.156E-01
DAV:   2    -0.985376465236E+02   -0.93103E-03   -0.11257E-02   108   0.342E-01    0.829E-02
DAV:   3    -0.985375943586E+02    0.52165E-04   -0.19664E-04   132   0.500E-02    0.474E-02
DAV:   4    -0.985375605122E+02    0.33846E-04   -0.73904E-05   132   0.353E-02    0.853E-03
DAV:   5    -0.985375529383E+02    0.75739E-05   -0.22379E-05   132   0.176E-02    0.654E-03
DAV:   6    -0.985375533607E+02   -0.42243E-06   -0.42629E-06   132   0.689E-03
  50 F= -.98537553E+02 E0= -.98537553E+02  d E =-.228985E-10
       N       E                     dE             d eps       ncg     rms          rms(c)
DAV:   1    -0.985364800095E+02    0.10729E-02   -0.40675E-01    96   0.177E+00    0.222E-01
DAV:   2    -0.985377315349E+02   -0.12515E-02   -0.14835E-02   132   0.383E-01    0.989E-02
DAV:   3    -0.985376866326E+02    0.44902E-04   -0.31016E-04   108   0.631E-02    0.509E-02
DAV:   4    -0.985376805207E+02    0.61119E-05   -0.87820E-05   132   0.408E-02    0.113E-02
DAV:   5    -0.985376795528E+02    0.96791E-06   -0.28231E-05   132   0.198E-02    0.750E-03
DAV:   6    -0.985376810911E+02   -0.15383E-05   -0.40294E-06   132   0.664E-03    0.459E-03
DAV:   7    -0.985376856139E+02   -0.45228E-05   -0.58748E-07   108   0.319E-03    0.178E-03
DAV:   8    -0.985376916871E+02   -0.60732E-05   -0.76056E-07   108   0.311E-03    0.950E-04
DAV:   9    -0.985377023473E+02   -0.10660E-04   -0.78274E-07    72   0.308E-03    0.509E-04
DAV:  10    -0.985377071942E+02   -0.48469E-05   -0.37941E-07   108   0.183E-03    0.566E-04
DAV:  11    -0.985377090080E+02   -0.18138E-05   -0.38261E-08   108   0.760E-04    0.412E-04
DAV:  12    -0.985377130384E+02   -0.40303E-05   -0.11806E-07    84   0.903E-04    0.189E-04
DAV:  13    -0.985377144595E+02   -0.14211E-05   -0.37179E-08   108   0.480E-04    0.252E-04
DAV:  14    -0.985377156280E+02   -0.11686E-05   -0.13167E-08   108   0.355E-04    0.627E-05
DAV:  15    -0.985377163216E+02   -0.69354E-06   -0.79669E-09    84   0.251E-04
  51 F= -.98537716E+02 E0= -.98537716E+02  d E =-.327385E-10
       N       E                     dE             d eps       ncg     rms          rms(c)
DAV:   1    -0.985363627517E+02    0.13529E-02   -0.20252E-01   108   0.130E+00    0.153E-01
DAV:   2    -0.985370347910E+02   -0.67204E-03   -0.83940E-03   108   0.280E-01    0.822E-02
DAV:   3    -0.985369803931E+02    0.54398E-04   -0.14499E-04   132   0.428E-02    0.408E-02
DAV:   4    -0.985369438610E+02    0.36532E-04   -0.42204E-05   120   0.244E-02    0.799E-03
DAV:   5    -0.985369400955E+02    0.37655E-05   -0.74548E-06   132   0.110E-02    0.442E-03
DAV:   6    -0.985369499207E+02   -0.98252E-05   -0.40109E-06   132   0.637E-03    0.234E-03
DAV:   7    -0.985369659409E+02   -0.16020E-04   -0.16671E-06    96   0.407E-03    0.135E-03
DAV:   8    -0.985369850954E+02   -0.19155E-04   -0.14904E-06    96   0.301E-03    0.756E-04
DAV:   9    -0.985369987614E+02   -0.13666E-04   -0.10658E-06   120   0.227E-03    0.531E-04
DAV:  10    -0.985370099351E+02   -0.11174E-04   -0.91384E-07    96   0.182E-03    0.260E-04
DAV:  11    -0.985370132654E+02   -0.33303E-05   -0.10404E-07   108   0.745E-04    0.183E-04
DAV:  12    -0.985370167275E+02   -0.34621E-05   -0.17869E-07    84   0.810E-04    0.105E-04
DAV:  13    -0.985370173854E+02   -0.65792E-06   -0.16590E-08   108   0.331E-04
  52 F= -.98537017E+02 E0= -.98537017E+02  d E =-.326300E-10
       N       E                     dE             d eps       ncg     rms          rms(c)
DAV:   1    -0.985356908598E+02    0.13259E-02   -0.39957E-01    96   0.176E+00    0.210E-01
DAV:   2    -0.985371265463E+02   -0.14357E-02   -0.17446E-02   108   0.418E-01    0.117E-01
DAV:   3    -0.985370225289E+02    0.10402E-03   -0.26946E-04   132   0.586E-02    0.601E-02
DAV:   4    -0.985369691449E+02    0.53384E-04   -0.10118E-04   132   0.377E-02    0.115E-02
DAV:   5    -0.985369563107E+02    0.12834E-04   -0.19015E-05   132   0.172E-02    0.634E-03
DAV:   6    -0.985369600813E+02   -0.37706E-05   -0.71074E-06   132   0.878E-03    0.353E-03
DAV:   7    -0.985369757062E+02   -0.15625E-04   -0.21781E-06   132   0.548E-03    0.176E-03
DAV:   8    -0.985369967765E+02   -0.21070E-04   -0.14741E-06   108   0.390E-03    0.120E-03
DAV:   9    -0.985370183282E+02   -0.21552E-04   -0.13506E-06   132   0.283E-03    0.765E-04
DAV:  10    -0.985370331032E+02   -0.14775E-04   -0.52651E-07    84   0.159E-03    0.400E-04
DAV:  11    -0.985370406680E+02   -0.75648E-05   -0.22689E-07   108   0.940E-04    0.295E-04
DAV:  12    -0.985370497116E+02   -0.90436E-05   -0.27554E-07    84   0.103E-03    0.151E-04
DAV:  13    -0.985370516282E+02   -0.19166E-05   -0.34652E-08   108   0.449E-04    0.114E-04
DAV:  14    -0.985370537231E+02   -0.20949E-05   -0.20618E-08   108   0.356E-04    0.534E-05
DAV:  15    -0.985370544486E+02   -0.72549E-06   -0.36405E-09   108   0.218E-04
  53 F= -.98537054E+02 E0= -.98537054E+02  d E =-.223136E-10
       N       E                     dE             d eps       ncg     rms          rms(c)
DAV:   1    -0.985355825941E+02    0.14711E-02   -0.20225E-01    96   0.122E+00    0.153E-01
DAV:   2    -0.985363970432E+02   -0.81445E-03   -0.98736E-03   108   0.303E-01    0.911E-02
DAV:   3    -0.985363360721E+02    0.60971E-04   -0.14065E-04   132   0.432E-02    0.493E-02
DAV:   4    -0.985363046464E+02    0.31426E-04   -0.70880E-05   132   0.318E-02    0.802E-03
DAV:   5    -0.985362996247E+02    0.50217E-05   -0.16569E-05   132   0.147E-02    0.526E-03
DAV:   6    -0.985363038384E+02   -0.42138E-05   -0.54045E-06   132   0.633E-03    0.299E-03
DAV:   7    -0.985363150758E+02   -0.11237E-04   -0.86095E-07   108   0.298E-03    0.154E-03
DAV:   8    -0.985363342004E+02   -0.19125E-04   -0.21323E-06   120   0.319E-03    0.939E-04
DAV:   9    -0.985363464250E+02   -0.12225E-04   -0.66791E-07   108   0.199E-03    0.610E-04
DAV:  10    -0.985363587119E+02   -0.12287E-04   -0.10989E-06    96   0.192E-03    0.256E-04
DAV:  11    -0.985363639528E+02   -0.52409E-05   -0.19298E-07   108   0.987E-04    0.221E-04
DAV:  12    -0.985363667660E+02   -0.28132E-05   -0.95156E-08    96   0.627E-04    0.111E-04
DAV:  13    -0.985363680176E+02   -0.12516E-05   -0.21843E-08   108   0.346E-04    0.597E-05
DAV:  14    -0.985363688403E+02   -0.82269E-06   -0.52948E-09    96   0.237E-04
  54 F= -.98536369E+02 E0= -.98536369E+02  d E =-.334281E-10
       N       E                     dE             d eps       ncg     rms          rms(c)
DAV:   1    -0.985350165176E+02    0.13515E-02   -0.40575E-01   108   0.171E+00    0.213E-01
DAV:   2    -0.985366580608E+02   -0.16415E-02   -0.20067E-02   108   0.422E-01    0.133E-01
DAV:   3    -0.985365347938E+02    0.12327E-03   -0.28006E-04   132   0.606E-02    0.738E-02
DAV:   4    -0.985364732592E+02    0.61535E-04   -0.16079E-04   120   0.462E-02    0.113E-02
DAV:   5    -0.985364684708E+02    0.47884E-05   -0.36561E-05   132   0.214E-02    0.765E-03
DAV:   6    -0.985364817394E+02   -0.13269E-04   -0.11848E-05   132   0.882E-03    0.435E-03
DAV:   7    -0.985365091758E+02   -0.27436E-04   -0.25955E-06   108   0.458E-03    0.219E-03
DAV:   8    -0.985365512742E+02   -0.42098E-04   -0.53960E-06   120   0.499E-03    0.142E-03
DAV:   9    -0.985365727180E+02   -0.21444E-04   -0.15435E-06   108   0.279E-03    0.958E-04
DAV:  10    -0.985365947645E+02   -0.22047E-04   -0.20623E-06    96   0.278E-03    0.475E-04
DAV:  11    -0.985366025890E+02   -0.78245E-05   -0.33618E-07   108   0.129E-03    0.379E-04
DAV:  12    -0.985366081968E+02   -0.56078E-05   -0.28598E-07    96   0.107E-03    0.138E-04
DAV:  13    -0.985366100598E+02   -0.18630E-05   -0.49650E-08   108   0.508E-04    0.112E-04
DAV:  14    -0.985366115216E+02   -0.14618E-05   -0.20635E-08    96   0.361E-04    0.555E-05
DAV:  15    -0.985366118918E+02   -0.37023E-06    0.45191E-11   108   0.177E-04
  55 F= -.98536612E+02 E0= -.98536612E+02  d E =-.220522E-10
       N       E                     dE             d eps       ncg     rms          rms(c)
DAV:   1    -0.985367527962E+02   -0.14127E-03   -0.20047E-01    96   0.136E+00    0.144E-01
DAV:   2    -0.985377117553E+02   -0.95896E-03   -0.11398E-02   108   0.344E-01    0.833E-02
DAV:   3    -0.985376728437E+02    0.38912E-04   -0.16285E-04   132   0.448E-02    0.480E-02
DAV:   4    -0.985376461152E+02    0.26729E-04   -0.70762E-05   108   0.323E-02    0.761E-03
DAV:   5    -0.985376411383E+02    0.49768E-05   -0.16261E-05   132   0.147E-02    0.518E-03
DAV:   6    -0.985376435036E+02   -0.23653E-05   -0.43248E-06   132   0.631E-03    0.318E-03
DAV:   7    -0.985376530352E+02   -0.95315E-05   -0.82003E-07    84   0.322E-03    0.140E-03
DAV:   8    -0.985376682752E+02   -0.15240E-04   -0.14557E-06    96   0.311E-03    0.974E-04
DAV:   9    -0.985376820383E+02   -0.13763E-04   -0.75179E-07    96   0.221E-03    0.612E-04
DAV:  10    -0.985376928551E+02   -0.10817E-04   -0.73731E-07    84   0.169E-03    0.286E-04
DAV:  11    -0.985376976244E+02   -0.47692E-05   -0.14931E-07    96   0.866E-04    0.196E-04
DAV:  12    -0.985377013012E+02   -0.36769E-05   -0.10451E-07    84   0.680E-04    0.119E-04
DAV:  13    -0.985377027090E+02   -0.14078E-05   -0.27620E-08    96   0.364E-04    0.831E-05
DAV:  14    -0.985377038479E+02   -0.11389E-05   -0.11568E-08    84   0.277E-04    0.332E-05
DAV:  15    -0.985377044122E+02   -0.56427E-06   -0.23606E-09    96   0.193E-04
  56 F= -.98537704E+02 E0= -.98537704E+02  d E =-.135283E-10
       N       E                     dE             d eps       ncg     rms          rms(c)
DAV:   1    -0.985362054639E+02    0.14984E-02   -0.41314E-01   120   0.173E+00    0.194E-01
DAV:   2    -0.985375979889E+02   -0.13925E-02   -0.16640E-02   120   0.379E-01    0.981E-02
DAV:   3    -0.985375391658E+02    0.58823E-04   -0.26033E-04   132   0.572E-02    0.527E-02
DAV:   4    -0.985375086169E+02    0.30549E-04   -0.85196E-05   132   0.408E-02    0.980E-03
DAV:   5    -0.985375021407E+02    0.64762E-05   -0.29258E-05   132   0.201E-02    0.682E-03
DAV:   6    -0.985375033361E+02   -0.11954E-05   -0.52650E-06   108   0.743E-03    0.404E-03
DAV:   7    -0.985375109688E+02   -0.76326E-05   -0.90948E-07    96   0.400E-03    0.174E-03
DAV:   8    -0.985375237426E+02   -0.12774E-04   -0.13928E-06    96   0.393E-03    0.122E-03
DAV:   9    -0.985375397980E+02   -0.16055E-04   -0.99592E-07    84   0.306E-03    0.555E-04
DAV:  10    -0.985375483732E+02   -0.85752E-05   -0.53786E-07    96   0.190E-03    0.483E-04
DAV:  11    -0.985375550799E+02   -0.67067E-05   -0.17371E-07    84   0.110E-03    0.234E-04
DAV:  12    -0.985375587176E+02   -0.36377E-05   -0.10759E-07    96   0.697E-04    0.226E-04
DAV:  13    -0.985375610768E+02   -0.23592E-05   -0.41655E-08    84   0.454E-04    0.748E-05
DAV:  14    -0.985375621819E+02   -0.11052E-05   -0.12373E-08    96   0.286E-04    0.625E-05
DAV:  15    -0.985375630731E+02   -0.89119E-06   -0.56905E-09    84   0.225E-04
  57 F= -.98537563E+02 E0= -.98537563E+02  d E =-.858207E-10
       N       E                     dE             d eps       ncg     rms          rms(c)
DAV:   1    -0.985364223800E+02    0.11398E-02   -0.20548E-01    96   0.122E+00    0.143E-01
DAV:   2    -0.985370091495E+02   -0.58677E-03   -0.70356E-03   132   0.238E-01    0.599E-02
DAV:   3    -0.985369901382E+02    0.19011E-04   -0.13294E-04   132   0.411E-02    0.314E-02
DAV:   4    -0.985369830903E+02    0.70478E-05   -0.35718E-05   108   0.290E-02    0.683E-03
DAV:   5    -0.985369824868E+02    0.60353E-06   -0.16583E-05   132   0.150E-02    0.505E-03
DAV:   6    -0.985369828174E+02   -0.33060E-06   -0.12144E-06    96   0.387E-03
  58 F= -.98536983E+02 E0= -.98536983E+02  d E =-.250230E-10
       N       E                     dE             d eps       ncg     rms          rms(c)
DAV:   1    -0.985355759811E+02    0.14065E-02   -0.40870E-01    96   0.183E+00    0.218E-01
DAV:   2    -0.985369686652E+02   -0.13927E-02   -0.16922E-02   132   0.406E-01    0.114E-01
DAV:   3    -0.985368801369E+02    0.88528E-04   -0.27297E-04   108   0.589E-02    0.592E-02
DAV:   4    -0.985368281969E+02    0.51940E-04   -0.10163E-04   120   0.401E-02    0.108E-02
DAV:   5    -0.985368237541E+02    0.44428E-05   -0.25118E-05   132   0.187E-02    0.672E-03
DAV:   6    -0.985368333464E+02   -0.95923E-05   -0.75750E-06   120   0.809E-03    0.394E-03
DAV:   7    -0.985368517186E+02   -0.18372E-04   -0.15452E-06    96   0.417E-03    0.203E-03
DAV:   8    -0.985368797097E+02   -0.27991E-04   -0.30260E-06    96   0.433E-03    0.112E-03
DAV:   9    -0.985368957538E+02   -0.16044E-04   -0.13041E-06   108   0.279E-03    0.888E-04
DAV:  10    -0.985369115751E+02   -0.15821E-04   -0.13361E-06    96   0.238E-03    0.327E-04
DAV:  11    -0.985369176002E+02   -0.60251E-05   -0.26055E-07    96   0.118E-03    0.302E-04
DAV:  12    -0.985369232886E+02   -0.56884E-05   -0.32853E-07    84   0.114E-03    0.144E-04
DAV:  13    -0.985369246355E+02   -0.13469E-05   -0.50721E-08   108   0.480E-04    0.104E-04
DAV:  14    -0.985369257039E+02   -0.10684E-05   -0.12448E-08   108   0.316E-04    0.477E-05
DAV:  15    -0.985369262147E+02   -0.51080E-06   -0.41911E-09    84   0.213E-04
  59 F= -.98536926E+02 E0= -.98536926E+02  d E =-.365038E-10
       N       E                     dE             d eps       ncg     rms          rms(c)
DAV:   1    -0.985358815672E+02    0.10441E-02   -0.20064E-01    96   0.131E+00    0.154E-01
DAV:   2    -0.985365932894E+02   -0.71172E-03   -0.88123E-03   108   0.299E-01    0.796E-02
DAV:   3    -0.985365452755E+02    0.48014E-04   -0.12898E-04   132   0.390E-02    0.416E-02
DAV:   4    -0.985365124688E+02    0.32807E-04   -0.40036E-05   132   0.238E-02    0.805E-03
DAV:   5    -0.985365046594E+02    0.78094E-05   -0.79016E-06   132   0.114E-02    0.430E-03
DAV:   6    -0.985365066822E+02   -0.20228E-05   -0.34500E-06   132   0.678E-03    0.227E-03
DAV:   7    -0.985365159782E+02   -0.92960E-05   -0.15894E-06   132   0.444E-03    0.138E-03
DAV:   8    -0.985365283082E+02   -0.12330E-04   -0.62688E-07   108   0.251E-03    0.777E-04
DAV:   9    -0.985365410322E+02   -0.12724E-04   -0.78769E-07    84   0.206E-03    0.548E-04
DAV:  10    -0.985365524220E+02   -0.11390E-04   -0.54688E-07   108   0.152E-03    0.245E-04
DAV:  11    -0.985365582054E+02   -0.57834E-05   -0.15565E-07    96   0.834E-04    0.183E-04
DAV:  12    -0.985365625051E+02   -0.42997E-05   -0.80075E-08    84   0.600E-04    0.954E-05
DAV:  13    -0.985365638431E+02   -0.13380E-05   -0.14919E-08   108   0.326E-04    0.602E-05
DAV:  14    -0.985365649357E+02   -0.10926E-05   -0.74630E-09    96   0.251E-04    0.328E-05
DAV:  15    -0.985365652079E+02   -0.27220E-06    0.35485E-09   108   0.122E-04
  60 F= -.98536565E+02 E0= -.98536565E+02  d E =-.455024E-10
       N       E                     dE             d eps       ncg     rms          rms(c)
DAV:   1    -0.985354102487E+02    0.11547E-02   -0.40984E-01    96   0.183E+00    0.209E-01
DAV:   2    -0.985367407453E+02   -0.13305E-02   -0.16898E-02   108   0.406E-01    0.121E-01
DAV:   3    -0.985366231579E+02    0.11759E-03   -0.25735E-04   132   0.571E-02    0.599E-02
DAV:   4    -0.985365521192E+02    0.71039E-04   -0.99022E-05   108   0.372E-02    0.108E-02
DAV:   5    -0.985365527871E+02   -0.66793E-06   -0.18654E-05   132   0.170E-02    0.632E-03
DAV:   6    -0.985365758970E+02   -0.23110E-04   -0.10766E-05   108   0.968E-03    0.358E-03
DAV:   7    -0.985366081565E+02   -0.32260E-04   -0.32477E-06   120   0.562E-03    0.211E-03
DAV:   8    -0.985366484620E+02   -0.40305E-04   -0.40163E-06    96   0.460E-03    0.111E-03
DAV:   9    -0.985366749798E+02   -0.26518E-04   -0.24688E-06   108   0.337E-03    0.825E-04
DAV:  10    -0.985366955689E+02   -0.20589E-04   -0.19169E-06    96   0.270E-03    0.402E-04
DAV:  11    -0.985367026800E+02   -0.71111E-05   -0.30615E-07   108   0.123E-03    0.249E-04
DAV:  12    -0.985367078232E+02   -0.51432E-05   -0.29004E-07    84   0.105E-03    0.167E-04
DAV:  13    -0.985367091634E+02   -0.13402E-05   -0.29396E-08   108   0.449E-04    0.682E-05
DAV:  14    -0.985367102074E+02   -0.10440E-05   -0.13352E-08   108   0.327E-04    0.572E-05
DAV:  15    -0.985367105005E+02   -0.29310E-06    0.25616E-09   108   0.151E-04
  61 F= -.98536711E+02 E0= -.98536711E+02  d E =-.212365E-10
       N       E                     dE             d eps       ncg     rms          rms(c)
DAV:   1    -0.985396256499E+02   -0.29154E-02   -0.23313E-01    96   0.171E+00    0.134E-01
DAV:   2    -0.985400560013E+02   -0.43035E-03   -0.62073E-03   108   0.266E-01    0.802E-02
DAV:   3    -0.985399937731E+02    0.62228E-04   -0.14194E-04   132   0.432E-02    0.378E-02
DAV:   4    -0.985399748294E+02    0.18944E-04   -0.64478E-05   108   0.285E-02    0.720E-03
DAV:   5    -0.985399708817E+02    0.39477E-05   -0.10858E-05   132   0.126E-02    0.493E-03
DAV:   6    -0.985399722440E+02   -0.13623E-05   -0.32823E-06   120   0.561E-03    0.261E-03
DAV:   7    -0.985399771503E+02   -0.49063E-05   -0.45151E-07    84   0.272E-03    0.112E-03
DAV:   8    -0.985399845186E+02   -0.73683E-05   -0.54726E-07    96   0.237E-03    0.839E-04
DAV:   9    -0.985399948951E+02   -0.10377E-04   -0.67308E-07    84   0.216E-03    0.433E-04
DAV:  10    -0.985400015461E+02   -0.66509E-05   -0.35505E-07    96   0.146E-03    0.312E-04
DAV:  11    -0.985400044246E+02   -0.28785E-05   -0.38514E-08   108   0.675E-04    0.168E-04
DAV:  12    -0.985400080884E+02   -0.36638E-05   -0.10716E-07    84   0.695E-04    0.135E-04
DAV:  13    -0.985400088253E+02   -0.73686E-06   -0.77090E-09   108   0.294E-04
  62 F= -.98540009E+02 E0= -.98540009E+02  d E =-.269480E-10
       N       E                     dE             d eps       ncg     rms          rms(c)
DAV:   1    -0.985400377198E+02   -0.29631E-04   -0.52667E-01    96   0.246E+00    0.172E-01
DAV:   2    -0.985399180001E+02    0.11972E-03   -0.27767E-03   108   0.174E-01    0.979E-02
DAV:   3    -0.985397794663E+02    0.13853E-03   -0.41221E-04   132   0.620E-02    0.178E-02
DAV:   4    -0.985397825234E+02   -0.30571E-05   -0.63247E-05   132   0.259E-02    0.101E-02
DAV:   5    -0.985397833336E+02   -0.81019E-06   -0.27779E-06   132   0.600E-03
  63 F= -.98539783E+02 E0= -.98539783E+02  d E =-.260052E-10
       N       E                     dE             d eps       ncg     rms          rms(c)
DAV:   1    -0.985391637083E+02    0.61882E-03   -0.27238E-01    96   0.176E+00    0.145E-01
DAV:   2    -0.985391267529E+02    0.36955E-04   -0.21407E-03   120   0.148E-01    0.801E-02
[...]
DAV:   2    -0.985400431135E+02    0.12625E-03   -0.14150E-03   108   0.114E-01    0.783E-02
DAV:   3    -0.985399649934E+02    0.78120E-04   -0.22188E-04   108   0.433E-02    0.170E-02
DAV:   4    -0.985399682336E+02   -0.32402E-05   -0.34301E-05   132   0.182E-02    0.598E-03
DAV:   5    -0.985399688046E+02   -0.57104E-06   -0.16961E-06   120   0.473E-03
 132 F= -.98539969E+02 E0= -.98539969E+02  d E =-.298804E-10
       N       E                     dE             d eps       ncg     rms          rms(c)
DAV:   1    -0.985404592807E+02   -0.49105E-03   -0.55033E-01    96   0.208E+00    0.226E-01
DAV:   2    -0.985401437615E+02    0.31552E-03   -0.30916E-03   108   0.168E-01    0.118E-01
DAV:   3    -0.985399574729E+02    0.18629E-03   -0.50673E-04   120   0.638E-02    0.349E-02
DAV:   4    -0.985399590584E+02   -0.15856E-05   -0.99993E-05   120   0.298E-02    0.105E-02
DAV:   5    -0.985399581760E+02    0.88245E-06   -0.55045E-06   108   0.902E-03
 133 F= -.98539958E+02 E0= -.98539958E+02  d E =-.247431E-10
       N       E                     dE             d eps       ncg     rms          rms(c)
DAV:   1    -0.985401969117E+02   -0.23785E-03   -0.27039E-01    96   0.187E+00    0.141E-01
DAV:   2    -0.985401496124E+02    0.47299E-04   -0.19236E-03    96   0.153E-01    0.775E-02
DAV:   3    -0.985400775720E+02    0.72040E-04   -0.18748E-04   120   0.433E-02    0.220E-02
DAV:   4    -0.985400780941E+02   -0.52209E-06   -0.41469E-05   108   0.202E-02    0.726E-03
DAV:   5    -0.985400777597E+02    0.33446E-06   -0.27678E-06   132   0.592E-03
 134 F= -.98540078E+02 E0= -.98540078E+02  d E =-.280553E-10
       N       E                     dE             d eps       ncg     rms          rms(c)
DAV:   1    -0.985398599234E+02    0.21817E-03   -0.53103E-01    96   0.232E+00    0.172E-01
DAV:   2    -0.985397457219E+02    0.11420E-03   -0.25373E-03   108   0.159E-01    0.976E-02
DAV:   3    -0.985396059944E+02    0.13973E-03   -0.40932E-04   120   0.551E-02    0.175E-02
DAV:   4    -0.985396048267E+02    0.11677E-05   -0.49481E-05   120   0.225E-02    0.950E-03
DAV:   5    -0.985396046279E+02    0.19875E-06   -0.35873E-06   132   0.659E-03
 135 F= -.98539605E+02 E0= -.98539605E+02  d E =-.253162E-10
       N       E                     dE             d eps       ncg     rms          rms(c)
DAV:   1    -0.985390567054E+02    0.54812E-03   -0.27202E-01    96   0.159E+00    0.145E-01
DAV:   2    -0.985389994344E+02    0.57271E-04   -0.20077E-03   108   0.140E-01    0.798E-02
DAV:   3    -0.985389120647E+02    0.87370E-04   -0.28691E-04   120   0.483E-02    0.199E-02
DAV:   4    -0.985389124058E+02   -0.34107E-06   -0.56822E-05   108   0.221E-02    0.871E-03
DAV:   5    -0.985389110791E+02    0.13267E-05   -0.23348E-06   132   0.598E-03    0.477E-03
DAV:   6    -0.985389111858E+02   -0.10669E-06   -0.21241E-06   108   0.524E-03
 136 F= -.98538911E+02 E0= -.98538911E+02  d E =-.270581E-10
       N       E                     dE             d eps       ncg     rms          rms(c)
DAV:   1    -0.985391904152E+02   -0.27934E-03   -0.54033E-01   108   0.226E+00    0.194E-01
DAV:   2    -0.985390375148E+02    0.15290E-03   -0.40171E-03   108   0.194E-01    0.108E-01
DAV:   3    -0.985388488011E+02    0.18871E-03   -0.55654E-04   120   0.666E-02    0.263E-02
DAV:   4    -0.985388474456E+02    0.13555E-05   -0.11329E-04   132   0.316E-02    0.120E-02
DAV:   5    -0.985388460501E+02    0.13955E-05   -0.36697E-06   108   0.730E-03    0.638E-03
DAV:   6    -0.985388483565E+02   -0.23064E-05   -0.38629E-06   120   0.645E-03    0.140E-03
DAV:   7    -0.985388513013E+02   -0.29448E-05   -0.98054E-07   132   0.323E-03    0.983E-04
DAV:   8    -0.985388549340E+02   -0.36328E-05   -0.17435E-07    84   0.108E-03    0.391E-04
DAV:   9    -0.985388582376E+02   -0.33036E-05   -0.18915E-07    96   0.905E-04    0.270E-04
DAV:  10    -0.985388615712E+02   -0.33336E-05   -0.21036E-07    84   0.887E-04    0.174E-04
DAV:  11    -0.985388629048E+02   -0.13336E-05   -0.48946E-08   108   0.520E-04    0.129E-04
DAV:  12    -0.985388636857E+02   -0.78090E-06   -0.15613E-08    84   0.316E-04
 137 F= -.98538864E+02 E0= -.98538864E+02  d E =-.264069E-10
       N       E                     dE             d eps       ncg     rms          rms(c)
DAV:   1    -0.985402659640E+02   -0.14031E-02   -0.27179E-01    96   0.161E+00    0.142E-01
DAV:   2    -0.985401822410E+02    0.83723E-04   -0.20005E-03   108   0.150E-01    0.783E-02
DAV:   3    -0.985400844674E+02    0.97774E-04   -0.30739E-04   132   0.515E-02    0.182E-02
DAV:   4    -0.985400850781E+02   -0.61072E-06   -0.59788E-05   108   0.240E-02    0.897E-03
DAV:   5    -0.985400843478E+02    0.73026E-06   -0.22382E-06   132   0.602E-03
 138 F= -.98540084E+02 E0= -.98540084E+02  d E =-.277350E-10
       N       E                     dE             d eps       ncg     rms          rms(c)
DAV:   1    -0.985400337146E+02    0.51363E-04   -0.52695E-01    96   0.245E+00    0.170E-01
DAV:   2    -0.985399210906E+02    0.11262E-03   -0.26028E-03   108   0.167E-01    0.971E-02
DAV:   3    -0.985398041635E+02    0.11693E-03   -0.39455E-04   108   0.598E-02    0.170E-02
DAV:   4    -0.985398076829E+02   -0.35194E-05   -0.54291E-05   132   0.241E-02    0.975E-03
DAV:   5    -0.985398077762E+02   -0.93329E-07   -0.27272E-06   132   0.580E-03
 139 F= -.98539808E+02 E0= -.98539808E+02  d E =-.259601E-10
       N       E                     dE             d eps       ncg     rms          rms(c)
DAV:   1    -0.985397683846E+02    0.39298E-04   -0.26578E-01    96   0.183E+00    0.124E-01
DAV:   2    -0.985397331380E+02    0.35247E-04   -0.15064E-03   108   0.129E-01    0.702E-02
DAV:   3    -0.985396678455E+02    0.65293E-04   -0.23025E-04   108   0.392E-02    0.135E-02
DAV:   4    -0.985396667860E+02    0.10595E-05   -0.23441E-05   132   0.147E-02    0.746E-03
DAV:   5    -0.985396655338E+02    0.12522E-05   -0.17798E-06   120   0.539E-03    0.402E-03
DAV:   6    -0.985396655527E+02   -0.18885E-07   -0.18742E-06   108   0.479E-03
 140 F= -.98539666E+02 E0= -.98539666E+02  d E =-.283901E-10
       N       E                     dE             d eps       ncg     rms          rms(c)
DAV:   1    -0.985397705168E+02   -0.10498E-03   -0.53367E-01    96   0.223E+00    0.180E-01
DAV:   2    -0.985396538148E+02    0.11670E-03   -0.28777E-03   108   0.168E-01    0.100E-01
DAV:   3    -0.985395015765E+02    0.15224E-03   -0.42516E-04   120   0.549E-02    0.212E-02
DAV:   4    -0.985394962356E+02    0.53409E-05   -0.50571E-05   132   0.220E-02    0.984E-03
DAV:   5    -0.985394961762E+02    0.59362E-07   -0.43825E-06   132   0.750E-03
 141 F= -.98539496E+02 E0= -.98539496E+02  d E =-.251022E-10
       N       E                     dE             d eps       ncg     rms          rms(c)
DAV:   1    -0.985388658030E+02    0.63043E-03   -0.26458E-01    96   0.163E+00    0.110E-01
DAV:   2    -0.985388063334E+02    0.59470E-04   -0.10580E-03   120   0.103E-01    0.638E-02
DAV:   3    -0.985387583216E+02    0.48012E-04   -0.19222E-04   108   0.420E-02    0.862E-03
DAV:   4    -0.985387630618E+02   -0.47402E-05   -0.33333E-05   132   0.180E-02    0.592E-03
DAV:   5    -0.985387641155E+02   -0.10537E-05   -0.65330E-07    96   0.314E-03    0.401E-03
DAV:   6    -0.985387672663E+02   -0.31508E-05   -0.12148E-06    96   0.367E-03    0.563E-04
DAV:   7    -0.985387684962E+02   -0.12299E-05   -0.31477E-07   108   0.189E-03    0.562E-04
DAV:   8    -0.985387701195E+02   -0.16233E-05   -0.70442E-08   108   0.970E-04    0.261E-04
DAV:   9    -0.985387719644E+02   -0.18448E-05   -0.98180E-08    84   0.855E-04    0.187E-04
DAV:  10    -0.985387731883E+02   -0.12239E-05   -0.43303E-08   108   0.573E-04    0.965E-05
DAV:  11    -0.985387740175E+02   -0.82919E-06   -0.26428E-08    84   0.348E-04
 142 F= -.98538774E+02 E0= -.98538774E+02  d E =-.277333E-10
       N       E                     dE             d eps       ncg     rms          rms(c)
DAV:   1    -0.985388085045E+02   -0.35316E-04   -0.54560E-01   108   0.216E+00    0.198E-01
DAV:   2    -0.985386655958E+02    0.14291E-03   -0.41243E-03   108   0.197E-01    0.111E-01
DAV:   3    -0.985384585132E+02    0.20708E-03   -0.60011E-04   132   0.718E-02    0.244E-02
DAV:   4    -0.985384609234E+02   -0.24103E-05   -0.13421E-04   132   0.332E-02    0.125E-02
DAV:   5    -0.985384591836E+02    0.17399E-05   -0.35557E-06   132   0.744E-03    0.728E-03
DAV:   6    -0.985384611020E+02   -0.19184E-05   -0.47967E-06   132   0.792E-03    0.163E-03
DAV:   7    -0.985384645244E+02   -0.34225E-05   -0.17848E-06   132   0.418E-03    0.137E-03
DAV:   8    -0.985384693625E+02   -0.48381E-05   -0.23655E-07    84   0.126E-03    0.521E-04
DAV:   9    -0.985384735820E+02   -0.42195E-05   -0.22876E-07   108   0.104E-03    0.427E-04
DAV:  10    -0.985384780799E+02   -0.44979E-05   -0.19452E-07    84   0.104E-03    0.203E-04
DAV:  11    -0.985384805784E+02   -0.24985E-05   -0.82855E-08   108   0.660E-04    0.217E-04
DAV:  12    -0.985384818022E+02   -0.12237E-05   -0.15326E-08   108   0.398E-04    0.918E-05
DAV:  13    -0.985384829765E+02   -0.11743E-05   -0.15438E-08    84   0.314E-04    0.795E-05
DAV:  14    -0.985384838252E+02   -0.84875E-06   -0.89037E-09   108   0.245E-04
 143 F= -.98538484E+02 E0= -.98538484E+02  d E =-.254670E-10
       N       E                     dE             d eps       ncg     rms          rms(c)
DAV:   1    -0.985406971977E+02   -0.22142E-02   -0.26882E-01   108   0.155E+00    0.125E-01
DAV:   2    -0.985406106484E+02    0.86549E-04   -0.14652E-03   108   0.126E-01    0.713E-02
DAV:   3    -0.985405318710E+02    0.78777E-04   -0.24809E-04   120   0.487E-02    0.125E-02
DAV:   4    -0.985405341434E+02   -0.22725E-05   -0.46542E-05   132   0.214E-02    0.744E-03
DAV:   5    -0.985405340037E+02    0.13977E-06   -0.10993E-06   108   0.410E-03
 144 F= -.98540534E+02 E0= -.98540534E+02  d E =-.240263E-10
       N       E                     dE             d eps       ncg     rms          rms(c)
DAV:   1    -0.985406003870E+02   -0.66244E-04   -0.52505E-01    96   0.233E+00    0.159E-01
DAV:   2    -0.985404746487E+02    0.12574E-03   -0.20437E-03   108   0.157E-01    0.917E-02
DAV:   3    -0.985403721860E+02    0.10246E-03   -0.34171E-04   132   0.591E-02    0.120E-02
DAV:   4    -0.985403779365E+02   -0.57505E-05   -0.49806E-05   120   0.233E-02    0.816E-03
DAV:   5    -0.985403789288E+02   -0.99234E-06   -0.15540E-06   120   0.440E-03
 145 F= -.98540379E+02 E0= -.98540379E+02  d E =-.295359E-10
       N       E                     dE             d eps       ncg     rms          rms(c)
DAV:   1    -0.985396600647E+02    0.71787E-03   -0.26614E-01    96   0.201E+00    0.120E-01
DAV:   2    -0.985396339553E+02    0.26109E-04   -0.16407E-03   120   0.154E-01    0.687E-02
DAV:   3    -0.985395761445E+02    0.57811E-04   -0.19908E-04   108   0.474E-02    0.142E-02
DAV:   4    -0.985395797951E+02   -0.36506E-05   -0.42210E-05   120   0.215E-02    0.686E-03
DAV:   5    -0.985395798465E+02   -0.51416E-07   -0.12548E-06    84   0.441E-03
 146 F= -.98539580E+02 E0= -.98539580E+02  d E =-.274028E-10
       N       E                     dE             d eps       ncg     rms          rms(c)
DAV:   1    -0.985399908162E+02   -0.41102E-03   -0.53580E-01    96   0.264E+00    0.178E-01
DAV:   2    -0.985398719137E+02    0.11890E-03   -0.33388E-03   108   0.192E-01    0.101E-01
DAV:   3    -0.985397130696E+02    0.15884E-03   -0.48219E-04   108   0.663E-02    0.202E-02
DAV:   4    -0.985397162476E+02   -0.31781E-05   -0.94081E-05   132   0.304E-02    0.103E-02
DAV:   5    -0.985397150704E+02    0.11772E-05   -0.31693E-06   108   0.627E-03    0.575E-03
DAV:   6    -0.985397159506E+02   -0.88022E-06   -0.29149E-06   120   0.551E-03
 147 F= -.98539716E+02 E0= -.98539716E+02  d E =-.262627E-10
       N       E                     dE             d eps       ncg     rms          rms(c)
DAV:   1    -0.985387109181E+02    0.10042E-02   -0.26382E-01    96   0.179E+00    0.112E-01
DAV:   2    -0.985386517859E+02    0.59132E-04   -0.10589E-03   108   0.104E-01    0.642E-02
DAV:   3    -0.985385936106E+02    0.58175E-04   -0.16580E-04   120   0.380E-02    0.105E-02
DAV:   4    -0.985385958441E+02   -0.22335E-05   -0.21678E-05   120   0.151E-02    0.556E-03
DAV:   5    -0.985385972150E+02   -0.13710E-05   -0.93559E-07   108   0.346E-03    0.343E-03
DAV:   6    -0.985386001314E+02   -0.29164E-05   -0.72309E-07    84   0.301E-03    0.676E-04
DAV:   7    -0.985386021170E+02   -0.19857E-05   -0.25521E-07   108   0.170E-03    0.590E-04
DAV:   8    -0.985386054671E+02   -0.33501E-05   -0.21025E-07    84   0.152E-03    0.253E-04
DAV:   9    -0.985386073469E+02   -0.18798E-05   -0.12905E-07   108   0.961E-04    0.202E-04
DAV:  10    -0.985386091329E+02   -0.17860E-05   -0.56562E-08    84   0.612E-04    0.112E-04
DAV:  11    -0.985386101525E+02   -0.10196E-05   -0.35098E-08   108   0.391E-04    0.683E-05
DAV:  12    -0.985386107831E+02   -0.63062E-06   -0.10570E-08    96   0.252E-04
 148 F= -.98538611E+02 E0= -.98538611E+02  d E =-.292892E-10
       N       E                     dE             d eps       ncg     rms          rms(c)
DAV:   1    -0.985387624772E+02   -0.15232E-03   -0.54327E-01   108   0.246E+00    0.205E-01
DAV:   2    -0.985386684755E+02    0.94002E-04   -0.41871E-03   108   0.202E-01    0.111E-01
DAV:   3    -0.985384779263E+02    0.19055E-03   -0.49804E-04   132   0.605E-02    0.321E-02
DAV:   4    -0.985384663994E+02    0.11527E-04   -0.95489E-05   132   0.275E-02    0.112E-02
DAV:   5    -0.985384638724E+02    0.25271E-05   -0.68013E-06   132   0.991E-03    0.515E-03
DAV:   6    -0.985384665795E+02   -0.27071E-05   -0.41321E-06   108   0.682E-03    0.188E-03
DAV:   7    -0.985384708767E+02   -0.42972E-05   -0.92438E-07   108   0.337E-03    0.120E-03
DAV:   8    -0.985384771626E+02   -0.62859E-05   -0.44109E-07    84   0.218E-03    0.625E-04
DAV:   9    -0.985384825157E+02   -0.53531E-05   -0.31385E-07   108   0.155E-03    0.357E-04
DAV:  10    -0.985384883027E+02   -0.57870E-05   -0.27909E-07    84   0.119E-03    0.196E-04
DAV:  11    -0.985384911557E+02   -0.28530E-05   -0.67165E-08    96   0.643E-04    0.142E-04
DAV:  12    -0.985384939925E+02   -0.28368E-05   -0.57964E-08    84   0.499E-04    0.830E-05
DAV:  13    -0.985384946887E+02   -0.69620E-06   -0.56407E-09   108   0.231E-04
 149 F= -.98538495E+02 E0= -.98538495E+02  d E =-.242102E-10
       N       E                     dE             d eps       ncg     rms          rms(c)
DAV:   1    -0.985405169748E+02   -0.20230E-02   -0.26734E-01    96   0.175E+00    0.128E-01
DAV:   2    -0.985404348026E+02    0.82172E-04   -0.14497E-03   108   0.132E-01    0.715E-02
DAV:   3    -0.985403606369E+02    0.74166E-04   -0.23325E-04   132   0.452E-02    0.149E-02
DAV:   4    -0.985403612851E+02   -0.64822E-06   -0.36409E-05   132   0.192E-02    0.730E-03
DAV:   5    -0.985403616920E+02   -0.40690E-06   -0.16641E-06   108   0.476E-03
 150 F= -.98540362E+02 E0= -.98540362E+02  d E =-.297203E-10
       N       E                     dE             d eps       ncg     rms          rms(c)
DAV:   1    -0.985407981286E+02   -0.43684E-03   -0.52587E-01    96   0.257E+00    0.160E-01
DAV:   2    -0.985406722485E+02    0.12588E-03   -0.20994E-03   108   0.157E-01    0.922E-02
DAV:   3    -0.985405632485E+02    0.10900E-03   -0.36442E-04   120   0.585E-02    0.120E-02
DAV:   4    -0.985405694867E+02   -0.62382E-05   -0.50682E-05   120   0.232E-02    0.713E-03
DAV:   5    -0.985405709108E+02   -0.14241E-05   -0.16642E-06   120   0.440E-03    0.466E-03
DAV:   6    -0.985405748479E+02   -0.39371E-05   -0.14280E-06    84   0.384E-03    0.864E-04
DAV:   7    -0.985405773646E+02   -0.25167E-05   -0.38383E-07    96   0.211E-03    0.793E-04
DAV:   8    -0.985405810968E+02   -0.37322E-05   -0.19152E-07    84   0.171E-03    0.321E-04
DAV:   9    -0.985405842465E+02   -0.31497E-05   -0.21666E-07    96   0.145E-03    0.281E-04
DAV:  10    -0.985405867831E+02   -0.25366E-05   -0.11926E-07    84   0.931E-04    0.141E-04
DAV:  11    -0.985405876586E+02   -0.87549E-06   -0.23925E-08    96   0.395E-04
 151 F= -.98540588E+02 E0= -.98540588E+02  d E =-.246167E-10
       N       E                     dE             d eps       ncg     rms          rms(c)
DAV:   1    -0.985384715338E+02    0.21152E-02   -0.26706E-01    96   0.188E+00    0.130E-01
DAV:   2    -0.985384282718E+02    0.43262E-04   -0.19805E-03   108   0.146E-01    0.716E-02
DAV:   3    -0.985383457960E+02    0.82476E-04   -0.22772E-04   132   0.473E-02    0.195E-02
DAV:   4    -0.985383472882E+02   -0.14922E-05   -0.63348E-05   132   0.238E-02    0.731E-03
DAV:   5    -0.985383475648E+02   -0.27665E-06   -0.25522E-06   120   0.560E-03
 152 F= -.98538348E+02 E0= -.98538348E+02  d E =-.299634E-10
       N       E                     dE             d eps       ncg     rms          rms(c)
DAV:   1    -0.985385463350E+02   -0.19905E-03   -0.54614E-01   108   0.244E+00    0.208E-01
DAV:   2    -0.985384287458E+02    0.11759E-03   -0.44882E-03   108   0.219E-01    0.114E-01
DAV:   3    -0.985382226885E+02    0.20606E-03   -0.60588E-04   108   0.713E-02    0.303E-02
DAV:   4    -0.985382213735E+02    0.13150E-05   -0.13952E-04   120   0.345E-02    0.124E-02
DAV:   5    -0.985382189768E+02    0.23967E-05   -0.47313E-06   132   0.811E-03    0.736E-03
DAV:   6    -0.985382193905E+02   -0.41370E-06   -0.51685E-06   108   0.808E-03
 153 F= -.98538219E+02 E0= -.98538219E+02  d E =-.244102E-10
       N       E                     dE             d eps       ncg     rms          rms(c)
DAV:   1    -0.985404993167E+02   -0.22803E-02   -0.26863E-01   108   0.175E+00    0.141E-01
DAV:   2    -0.985404442055E+02    0.55111E-04   -0.19467E-03    96   0.145E-01    0.759E-02
DAV:   3    -0.985403681357E+02    0.76070E-04   -0.23483E-04   108   0.415E-02    0.208E-02
DAV:   4    -0.985403660978E+02    0.20378E-05   -0.37114E-05   120   0.181E-02    0.784E-03
DAV:   5    -0.985403651077E+02    0.99017E-06   -0.30180E-06   108   0.633E-03
 154 F= -.98540365E+02 E0= -.98540365E+02  d E =-.286552E-10
       N       E                     dE             d eps       ncg     rms          rms(c)
DAV:   1    -0.985406374777E+02   -0.27138E-03   -0.53047E-01    96   0.250E+00    0.161E-01
DAV:   2    -0.985405348610E+02    0.10262E-03   -0.21469E-03   108   0.154E-01    0.923E-02
DAV:   3    -0.985404283936E+02    0.10647E-03   -0.34329E-04   108   0.535E-02    0.148E-02
DAV:   4    -0.985404303232E+02   -0.19296E-05   -0.42839E-05   132   0.210E-02    0.736E-03
DAV:   5    -0.985404298653E+02    0.45785E-06   -0.17202E-06   108   0.466E-03
 155 F= -.98540430E+02 E0= -.98540430E+02  d E =-.246344E-10
       N       E                     dE             d eps       ncg     rms          rms(c)
DAV:   1    -0.985399736764E+02    0.45665E-03   -0.26568E-01    96   0.171E+00    0.115E-01
DAV:   2    -0.985399077771E+02    0.65899E-04   -0.10825E-03   132   0.107E-01    0.667E-02
DAV:   3    -0.985398555120E+02    0.52265E-04   -0.19777E-04   108   0.436E-02    0.828E-03
DAV:   4    -0.985398588007E+02   -0.32886E-05   -0.29444E-05   132   0.176E-02    0.550E-03
DAV:   5    -0.985398592432E+02   -0.44257E-06   -0.78394E-07    96   0.327E-03
 156 F= -.98539859E+02 E0= -.98539859E+02  d E =-.330635E-10
       N       E                     dE             d eps       ncg     rms          rms(c)
DAV:   1    -0.985403522676E+02   -0.49347E-03   -0.53186E-01    96   0.254E+00    0.172E-01
DAV:   2    -0.985402375385E+02    0.11473E-03   -0.26163E-03   120   0.163E-01    0.970E-02
DAV:   3    -0.985401064148E+02    0.13112E-03   -0.38227E-04   120   0.555E-02    0.188E-02
DAV:   4    -0.985401063702E+02    0.44635E-07   -0.53034E-05   132   0.227E-02    0.827E-03
DAV:   5    -0.985401065744E+02   -0.20421E-06   -0.32143E-06   132   0.610E-03
 157 F= -.98540107E+02 E0= -.98540107E+02  d E =-.220670E-10
