       N       E                     dE             d eps       ncg     rms          rms(c)
DAV:   1     0.213201923366E+03    0.21320E+03   -0.10450E+04   116   0.546E+02
DAV:   2    -0.215508732602E+02   -0.23475E+03   -0.21874E+03   144   0.103E+02
DAV:   3    -0.977268615827E+02   -0.76176E+02   -0.76003E+02   112   0.557E+01
DAV:   4    -0.102118979597E+03   -0.43921E+01   -0.43747E+01   104   0.184E+01
DAV:   5    -0.102180250289E+03   -0.61271E-01   -0.61199E-01   128   0.234E+00    0.140E+01
DAV:   6    -0.990811054187E+02    0.30991E+01   -0.15565E+00   104   0.449E+00    0.805E+00
DAV:   7    -0.974702724782E+02    0.16108E+01   -0.38672E+00   104   0.654E+00    0.120E+00
DAV:   8    -0.974113407115E+02    0.58932E-01   -0.26742E-01   112   0.214E+00    0.577E-01
DAV:   9    -0.973764481709E+02    0.34893E-01   -0.64368E-02   120   0.712E-01    0.307E-01
DAV:  10    -0.973765422247E+02   -0.94054E-04   -0.22729E-03   112   0.186E-01    0.128E-01
DAV:  11    -0.973763439405E+02    0.19828E-03   -0.65620E-03   104   0.237E-01    0.871E-02
DAV:  12    -0.973817621448E+02   -0.54182E-02   -0.15753E-03   102   0.109E-01    0.488E-02
DAV:  13    -0.973857425402E+02   -0.39804E-02   -0.12765E-03   112   0.944E-02    0.343E-02
DAV:  14    -0.973903822910E+02   -0.46398E-02   -0.39275E-04   112   0.596E-02    0.140E-02
DAV:  15    -0.973937899680E+02   -0.34077E-02   -0.33790E-04   112   0.478E-02    0.108E-02
DAV:  16    -0.973952290898E+02   -0.14391E-02   -0.10541E-04   112   0.253E-02    0.531E-03
DAV:  17    -0.973960859338E+02   -0.85684E-03   -0.64910E-05   112   0.192E-02    0.293E-03
DAV:  18    -0.973963962574E+02   -0.31032E-03   -0.12134E-05   104   0.894E-03    0.189E-03
DAV:  19    -0.973964846828E+02   -0.88425E-04   -0.23638E-06    96   0.397E-03    0.102E-03
DAV:  20    -0.973965333045E+02   -0.48622E-04   -0.93117E-07    88   0.290E-03    0.553E-04
DAV:  21    -0.973965524318E+02   -0.19127E-04   -0.56100E-07    88   0.182E-03    0.331E-04
DAV:  22    -0.973965602844E+02   -0.78526E-05   -0.19606E-07    88   0.117E-03    0.180E-04
DAV:  23    -0.973965626785E+02   -0.23941E-05   -0.49483E-08    88   0.610E-04    0.100E-04
DAV:  24    -0.973965645702E+02   -0.18917E-05   -0.27949E-08    80   0.424E-04    0.444E-05
DAV:  25    -0.973965648890E+02   -0.31874E-06   -0.48169E-09    88   0.197E-04
   1 F= -.97396565E+02 E0= -.97396565E+02  d E =-.973966E+02
       N       E                     dE             d eps       ncg     rms          rms(c)
DAV:   1    -0.974947909440E+02   -0.98226E-01   -0.38587E+00    84   0.756E+00    0.903E-01
DAV:   2    -0.975169953036E+02   -0.22204E-01   -0.25017E-01   120   0.183E+00    0.448E-01
DAV:   3    -0.975147310368E+02    0.22643E-02   -0.73238E-03   120   0.338E-01    0.245E-01
DAV:   4    -0.975143151671E+02    0.41587E-03   -0.41061E-03   112   0.223E-01    0.529E-02
DAV:   5    -0.975142145719E+02    0.10060E-03   -0.55082E-04   112   0.910E-02    0.353E-02
DAV:   6    -0.975142143004E+02    0.27146E-06   -0.72848E-05   120   0.287E-02    0.221E-02
DAV:   7    -0.975142892955E+02   -0.74995E-04   -0.23672E-05   102   0.215E-02    0.519E-03
DAV:   8    -0.975143418468E+02   -0.52551E-04   -0.20364E-05   112   0.164E-02    0.657E-03
DAV:   9    -0.975143778259E+02   -0.35979E-04   -0.30001E-06   112   0.638E-03    0.534E-03
DAV:  10    -0.975144764208E+02   -0.98595E-04   -0.60700E-06   104   0.588E-03    0.267E-03
DAV:  11    -0.975145148095E+02   -0.38389E-04   -0.21148E-06   104   0.399E-03    0.164E-03
DAV:  12    -0.975145617271E+02   -0.46918E-04   -0.24097E-06   104   0.395E-03    0.127E-03
DAV:  13    -0.975145728158E+02   -0.11089E-04   -0.30608E-07    88   0.187E-03    0.487E-04
DAV:  14    -0.975145908811E+02   -0.18065E-04   -0.41318E-07    88   0.164E-03    0.405E-04
DAV:  15    -0.975145964551E+02   -0.55739E-05   -0.12098E-07    88   0.806E-04    0.229E-04
DAV:  16    -0.975146007936E+02   -0.43386E-05   -0.46866E-08    88   0.608E-04    0.124E-04
DAV:  17    -0.975146020976E+02   -0.13040E-05   -0.19451E-08    88   0.379E-04    0.111E-04
DAV:  18    -0.975146030302E+02   -0.93258E-06   -0.93021E-09    88   0.263E-04
   2 F= -.97514603E+02 E0= -.97514603E+02  d E =-.118038E+00
       N       E                     dE             d eps       ncg     rms          rms(c)
DAV:   1    -0.975148358251E+02   -0.23373E-03   -0.77261E-03    84   0.340E-01    0.384E-02
DAV:   2    -0.975148808171E+02   -0.44992E-04   -0.51409E-04   120   0.830E-02    0.209E-02
DAV:   3    -0.975148756521E+02    0.51650E-05   -0.15718E-05   120   0.157E-02    0.112E-02
DAV:   4    -0.975148745361E+02    0.11160E-05   -0.88639E-06   112   0.103E-02    0.261E-03
DAV:   5    -0.975148739646E+02    0.57152E-06   -0.11231E-06    96   0.421E-03
   3 F= -.97514874E+02 E0= -.97514874E+02  d E =-.118309E+00
       N       E                     dE             d eps       ncg     rms          rms(c)
DAV:   1    -0.975457361339E+02   -0.30862E-01   -0.95931E-01    84   0.435E+00    0.337E-01
DAV:   2    -0.975479057138E+02   -0.21696E-02   -0.32608E-02   112   0.623E-01    0.159E-01
DAV:   3    -0.975474356020E+02    0.47011E-03   -0.11585E-03   120   0.125E-01    0.821E-02
DAV:   4    -0.975473428978E+02    0.92704E-04   -0.50028E-04   112   0.755E-02    0.221E-02
DAV:   5    -0.975473580204E+02   -0.15123E-04   -0.38840E-05   110   0.269E-02    0.131E-02
DAV:   6    -0.975473800080E+02   -0.21988E-04   -0.11241E-05   112   0.129E-02    0.417E-03
DAV:   7    -0.975473996932E+02   -0.19685E-04   -0.31329E-06   112   0.654E-03    0.203E-03
DAV:   8    -0.975474176207E+02   -0.17927E-04   -0.66396E-07    88   0.269E-03    0.972E-04
DAV:   9    -0.975474359760E+02   -0.18355E-04   -0.12061E-06    96   0.296E-03    0.696E-04
DAV:  10    -0.975474516534E+02   -0.15677E-04   -0.11876E-06    96   0.277E-03    0.369E-04
DAV:  11    -0.975474562496E+02   -0.45962E-05   -0.20124E-07    88   0.137E-03    0.287E-04
DAV:  12    -0.975474586010E+02   -0.23514E-05   -0.57749E-08    78   0.689E-04    0.161E-04
DAV:  13    -0.975474614915E+02   -0.28905E-05   -0.10255E-07    88   0.785E-04    0.859E-05
DAV:  14    -0.975474623305E+02   -0.83903E-06   -0.24070E-08    88   0.385E-04
   4 F= -.97547462E+02 E0= -.97547462E+02  d E =-.325884E-01
       N       E                     dE             d eps       ncg     rms          rms(c)
DAV:   1    -0.975497875135E+02   -0.23260E-02   -0.13675E-01    84   0.164E+00    0.126E-01
DAV:   2    -0.975500924559E+02   -0.30494E-03   -0.46329E-03   112   0.235E-01    0.597E-02
DAV:   3    -0.975500217429E+02    0.70713E-04   -0.16457E-04   120   0.472E-02    0.305E-02
DAV:   4    -0.975500027504E+02    0.18993E-04   -0.70121E-05   112   0.283E-02    0.826E-03
DAV:   5    -0.975500037109E+02   -0.96058E-06   -0.55030E-06   112   0.101E-02
   5 F= -.97550004E+02 E0= -.97550004E+02  d E =-.351297E-01
       N       E                     dE             d eps       ncg     rms          rms(c)
DAV:   1    -0.975714318078E+02   -0.21429E-01   -0.76874E-01    84   0.384E+00    0.263E-01
DAV:   2    -0.975733814033E+02   -0.19496E-02   -0.27708E-02   112   0.617E-01    0.152E-01
DAV:   3    -0.975730307716E+02    0.35063E-03   -0.95879E-04   120   0.121E-01    0.766E-02
DAV:   4    -0.975730149100E+02    0.15862E-04   -0.42926E-04   104   0.722E-02    0.213E-02
DAV:   5    -0.975730270407E+02   -0.12131E-04   -0.30295E-05   112   0.234E-02    0.787E-03
DAV:   6    -0.975730380141E+02   -0.10973E-04   -0.93403E-06   112   0.105E-02    0.320E-03
DAV:   7    -0.975730508755E+02   -0.12861E-04   -0.11710E-06    88   0.442E-03    0.110E-03
DAV:   8    -0.975730607633E+02   -0.98878E-05   -0.57047E-07    88   0.262E-03    0.827E-04
DAV:   9    -0.975730728976E+02   -0.12134E-04   -0.60128E-07    88   0.208E-03    0.373E-04
DAV:  10    -0.975730823496E+02   -0.94520E-05   -0.61801E-07    88   0.180E-03    0.345E-04
DAV:  11    -0.975730851086E+02   -0.27590E-05   -0.96688E-08    88   0.910E-04    0.158E-04
DAV:  12    -0.975730881403E+02   -0.30317E-05   -0.10918E-07    88   0.768E-04    0.104E-04
DAV:  13    -0.975730896922E+02   -0.15519E-05   -0.44750E-08    88   0.471E-04    0.722E-05
DAV:  14    -0.975730911443E+02   -0.14522E-05   -0.42967E-08    88   0.451E-04    0.302E-05
DAV:  15    -0.975730915304E+02   -0.38603E-06   -0.93373E-09    88   0.227E-04
   6 F= -.97573092E+02 E0= -.97573092E+02  d E =-.230878E-01
       N       E                     dE             d eps       ncg     rms          rms(c)
DAV:   1    -0.975821149467E+02   -0.90238E-02   -0.15576E+00    84   0.546E+00    0.372E-01
DAV:   2    -0.975860889825E+02   -0.39740E-02   -0.56039E-02   112   0.878E-01    0.217E-01
DAV:   3    -0.975853955124E+02    0.69347E-03   -0.19238E-03   120   0.171E-01    0.109E-01
DAV:   4    -0.975853593508E+02    0.36162E-04   -0.86784E-04   112   0.103E-01    0.305E-02
DAV:   5    -0.975853699049E+02   -0.10554E-04   -0.63496E-05   104   0.333E-02    0.112E-02
DAV:   6    -0.975853845219E+02   -0.14617E-04   -0.18182E-05   112   0.147E-02    0.453E-03
DAV:   7    -0.975854039701E+02   -0.19448E-04   -0.22342E-06    96   0.609E-03    0.157E-03
DAV:   8    -0.975854190946E+02   -0.15124E-04   -0.97725E-07    88   0.358E-03    0.115E-03
DAV:   9    -0.975854389154E+02   -0.19821E-04   -0.11733E-06    96   0.279E-03    0.535E-04
DAV:  10    -0.975854546038E+02   -0.15688E-04   -0.96724E-07    88   0.236E-03    0.484E-04
DAV:  11    -0.975854592348E+02   -0.46310E-05   -0.19364E-07    88   0.121E-03    0.225E-04
DAV:  12    -0.975854646872E+02   -0.54524E-05   -0.20843E-07    88   0.108E-03    0.155E-04
DAV:  13    -0.975854674620E+02   -0.27748E-05   -0.94306E-08    88   0.693E-04    0.103E-04
DAV:  14    -0.975854696592E+02   -0.21972E-05   -0.60173E-08    88   0.538E-04    0.578E-05
DAV:  15    -0.975854703303E+02   -0.67110E-06   -0.16824E-08    88   0.309E-04
   7 F= -.97585470E+02 E0= -.97585470E+02  d E =-.354666E-01
       N       E                     dE             d eps       ncg     rms          rms(c)
DAV:   1    -0.975993722507E+02   -0.13903E-01   -0.11051E+00    84   0.470E+00    0.303E-01
DAV:   2    -0.976013740683E+02   -0.20018E-02   -0.29470E-02   120   0.663E-01    0.172E-01
DAV:   3    -0.976009319964E+02    0.44207E-03   -0.11778E-03   120   0.143E-01    0.817E-02
DAV:   4    -0.976009244024E+02    0.75940E-05   -0.57396E-04   112   0.880E-02    0.222E-02
DAV:   5    -0.976009389053E+02   -0.14503E-04   -0.66770E-05   112   0.332E-02    0.109E-02
DAV:   6    -0.976009468761E+02   -0.79708E-05   -0.91103E-06   112   0.108E-02    0.536E-03
DAV:   7    -0.976009589390E+02   -0.12063E-04   -0.98847E-07    86   0.468E-03    0.179E-03
DAV:   8    -0.976009694840E+02   -0.10545E-04   -0.10662E-06    88   0.398E-03    0.109E-03
DAV:   9    -0.976009780054E+02   -0.85214E-05   -0.38144E-07    88   0.253E-03    0.592E-04
DAV:  10    -0.976009882718E+02   -0.10266E-04   -0.62502E-07    88   0.217E-03    0.391E-04
DAV:  11    -0.976009909528E+02   -0.26811E-05   -0.13608E-07    88   0.115E-03    0.267E-04
DAV:  12    -0.976009952310E+02   -0.42782E-05   -0.17305E-07    88   0.106E-03    0.144E-04
DAV:  13    -0.976009968297E+02   -0.15987E-05   -0.59906E-08    88   0.612E-04    0.971E-05
DAV:  14    -0.976009983422E+02   -0.15125E-05   -0.38352E-08    88   0.461E-04    0.498E-05
DAV:  15    -0.976009990024E+02   -0.66022E-06   -0.21703E-08    88   0.327E-04
   8 F= -.97600999E+02 E0= -.97600999E+02  d E =-.155287E-01
       N       E                     dE             d eps       ncg     rms          rms(c)
DAV:   1    -0.976014876960E+02   -0.48935E-03   -0.63549E-02    84   0.113E+00    0.728E-02
DAV:   2    -0.976015996492E+02   -0.11195E-03   -0.16983E-03   112   0.160E-01    0.412E-02
DAV:   3    -0.976015715136E+02    0.28136E-04   -0.67320E-05   120   0.344E-02    0.195E-02
DAV:   4    -0.976015693658E+02    0.21478E-05   -0.32730E-05   112   0.211E-02    0.520E-03
DAV:   5    -0.976015703419E+02   -0.97607E-06   -0.37684E-06   112   0.787E-03
   9 F= -.97601570E+02 E0= -.97601570E+02  d E =-.161000E-01
       N       E                     dE             d eps       ncg     rms          rms(c)
DAV:   1    -0.976087296081E+02   -0.71602E-02   -0.46063E-01    84   0.305E+00    0.178E-01
DAV:   2    -0.976093014627E+02   -0.57185E-03   -0.98581E-03   112   0.376E-01    0.963E-02
DAV:   3    -0.976091473173E+02    0.15415E-03   -0.42671E-04   128   0.812E-02    0.457E-02
DAV:   4    -0.976091238016E+02    0.23516E-04   -0.17242E-04   112   0.488E-02    0.117E-02
DAV:   5    -0.976091242643E+02   -0.46273E-06   -0.18426E-05   112   0.187E-02    0.686E-03
DAV:   6    -0.976091289543E+02   -0.46900E-05   -0.55672E-06   120   0.964E-03    0.300E-03
DAV:   7    -0.976091373536E+02   -0.83994E-05   -0.10585E-06    88   0.488E-03    0.131E-03
DAV:   8    -0.976091468871E+02   -0.95335E-05   -0.58956E-07    88   0.338E-03    0.872E-04
DAV:   9    -0.976091582639E+02   -0.11377E-04   -0.72404E-07    88   0.293E-03    0.404E-04
DAV:  10    -0.976091666433E+02   -0.83794E-05   -0.58228E-07    88   0.219E-03    0.295E-04
DAV:  11    -0.976091713696E+02   -0.47263E-05   -0.19110E-07    88   0.132E-03    0.236E-04
DAV:  12    -0.976091737362E+02   -0.23666E-05   -0.84767E-08    88   0.728E-04    0.159E-04
DAV:  13    -0.976091754032E+02   -0.16671E-05   -0.53553E-08    88   0.522E-04    0.659E-05
DAV:  14    -0.976091762821E+02   -0.87886E-06   -0.22154E-08    88   0.340E-04
  10 F= -.97609176E+02 E0= -.97609176E+02  d E =-.760594E-02
       N       E                     dE             d eps       ncg     rms          rms(c)
DAV:   1    -0.976099454871E+02   -0.77008E-03   -0.10130E-01    84   0.143E+00    0.837E-02
DAV:   2    -0.976100693475E+02   -0.12386E-03   -0.21677E-03   112   0.177E-01    0.451E-02
DAV:   3    -0.976100338891E+02    0.35458E-04   -0.94531E-05   128   0.381E-02    0.214E-02
DAV:   4    -0.976100273953E+02    0.64938E-05   -0.37574E-05   112   0.228E-02    0.546E-03
DAV:   5    -0.976100270438E+02    0.35146E-06   -0.39252E-06   112   0.866E-03
  11 F= -.97610027E+02 E0= -.97610027E+02  d E =-.845670E-02
       N       E                     dE             d eps       ncg     rms          rms(c)
DAV:   1    -0.976124144269E+02   -0.23870E-02   -0.12981E-01    84   0.166E+00    0.964E-02
DAV:   2    -0.976125745233E+02   -0.16010E-03   -0.25253E-03   120   0.200E-01    0.536E-02
DAV:   3    -0.976125430471E+02    0.31476E-04   -0.97928E-05   120   0.394E-02    0.255E-02
DAV:   4    -0.976125397963E+02    0.32508E-05   -0.43631E-05   112   0.227E-02    0.538E-03
DAV:   5    -0.976125393534E+02    0.44293E-06   -0.40265E-06   112   0.853E-03
  12 F= -.97612539E+02 E0= -.97612539E+02  d E =-.251231E-02
       N       E                     dE             d eps       ncg     rms          rms(c)
DAV:   1    -0.976126985305E+02   -0.15873E-03   -0.13968E-02    84   0.543E-01    0.320E-02
DAV:   2    -0.976127165283E+02   -0.17998E-04   -0.28391E-04   120   0.671E-02    0.177E-02
DAV:   3    -0.976127131431E+02    0.33852E-05   -0.10457E-05   120   0.129E-02    0.860E-03
DAV:   4    -0.976127141579E+02   -0.10148E-05   -0.47640E-06   112   0.752E-03    0.185E-03
DAV:   5    -0.976127160945E+02   -0.19366E-05   -0.46024E-07    88   0.301E-03    0.110E-03
DAV:   6    -0.976127189047E+02   -0.28102E-05   -0.27268E-07    88   0.199E-03    0.548E-04
DAV:   7    -0.976127223846E+02   -0.34798E-05   -0.15200E-07    88   0.129E-03    0.303E-04
DAV:   8    -0.976127252800E+02   -0.28955E-05   -0.11004E-07    88   0.859E-04    0.236E-04
DAV:   9    -0.976127277413E+02   -0.24612E-05   -0.10626E-07    88   0.715E-04    0.833E-05
DAV:  10    -0.976127289504E+02   -0.12091E-05   -0.44039E-08    88   0.464E-04    0.774E-05
DAV:  11    -0.976127296133E+02   -0.66295E-06   -0.14622E-08    88   0.286E-04
  13 F= -.97612730E+02 E0= -.97612730E+02  d E =-.270257E-02
       N       E                     dE             d eps       ncg     rms          rms(c)
DAV:   1    -0.976140785580E+02   -0.13496E-02   -0.12778E-01    84   0.161E+00    0.993E-02
DAV:   2    -0.976144078521E+02   -0.32929E-03   -0.45092E-03   120   0.243E-01    0.559E-02
DAV:   3    -0.976143830446E+02    0.24808E-04   -0.11169E-04   120   0.399E-02    0.307E-02
DAV:   4    -0.976143786878E+02    0.43567E-05   -0.43517E-05   112   0.241E-02    0.578E-03
DAV:   5    -0.976143780076E+02    0.68025E-06   -0.57388E-06   120   0.957E-03
  14 F= -.97614378E+02 E0= -.97614378E+02  d E =-.164839E-02
       N       E                     dE             d eps       ncg     rms          rms(c)
DAV:   1    -0.976143811966E+02   -0.25088E-05   -0.33195E-04   104   0.819E-02    0.577E-03
DAV:   2    -0.976143830838E+02   -0.18872E-05   -0.13982E-05   120   0.133E-02    0.318E-03
DAV:   3    -0.976143841362E+02   -0.10524E-05   -0.24173E-07    80   0.211E-03    0.182E-03
DAV:   4    -0.976143864046E+02   -0.22684E-05   -0.26171E-07    88   0.201E-03    0.380E-04
DAV:   5    -0.976143882375E+02   -0.18329E-05   -0.11211E-07    88   0.122E-03    0.271E-04
DAV:   6    -0.976143904729E+02   -0.22354E-05   -0.10530E-07    88   0.940E-04    0.157E-04
DAV:   7    -0.976143921948E+02   -0.17219E-05   -0.66652E-08    88   0.659E-04    0.114E-04
DAV:   8    -0.976143936232E+02   -0.14284E-05   -0.55776E-08    88   0.517E-04    0.601E-05
DAV:   9    -0.976143941393E+02   -0.51609E-06   -0.13231E-08    88   0.279E-04
  15 F= -.97614394E+02 E0= -.97614394E+02  d E =-.166453E-02
       N       E                     dE             d eps       ncg     rms          rms(c)
DAV:   1    -0.976148323339E+02   -0.43871E-03   -0.25050E-02    84   0.721E-01    0.511E-02
DAV:   2    -0.976148641568E+02   -0.31823E-04   -0.64273E-04   120   0.948E-02    0.265E-02
DAV:   3    -0.976148553111E+02    0.88457E-05   -0.32979E-05   120   0.210E-02    0.134E-02
DAV:   4    -0.976148538143E+02    0.14968E-05   -0.98448E-06   112   0.115E-02    0.334E-03
DAV:   5    -0.976148536295E+02    0.18471E-06   -0.94047E-07    88   0.471E-03
  16 F= -.97614854E+02 E0= -.97614854E+02  d E =-.459490E-03
       N       E                     dE             d eps       ncg     rms          rms(c)
DAV:   1    -0.976148633264E+02   -0.95121E-05   -0.75491E-04    88   0.125E-01    0.904E-03
DAV:   2    -0.976148647444E+02   -0.14181E-05   -0.21657E-05   120   0.174E-02    0.459E-03
DAV:   3    -0.976148647123E+02    0.32177E-07   -0.83687E-07    72   0.369E-03
  17 F= -.97614865E+02 E0= -.97614865E+02  d E =-.470573E-03
       N       E                     dE             d eps       ncg     rms          rms(c)
DAV:   1    -0.976149343812E+02   -0.69637E-04   -0.10662E-02    84   0.462E-01    0.338E-02
DAV:   2    -0.976149727542E+02   -0.38373E-04   -0.51617E-04   120   0.836E-02    0.195E-02
DAV:   3    -0.976149697165E+02    0.30378E-05   -0.16459E-05   120   0.157E-02    0.110E-02
DAV:   4    -0.976149687592E+02    0.95723E-06   -0.53000E-06   112   0.866E-03
  18 F= -.97614969E+02 E0= -.97614969E+02  d E =-.104047E-03
       N       E                     dE             d eps       ncg     rms          rms(c)
DAV:   1    -0.976149852802E+02   -0.15564E-04   -0.85106E-04    84   0.130E-01    0.904E-03
DAV:   2    -0.976149886641E+02   -0.33839E-05   -0.39570E-05   120   0.233E-02    0.543E-03
DAV:   3    -0.976149888924E+02   -0.22836E-06   -0.12537E-06    88   0.458E-03
  19 F= -.97614989E+02 E0= -.97614989E+02  d E =-.124180E-03
