       N       E                     dE             d eps       ncg     rms          rms(c)
DAV:   1     0.210349089584E+03    0.21035E+03   -0.10457E+04   116   0.546E+02
DAV:   2    -0.241932854554E+02   -0.23454E+03   -0.21912E+03   144   0.103E+02
DAV:   3    -0.991841642820E+02   -0.74991E+02   -0.74821E+02   112   0.554E+01
DAV:   4    -0.103407023824E+03   -0.42229E+01   -0.42078E+01   104   0.180E+01
DAV:   5    -0.103469167602E+03   -0.62144E-01   -0.62089E-01   136   0.236E+00    0.143E+01
DAV:   6    -0.100330576788E+03    0.31386E+01   -0.15818E+00   112   0.453E+00    0.823E+00
DAV:   7    -0.986949582491E+02    0.16356E+01   -0.38985E+00   104   0.661E+00    0.120E+00
DAV:   8    -0.986391739298E+02    0.55784E-01   -0.27160E-01   112   0.215E+00    0.590E-01
DAV:   9    -0.986039381918E+02    0.35236E-01   -0.69497E-02   112   0.739E-01    0.310E-01
DAV:  10    -0.986039654005E+02   -0.27209E-04   -0.24712E-03   112   0.200E-01    0.140E-01
DAV:  11    -0.986039846840E+02   -0.19283E-04   -0.64764E-03   104   0.236E-01    0.807E-02
DAV:  12    -0.986088758655E+02   -0.48912E-02   -0.13453E-03   104   0.104E-01    0.523E-02
DAV:  13    -0.986131910983E+02   -0.43152E-02   -0.14997E-03   112   0.989E-02    0.334E-02
DAV:  14    -0.986178516332E+02   -0.46605E-02   -0.40267E-04   112   0.596E-02    0.145E-02
DAV:  15    -0.986216266684E+02   -0.37750E-02   -0.42340E-04   112   0.532E-02    0.120E-02
DAV:  16    -0.986226731211E+02   -0.10465E-02   -0.60791E-05   112   0.209E-02    0.580E-03
DAV:  17    -0.986236305673E+02   -0.95745E-03   -0.75484E-05   112   0.207E-02    0.290E-03
DAV:  18    -0.986239092369E+02   -0.27867E-03   -0.98956E-06   104   0.827E-03    0.159E-03
DAV:  19    -0.986240237651E+02   -0.11453E-03   -0.34024E-06   104   0.458E-03    0.117E-03
DAV:  20    -0.986240726508E+02   -0.48886E-04   -0.86988E-07    88   0.299E-03    0.602E-04
DAV:  21    -0.986240935621E+02   -0.20911E-04   -0.67174E-07    88   0.202E-03    0.413E-04
DAV:  22    -0.986241005700E+02   -0.70079E-05   -0.16467E-07    88   0.124E-03    0.220E-04
DAV:  23    -0.986241036873E+02   -0.31173E-05   -0.77486E-08    88   0.722E-04    0.149E-04
DAV:  24    -0.986241055758E+02   -0.18885E-05   -0.26032E-08    88   0.441E-04    0.586E-05
DAV:  25    -0.986241061427E+02   -0.56691E-06   -0.11112E-08    88   0.274E-04
   1 F= -.98624106E+02 E0= -.98624106E+02  d E =-.986241E+02
       N       E                     dE             d eps       ncg     rms          rms(c)
DAV:   1    -0.987527742053E+02   -0.12867E+00   -0.50166E+00    84   0.903E+00    0.103E+00
DAV:   2    -0.987762967257E+02   -0.23523E-01   -0.27834E-01   120   0.204E+00    0.501E-01
DAV:   3    -0.987731846602E+02    0.31121E-02   -0.94070E-03   120   0.395E-01    0.263E-01
DAV:   4    -0.987725424865E+02    0.64217E-03   -0.49964E-03   112   0.255E-01    0.605E-02
DAV:   5    -0.987724006590E+02    0.14183E-03   -0.54488E-04   112   0.998E-02    0.390E-02
DAV:   6    -0.987724023408E+02   -0.16818E-05   -0.10547E-04   120   0.385E-02    0.229E-02
DAV:   7    -0.987725016754E+02   -0.99335E-04   -0.41083E-05   118   0.320E-02    0.626E-03
DAV:   8    -0.987725627496E+02   -0.61074E-04   -0.26985E-05   112   0.207E-02    0.910E-03
DAV:   9    -0.987726005038E+02   -0.37754E-04   -0.26118E-06   112   0.595E-03    0.746E-03
DAV:  10    -0.987727360693E+02   -0.13557E-03   -0.10345E-05   112   0.795E-03    0.401E-03
DAV:  11    -0.987727739302E+02   -0.37861E-04   -0.18243E-06    96   0.439E-03    0.291E-03
DAV:  12    -0.987728352059E+02   -0.61276E-04   -0.34549E-06   104   0.570E-03    0.196E-03
DAV:  13    -0.987728517332E+02   -0.16527E-04   -0.69333E-07    88   0.295E-03    0.730E-04
DAV:  14    -0.987728704883E+02   -0.18755E-04   -0.37263E-07    88   0.186E-03    0.423E-04
DAV:  15    -0.987728841363E+02   -0.13648E-04   -0.36149E-07    88   0.134E-03    0.505E-04
DAV:  16    -0.987728903876E+02   -0.62513E-05   -0.88389E-08    88   0.772E-04    0.200E-04
DAV:  17    -0.987728919700E+02   -0.15824E-05   -0.29652E-08    88   0.442E-04    0.257E-04
DAV:  18    -0.987728938033E+02   -0.18333E-05   -0.25973E-08    88   0.416E-04    0.637E-05
DAV:  19    -0.987728941985E+02   -0.39521E-06   -0.68480E-09    88   0.226E-04
   2 F= -.98772894E+02 E0= -.98772894E+02  d E =-.148788E+00
       N       E                     dE             d eps       ncg     rms          rms(c)
DAV:   1    -0.987731948409E+02   -0.30104E-03   -0.99536E-03    84   0.404E-01    0.438E-02
DAV:   2    -0.987732405088E+02   -0.45668E-04   -0.56170E-04   120   0.917E-02    0.231E-02
DAV:   3    -0.987732328816E+02    0.76272E-05   -0.20165E-05   120   0.183E-02    0.118E-02
DAV:   4    -0.987732303955E+02    0.24861E-05   -0.10408E-05   112   0.116E-02    0.301E-03
DAV:   5    -0.987732296517E+02    0.74382E-06   -0.10211E-06    88   0.449E-03
   3 F= -.98773230E+02 E0= -.98773230E+02  d E =-.149124E+00
       N       E                     dE             d eps       ncg     rms          rms(c)
DAV:   1    -0.988074598542E+02   -0.34229E-01   -0.10028E+00    84   0.441E+00    0.386E-01
DAV:   2    -0.988103876846E+02   -0.29278E-02   -0.40200E-02   120   0.709E-01    0.172E-01
DAV:   3    -0.988099327872E+02    0.45490E-03   -0.16947E-03   120   0.156E-01    0.914E-02
DAV:   4    -0.988098270278E+02    0.10576E-03   -0.52745E-04   112   0.805E-02    0.275E-02
DAV:   5    -0.988098311891E+02   -0.41613E-05   -0.44452E-05   112   0.307E-02    0.158E-02
DAV:   6    -0.988098495575E+02   -0.18368E-04   -0.13904E-05   112   0.167E-02    0.660E-03
DAV:   7    -0.988098772494E+02   -0.27692E-04   -0.66481E-06   112   0.100E-02    0.281E-03
DAV:   8    -0.988098919243E+02   -0.14675E-04   -0.76258E-07    88   0.376E-03    0.182E-03
DAV:   9    -0.988099139782E+02   -0.22054E-04   -0.14553E-06    96   0.348E-03    0.750E-04
DAV:  10    -0.988099260403E+02   -0.12062E-04   -0.63404E-07    88   0.259E-03    0.651E-04
DAV:  11    -0.988099376092E+02   -0.11569E-04   -0.80112E-07    88   0.240E-03    0.368E-04
DAV:  12    -0.988099415899E+02   -0.39807E-05   -0.21117E-07    88   0.135E-03    0.269E-04
DAV:  13    -0.988099428977E+02   -0.13078E-05   -0.25151E-08    88   0.600E-04    0.168E-04
DAV:  14    -0.988099458981E+02   -0.30005E-05   -0.12212E-07    80   0.895E-04    0.930E-05
DAV:  15    -0.988099461821E+02   -0.28395E-06   -0.14302E-08    96   0.368E-04
   4 F= -.98809946E+02 E0= -.98809946E+02  d E =-.367165E-01
       N       E                     dE             d eps       ncg     rms          rms(c)
DAV:   1    -0.988119747550E+02   -0.20289E-02   -0.10357E-01    84   0.142E+00    0.123E-01
DAV:   2    -0.988122799535E+02   -0.30520E-03   -0.42126E-03   120   0.229E-01    0.552E-02
DAV:   3    -0.988122306231E+02    0.49330E-04   -0.18014E-04   120   0.507E-02    0.291E-02
DAV:   4    -0.988122156367E+02    0.14986E-04   -0.54235E-05   112   0.259E-02    0.901E-03
DAV:   5    -0.988122139626E+02    0.16741E-05   -0.46145E-06   120   0.989E-03    0.511E-03
DAV:   6    -0.988122155191E+02   -0.15566E-05   -0.13861E-06    96   0.537E-03    0.210E-03
DAV:   7    -0.988122190128E+02   -0.34937E-05   -0.61774E-07    88   0.329E-03    0.734E-04
DAV:   8    -0.988122217731E+02   -0.27603E-05   -0.16575E-07    88   0.166E-03    0.560E-04
DAV:   9    -0.988122259384E+02   -0.41652E-05   -0.20762E-07    88   0.140E-03    0.245E-04
DAV:  10    -0.988122278838E+02   -0.19455E-05   -0.89293E-08    88   0.929E-04    0.177E-04
DAV:  11    -0.988122296581E+02   -0.17742E-05   -0.68056E-08    88   0.723E-04    0.133E-04
DAV:  12    -0.988122303267E+02   -0.66865E-06   -0.21251E-08    88   0.437E-04
   5 F= -.98812230E+02 E0= -.98812230E+02  d E =-.390007E-01
       N       E                     dE             d eps       ncg     rms          rms(c)
DAV:   1    -0.988280535006E+02   -0.15824E-01   -0.49870E-01    84   0.312E+00    0.218E-01
DAV:   2    -0.988294700528E+02   -0.14166E-02   -0.19913E-02   120   0.516E-01    0.122E-01
DAV:   3    -0.988292657049E+02    0.20435E-03   -0.71533E-04   120   0.103E-01    0.650E-02
DAV:   4    -0.988292345610E+02    0.31144E-04   -0.26802E-04   112   0.567E-02    0.172E-02
DAV:   5    -0.988292329478E+02    0.16133E-05   -0.19019E-05   112   0.184E-02    0.834E-03
DAV:   6    -0.988292389754E+02   -0.60277E-05   -0.66120E-06   112   0.972E-03    0.348E-03
DAV:   7    -0.988292528075E+02   -0.13832E-04   -0.23777E-06    96   0.551E-03    0.158E-03
DAV:   8    -0.988292603040E+02   -0.74966E-05   -0.27160E-07    88   0.197E-03    0.115E-03
DAV:   9    -0.988292733982E+02   -0.13094E-04   -0.57914E-07    88   0.192E-03    0.493E-04
DAV:  10    -0.988292833797E+02   -0.99815E-05   -0.57647E-07    88   0.169E-03    0.470E-04
DAV:  11    -0.988292878164E+02   -0.44367E-05   -0.12366E-07    88   0.109E-03    0.291E-04
DAV:  12    -0.988292925530E+02   -0.47366E-05   -0.21627E-07    88   0.103E-03    0.122E-04
DAV:  13    -0.988292944223E+02   -0.18693E-05   -0.46732E-08    88   0.517E-04    0.900E-05
DAV:  14    -0.988292960916E+02   -0.16693E-05   -0.53796E-08    88   0.477E-04    0.716E-05
DAV:  15    -0.988292965265E+02   -0.43487E-06   -0.68897E-09    88   0.215E-04
   6 F= -.98829297E+02 E0= -.98829297E+02  d E =-.170662E-01
       N       E                     dE             d eps       ncg     rms          rms(c)
DAV:   1    -0.988336608109E+02   -0.43647E-02   -0.48487E-01    84   0.308E+00    0.214E-01
DAV:   2    -0.988350441763E+02   -0.13834E-02   -0.19416E-02   120   0.510E-01    0.121E-01
DAV:   3    -0.988348464006E+02    0.19778E-03   -0.69054E-04   120   0.101E-01    0.643E-02
DAV:   4    -0.988348157577E+02    0.30643E-04   -0.26043E-04   112   0.559E-02    0.169E-02
DAV:   5    -0.988348142274E+02    0.15303E-05   -0.18759E-05   112   0.182E-02    0.821E-03
DAV:   6    -0.988348200244E+02   -0.57970E-05   -0.63852E-06   112   0.955E-03    0.344E-03
DAV:   7    -0.988348334196E+02   -0.13395E-04   -0.22987E-06    94   0.542E-03    0.155E-03
DAV:   8    -0.988348407828E+02   -0.73632E-05   -0.26587E-07    88   0.194E-03    0.112E-03
DAV:   9    -0.988348535252E+02   -0.12742E-04   -0.55861E-07    88   0.188E-03    0.481E-04
DAV:  10    -0.988348633268E+02   -0.98016E-05   -0.56433E-07    88   0.166E-03    0.464E-04
DAV:  11    -0.988348676928E+02   -0.43660E-05   -0.12153E-07    88   0.107E-03    0.283E-04
DAV:  12    -0.988348722852E+02   -0.45923E-05   -0.20818E-07    88   0.101E-03    0.122E-04
DAV:  13    -0.988348741015E+02   -0.18164E-05   -0.44831E-08    88   0.509E-04    0.886E-05
DAV:  14    -0.988348757392E+02   -0.16377E-05   -0.52851E-08    88   0.471E-04    0.681E-05
DAV:  15    -0.988348761579E+02   -0.41867E-06   -0.66013E-09    88   0.210E-04
   7 F= -.98834876E+02 E0= -.98834876E+02  d E =-.226458E-01
       N       E                     dE             d eps       ncg     rms          rms(c)
DAV:   1    -0.988473772061E+02   -0.12501E-01   -0.49034E-01    84   0.319E+00    0.199E-01
DAV:   2    -0.988479184061E+02   -0.54120E-03   -0.10227E-02   112   0.404E-01    0.110E-01
DAV:   3    -0.988477100604E+02    0.20835E-03   -0.56972E-04   120   0.100E-01    0.498E-02
DAV:   4    -0.988477119966E+02   -0.19362E-05   -0.26765E-04   112   0.597E-02    0.150E-02
DAV:   5    -0.988477165464E+02   -0.45498E-05   -0.24726E-05   112   0.203E-02    0.790E-03
DAV:   6    -0.988477195872E+02   -0.30407E-05   -0.38001E-06   112   0.690E-03    0.318E-03
DAV:   7    -0.988477244053E+02   -0.48181E-05   -0.49452E-07    88   0.293E-03    0.929E-04
DAV:   8    -0.988477284082E+02   -0.40029E-05   -0.31774E-07    88   0.216E-03    0.750E-04
DAV:   9    -0.988477327232E+02   -0.43149E-05   -0.14028E-07    88   0.163E-03    0.417E-04
DAV:  10    -0.988477368280E+02   -0.41049E-05   -0.22236E-07    88   0.137E-03    0.289E-04
DAV:  11    -0.988477377599E+02   -0.93184E-06   -0.40569E-08    88   0.722E-04
   8 F= -.98847738E+02 E0= -.98847738E+02  d E =-.128616E-01
       N       E                     dE             d eps       ncg     rms          rms(c)
DAV:   1    -0.988531389003E+02   -0.54021E-02   -0.94977E-01    84   0.444E+00    0.276E-01
DAV:   2    -0.988542010469E+02   -0.10621E-02   -0.19893E-02   112   0.564E-01    0.153E-01
DAV:   3    -0.988538006482E+02    0.40040E-03   -0.11069E-03   120   0.140E-01    0.692E-02
DAV:   4    -0.988538067919E+02   -0.61437E-05   -0.51870E-04   112   0.831E-02    0.210E-02
DAV:   5    -0.988538149114E+02   -0.81195E-05   -0.47755E-05   112   0.283E-02    0.110E-02
DAV:   6    -0.988538206593E+02   -0.57480E-05   -0.73905E-06   112   0.963E-03    0.438E-03
DAV:   7    -0.988538292846E+02   -0.86253E-05   -0.97218E-07    88   0.409E-03    0.132E-03
DAV:   8    -0.988538366012E+02   -0.73166E-05   -0.63534E-07    88   0.304E-03    0.106E-03
DAV:   9    -0.988538443535E+02   -0.77523E-05   -0.29193E-07    88   0.235E-03    0.589E-04
DAV:  10    -0.988538517314E+02   -0.73780E-05   -0.44463E-07    88   0.194E-03    0.405E-04
DAV:  11    -0.988538534975E+02   -0.17660E-05   -0.83305E-08    88   0.102E-03    0.223E-04
DAV:  12    -0.988538562718E+02   -0.27743E-05   -0.91968E-08    88   0.780E-04    0.138E-04
DAV:  13    -0.988538578427E+02   -0.15709E-05   -0.45629E-08    88   0.508E-04    0.100E-04
DAV:  14    -0.988538593744E+02   -0.15317E-05   -0.41554E-08    88   0.450E-04    0.481E-05
DAV:  15    -0.988538598142E+02   -0.43976E-06   -0.98340E-09    88   0.238E-04
   9 F= -.98853860E+02 E0= -.98853860E+02  d E =-.189837E-01
       N       E                     dE             d eps       ncg     rms          rms(c)
DAV:   1    -0.988621780532E+02   -0.83187E-02   -0.56076E-01    84   0.338E+00    0.203E-01
DAV:   2    -0.988629515582E+02   -0.77351E-03   -0.13311E-02   120   0.444E-01    0.112E-01
DAV:   3    -0.988627367761E+02    0.21478E-03   -0.61508E-04   120   0.967E-02    0.545E-02
DAV:   4    -0.988627019373E+02    0.34839E-04   -0.23008E-04   120   0.557E-02    0.142E-02
DAV:   5    -0.988626982384E+02    0.36989E-05   -0.23099E-05   120   0.214E-02    0.752E-03
DAV:   6    -0.988627022887E+02   -0.40502E-05   -0.70536E-06   120   0.108E-02    0.407E-03
DAV:   7    -0.988627129623E+02   -0.10674E-04   -0.75852E-07    88   0.469E-03    0.124E-03
DAV:   8    -0.988627223664E+02   -0.94041E-05   -0.69690E-07    88   0.386E-03    0.103E-03
DAV:   9    -0.988627409214E+02   -0.18555E-04   -0.16554E-06    88   0.455E-03    0.489E-04
DAV:  10    -0.988627456828E+02   -0.47614E-05   -0.45724E-07    88   0.254E-03    0.466E-04
DAV:  11    -0.988627476080E+02   -0.19252E-05   -0.64058E-08    88   0.947E-04    0.372E-04
DAV:  12    -0.988627525332E+02   -0.49253E-05   -0.15672E-07    88   0.108E-03    0.145E-04
DAV:  13    -0.988627559560E+02   -0.34228E-05   -0.16023E-07    88   0.904E-04    0.181E-04
DAV:  14    -0.988627573834E+02   -0.14274E-05   -0.38047E-08    88   0.483E-04    0.775E-05
DAV:  15    -0.988627579033E+02   -0.51985E-06   -0.10408E-08    88   0.266E-04
  10 F= -.98862758E+02 E0= -.98862758E+02  d E =-.889809E-02
       N       E                     dE             d eps       ncg     rms          rms(c)
DAV:   1    -0.988638932097E+02   -0.11358E-02   -0.18946E-01    84   0.196E+00    0.118E-01
DAV:   2    -0.988641498374E+02   -0.25663E-03   -0.44840E-03   120   0.258E-01    0.652E-02
DAV:   3    -0.988640746835E+02    0.75154E-04   -0.20964E-04   120   0.564E-02    0.315E-02
DAV:   4    -0.988640612407E+02    0.13443E-04   -0.76863E-05   120   0.323E-02    0.827E-03
DAV:   5    -0.988640595738E+02    0.16669E-05   -0.76882E-06   120   0.124E-02    0.438E-03
DAV:   6    -0.988640608714E+02   -0.12976E-05   -0.20347E-06    96   0.630E-03    0.223E-03
DAV:   7    -0.988640648763E+02   -0.40049E-05   -0.48040E-07    88   0.363E-03    0.721E-04
DAV:   8    -0.988640688870E+02   -0.40107E-05   -0.35691E-07    88   0.270E-03    0.629E-04
DAV:   9    -0.988640761276E+02   -0.72406E-05   -0.50960E-07    80   0.253E-03    0.277E-04
DAV:  10    -0.988640782827E+02   -0.21551E-05   -0.19879E-07    88   0.151E-03    0.272E-04
DAV:  11    -0.988640794031E+02   -0.11204E-05   -0.41501E-08    88   0.710E-04    0.186E-04
DAV:  12    -0.988640820553E+02   -0.26522E-05   -0.11270E-07    88   0.794E-04    0.800E-05
DAV:  13    -0.988640830294E+02   -0.97411E-06   -0.32727E-08    88   0.414E-04
  11 F= -.98864083E+02 E0= -.98864083E+02  d E =-.102232E-01
       N       E                     dE             d eps       ncg     rms          rms(c)
DAV:   1    -0.988658144401E+02   -0.17324E-02   -0.69762E-02    84   0.119E+00    0.786E-02
DAV:   2    -0.988659984941E+02   -0.18405E-03   -0.23944E-03   120   0.189E-01    0.445E-02
DAV:   3    -0.988659784679E+02    0.20026E-04   -0.73314E-05   120   0.339E-02    0.246E-02
DAV:   4    -0.988659704119E+02    0.80560E-05   -0.29711E-05   112   0.195E-02    0.459E-03
DAV:   5    -0.988659686213E+02    0.17906E-05   -0.31528E-06   112   0.738E-03    0.272E-03
DAV:   6    -0.988659684478E+02    0.17354E-06   -0.71346E-07    88   0.362E-03
  12 F= -.98865968E+02 E0= -.98865968E+02  d E =-.188542E-02
       N       E                     dE             d eps       ncg     rms          rms(c)
DAV:   1    -0.988660480673E+02   -0.79446E-04   -0.54693E-03    84   0.334E-01    0.219E-02
DAV:   2    -0.988660624423E+02   -0.14375E-04   -0.19144E-04   120   0.537E-02    0.126E-02
DAV:   3    -0.988660608680E+02    0.15743E-05   -0.57858E-06   120   0.954E-03    0.705E-03
DAV:   4    -0.988660613875E+02   -0.51947E-06   -0.22583E-06    88   0.556E-03
  13 F= -.98866061E+02 E0= -.98866061E+02  d E =-.197836E-02
       N       E                     dE             d eps       ncg     rms          rms(c)
DAV:   1    -0.988675142398E+02   -0.14534E-02   -0.66397E-02    84   0.117E+00    0.774E-02
DAV:   2    -0.988676284449E+02   -0.11421E-03   -0.21697E-03   120   0.174E-01    0.431E-02
DAV:   3    -0.988676095857E+02    0.18859E-04   -0.89332E-05   120   0.369E-02    0.234E-02
DAV:   4    -0.988676056515E+02    0.39343E-05   -0.22838E-05   112   0.193E-02    0.542E-03
DAV:   5    -0.988676055847E+02    0.66793E-07   -0.42690E-06   112   0.850E-03
  14 F= -.98867606E+02 E0= -.98867606E+02  d E =-.154420E-02
       N       E                     dE             d eps       ncg     rms          rms(c)
DAV:   1    -0.988677999617E+02   -0.19431E-03   -0.20501E-02    84   0.651E-01    0.433E-02
DAV:   2    -0.988678350649E+02   -0.35103E-04   -0.67918E-04   120   0.969E-02    0.240E-02
DAV:   3    -0.988678289951E+02    0.60698E-05   -0.27137E-05   120   0.204E-02    0.131E-02
DAV:   4    -0.988678283258E+02    0.66923E-06   -0.69855E-06   112   0.109E-02
  15 F= -.98867828E+02 E0= -.98867828E+02  d E =-.176694E-02
       N       E                     dE             d eps       ncg     rms          rms(c)
DAV:   1    -0.988684055671E+02   -0.57657E-03   -0.33289E-02    84   0.837E-01    0.590E-02
DAV:   2    -0.988684413806E+02   -0.35813E-04   -0.80789E-04   120   0.106E-01    0.297E-02
DAV:   3    -0.988684319431E+02    0.94374E-05   -0.50611E-05   120   0.267E-02    0.147E-02
DAV:   4    -0.988684336444E+02   -0.17013E-05   -0.13100E-05   112   0.140E-02    0.421E-03
DAV:   5    -0.988684353276E+02   -0.16832E-05   -0.13063E-06    88   0.531E-03    0.236E-03
DAV:   6    -0.988684373213E+02   -0.19937E-05   -0.44870E-07    88   0.293E-03    0.924E-04
DAV:   7    -0.988684396945E+02   -0.23732E-05   -0.21185E-07    88   0.176E-03    0.440E-04
DAV:   8    -0.988684420970E+02   -0.24025E-05   -0.10215E-07    88   0.111E-03    0.240E-04
DAV:   9    -0.988684444860E+02   -0.23890E-05   -0.11950E-07    88   0.973E-04    0.157E-04
DAV:  10    -0.988684456520E+02   -0.11660E-05   -0.46681E-08    88   0.640E-04    0.864E-05
DAV:  11    -0.988684462664E+02   -0.61442E-06   -0.19819E-08    88   0.376E-04
  16 F= -.98868446E+02 E0= -.98868446E+02  d E =-.617941E-03
       N       E                     dE             d eps       ncg     rms          rms(c)
DAV:   1    -0.988684655661E+02   -0.19914E-04   -0.11411E-03    84   0.155E-01    0.109E-02
DAV:   2    -0.988684671181E+02   -0.15521E-05   -0.27623E-05   120   0.195E-02    0.550E-03
DAV:   3    -0.988684669645E+02    0.15359E-06   -0.14844E-06    80   0.490E-03
  17 F= -.98868467E+02 E0= -.98868467E+02  d E =-.638639E-03
       N       E                     dE             d eps       ncg     rms          rms(c)
DAV:   1    -0.988685361882E+02   -0.69070E-04   -0.99700E-03    84   0.433E-01    0.329E-02
DAV:   2    -0.988685864749E+02   -0.50287E-04   -0.59378E-04   120   0.892E-02    0.192E-02
DAV:   3    -0.988685833381E+02    0.31368E-05   -0.14196E-05   128   0.152E-02    0.111E-02
DAV:   4    -0.988685820143E+02    0.13238E-05   -0.59728E-06   112   0.950E-03    0.221E-03
DAV:   5    -0.988685816143E+02    0.40000E-06   -0.91406E-07    88   0.410E-03
  18 F= -.98868582E+02 E0= -.98868582E+02  d E =-.114650E-03
       N       E                     dE             d eps       ncg     rms          rms(c)
DAV:   1    -0.988685945962E+02   -0.12582E-04   -0.67277E-04    84   0.112E-01    0.830E-03
DAV:   2    -0.988685981697E+02   -0.35736E-05   -0.38282E-05   120   0.226E-02    0.498E-03
DAV:   3    -0.988685983187E+02   -0.14895E-06   -0.89887E-07    88   0.403E-03
  19 F= -.98868598E+02 E0= -.98868598E+02  d E =-.131354E-03
