       N       E                     dE             d eps       ncg     rms          rms(c)
DAV:   1     0.210514765275E+03    0.21051E+03   -0.10455E+04   116   0.546E+02
DAV:   2    -0.236933522358E+02   -0.23421E+03   -0.21953E+03   144   0.103E+02
DAV:   3    -0.992411072847E+02   -0.75548E+02   -0.75392E+02   112   0.554E+01
DAV:   4    -0.103542401052E+03   -0.43013E+01   -0.42868E+01   104   0.181E+01
DAV:   5    -0.103607631507E+03   -0.65230E-01   -0.65182E-01   128   0.239E+00    0.144E+01
DAV:   6    -0.100450989935E+03    0.31566E+01   -0.15994E+00   112   0.455E+00    0.826E+00
DAV:   7    -0.988111075115E+02    0.16399E+01   -0.39874E+00   104   0.665E+00    0.121E+00
DAV:   8    -0.987548755983E+02    0.56232E-01   -0.28001E-01   112   0.220E+00    0.596E-01
DAV:   9    -0.987195068638E+02    0.35369E-01   -0.67120E-02   112   0.738E-01    0.318E-01
DAV:  10    -0.987193354784E+02    0.17139E-03   -0.25454E-03   112   0.199E-01    0.136E-01
DAV:  11    -0.987191445246E+02    0.19095E-03   -0.61854E-03   104   0.231E-01    0.838E-02
DAV:  12    -0.987242127058E+02   -0.50682E-02   -0.15662E-03   102   0.111E-01    0.529E-02
DAV:  13    -0.987282834183E+02   -0.40707E-02   -0.14964E-03   112   0.101E-01    0.351E-02
DAV:  14    -0.987331018261E+02   -0.48184E-02   -0.40946E-04   112   0.619E-02    0.150E-02
DAV:  15    -0.987364888519E+02   -0.33870E-02   -0.33501E-04   112   0.479E-02    0.115E-02
DAV:  16    -0.987379086613E+02   -0.14198E-02   -0.10132E-04   112   0.262E-02    0.629E-03
DAV:  17    -0.987388767737E+02   -0.96811E-03   -0.84012E-05   112   0.218E-02    0.340E-03
DAV:  18    -0.987391534684E+02   -0.27669E-03   -0.99506E-06   104   0.820E-03    0.169E-03
DAV:  19    -0.987392479088E+02   -0.94440E-04   -0.25025E-06    96   0.412E-03    0.114E-03
DAV:  20    -0.987392937772E+02   -0.45868E-04   -0.89685E-07    88   0.295E-03    0.512E-04
DAV:  21    -0.987393122527E+02   -0.18475E-04   -0.53447E-07    88   0.183E-03    0.383E-04
DAV:  22    -0.987393193526E+02   -0.70999E-05   -0.17160E-07    88   0.119E-03    0.159E-04
DAV:  23    -0.987393220078E+02   -0.26552E-05   -0.53120E-08    88   0.636E-04    0.110E-04
DAV:  24    -0.987393242187E+02   -0.22108E-05   -0.32777E-08    88   0.456E-04    0.572E-05
DAV:  25    -0.987393245370E+02   -0.31836E-06   -0.63004E-09    88   0.223E-04
   1 F= -.98739325E+02 E0= -.98739325E+02  d E =-.987393E+02
       N       E                     dE             d eps       ncg     rms          rms(c)
DAV:   1    -0.988786376984E+02   -0.13931E+00   -0.60256E+00    84   0.984E+00    0.112E+00
DAV:   2    -0.989032144191E+02   -0.24577E-01   -0.30015E-01   120   0.215E+00    0.544E-01
DAV:   3    -0.988997877502E+02    0.34267E-02   -0.10804E-02   120   0.412E-01    0.282E-01
DAV:   4    -0.988989912664E+02    0.79648E-03   -0.49489E-03   112   0.254E-01    0.629E-02
DAV:   5    -0.988988478082E+02    0.14346E-03   -0.55565E-04   112   0.100E-01    0.397E-02
DAV:   6    -0.988988793709E+02   -0.31563E-04   -0.13425E-04   112   0.437E-02    0.218E-02
DAV:   7    -0.988990383137E+02   -0.15894E-03   -0.56004E-05   118   0.346E-02    0.722E-03
DAV:   8    -0.988991368750E+02   -0.98561E-04   -0.29843E-05   112   0.220E-02    0.918E-03
DAV:   9    -0.988992047881E+02   -0.67913E-04   -0.41180E-06   112   0.774E-03    0.697E-03
DAV:  10    -0.988993770217E+02   -0.17223E-03   -0.16834E-05   112   0.975E-03    0.437E-03
DAV:  11    -0.988993989416E+02   -0.21920E-04   -0.62740E-07    88   0.359E-03    0.237E-03
DAV:  12    -0.988994758490E+02   -0.76907E-04   -0.55039E-06   104   0.679E-03    0.194E-03
DAV:  13    -0.988994816801E+02   -0.58312E-05   -0.46992E-07    88   0.321E-03    0.677E-04
DAV:  14    -0.988994995655E+02   -0.17885E-04   -0.40530E-07    88   0.248E-03    0.785E-04
DAV:  15    -0.988995111346E+02   -0.11569E-04   -0.31620E-07    88   0.162E-03    0.495E-04
DAV:  16    -0.988995174499E+02   -0.63153E-05   -0.10893E-07    88   0.819E-04    0.160E-04
DAV:  17    -0.988995198276E+02   -0.23777E-05   -0.31996E-08    88   0.452E-04    0.321E-04
DAV:  18    -0.988995213858E+02   -0.15582E-05   -0.21792E-08    80   0.449E-04    0.666E-05
DAV:  19    -0.988995218683E+02   -0.48251E-06   -0.80434E-09    88   0.266E-04
   2 F= -.98899522E+02 E0= -.98899522E+02  d E =-.160197E+00
       N       E                     dE             d eps       ncg     rms          rms(c)
DAV:   1    -0.989016710855E+02   -0.21497E-02   -0.67373E-02    84   0.106E+00    0.113E-01
DAV:   2    -0.989019447439E+02   -0.27366E-03   -0.34604E-03   118   0.232E-01    0.598E-02
DAV:   3    -0.989018976193E+02    0.47125E-04   -0.13061E-04   120   0.453E-02    0.302E-02
DAV:   4    -0.989018834503E+02    0.14169E-04   -0.57207E-05   112   0.275E-02    0.756E-03
DAV:   5    -0.989018814859E+02    0.19644E-05   -0.63969E-06   110   0.108E-02    0.439E-03
DAV:   6    -0.989018841439E+02   -0.26580E-05   -0.15473E-06    80   0.488E-03    0.226E-03
DAV:   7    -0.989018914324E+02   -0.72885E-05   -0.10459E-06    76   0.462E-03    0.780E-04
DAV:   8    -0.989018952240E+02   -0.37916E-05   -0.66172E-07    88   0.295E-03    0.116E-03
DAV:   9    -0.989018971870E+02   -0.19630E-05   -0.11860E-07    88   0.124E-03    0.746E-04
DAV:  10    -0.989019033946E+02   -0.62076E-05   -0.54183E-07    88   0.173E-03    0.432E-04
DAV:  11    -0.989019046930E+02   -0.12984E-05   -0.73700E-08    88   0.752E-04    0.320E-04
DAV:  12    -0.989019062048E+02   -0.15118E-05   -0.72230E-08    88   0.704E-04    0.916E-05
DAV:  13    -0.989019070225E+02   -0.81771E-06   -0.35901E-08    88   0.464E-04
   3 F= -.98901907E+02 E0= -.98901907E+02  d E =-.162582E+00
       N       E                     dE             d eps       ncg     rms          rms(c)
DAV:   1    -0.989374401017E+02   -0.35534E-01   -0.82101E-01    84   0.408E+00    0.322E-01
DAV:   2    -0.989392222908E+02   -0.17822E-02   -0.28880E-02   112   0.586E-01    0.147E-01
DAV:   3    -0.989387924163E+02    0.42987E-03   -0.13825E-03   120   0.136E-01    0.768E-02
DAV:   4    -0.989386950135E+02    0.97403E-04   -0.48285E-04   112   0.727E-02    0.236E-02
DAV:   5    -0.989386964571E+02   -0.14436E-05   -0.24775E-05   112   0.242E-02    0.136E-02
DAV:   6    -0.989387141555E+02   -0.17698E-04   -0.13917E-05   112   0.180E-02    0.407E-03
DAV:   7    -0.989387353586E+02   -0.21203E-04   -0.79384E-06   110   0.106E-02    0.284E-03
DAV:   8    -0.989387486330E+02   -0.13274E-04   -0.59427E-07    88   0.306E-03    0.181E-03
DAV:   9    -0.989387651500E+02   -0.16517E-04   -0.92732E-07    88   0.268E-03    0.640E-04
DAV:  10    -0.989387818575E+02   -0.16707E-04   -0.12537E-06    96   0.300E-03    0.652E-04
DAV:  11    -0.989387908858E+02   -0.90284E-05   -0.51721E-07    88   0.203E-03    0.251E-04
DAV:  12    -0.989387943524E+02   -0.34665E-05   -0.15391E-07    88   0.108E-03    0.239E-04
DAV:  13    -0.989387971066E+02   -0.27542E-05   -0.81681E-08    88   0.822E-04    0.159E-04
DAV:  14    -0.989387984183E+02   -0.13117E-05   -0.51157E-08    88   0.519E-04    0.842E-05
DAV:  15    -0.989387988966E+02   -0.47825E-06   -0.94577E-09    88   0.277E-04
   4 F= -.98938799E+02 E0= -.98938799E+02  d E =-.368919E-01
       N       E                     dE             d eps       ncg     rms          rms(c)
DAV:   1    -0.989467439450E+02   -0.79455E-02   -0.49033E-01    84   0.315E+00    0.246E-01
DAV:   2    -0.989478203729E+02   -0.10764E-02   -0.17336E-02   112   0.452E-01    0.113E-01
DAV:   3    -0.989475648314E+02    0.25554E-03   -0.83233E-04   120   0.105E-01    0.590E-02
DAV:   4    -0.989475053389E+02    0.59493E-04   -0.28158E-04   112   0.558E-02    0.183E-02
DAV:   5    -0.989475050118E+02    0.32714E-06   -0.14864E-05   112   0.186E-02    0.104E-02
DAV:   6    -0.989475151626E+02   -0.10151E-04   -0.79935E-06   104   0.135E-02    0.322E-03
DAV:   7    -0.989475286222E+02   -0.13460E-04   -0.46307E-06   110   0.800E-03    0.222E-03
DAV:   8    -0.989475370223E+02   -0.84001E-05   -0.36115E-07    88   0.241E-03    0.141E-03
DAV:   9    -0.989475477344E+02   -0.10712E-04   -0.52949E-07    88   0.202E-03    0.487E-04
DAV:  10    -0.989475591168E+02   -0.11382E-04   -0.71996E-07    88   0.230E-03    0.488E-04
DAV:  11    -0.989475662438E+02   -0.71270E-05   -0.45542E-07    88   0.171E-03    0.214E-04
DAV:  12    -0.989475679448E+02   -0.17010E-05   -0.64236E-08    88   0.801E-04    0.197E-04
DAV:  13    -0.989475698236E+02   -0.18787E-05   -0.51370E-08    80   0.696E-04    0.135E-04
DAV:  14    -0.989475709523E+02   -0.11287E-05   -0.47531E-08    88   0.479E-04    0.103E-04
DAV:  15    -0.989475711694E+02   -0.21718E-06   -0.37020E-09    80   0.220E-04
   5 F= -.98947571E+02 E0= -.98947571E+02  d E =-.456641E-01
       N       E                     dE             d eps       ncg     rms          rms(c)
DAV:   1    -0.989647377573E+02   -0.17167E-01   -0.70715E-01    84   0.361E+00    0.269E-01
DAV:   2    -0.989672008732E+02   -0.24631E-02   -0.34622E-02   104   0.646E-01    0.148E-01
DAV:   3    -0.989669027865E+02    0.29809E-03   -0.11540E-03   120   0.126E-01    0.791E-02
DAV:   4    -0.989668487403E+02    0.54046E-04   -0.36723E-04   112   0.673E-02    0.207E-02
DAV:   5    -0.989668411057E+02    0.76346E-05   -0.28633E-05   112   0.218E-02    0.970E-03
DAV:   6    -0.989668470117E+02   -0.59060E-05   -0.85523E-06   112   0.103E-02    0.435E-03
DAV:   7    -0.989668674162E+02   -0.20405E-04   -0.28489E-06   102   0.539E-03    0.184E-03
DAV:   8    -0.989668829304E+02   -0.15514E-04   -0.48600E-07    88   0.192E-03    0.128E-03
DAV:   9    -0.989669039497E+02   -0.21019E-04   -0.10275E-06    88   0.224E-03    0.557E-04
DAV:  10    -0.989669224567E+02   -0.18507E-04   -0.13599E-06    96   0.230E-03    0.548E-04
DAV:  11    -0.989669302772E+02   -0.78205E-05   -0.20891E-07    88   0.120E-03    0.322E-04
DAV:  12    -0.989669348090E+02   -0.45318E-05   -0.14959E-07    88   0.833E-04    0.212E-04
DAV:  13    -0.989669375570E+02   -0.27480E-05   -0.56174E-08    88   0.577E-04    0.794E-05
DAV:  14    -0.989669384139E+02   -0.85691E-06   -0.16321E-08    88   0.322E-04
   6 F= -.98966938E+02 E0= -.98966938E+02  d E =-.193672E-01
       N       E                     dE             d eps       ncg     rms          rms(c)
DAV:   1    -0.989688495583E+02   -0.19120E-02   -0.18409E-01    84   0.184E+00    0.138E-01
DAV:   2    -0.989694892220E+02   -0.63966E-03   -0.90358E-03   104   0.330E-01    0.755E-02
DAV:   3    -0.989694098888E+02    0.79333E-04   -0.29885E-04   120   0.643E-02    0.404E-02
DAV:   4    -0.989693937750E+02    0.16114E-04   -0.94586E-05   112   0.341E-02    0.104E-02
DAV:   5    -0.989693905929E+02    0.31821E-05   -0.74051E-06   112   0.111E-02    0.490E-03
DAV:   6    -0.989693915369E+02   -0.94402E-06   -0.21421E-06    96   0.525E-03
   7 F= -.98969392E+02 E0= -.98969392E+02  d E =-.218204E-01
       N       E                     dE             d eps       ncg     rms          rms(c)
DAV:   1    -0.989844418087E+02   -0.15051E-01   -0.79500E-01    84   0.407E+00    0.249E-01
DAV:   2    -0.989850753288E+02   -0.63352E-03   -0.15318E-02   112   0.485E-01    0.137E-01
DAV:   3    -0.989847144636E+02    0.36087E-03   -0.99674E-04   120   0.126E-01    0.604E-02
DAV:   4    -0.989847115827E+02    0.28809E-05   -0.38677E-04   112   0.705E-02    0.189E-02
DAV:   5    -0.989847209100E+02   -0.93273E-05   -0.35467E-05   112   0.242E-02    0.889E-03
DAV:   6    -0.989847287641E+02   -0.78541E-05   -0.67410E-06   112   0.943E-03    0.376E-03
DAV:   7    -0.989847403612E+02   -0.11597E-04   -0.80571E-07    88   0.355E-03    0.124E-03
DAV:   8    -0.989847501809E+02   -0.98197E-05   -0.58995E-07    88   0.301E-03    0.891E-04
DAV:   9    -0.989847651554E+02   -0.14974E-04   -0.12627E-06    96   0.381E-03    0.843E-04
DAV:  10    -0.989847685218E+02   -0.33664E-05   -0.27920E-07    88   0.195E-03    0.309E-04
DAV:  11    -0.989847710667E+02   -0.25450E-05   -0.89310E-08    88   0.969E-04    0.227E-04
DAV:  12    -0.989847740346E+02   -0.29678E-05   -0.92912E-08    88   0.755E-04    0.131E-04
DAV:  13    -0.989847763632E+02   -0.23286E-05   -0.91400E-08    88   0.664E-04    0.943E-05
DAV:  14    -0.989847772725E+02   -0.90933E-06   -0.22588E-08    88   0.349E-04
   8 F= -.98984777E+02 E0= -.98984777E+02  d E =-.153857E-01
       N       E                     dE             d eps       ncg     rms          rms(c)
DAV:   1    -0.989882765981E+02   -0.35002E-02   -0.48548E-01    84   0.318E+00    0.195E-01
DAV:   2    -0.989886582483E+02   -0.38165E-03   -0.93794E-03   112   0.379E-01    0.107E-01
DAV:   3    -0.989884299600E+02    0.22829E-03   -0.60595E-04   120   0.980E-02    0.470E-02
DAV:   4    -0.989884225010E+02    0.74590E-05   -0.23426E-04   112   0.550E-02    0.147E-02
DAV:   5    -0.989884270150E+02   -0.45140E-05   -0.21286E-05   112   0.188E-02    0.693E-03
DAV:   6    -0.989884313700E+02   -0.43550E-05   -0.41165E-06   112   0.737E-03    0.293E-03
DAV:   7    -0.989884387539E+02   -0.73839E-05   -0.49048E-07    88   0.278E-03    0.979E-04
DAV:   8    -0.989884451905E+02   -0.64366E-05   -0.35993E-07    88   0.237E-03    0.711E-04
DAV:   9    -0.989884556454E+02   -0.10455E-04   -0.72566E-07    88   0.294E-03    0.630E-04
DAV:  10    -0.989884585088E+02   -0.28634E-05   -0.23062E-07    88   0.159E-03    0.267E-04
DAV:  11    -0.989884602088E+02   -0.17000E-05   -0.51689E-08    88   0.798E-04    0.187E-04
DAV:  12    -0.989884628057E+02   -0.25969E-05   -0.89207E-08    88   0.700E-04    0.971E-05
DAV:  13    -0.989884644603E+02   -0.16546E-05   -0.57320E-08    88   0.525E-04    0.813E-05
DAV:  14    -0.989884651590E+02   -0.69870E-06   -0.13250E-08    88   0.288E-04
   9 F= -.98988465E+02 E0= -.98988465E+02  d E =-.190736E-01
       N       E                     dE             d eps       ncg     rms          rms(c)
DAV:   1    -0.989952389815E+02   -0.67745E-02   -0.43044E-01    84   0.290E+00    0.181E-01
DAV:   2    -0.989960653759E+02   -0.82639E-03   -0.12805E-02   112   0.401E-01    0.983E-02
DAV:   3    -0.989959142271E+02    0.15115E-03   -0.48548E-04   120   0.803E-02    0.487E-02
DAV:   4    -0.989958794205E+02    0.34807E-04   -0.15708E-04   112   0.466E-02    0.122E-02
DAV:   5    -0.989958772410E+02    0.21795E-05   -0.20802E-05   112   0.198E-02    0.603E-03
DAV:   6    -0.989958803854E+02   -0.31445E-05   -0.57324E-06   112   0.911E-03    0.357E-03
DAV:   7    -0.989958875617E+02   -0.71763E-05   -0.60683E-07    88   0.373E-03    0.137E-03
DAV:   8    -0.989958957998E+02   -0.82381E-05   -0.59881E-07    88   0.339E-03    0.874E-04
DAV:   9    -0.989959090020E+02   -0.13202E-04   -0.11276E-06    94   0.361E-03    0.384E-04
DAV:  10    -0.989959145621E+02   -0.55600E-05   -0.39459E-07    88   0.214E-03    0.426E-04
DAV:  11    -0.989959165674E+02   -0.20053E-05   -0.54914E-08    88   0.865E-04    0.297E-04
DAV:  12    -0.989959215174E+02   -0.49500E-05   -0.19194E-07    86   0.112E-03    0.205E-04
DAV:  13    -0.989959224310E+02   -0.91360E-06   -0.33531E-08    88   0.481E-04
  10 F= -.98995922E+02 E0= -.98995922E+02  d E =-.745727E-02
       N       E                     dE             d eps       ncg     rms          rms(c)
DAV:   1    -0.989965135638E+02   -0.59205E-03   -0.80088E-02    84   0.125E+00    0.777E-02
DAV:   2    -0.989966601432E+02   -0.14658E-03   -0.23299E-03   112   0.171E-01    0.422E-02
DAV:   3    -0.989966297197E+02    0.30423E-04   -0.88698E-05   120   0.346E-02    0.206E-02
DAV:   4    -0.989966219897E+02    0.77301E-05   -0.29201E-05   112   0.201E-02    0.519E-03
DAV:   5    -0.989966213726E+02    0.61705E-06   -0.36534E-06   104   0.842E-03
  11 F= -.98996621E+02 E0= -.98996621E+02  d E =-.815621E-02
       N       E                     dE             d eps       ncg     rms          rms(c)
DAV:   1    -0.989978368371E+02   -0.12148E-02   -0.10096E-01    84   0.142E+00    0.946E-02
DAV:   2    -0.989981029395E+02   -0.26610E-03   -0.33916E-03   120   0.237E-01    0.599E-02
DAV:   3    -0.989980680009E+02    0.34939E-04   -0.10661E-04   120   0.466E-02    0.329E-02
DAV:   4    -0.989980623054E+02    0.56956E-05   -0.69631E-05   104   0.331E-02    0.533E-03
DAV:   5    -0.989980623234E+02   -0.18080E-07   -0.12541E-05   112   0.146E-02    0.449E-03
DAV:   6    -0.989980624682E+02   -0.14480E-06   -0.12144E-06    88   0.398E-03
  12 F= -.98998062E+02 E0= -.98998062E+02  d E =-.144110E-02
       N       E                     dE             d eps       ncg     rms          rms(c)
DAV:   1    -0.989980734626E+02   -0.11139E-04   -0.62659E-04    88   0.112E-01    0.722E-03
DAV:   2    -0.989980769660E+02   -0.35034E-05   -0.19255E-05   112   0.180E-02    0.473E-03
DAV:   3    -0.989980788280E+02   -0.18619E-05   -0.61612E-07    86   0.384E-03    0.254E-03
DAV:   4    -0.989980820306E+02   -0.32026E-05   -0.66660E-07    88   0.328E-03    0.426E-04
DAV:   5    -0.989980837476E+02   -0.17170E-05   -0.18289E-07    88   0.181E-03    0.319E-04
DAV:   6    -0.989980852158E+02   -0.14682E-05   -0.50566E-08    88   0.801E-04    0.245E-04
DAV:   7    -0.989980871851E+02   -0.19693E-05   -0.50037E-08    88   0.582E-04    0.917E-05
DAV:   8    -0.989980890614E+02   -0.18764E-05   -0.67924E-08    88   0.571E-04    0.136E-04
DAV:   9    -0.989980898046E+02   -0.74314E-06   -0.16898E-08    88   0.353E-04
  13 F= -.98998090E+02 E0= -.98998090E+02  d E =-.146843E-02
       N       E                     dE             d eps       ncg     rms          rms(c)
DAV:   1    -0.989997362632E+02   -0.16472E-02   -0.70187E-02    84   0.120E+00    0.684E-02
DAV:   2    -0.989997812303E+02   -0.44967E-04   -0.14314E-03   120   0.150E-01    0.422E-02
DAV:   3    -0.989997605119E+02    0.20718E-04   -0.72754E-05   120   0.333E-02    0.200E-02
DAV:   4    -0.989997563866E+02    0.41254E-05   -0.17766E-05   112   0.173E-02    0.469E-03
DAV:   5    -0.989997560163E+02    0.37027E-06   -0.23857E-06    96   0.666E-03
  14 F= -.98999756E+02 E0= -.98999756E+02  d E =-.166621E-02
       N       E                     dE             d eps       ncg     rms          rms(c)
DAV:   1    -0.990004003275E+02   -0.64394E-03   -0.16811E-01    84   0.186E+00    0.106E-01
DAV:   2    -0.990005076965E+02   -0.10737E-03   -0.34521E-03   120   0.232E-01    0.654E-02
DAV:   3    -0.990004563365E+02    0.51360E-04   -0.17499E-04   120   0.517E-02    0.311E-02
DAV:   4    -0.990004474535E+02    0.88831E-05   -0.43024E-05   112   0.271E-02    0.735E-03
DAV:   5    -0.990004491412E+02   -0.16877E-05   -0.64742E-06   112   0.107E-02    0.447E-03
DAV:   6    -0.990004529056E+02   -0.37644E-05   -0.12031E-06    88   0.437E-03    0.175E-03
DAV:   7    -0.990004589781E+02   -0.60725E-05   -0.49193E-07    88   0.277E-03    0.772E-04
DAV:   8    -0.990004679662E+02   -0.89881E-05   -0.54537E-07    88   0.251E-03    0.648E-04
DAV:   9    -0.990004758378E+02   -0.78716E-05   -0.54055E-07    88   0.210E-03    0.252E-04
DAV:  10    -0.990004799723E+02   -0.41345E-05   -0.20540E-07    88   0.127E-03    0.203E-04
DAV:  11    -0.990004820003E+02   -0.20280E-05   -0.54923E-08    88   0.644E-04    0.139E-04
DAV:  12    -0.990004843674E+02   -0.23671E-05   -0.90177E-08    88   0.666E-04    0.664E-05
DAV:  13    -0.990004850816E+02   -0.71425E-06   -0.17461E-08    88   0.325E-04
  15 F= -.99000485E+02 E0= -.99000485E+02  d E =-.239528E-02
       N       E                     dE             d eps       ncg     rms          rms(c)
DAV:   1    -0.990005206326E+02   -0.36265E-04   -0.55708E-03    84   0.339E-01    0.193E-02
DAV:   2    -0.990005247704E+02   -0.41378E-05   -0.11350E-04   120   0.421E-02    0.119E-02
DAV:   3    -0.990005236161E+02    0.11543E-05   -0.57635E-06   120   0.936E-03    0.564E-03
DAV:   4    -0.990005234031E+02    0.21295E-06   -0.12432E-06    88   0.486E-03
  16 F= -.99000523E+02 E0= -.99000523E+02  d E =-.243360E-02
       N       E                     dE             d eps       ncg     rms          rms(c)
DAV:   1    -0.990004814669E+02    0.42149E-04   -0.26308E-02    84   0.703E-01    0.579E-02
DAV:   2    -0.990005997025E+02   -0.11824E-03   -0.13639E-03   120   0.143E-01    0.333E-02
DAV:   3    -0.990005886237E+02    0.11079E-04   -0.34218E-05   120   0.251E-02    0.191E-02
DAV:   4    -0.990005862659E+02    0.23577E-05   -0.20068E-05   112   0.188E-02    0.282E-03
DAV:   5    -0.990005864099E+02   -0.14397E-06   -0.47422E-06   112   0.917E-03
  17 F= -.99000586E+02 E0= -.99000586E+02  d E =-.630068E-04
       N       E                     dE             d eps       ncg     rms          rms(c)
DAV:   1    -0.990006960812E+02   -0.10982E-03   -0.52834E-03    84   0.315E-01    0.251E-02
DAV:   2    -0.990007205405E+02   -0.24459E-04   -0.26811E-04   120   0.637E-02    0.150E-02
DAV:   3    -0.990007196052E+02    0.93526E-06   -0.70802E-06   120   0.115E-02
  18 F= -.99000720E+02 E0= -.99000720E+02  d E =-.196202E-03
