       N       E                     dE             d eps       ncg     rms          rms(c)
DAV:   1     0.250140513172E+03    0.25014E+03   -0.10122E+04   120   0.484E+02
DAV:   2    -0.289590901760E+02   -0.27910E+03   -0.26901E+03   168   0.918E+01
DAV:   3    -0.100419755759E+03   -0.71461E+02   -0.71208E+02   120   0.544E+01
DAV:   4    -0.103548255461E+03   -0.31285E+01   -0.31145E+01   120   0.159E+01
DAV:   5    -0.103607091395E+03   -0.58836E-01   -0.58709E-01   144   0.237E+00    0.144E+01
DAV:   6    -0.100393432036E+03    0.32137E+01   -0.14924E+00   120   0.418E+00    0.823E+00
DAV:   7    -0.987718466161E+02    0.16216E+01   -0.39185E+00   120   0.605E+00    0.127E+00
DAV:   8    -0.987116942818E+02    0.60152E-01   -0.31721E-01   132   0.212E+00    0.645E-01
DAV:   9    -0.986777328585E+02    0.33961E-01   -0.58398E-02   144   0.649E-01    0.350E-01
DAV:  10    -0.986767836878E+02    0.94917E-03   -0.35307E-03   132   0.192E-01    0.135E-01
DAV:  11    -0.986760600837E+02    0.72360E-03   -0.63824E-03   120   0.214E-01    0.113E-01
DAV:  12    -0.986821268503E+02   -0.60668E-02   -0.15035E-03   120   0.103E-01    0.529E-02
DAV:  13    -0.986856394212E+02   -0.35126E-02   -0.17147E-03   120   0.111E-01    0.480E-02
DAV:  14    -0.986886691972E+02   -0.30298E-02   -0.22972E-04   132   0.508E-02    0.198E-02
DAV:  15    -0.986929912311E+02   -0.43220E-02   -0.47362E-04    96   0.544E-02    0.136E-02
DAV:  16    -0.986948225002E+02   -0.18313E-02   -0.14603E-04   132   0.319E-02    0.687E-03
DAV:  17    -0.986956540165E+02   -0.83152E-03   -0.55596E-05   108   0.166E-02    0.595E-03
DAV:  18    -0.986960401846E+02   -0.38617E-03   -0.16963E-05   132   0.976E-03    0.241E-03
DAV:  19    -0.986961737961E+02   -0.13361E-03   -0.45143E-06   108   0.528E-03    0.237E-03
DAV:  20    -0.986962313931E+02   -0.57597E-04   -0.11223E-06    84   0.304E-03    0.836E-04
DAV:  21    -0.986962486292E+02   -0.17236E-04   -0.44912E-07   108   0.176E-03    0.536E-04
DAV:  22    -0.986962642387E+02   -0.15609E-04   -0.26367E-07    84   0.131E-03    0.225E-04
DAV:  23    -0.986962692388E+02   -0.50001E-05   -0.14121E-07    96   0.785E-04    0.186E-04
DAV:  24    -0.986962735851E+02   -0.43464E-05   -0.88978E-08    84   0.629E-04    0.111E-04
DAV:  25    -0.986962739987E+02   -0.41355E-06   -0.39724E-09    96   0.247E-04
   1 F= -.98696274E+02 E0= -.98696274E+02  d E =-.768786E-10
       N       E                     dE             d eps       ncg     rms          rms(c)
DAV:   1    -0.986927289141E+02    0.35447E-02   -0.82354E-02    96   0.809E-01    0.922E-02
DAV:   2    -0.986931243812E+02   -0.39547E-03   -0.41342E-03   120   0.205E-01    0.510E-02
DAV:   3    -0.986931229787E+02    0.14026E-05   -0.12605E-04   144   0.418E-02    0.249E-02
DAV:   4    -0.986931256984E+02   -0.27197E-05   -0.24939E-05   120   0.200E-02    0.637E-03
DAV:   5    -0.986931245942E+02    0.11042E-05   -0.53778E-06   132   0.876E-03    0.359E-03
DAV:   6    -0.986931250207E+02   -0.42648E-06   -0.13376E-06   120   0.386E-03
   2 F= -.98693125E+02 E0= -.98693125E+02  d E =-.860082E-10
       N       E                     dE             d eps       ncg     rms          rms(c)
DAV:   1    -0.986918993570E+02    0.12252E-02   -0.32836E-01    96   0.163E+00    0.189E-01
DAV:   2    -0.986934860645E+02   -0.15867E-02   -0.16446E-02   144   0.406E-01    0.102E-01
DAV:   3    -0.986934856649E+02    0.39953E-06   -0.49277E-04   132   0.820E-02    0.515E-02
DAV:   4    -0.986935019309E+02   -0.16266E-04   -0.10369E-04   108   0.403E-02    0.131E-02
DAV:   5    -0.986934979999E+02    0.39311E-05   -0.22549E-05   132   0.181E-02    0.708E-03
DAV:   6    -0.986934983296E+02   -0.32976E-06   -0.57857E-06   120   0.772E-03
   3 F= -.98693498E+02 E0= -.98693498E+02  d E =-.484632E-11
       N       E                     dE             d eps       ncg     rms          rms(c)
DAV:   1    -0.986925219135E+02    0.97609E-03   -0.16671E-01    96   0.117E+00    0.133E-01
DAV:   2    -0.986932379932E+02   -0.71608E-03   -0.74101E-03   120   0.283E-01    0.700E-02
DAV:   3    -0.986932476936E+02   -0.97004E-05   -0.22713E-04   120   0.565E-02    0.340E-02
DAV:   4    -0.986932592181E+02   -0.11524E-04   -0.41320E-05   108   0.257E-02    0.916E-03
DAV:   5    -0.986932586774E+02    0.54071E-06   -0.87156E-06   132   0.115E-02
   4 F= -.98693259E+02 E0= -.98693259E+02  d E =-.466848E-11
       N       E                     dE             d eps       ncg     rms          rms(c)
DAV:   1    -0.986917931050E+02    0.14661E-02   -0.33414E-01    96   0.169E+00    0.191E-01
DAV:   2    -0.986932660475E+02   -0.14729E-02   -0.15260E-02   108   0.409E-01    0.103E-01
DAV:   3    -0.986932678063E+02   -0.17588E-05   -0.43325E-04   108   0.807E-02    0.510E-02
DAV:   4    -0.986932837307E+02   -0.15924E-04   -0.10791E-04   120   0.414E-02    0.136E-02
DAV:   5    -0.986932789928E+02    0.47380E-05   -0.21654E-05   120   0.182E-02    0.682E-03
DAV:   6    -0.986932789581E+02    0.34669E-07   -0.60067E-06   132   0.827E-03
   5 F= -.98693279E+02 E0= -.98693279E+02  d E =-.538915E-11
       N       E                     dE             d eps       ncg     rms          rms(c)
DAV:   1    -0.986911136413E+02    0.21654E-02   -0.16729E-01    96   0.121E+00    0.144E-01
DAV:   2    -0.986920413804E+02   -0.92774E-03   -0.95918E-03   120   0.326E-01    0.889E-02
DAV:   3    -0.986920188624E+02    0.22518E-04   -0.24357E-04   108   0.622E-02    0.470E-02
DAV:   4    -0.986920269345E+02   -0.80720E-05   -0.99672E-05   120   0.378E-02    0.105E-02
DAV:   5    -0.986920260270E+02    0.90751E-06   -0.20100E-05   120   0.166E-02    0.645E-03
DAV:   6    -0.986920280792E+02   -0.20522E-05   -0.37485E-06   120   0.617E-03    0.388E-03
DAV:   7    -0.986920338474E+02   -0.57682E-05   -0.53762E-07    84   0.266E-03    0.135E-03
DAV:   8    -0.986920396633E+02   -0.58159E-05   -0.41305E-07    96   0.202E-03    0.612E-04
DAV:   9    -0.986920475872E+02   -0.79239E-05   -0.54595E-07    84   0.197E-03    0.503E-04
DAV:  10    -0.986920532903E+02   -0.57031E-05   -0.43775E-07    96   0.150E-03    0.279E-04
DAV:  11    -0.986920555595E+02   -0.22693E-05   -0.78337E-08   108   0.771E-04    0.172E-04
DAV:  12    -0.986920573288E+02   -0.17692E-05   -0.48564E-08    84   0.527E-04    0.859E-05
DAV:  13    -0.986920583231E+02   -0.99434E-06   -0.22518E-08    96   0.335E-04
   6 F= -.98692058E+02 E0= -.98692058E+02  d E =-.570623E-11
       N       E                     dE             d eps       ncg     rms          rms(c)
DAV:   1    -0.986894487565E+02    0.26086E-02   -0.33763E-01    96   0.167E+00    0.250E-01
DAV:   2    -0.986918299696E+02   -0.23812E-02   -0.25335E-02   132   0.508E-01    0.166E-01
DAV:   3    -0.986916806918E+02    0.14928E-03   -0.62350E-04   132   0.998E-02    0.893E-02
DAV:   4    -0.986916711846E+02    0.95072E-05   -0.38941E-04   120   0.706E-02    0.155E-02
DAV:   5    -0.986916634651E+02    0.77195E-05   -0.77528E-05   120   0.309E-02    0.122E-02
DAV:   6    -0.986916636787E+02   -0.21358E-06   -0.11440E-05   120   0.913E-03    0.839E-03
DAV:   7    -0.986916755439E+02   -0.11865E-04   -0.10932E-06    96   0.360E-03    0.375E-03
DAV:   8    -0.986916977127E+02   -0.22169E-04   -0.25594E-06   120   0.538E-03    0.151E-03
DAV:   9    -0.986917125646E+02   -0.14852E-04   -0.12814E-06   120   0.278E-03    0.178E-03
DAV:  10    -0.986917334891E+02   -0.20924E-04   -0.99423E-07   108   0.222E-03    0.890E-04
DAV:  11    -0.986917397670E+02   -0.62779E-05   -0.22031E-07   108   0.113E-03    0.567E-04
DAV:  12    -0.986917486823E+02   -0.89153E-05   -0.28643E-07    84   0.116E-03    0.291E-04
DAV:  13    -0.986917518454E+02   -0.31631E-05   -0.84932E-08   108   0.610E-04    0.260E-04
DAV:  14    -0.986917540167E+02   -0.21712E-05   -0.18258E-08    84   0.376E-04    0.110E-04
DAV:  15    -0.986917555137E+02   -0.14971E-05   -0.24689E-08    84   0.351E-04    0.682E-05
DAV:  16    -0.986917560893E+02   -0.57559E-06    0.22242E-09   108   0.170E-04
   7 F= -.98691756E+02 E0= -.98691756E+02  d E =-.534924E-10
       N       E                     dE             d eps       ncg     rms          rms(c)
DAV:   1    -0.986907780575E+02    0.97746E-03   -0.16892E-01    96   0.120E+00    0.157E-01
DAV:   2    -0.986921147585E+02   -0.13367E-02   -0.14152E-02   132   0.375E-01    0.117E-01
DAV:   3    -0.986920466669E+02    0.68092E-04   -0.33445E-04   144   0.690E-02    0.696E-02
DAV:   4    -0.986920287287E+02    0.17938E-04   -0.15938E-04   108   0.453E-02    0.101E-02
DAV:   5    -0.986920247963E+02    0.39324E-05   -0.36623E-05   132   0.199E-02    0.774E-03
DAV:   6    -0.986920260712E+02   -0.12749E-05   -0.46280E-06   108   0.643E-03    0.497E-03
DAV:   7    -0.986920402074E+02   -0.14136E-04   -0.22400E-06   108   0.446E-03    0.155E-03
DAV:   8    -0.986920562312E+02   -0.16024E-04   -0.11247E-06    96   0.289E-03    0.101E-03
DAV:   9    -0.986920705148E+02   -0.14284E-04   -0.93070E-07   120   0.209E-03    0.105E-03
DAV:  10    -0.986920824677E+02   -0.11953E-04   -0.81373E-07    96   0.173E-03    0.317E-04
DAV:  11    -0.986920853781E+02   -0.29103E-05   -0.74697E-08   108   0.690E-04    0.213E-04
DAV:  12    -0.986920899926E+02   -0.46145E-05   -0.23704E-07    84   0.892E-04    0.131E-04
DAV:  13    -0.986920908713E+02   -0.87866E-06   -0.26152E-08   108   0.365E-04
   8 F= -.98692091E+02 E0= -.98692091E+02  d E =-.515148E-11
       N       E                     dE             d eps       ncg     rms          rms(c)
DAV:   1    -0.986898066701E+02    0.22833E-02   -0.33514E-01    96   0.169E+00    0.240E-01
DAV:   2    -0.986921829890E+02   -0.23763E-02   -0.25135E-02   132   0.498E-01    0.160E-01
DAV:   3    -0.986920420267E+02    0.14096E-03   -0.60685E-04   132   0.980E-02    0.867E-02
DAV:   4    -0.986920342007E+02    0.78260E-05   -0.37140E-04   120   0.694E-02    0.159E-02
DAV:   5    -0.986920271727E+02    0.70280E-05   -0.76792E-05   132   0.309E-02    0.125E-02
DAV:   6    -0.986920274690E+02   -0.29636E-06   -0.10853E-05   120   0.915E-03    0.846E-03
DAV:   7    -0.986920384626E+02   -0.10994E-04   -0.11001E-06   108   0.368E-03    0.366E-03
DAV:   8    -0.986920573851E+02   -0.18922E-04   -0.20506E-06   120   0.487E-03    0.128E-03
DAV:   9    -0.986920717275E+02   -0.14342E-04   -0.12252E-06   120   0.276E-03    0.168E-03
DAV:  10    -0.986920911769E+02   -0.19449E-04   -0.94516E-07    96   0.220E-03    0.791E-04
DAV:  11    -0.986920967108E+02   -0.55339E-05   -0.18480E-07   108   0.107E-03    0.550E-04
DAV:  12    -0.986921047269E+02   -0.80161E-05   -0.24170E-07    84   0.107E-03    0.224E-04
DAV:  13    -0.986921079841E+02   -0.32572E-05   -0.85961E-08   108   0.605E-04    0.240E-04
DAV:  14    -0.986921105046E+02   -0.25205E-05   -0.26295E-08    84   0.412E-04    0.989E-05
DAV:  15    -0.986921116041E+02   -0.10995E-05   -0.14686E-08    96   0.284E-04    0.680E-05
DAV:  16    -0.986921122791E+02   -0.67501E-06    0.12875E-09    84   0.172E-04
   9 F= -.98692112E+02 E0= -.98692112E+02  d E =-.583691E-10
       N       E                     dE             d eps       ncg     rms          rms(c)
DAV:   1    -0.986923415131E+02   -0.22991E-03   -0.16885E-01    96   0.121E+00    0.155E-01
DAV:   2    -0.986933802900E+02   -0.10388E-02   -0.10881E-02   120   0.345E-01    0.103E-01
DAV:   3    -0.986933287819E+02    0.51508E-04   -0.27139E-04   120   0.665E-02    0.571E-02
DAV:   4    -0.986933269376E+02    0.18443E-05   -0.14056E-04   108   0.438E-02    0.112E-02
DAV:   5    -0.986933233148E+02    0.36229E-05   -0.27483E-05   132   0.189E-02    0.795E-03
DAV:   6    -0.986933243296E+02   -0.10148E-05   -0.41843E-06   132   0.633E-03    0.525E-03
DAV:   7    -0.986933314857E+02   -0.71561E-05   -0.62284E-07    84   0.290E-03    0.185E-03
DAV:   8    -0.986933400130E+02   -0.85273E-05   -0.74131E-07   108   0.263E-03    0.776E-04
DAV:   9    -0.986933496644E+02   -0.96514E-05   -0.73634E-07    96   0.224E-03    0.821E-04
DAV:  10    -0.986933579593E+02   -0.82950E-05   -0.53568E-07    84   0.173E-03    0.446E-04
DAV:  11    -0.986933605186E+02   -0.25593E-05   -0.12086E-07   108   0.839E-04    0.312E-04
DAV:  12    -0.986933631144E+02   -0.25957E-05   -0.78279E-08    84   0.642E-04    0.118E-04
DAV:  13    -0.986933647981E+02   -0.16837E-05   -0.68167E-08    96   0.527E-04    0.157E-04
DAV:  14    -0.986933656887E+02   -0.89060E-06   -0.14892E-08    84   0.294E-04
  10 F= -.98693366E+02 E0= -.98693366E+02  d E =-.467952E-11
       N       E                     dE             d eps       ncg     rms          rms(c)
DAV:   1    -0.986918297471E+02    0.15351E-02   -0.33448E-01    96   0.169E+00    0.189E-01
DAV:   2    -0.986932404754E+02   -0.14107E-02   -0.14780E-02   108   0.399E-01    0.100E-01
DAV:   3    -0.986932349294E+02    0.55461E-05   -0.43749E-04   132   0.806E-02    0.474E-02
DAV:   4    -0.986932459103E+02   -0.10981E-04   -0.10012E-04   132   0.398E-02    0.132E-02
DAV:   5    -0.986932424788E+02    0.34315E-05   -0.19293E-05   132   0.174E-02    0.633E-03
DAV:   6    -0.986932444658E+02   -0.19870E-05   -0.59362E-06   132   0.826E-03    0.306E-03
DAV:   7    -0.986932490899E+02   -0.46241E-05   -0.58840E-07    96   0.297E-03    0.140E-03
DAV:   8    -0.986932556423E+02   -0.65523E-05   -0.46910E-07    96   0.266E-03    0.712E-04
DAV:   9    -0.986932621807E+02   -0.65384E-05   -0.39121E-07    96   0.212E-03    0.456E-04
DAV:  10    -0.986932687902E+02   -0.66095E-05   -0.42674E-07    96   0.190E-03    0.217E-04
DAV:  11    -0.986932716563E+02   -0.28661E-05   -0.12279E-07    96   0.111E-03    0.238E-04
DAV:  12    -0.986932735359E+02   -0.18796E-05   -0.34744E-08    84   0.537E-04    0.133E-04
DAV:  13    -0.986932755663E+02   -0.20304E-05   -0.58691E-08    84   0.497E-04    0.746E-05
DAV:  14    -0.986932764797E+02   -0.91341E-06   -0.13861E-08    96   0.274E-04
  11 F= -.98693276E+02 E0= -.98693276E+02  d E =-.873822E-10
       N       E                     dE             d eps       ncg     rms          rms(c)
DAV:   1    -0.986921899525E+02    0.10856E-02   -0.16689E-01    96   0.119E+00    0.134E-01
DAV:   2    -0.986929265352E+02   -0.73658E-03   -0.77197E-03   108   0.289E-01    0.724E-02
DAV:   3    -0.986929226120E+02    0.39232E-05   -0.23036E-04   132   0.585E-02    0.347E-02
DAV:   4    -0.986929285319E+02   -0.59199E-05   -0.53683E-05   120   0.294E-02    0.940E-03
DAV:   5    -0.986929265482E+02    0.19837E-05   -0.11128E-05   132   0.132E-02    0.458E-03
DAV:   6    -0.986929275734E+02   -0.10252E-05   -0.30629E-06   132   0.593E-03    0.241E-03
DAV:   7    -0.986929301128E+02   -0.25393E-05   -0.27515E-07   108   0.199E-03    0.107E-03
DAV:   8    -0.986929336542E+02   -0.35414E-05   -0.25029E-07    96   0.195E-03    0.545E-04
DAV:   9    -0.986929373957E+02   -0.37415E-05   -0.20446E-07    84   0.157E-03    0.357E-04
DAV:  10    -0.986929413555E+02   -0.39599E-05   -0.23950E-07    84   0.144E-03    0.215E-04
DAV:  11    -0.986929428336E+02   -0.14780E-05   -0.58794E-08    96   0.826E-04    0.192E-04
DAV:  12    -0.986929439335E+02   -0.10999E-05   -0.15383E-08    84   0.406E-04    0.105E-04
DAV:  13    -0.986929453961E+02   -0.14626E-05   -0.39398E-08    84   0.415E-04    0.721E-05
DAV:  14    -0.986929460173E+02   -0.62126E-06   -0.70155E-09    96   0.225E-04
  12 F= -.98692946E+02 E0= -.98692946E+02  d E =-.613131E-10
       N       E                     dE             d eps       ncg     rms          rms(c)
DAV:   1    -0.986915937069E+02    0.13517E-02   -0.33159E-01    96   0.163E+00    0.203E-01
DAV:   2    -0.986932607747E+02   -0.16671E-02   -0.17407E-02   144   0.431E-01    0.117E-01
DAV:   3    -0.986932294899E+02    0.31285E-04   -0.46511E-04   144   0.808E-02    0.677E-02
DAV:   4    -0.986932360063E+02   -0.65164E-05   -0.13791E-04   108   0.460E-02    0.148E-02
DAV:   5    -0.986932325990E+02    0.34072E-05   -0.32425E-05   132   0.211E-02    0.813E-03
DAV:   6    -0.986932342559E+02   -0.16569E-05   -0.56489E-06   132   0.798E-03    0.483E-03
DAV:   7    -0.986932419277E+02   -0.76718E-05   -0.11005E-06   108   0.358E-03    0.182E-03
DAV:   8    -0.986932506034E+02   -0.86757E-05   -0.43678E-07    96   0.240E-03    0.812E-04
DAV:   9    -0.986932619486E+02   -0.11345E-04   -0.84841E-07    96   0.258E-03    0.779E-04
DAV:  10    -0.986932730825E+02   -0.11134E-04   -0.88581E-07   108   0.228E-03    0.368E-04
DAV:  11    -0.986932753771E+02   -0.22946E-05   -0.70648E-08   108   0.936E-04    0.325E-04
DAV:  12    -0.986932781133E+02   -0.27363E-05   -0.54310E-08    84   0.617E-04    0.140E-04
DAV:  13    -0.986932807223E+02   -0.26090E-05   -0.92820E-08    84   0.624E-04    0.157E-04
DAV:  14    -0.986932816562E+02   -0.93391E-06   -0.10172E-08    96   0.319E-04
  13 F= -.98693282E+02 E0= -.98693282E+02  d E =-.509058E-11
       N       E                     dE             d eps       ncg     rms          rms(c)
DAV:   1    -0.986907642634E+02    0.25165E-02   -0.16574E-01    96   0.123E+00    0.152E-01
DAV:   2    -0.986920011854E+02   -0.12369E-02   -0.12790E-02   108   0.367E-01    0.104E-01
DAV:   3    -0.986919579464E+02    0.43239E-04   -0.28709E-04   132   0.653E-02    0.592E-02
DAV:   4    -0.986919501343E+02    0.78121E-05   -0.12906E-04   132   0.423E-02    0.105E-02
DAV:   5    -0.986919445143E+02    0.56201E-05   -0.29811E-05   132   0.194E-02    0.715E-03
DAV:   6    -0.986919426402E+02    0.18740E-05   -0.51555E-06   132   0.735E-03    0.422E-03
DAV:   7    -0.986919482242E+02   -0.55840E-05   -0.15189E-06   120   0.463E-03    0.168E-03
DAV:   8    -0.986919574421E+02   -0.92178E-05   -0.12052E-06   132   0.375E-03    0.111E-03
DAV:   9    -0.986919681478E+02   -0.10706E-04   -0.58337E-07   108   0.226E-03    0.845E-04
DAV:  10    -0.986919775437E+02   -0.93958E-05   -0.45614E-07    96   0.153E-03    0.355E-04
DAV:  11    -0.986919841409E+02   -0.65972E-05   -0.22412E-07    96   0.950E-04    0.196E-04
DAV:  12    -0.986919875316E+02   -0.33908E-05   -0.64022E-08    96   0.548E-04    0.121E-04
DAV:  13    -0.986919899432E+02   -0.24115E-05   -0.46093E-08    84   0.443E-04    0.841E-05
DAV:  14    -0.986919911809E+02   -0.12378E-05   -0.12655E-08    96   0.281E-04    0.296E-05
DAV:  15    -0.986919916056E+02   -0.42463E-06    0.27040E-10    84   0.162E-04
  14 F= -.98691992E+02 E0= -.98691992E+02  d E =-.686629E-10
       N       E                     dE             d eps       ncg     rms          rms(c)
DAV:   1    -0.986897596161E+02    0.22316E-02   -0.34581E-01    96   0.158E+00    0.227E-01
DAV:   2    -0.986918023261E+02   -0.20427E-02   -0.21025E-02   144   0.440E-01    0.161E-01
DAV:   3    -0.986917347171E+02    0.67609E-04   -0.51148E-04   132   0.819E-02    0.838E-02
DAV:   4    -0.986917101088E+02    0.24608E-04   -0.22590E-04   132   0.505E-02    0.146E-02
DAV:   5    -0.986917088639E+02    0.12450E-05   -0.33195E-05   132   0.199E-02    0.930E-03
DAV:   6    -0.986917243902E+02   -0.15526E-04   -0.14556E-05   132   0.105E-02    0.520E-03
DAV:   7    -0.986917555811E+02   -0.31191E-04   -0.38329E-06   132   0.591E-03    0.210E-03
DAV:   8    -0.986917882508E+02   -0.32670E-04   -0.27710E-06   108   0.416E-03    0.132E-03
DAV:   9    -0.986918244780E+02   -0.36227E-04   -0.44446E-06   120   0.430E-03    0.105E-03
DAV:  10    -0.986918428487E+02   -0.18371E-04   -0.15276E-06   120   0.256E-03    0.489E-04
DAV:  11    -0.986918508649E+02   -0.80162E-05   -0.35481E-07    96   0.121E-03    0.315E-04
DAV:  12    -0.986918562194E+02   -0.53545E-05   -0.26516E-07    84   0.954E-04    0.205E-04
DAV:  13    -0.986918588590E+02   -0.26396E-05   -0.87643E-08    96   0.566E-04    0.973E-05
DAV:  14    -0.986918598416E+02   -0.98255E-06   -0.69033E-09    84   0.273E-04
  15 F= -.98691860E+02 E0= -.98691860E+02  d E =-.925604E-10
       N       E                     dE             d eps       ncg     rms          rms(c)
DAV:   1    -0.986922191770E+02   -0.36032E-03   -0.16849E-01    96   0.110E+00    0.153E-01
DAV:   2    -0.986932260833E+02   -0.10069E-02   -0.10289E-02   108   0.299E-01    0.102E-01
DAV:   3    -0.986932007819E+02    0.25301E-04   -0.24250E-04   132   0.587E-02    0.528E-02
DAV:   4    -0.986932016402E+02   -0.85833E-06   -0.11543E-04   132   0.399E-02    0.105E-02
DAV:   5    -0.986931976689E+02    0.39713E-05   -0.25399E-05   108   0.182E-02    0.684E-03
DAV:   6    -0.986931970870E+02    0.58194E-06   -0.54859E-06   132   0.690E-03
  16 F= -.98693197E+02 E0= -.98693197E+02  d E =-.516322E-11
       N       E                     dE             d eps       ncg     rms          rms(c)
DAV:   1    -0.986917715522E+02    0.14261E-02   -0.33454E-01    96   0.148E+00    0.195E-01
DAV:   2    -0.986931703572E+02   -0.13988E-02   -0.13853E-02   132   0.348E-01    0.111E-01
DAV:   3    -0.986932101352E+02   -0.39778E-04   -0.43870E-04   120   0.774E-02    0.566E-02
DAV:   4    -0.986932405022E+02   -0.30367E-04   -0.11680E-04   144   0.481E-02    0.115E-02
DAV:   5    -0.986932414441E+02   -0.94191E-06   -0.35178E-05   132   0.217E-02    0.838E-03
DAV:   6    -0.986932428621E+02   -0.14180E-05   -0.54695E-06   132   0.724E-03    0.443E-03
DAV:   7    -0.986932464502E+02   -0.35881E-05   -0.72376E-07   108   0.359E-03    0.198E-03
DAV:   8    -0.986932523789E+02   -0.59287E-05   -0.73533E-07    96   0.353E-03    0.916E-04
DAV:   9    -0.986932583186E+02   -0.59396E-05   -0.39593E-07   108   0.243E-03    0.664E-04
DAV:  10    -0.986932646053E+02   -0.62867E-05   -0.32554E-07    96   0.200E-03    0.285E-04
DAV:  11    -0.986932676064E+02   -0.30011E-05   -0.14554E-07    96   0.120E-03    0.281E-04
DAV:  12    -0.986932696897E+02   -0.20833E-05   -0.33034E-08   108   0.559E-04    0.153E-04
DAV:  13    -0.986932721421E+02   -0.24525E-05   -0.78615E-08    84   0.579E-04    0.102E-04
DAV:  14    -0.986932730614E+02   -0.91929E-06   -0.15751E-08    96   0.301E-04
  17 F= -.98693273E+02 E0= -.98693273E+02  d E =-.882629E-10
       N       E                     dE             d eps       ncg     rms          rms(c)
DAV:   1    -0.986905885036E+02    0.26836E-02   -0.16902E-01    96   0.108E+00    0.147E-01
DAV:   2    -0.986915101866E+02   -0.92168E-03   -0.93526E-03   108   0.293E-01    0.955E-02
DAV:   3    -0.986914961204E+02    0.14066E-04   -0.24818E-04   144   0.590E-02    0.498E-02
DAV:   4    -0.986915031233E+02   -0.70029E-05   -0.10702E-04   132   0.415E-02    0.102E-02
DAV:   5    -0.986915005994E+02    0.25239E-05   -0.29889E-05   132   0.195E-02    0.732E-03
DAV:   6    -0.986914995120E+02    0.10874E-05   -0.52226E-06   132   0.685E-03    0.400E-03
DAV:   7    -0.986915021588E+02   -0.26468E-05   -0.11498E-06    96   0.397E-03    0.175E-03
DAV:   8    -0.986915080333E+02   -0.58745E-05   -0.63101E-07    96   0.298E-03    0.747E-04
DAV:   9    -0.986915143683E+02   -0.63350E-05   -0.47819E-07    84   0.221E-03    0.812E-04
DAV:  10    -0.986915226640E+02   -0.82957E-05   -0.44077E-07    96   0.187E-03    0.284E-04
DAV:  11    -0.986915259778E+02   -0.33138E-05   -0.13703E-07    96   0.100E-03    0.225E-04
DAV:  12    -0.986915289841E+02   -0.30062E-05   -0.69501E-08    84   0.656E-04    0.121E-04
DAV:  13    -0.986915305332E+02   -0.15491E-05   -0.34488E-08    96   0.431E-04    0.712E-05
DAV:  14    -0.986915316758E+02   -0.11426E-05   -0.14329E-08    84   0.288E-04    0.382E-05
DAV:  15    -0.986915319830E+02   -0.30716E-06    0.26079E-09   108   0.137E-04
  18 F= -.98691532E+02 E0= -.98691532E+02  d E =-.772976E-10
       N       E                     dE             d eps       ncg     rms          rms(c)
DAV:   1    -0.986890296501E+02    0.25020E-02   -0.35064E-01    96   0.155E+00    0.240E-01
DAV:   2    -0.986915903628E+02   -0.25607E-02   -0.26106E-02   132   0.478E-01    0.178E-01
DAV:   3    -0.986914730730E+02    0.11729E-03   -0.60730E-04   156   0.925E-02    0.960E-02
DAV:   4    -0.986914677603E+02    0.53126E-05   -0.40247E-04   120   0.684E-02    0.168E-02
DAV:   5    -0.986914610410E+02    0.67194E-05   -0.91783E-05   132   0.311E-02    0.122E-02
DAV:   6    -0.986914664053E+02   -0.53643E-05   -0.20965E-05   120   0.112E-02    0.742E-03
DAV:   7    -0.986914901149E+02   -0.23710E-04   -0.33720E-06   120   0.550E-03    0.311E-03
DAV:   8    -0.986915250898E+02   -0.34975E-04   -0.39894E-06   132   0.472E-03    0.123E-03
DAV:   9    -0.986915528152E+02   -0.27725E-04   -0.30469E-06   120   0.365E-03    0.166E-03
DAV:  10    -0.986915727141E+02   -0.19899E-04   -0.15265E-06   120   0.265E-03    0.581E-04
DAV:  11    -0.986915817137E+02   -0.89996E-05   -0.49422E-07   108   0.148E-03    0.310E-04
DAV:  12    -0.986915873310E+02   -0.56174E-05   -0.27581E-07    84   0.102E-03    0.238E-04
DAV:  13    -0.986915895308E+02   -0.21997E-05   -0.68866E-08    96   0.523E-04    0.155E-04
DAV:  14    -0.986915908601E+02   -0.13293E-05   -0.17346E-08    84   0.344E-04    0.444E-05
DAV:  15    -0.986915913846E+02   -0.52449E-06   -0.41663E-09    96   0.211E-04
  19 F= -.98691591E+02 E0= -.98691591E+02  d E =-.938686E-10
       N       E                     dE             d eps       ncg     rms          rms(c)
DAV:   1    -0.986912304341E+02    0.36043E-03   -0.18339E-01    96   0.124E+00    0.164E-01
DAV:   2    -0.986926344924E+02   -0.14041E-02   -0.15454E-02   108   0.371E-01    0.110E-01
DAV:   3    -0.986925738190E+02    0.60673E-04   -0.31604E-04   156   0.653E-02    0.647E-02
DAV:   4    -0.986925464765E+02    0.27343E-04   -0.15324E-04   120   0.469E-02    0.111E-02
DAV:   5    -0.986925418380E+02    0.46385E-05   -0.44862E-05   132   0.228E-02    0.813E-03
DAV:   6    -0.986925404027E+02    0.14352E-05   -0.47956E-06   120   0.747E-03    0.499E-03
DAV:   7    -0.986925505938E+02   -0.10191E-04   -0.31622E-06   132   0.601E-03    0.202E-03
DAV:   8    -0.986925689091E+02   -0.18315E-04   -0.14151E-06    96   0.421E-03    0.105E-03
DAV:   9    -0.986925851262E+02   -0.16217E-04   -0.11422E-06   108   0.293E-03    0.126E-03
DAV:  10    -0.986925981567E+02   -0.13030E-04   -0.58570E-07    84   0.188E-03    0.343E-04
DAV:  11    -0.986926039674E+02   -0.58107E-05   -0.31202E-07    96   0.111E-03    0.248E-04
DAV:  12    -0.986926083133E+02   -0.43459E-05   -0.13379E-07    84   0.754E-04    0.139E-04
DAV:  13    -0.986926103959E+02   -0.20826E-05   -0.61309E-08    96   0.512E-04    0.101E-04
DAV:  14    -0.986926117148E+02   -0.13189E-05   -0.25570E-08    84   0.359E-04    0.433E-05
DAV:  15    -0.986926121479E+02   -0.43308E-06   -0.15578E-09    96   0.200E-04
  20 F= -.98692612E+02 E0= -.98692612E+02  d E =-.667367E-10
       N       E                     dE             d eps       ncg     rms          rms(c)
DAV:   1    -0.986912731609E+02    0.13386E-02   -0.40006E-01    96   0.159E+00    0.214E-01
DAV:   2    -0.986928057160E+02   -0.15326E-02   -0.18598E-02   108   0.380E-01    0.113E-01
DAV:   3    -0.986927188313E+02    0.86885E-04   -0.33065E-04   144   0.589E-02    0.579E-02
DAV:   4    -0.986926656685E+02    0.53163E-04   -0.77177E-05   120   0.328E-02    0.119E-02
DAV:   5    -0.986926523600E+02    0.13308E-04   -0.14848E-05   132   0.156E-02    0.640E-03
DAV:   6    -0.986926558957E+02   -0.35357E-05   -0.59720E-06   108   0.869E-03    0.336E-03
DAV:   7    -0.986926712683E+02   -0.15373E-04   -0.29611E-06   120   0.585E-03    0.183E-03
DAV:   8    -0.986926919664E+02   -0.20698E-04   -0.12354E-06    96   0.357E-03    0.114E-03
DAV:   9    -0.986927134158E+02   -0.21449E-04   -0.12847E-06   108   0.275E-03    0.679E-04
DAV:  10    -0.986927306532E+02   -0.17237E-04   -0.83520E-07   108   0.192E-03    0.389E-04
DAV:  11    -0.986927388689E+02   -0.82157E-05   -0.16741E-07    96   0.971E-04    0.231E-04
DAV:  12    -0.986927456576E+02   -0.67887E-05   -0.18771E-07    84   0.873E-04    0.137E-04
DAV:  13    -0.986927477295E+02   -0.20719E-05   -0.27425E-08    96   0.435E-04    0.793E-05
DAV:  14    -0.986927492573E+02   -0.15278E-05   -0.11786E-08    84   0.313E-04    0.439E-05
DAV:  15    -0.986927496676E+02   -0.41036E-06    0.13760E-09   108   0.156E-04
  21 F= -.98692750E+02 E0= -.98692750E+02  d E =-.822015E-10
       N       E                     dE             d eps       ncg     rms          rms(c)
DAV:   1    -0.986911233460E+02    0.16259E-02   -0.20018E-01    96   0.113E+00    0.151E-01
DAV:   2    -0.986919191890E+02   -0.79584E-03   -0.97053E-03   108   0.272E-01    0.847E-02
DAV:   3    -0.986918690052E+02    0.50184E-04   -0.17528E-04   144   0.441E-02    0.440E-02
DAV:   4    -0.986918367153E+02    0.32290E-04   -0.50510E-05   108   0.272E-02    0.834E-03
DAV:   5    -0.986918320436E+02    0.46717E-05   -0.10814E-05   132   0.125E-02    0.492E-03
DAV:   6    -0.986918382789E+02   -0.62353E-05   -0.40576E-06   108   0.602E-03    0.271E-03
DAV:   7    -0.986918510677E+02   -0.12789E-04   -0.13989E-06   108   0.354E-03    0.141E-03
DAV:   8    -0.986918692215E+02   -0.18154E-04   -0.15948E-06    96   0.304E-03    0.798E-04
DAV:   9    -0.986918815871E+02   -0.12366E-04   -0.95888E-07   108   0.220E-03    0.605E-04
DAV:  10    -0.986918930917E+02   -0.11505E-04   -0.91429E-07    96   0.185E-03    0.257E-04
DAV:  11    -0.986918971774E+02   -0.40857E-05   -0.14842E-07    96   0.843E-04    0.241E-04
DAV:  12    -0.986919011229E+02   -0.39455E-05   -0.19779E-07    84   0.868E-04    0.983E-05
DAV:  13    -0.986919019905E+02   -0.86756E-06   -0.24248E-08    96   0.366E-04
  22 F= -.98691902E+02 E0= -.98691902E+02  d E =-.815053E-10
       N       E                     dE             d eps       ncg     rms          rms(c)
DAV:   1    -0.986903391976E+02    0.15619E-02   -0.39910E-01   108   0.158E+00    0.218E-01
DAV:   2    -0.986919833899E+02   -0.16442E-02   -0.20049E-02   108   0.392E-01    0.132E-01
DAV:   3    -0.986918593291E+02    0.12406E-03   -0.29249E-04   132   0.602E-02    0.700E-02
DAV:   4    -0.986918012336E+02    0.58096E-04   -0.15668E-04   108   0.451E-02    0.111E-02
DAV:   5    -0.986917918043E+02    0.94292E-05   -0.38226E-05   132   0.216E-02    0.708E-03
DAV:   6    -0.986918020587E+02   -0.10254E-04   -0.11193E-05   108   0.822E-03    0.408E-03
DAV:   7    -0.986918246380E+02   -0.22579E-04   -0.12258E-06   108   0.316E-03    0.210E-03
DAV:   8    -0.986918604761E+02   -0.35838E-04   -0.41443E-06   108   0.429E-03    0.122E-03
DAV:   9    -0.986918833628E+02   -0.22887E-04   -0.14592E-06   120   0.261E-03    0.810E-04
DAV:  10    -0.986919041512E+02   -0.20788E-04   -0.16300E-06    96   0.245E-03    0.384E-04
DAV:  11    -0.986919119451E+02   -0.77938E-05   -0.20163E-07    96   0.109E-03    0.271E-04
DAV:  12    -0.986919190289E+02   -0.70838E-05   -0.29261E-07    84   0.105E-03    0.152E-04
DAV:  13    -0.986919209252E+02   -0.18962E-05   -0.34677E-08   108   0.437E-04    0.103E-04
DAV:  14    -0.986919228643E+02   -0.19391E-05   -0.26833E-08    84   0.379E-04    0.590E-05
DAV:  15    -0.986919233816E+02   -0.51730E-06   -0.10831E-09    96   0.191E-04
  23 F= -.98691923E+02 E0= -.98691923E+02  d E =-.768737E-10
       N       E                     dE             d eps       ncg     rms          rms(c)
DAV:   1    -0.986922893001E+02   -0.36644E-03   -0.19869E-01    96   0.113E+00    0.155E-01
DAV:   2    -0.986931471705E+02   -0.85787E-03   -0.10409E-02   108   0.285E-01    0.896E-02
DAV:   3    -0.986930910385E+02    0.56132E-04   -0.16685E-04   132   0.443E-02    0.487E-02
DAV:   4    -0.986930619010E+02    0.29137E-04   -0.72011E-05   120   0.316E-02    0.818E-03
DAV:   5    -0.986930571933E+02    0.47078E-05   -0.17007E-05   132   0.148E-02    0.525E-03
DAV:   6    -0.986930616604E+02   -0.44671E-05   -0.52268E-06   108   0.616E-03    0.306E-03
DAV:   7    -0.986930727050E+02   -0.11045E-04   -0.86164E-07   108   0.285E-03    0.155E-03
DAV:   8    -0.986930908137E+02   -0.18109E-04   -0.17894E-06    96   0.296E-03    0.846E-04
DAV:   9    -0.986931018229E+02   -0.11009E-04   -0.60768E-07    96   0.186E-03    0.627E-04
DAV:  10    -0.986931152444E+02   -0.13421E-04   -0.13371E-06    96   0.208E-03    0.243E-04
DAV:  11    -0.986931201664E+02   -0.49220E-05   -0.18402E-07    96   0.102E-03    0.235E-04
DAV:  12    -0.986931232700E+02   -0.31036E-05   -0.11243E-07    84   0.699E-04    0.134E-04
DAV:  13    -0.986931246618E+02   -0.13918E-05   -0.31692E-08    96   0.387E-04    0.706E-05
DAV:  14    -0.986931255584E+02   -0.89663E-06   -0.63601E-09    84   0.251E-04
  24 F= -.98693126E+02 E0= -.98693126E+02  d E =-.744895E-10
       N       E                     dE             d eps       ncg     rms          rms(c)
DAV:   1    -0.986917916147E+02    0.13330E-02   -0.39766E-01    96   0.157E+00    0.220E-01
DAV:   2    -0.986932949267E+02   -0.15033E-02   -0.18020E-02   132   0.366E-01    0.100E-01
DAV:   3    -0.986932387385E+02    0.56188E-04   -0.36016E-04   144   0.628E-02    0.530E-02
DAV:   4    -0.986932136710E+02    0.25068E-04   -0.82445E-05   132   0.393E-02    0.117E-02
DAV:   5    -0.986932078401E+02    0.58309E-05   -0.28476E-05   132   0.202E-02    0.753E-03
DAV:   6    -0.986932083923E+02   -0.55221E-06   -0.43899E-06   132   0.728E-03
  25 F= -.98693208E+02 E0= -.98693208E+02  d E =-.495983E-11
       N       E                     dE             d eps       ncg     rms          rms(c)
DAV:   1    -0.986910085382E+02    0.21993E-02   -0.19905E-01    96   0.136E+00    0.164E-01
DAV:   2    -0.986920511029E+02   -0.10426E-02   -0.12335E-02   132   0.344E-01    0.846E-02
DAV:   3    -0.986920165481E+02    0.34555E-04   -0.23974E-04   132   0.542E-02    0.481E-02
DAV:   4    -0.986920095715E+02    0.69766E-05   -0.75230E-05   108   0.356E-02    0.102E-02
DAV:   5    -0.986920060424E+02    0.35291E-05   -0.24023E-05   120   0.177E-02    0.676E-03
DAV:   6    -0.986920062403E+02   -0.19797E-06   -0.35087E-06   120   0.640E-03
  26 F= -.98692006E+02 E0= -.98692006E+02  d E =-.793551E-10
       N       E                     dE             d eps       ncg     rms          rms(c)
DAV:   1    -0.986908012281E+02    0.12048E-02   -0.40945E-01   120   0.187E+00    0.216E-01
DAV:   2    -0.986923491781E+02   -0.15480E-02   -0.18455E-02   108   0.451E-01    0.125E-01
DAV:   3    -0.986922655128E+02    0.83665E-04   -0.25552E-04   108   0.574E-02    0.668E-02
DAV:   4    -0.986922079067E+02    0.57606E-04   -0.13554E-04   132   0.440E-02    0.109E-02
DAV:   5    -0.986921963126E+02    0.11594E-04   -0.28987E-05   132   0.197E-02    0.712E-03
DAV:   6    -0.986921999673E+02   -0.36547E-05   -0.96295E-06   120   0.920E-03    0.400E-03
DAV:   7    -0.986922147808E+02   -0.14813E-04   -0.16322E-06   108   0.431E-03    0.204E-03
DAV:   8    -0.986922396620E+02   -0.24881E-04   -0.27486E-06   108   0.403E-03    0.105E-03
DAV:   9    -0.986922559878E+02   -0.16326E-04   -0.12437E-06   108   0.261E-03    0.851E-04
DAV:  10    -0.986922730907E+02   -0.17103E-04   -0.14837E-06    96   0.246E-03    0.311E-04
DAV:  11    -0.986922785513E+02   -0.54606E-05   -0.20773E-07    96   0.107E-03    0.309E-04
DAV:  12    -0.986922840332E+02   -0.54819E-05   -0.28662E-07    84   0.109E-03    0.112E-04
DAV:  13    -0.986922852838E+02   -0.12507E-05   -0.44668E-08    96   0.469E-04    0.935E-05
DAV:  14    -0.986922863745E+02   -0.10907E-05   -0.10704E-08    84   0.307E-04    0.429E-05
DAV:  15    -0.986922869822E+02   -0.60769E-06   -0.69943E-09    96   0.236E-04
  27 F= -.98692287E+02 E0= -.98692287E+02  d E =-.484191E-11
       N       E                     dE             d eps       ncg     rms          rms(c)
DAV:   1    -0.986919174261E+02    0.36895E-03   -0.20120E-01    96   0.136E+00    0.150E-01
DAV:   2    -0.986926703671E+02   -0.75294E-03   -0.92698E-03   108   0.321E-01    0.922E-02
DAV:   3    -0.986926035958E+02    0.66771E-04   -0.12383E-04   132   0.414E-02    0.492E-02
DAV:   4    -0.986925670877E+02    0.36508E-04   -0.76240E-05   108   0.329E-02    0.770E-03
DAV:   5    -0.986925628861E+02    0.42017E-05   -0.19193E-05   132   0.160E-02    0.535E-03
DAV:   6    -0.986925683946E+02   -0.55086E-05   -0.55816E-06   108   0.631E-03    0.297E-03
DAV:   7    -0.986925815891E+02   -0.13194E-04   -0.58020E-07    96   0.219E-03    0.150E-03
DAV:   8    -0.986926036644E+02   -0.22075E-04   -0.24084E-06    96   0.325E-03    0.923E-04
DAV:   9    -0.986926196194E+02   -0.15955E-04   -0.10488E-06   108   0.219E-03    0.581E-04
DAV:  10    -0.986926302981E+02   -0.10679E-04   -0.64535E-07    84   0.164E-03    0.291E-04
DAV:  11    -0.986926353493E+02   -0.50513E-05   -0.20217E-07    96   0.904E-04    0.174E-04
DAV:  12    -0.986926390987E+02   -0.37494E-05   -0.14538E-07    84   0.733E-04    0.110E-04
DAV:  13    -0.986926400356E+02   -0.93688E-06   -0.12432E-08   108   0.304E-04
  28 F= -.98692640E+02 E0= -.98692640E+02  d E =-.880913E-10
       N       E                     dE             d eps       ncg     rms          rms(c)
DAV:   1    -0.986913036372E+02    0.13355E-02   -0.40228E-01   108   0.193E+00    0.215E-01
DAV:   2    -0.986926519679E+02   -0.13483E-02   -0.16506E-02   108   0.426E-01    0.111E-01
DAV:   3    -0.986925654662E+02    0.86502E-04   -0.27746E-04   132   0.606E-02    0.566E-02
DAV:   4    -0.986925227365E+02    0.42730E-04   -0.97994E-05   132   0.398E-02    0.108E-02
DAV:   5    -0.986925131691E+02    0.95674E-05   -0.22078E-05   132   0.185E-02    0.693E-03
DAV:   6    -0.986925158941E+02   -0.27251E-05   -0.72806E-06   108   0.868E-03    0.378E-03
DAV:   7    -0.986925266016E+02   -0.10708E-04   -0.10509E-06    96   0.432E-03    0.193E-03
DAV:   8    -0.986925469053E+02   -0.20304E-04   -0.18774E-06    96   0.429E-03    0.120E-03
DAV:   9    -0.986925644510E+02   -0.17546E-04   -0.10438E-06    96   0.293E-03    0.793E-04
DAV:  10    -0.986925782182E+02   -0.13767E-04   -0.74631E-07    96   0.197E-03    0.384E-04
DAV:  11    -0.986925864141E+02   -0.81959E-05   -0.22732E-07    84   0.109E-03    0.263E-04
DAV:  12    -0.986925920916E+02   -0.56775E-05   -0.14119E-07    96   0.806E-04    0.183E-04
DAV:  13    -0.986925945924E+02   -0.25008E-05   -0.43649E-08    84   0.454E-04    0.979E-05
DAV:  14    -0.986925962798E+02   -0.16874E-05   -0.16118E-08    96   0.327E-04    0.619E-05
DAV:  15    -0.986925969068E+02   -0.62703E-06   -0.18857E-09    84   0.195E-04
  29 F= -.98692597E+02 E0= -.98692597E+02  d E =-.753320E-10
       N       E                     dE             d eps       ncg     rms          rms(c)
DAV:   1    -0.986921258118E+02    0.47047E-03   -0.20124E-01   108   0.136E+00    0.146E-01
DAV:   2    -0.986928467350E+02   -0.72092E-03   -0.90132E-03   108   0.315E-01    0.840E-02
DAV:   3    -0.986927873939E+02    0.59341E-04   -0.12527E-04   144   0.398E-02    0.442E-02
DAV:   4    -0.986927441031E+02    0.43291E-04   -0.47837E-05   120   0.256E-02    0.764E-03
DAV:   5    -0.986927409806E+02    0.31224E-05   -0.74653E-06   132   0.115E-02    0.435E-03
DAV:   6    -0.986927526268E+02   -0.11646E-04   -0.50106E-06   132   0.811E-03    0.223E-03
DAV:   7    -0.986927701174E+02   -0.17491E-04   -0.22904E-06   108   0.501E-03    0.151E-03
DAV:   8    -0.986927903807E+02   -0.20263E-04   -0.14293E-06   108   0.306E-03    0.792E-04
DAV:   9    -0.986928079103E+02   -0.17530E-04   -0.15959E-06   108   0.278E-03    0.556E-04
DAV:  10    -0.986928207025E+02   -0.12792E-04   -0.11647E-06   108   0.220E-03    0.229E-04
DAV:  11    -0.986928252770E+02   -0.45744E-05   -0.21200E-07   108   0.103E-03    0.187E-04
DAV:  12    -0.986928275018E+02   -0.22248E-05   -0.78890E-08    96   0.580E-04    0.901E-05
DAV:  13    -0.986928287021E+02   -0.12003E-05   -0.33495E-08    96   0.392E-04    0.454E-05
DAV:  14    -0.986928292835E+02   -0.58140E-06   -0.49447E-09    84   0.242E-04
  30 F= -.98692829E+02 E0= -.98692829E+02  d E =-.594981E-10
       N       E                     dE             d eps       ncg     rms          rms(c)
DAV:   1    -0.986919088501E+02    0.91985E-03   -0.40898E-01   120   0.188E+00    0.183E-01
DAV:   2    -0.986932271597E+02   -0.13183E-02   -0.16131E-02   120   0.407E-01    0.998E-02
DAV:   3    -0.986931614735E+02    0.65686E-04   -0.27783E-04   144   0.585E-02    0.514E-02
DAV:   4    -0.986931157380E+02    0.45736E-04   -0.72769E-05   132   0.358E-02    0.944E-03
DAV:   5    -0.986931067154E+02    0.90226E-05   -0.21034E-05   132   0.182E-02    0.624E-03
DAV:   6    -0.986931098899E+02   -0.31745E-05   -0.61606E-06   132   0.853E-03    0.381E-03
DAV:   7    -0.986931217053E+02   -0.11815E-04   -0.11375E-06   108   0.478E-03    0.176E-03
DAV:   8    -0.986931398719E+02   -0.18167E-04   -0.17069E-06    96   0.448E-03    0.129E-03
DAV:   9    -0.986931619638E+02   -0.22092E-04   -0.15681E-06    96   0.349E-03    0.678E-04
DAV:  10    -0.986931740531E+02   -0.12089E-04   -0.51012E-07    96   0.191E-03    0.505E-04
DAV:  11    -0.986931813713E+02   -0.73182E-05   -0.19068E-07    84   0.102E-03    0.249E-04
DAV:  12    -0.986931884245E+02   -0.70532E-05   -0.22574E-07    84   0.953E-04    0.213E-04
DAV:  13    -0.986931907194E+02   -0.22949E-05   -0.36445E-08   108   0.452E-04    0.114E-04
DAV:  14    -0.986931927444E+02   -0.20250E-05   -0.29321E-08    84   0.361E-04    0.577E-05
DAV:  15    -0.986931934513E+02   -0.70698E-06   -0.16278E-09    96   0.198E-04
  31 F= -.98693193E+02 E0= -.98693193E+02  d E =-.698392E-11
       N       E                     dE             d eps       ncg     rms          rms(c)
DAV:   1    -0.986908332833E+02    0.23595E-02   -0.20057E-01   120   0.135E+00    0.146E-01
DAV:   2    -0.986919508494E+02   -0.11176E-02   -0.13475E-02   108   0.355E-01    0.857E-02
DAV:   3    -0.986919117261E+02    0.39123E-04   -0.20132E-04   132   0.460E-02    0.509E-02
DAV:   4    -0.986918762772E+02    0.35449E-04   -0.69647E-05   132   0.320E-02    0.868E-03
DAV:   5    -0.986918700313E+02    0.62458E-05   -0.17252E-05   132   0.153E-02    0.531E-03
DAV:   6    -0.986918738820E+02   -0.38507E-05   -0.45694E-06   108   0.760E-03    0.300E-03
DAV:   7    -0.986918864670E+02   -0.12585E-04   -0.15631E-06   108   0.453E-03    0.141E-03
DAV:   8    -0.986919039598E+02   -0.17493E-04   -0.11210E-06    96   0.329E-03    0.840E-04
DAV:   9    -0.986919207892E+02   -0.16829E-04   -0.11822E-06    96   0.275E-03    0.651E-04
DAV:  10    -0.986919347468E+02   -0.13958E-04   -0.10069E-06   108   0.216E-03    0.346E-04
DAV:  11    -0.986919387151E+02   -0.39683E-05   -0.89824E-08   108   0.835E-04    0.234E-04
DAV:  12    -0.986919431891E+02   -0.44740E-05   -0.19871E-07    84   0.922E-04    0.112E-04
DAV:  13    -0.986919439356E+02   -0.74654E-06   -0.14253E-08   108   0.347E-04
  32 F= -.98691944E+02 E0= -.98691944E+02  d E =-.694535E-10
       N       E                     dE             d eps       ncg     rms          rms(c)
DAV:   1    -0.986907073087E+02    0.12359E-02   -0.40914E-01   120   0.186E+00    0.215E-01
DAV:   2    -0.986922387755E+02   -0.15315E-02   -0.18738E-02   108   0.456E-01    0.127E-01
DAV:   3    -0.986921195788E+02    0.11920E-03   -0.25766E-04   132   0.577E-02    0.682E-02
DAV:   4    -0.986920565055E+02    0.63073E-04   -0.13773E-04   120   0.450E-02    0.110E-02
DAV:   5    -0.986920511770E+02    0.53285E-05   -0.32036E-05   132   0.205E-02    0.715E-03
DAV:   6    -0.986920630370E+02   -0.11860E-04   -0.11026E-05   120   0.955E-03    0.418E-03
DAV:   7    -0.986920867698E+02   -0.23733E-04   -0.17794E-06   108   0.422E-03    0.218E-03
DAV:   8    -0.986921252198E+02   -0.38450E-04   -0.44141E-06   120   0.476E-03    0.123E-03
DAV:   9    -0.986921473165E+02   -0.22097E-04   -0.16022E-06   120   0.290E-03    0.911E-04
DAV:  10    -0.986921691062E+02   -0.21790E-04   -0.18983E-06   108   0.276E-03    0.350E-04
DAV:  11    -0.986921757341E+02   -0.66279E-05   -0.21385E-07   108   0.112E-03    0.336E-04
DAV:  12    -0.986921827399E+02   -0.70059E-05   -0.34287E-07    84   0.119E-03    0.134E-04
DAV:  13    -0.986921841152E+02   -0.13752E-05   -0.43768E-08    96   0.483E-04    0.110E-04
DAV:  14    -0.986921855682E+02   -0.14531E-05   -0.14884E-08    84   0.351E-04    0.469E-05
DAV:  15    -0.986921863045E+02   -0.73626E-06   -0.81817E-09    96   0.254E-04
  33 F= -.98692186E+02 E0= -.98692186E+02  d E =-.484393E-11
       N       E                     dE             d eps       ncg     rms          rms(c)
DAV:   1    -0.986917704969E+02    0.41507E-03   -0.20399E-01   120   0.137E+00    0.154E-01
DAV:   2    -0.986924536295E+02   -0.68313E-03   -0.83907E-03   108   0.304E-01    0.776E-02
DAV:   3    -0.986924088824E+02    0.44747E-04   -0.12931E-04   132   0.403E-02    0.411E-02
DAV:   4    -0.986923798283E+02    0.29054E-04   -0.43298E-05   120   0.258E-02    0.755E-03
DAV:   5    -0.986923737185E+02    0.61099E-05   -0.99885E-06   132   0.124E-02    0.452E-03
DAV:   6    -0.986923747644E+02   -0.10459E-05   -0.35222E-06   108   0.672E-03    0.243E-03
DAV:   7    -0.986923819864E+02   -0.72220E-05   -0.10000E-06    96   0.405E-03    0.133E-03
DAV:   8    -0.986923943383E+02   -0.12352E-04   -0.10712E-06    96   0.333E-03    0.843E-04
DAV:   9    -0.986924054503E+02   -0.11112E-04   -0.61509E-07    84   0.223E-03    0.583E-04
DAV:  10    -0.986924150162E+02   -0.95659E-05   -0.42634E-07    96   0.143E-03    0.269E-04
DAV:  11    -0.986924208262E+02   -0.58100E-05   -0.15535E-07    84   0.808E-04    0.200E-04
DAV:  12    -0.986924251048E+02   -0.42785E-05   -0.84460E-08    96   0.610E-04    0.891E-05
DAV:  13    -0.986924269927E+02   -0.18879E-05   -0.31458E-08    84   0.372E-04    0.565E-05
DAV:  14    -0.986924282309E+02   -0.12382E-05   -0.96149E-09    96   0.265E-04    0.338E-05
DAV:  15    -0.986924285344E+02   -0.30355E-06    0.23962E-09   108   0.132E-04
  34 F= -.98692429E+02 E0= -.98692429E+02  d E =-.896966E-10
       N       E                     dE             d eps       ncg     rms          rms(c)
DAV:   1    -0.986910063555E+02    0.14219E-02   -0.40150E-01   108   0.192E+00    0.219E-01
DAV:   2    -0.986924393305E+02   -0.14330E-02   -0.17739E-02   108   0.443E-01    0.117E-01
DAV:   3    -0.986923345384E+02    0.10479E-03   -0.25781E-04   144   0.580E-02    0.623E-02
DAV:   4    -0.986922599198E+02    0.74619E-04   -0.97228E-05   120   0.375E-02    0.112E-02
DAV:   5    -0.986922558920E+02    0.40277E-05   -0.17022E-05   132   0.167E-02    0.680E-03
DAV:   6    -0.986922734690E+02   -0.17577E-04   -0.86722E-06   120   0.103E-02    0.335E-03
DAV:   7    -0.986923013205E+02   -0.27852E-04   -0.40486E-06   132   0.669E-03    0.216E-03
DAV:   8    -0.986923360246E+02   -0.34704E-04   -0.28773E-06   108   0.441E-03    0.110E-03
DAV:   9    -0.986923621437E+02   -0.26119E-04   -0.25214E-06   108   0.364E-03    0.852E-04
DAV:  10    -0.986923825523E+02   -0.20409E-04   -0.18528E-06   108   0.280E-03    0.344E-04
DAV:  11    -0.986923896420E+02   -0.70897E-05   -0.32186E-07    96   0.127E-03    0.267E-04
DAV:  12    -0.986923944871E+02   -0.48451E-05   -0.21013E-07    84   0.910E-04    0.129E-04
DAV:  13    -0.986923964038E+02   -0.19166E-05   -0.64855E-08    96   0.529E-04    0.723E-05
DAV:  14    -0.986923974702E+02   -0.10664E-05   -0.14245E-08    84   0.330E-04    0.489E-05
DAV:  15    -0.986923977871E+02   -0.31689E-06    0.13697E-09   108   0.160E-04
  35 F= -.98692398E+02 E0= -.98692398E+02  d E =-.700207E-10
       N       E                     dE             d eps       ncg     rms          rms(c)
DAV:   1    -0.986925110025E+02   -0.11353E-03   -0.20296E-01    96   0.134E+00    0.147E-01
DAV:   2    -0.986931566313E+02   -0.64563E-03   -0.78100E-03   108   0.285E-01    0.692E-02
DAV:   3    -0.986931278419E+02    0.28789E-04   -0.14335E-04   132   0.432E-02    0.358E-02
DAV:   4    -0.986931141945E+02    0.13647E-04   -0.39823E-05   108   0.280E-02    0.734E-03
DAV:   5    -0.986931114897E+02    0.27047E-05   -0.13501E-05   132   0.138E-02    0.513E-03
DAV:   6    -0.986931122183E+02   -0.72855E-06   -0.22868E-06   108   0.499E-03
  36 F= -.98693112E+02 E0= -.98693112E+02  d E =-.796750E-10
       N       E                     dE             d eps       ncg     rms          rms(c)
DAV:   1    -0.986922067266E+02    0.90476E-03   -0.41164E-01    96   0.185E+00    0.188E-01
DAV:   2    -0.986934941994E+02   -0.12875E-02   -0.15381E-02   120   0.389E-01    0.912E-02
DAV:   3    -0.986934580719E+02    0.36128E-04   -0.29476E-04   144   0.610E-02    0.482E-02
DAV:   4    -0.986934388049E+02    0.19267E-04   -0.73782E-05   108   0.389E-02    0.922E-03
DAV:   5    -0.986934366783E+02    0.21266E-05   -0.26765E-05   132   0.194E-02    0.705E-03
DAV:   6    -0.986934389239E+02   -0.22456E-05   -0.40803E-06   132   0.673E-03    0.456E-03
DAV:   7    -0.986934459233E+02   -0.69993E-05   -0.71436E-07    96   0.385E-03    0.189E-03
DAV:   8    -0.986934565721E+02   -0.10649E-04   -0.11937E-06   108   0.395E-03    0.114E-03
DAV:   9    -0.986934728821E+02   -0.16310E-04   -0.13933E-06    96   0.356E-03    0.679E-04
DAV:  10    -0.986934801291E+02   -0.72471E-05   -0.39746E-07    96   0.196E-03    0.600E-04
DAV:  11    -0.986934828106E+02   -0.26815E-05   -0.57241E-08   108   0.790E-04    0.413E-04
DAV:  12    -0.986934896561E+02   -0.68455E-05   -0.27240E-07    84   0.118E-03    0.290E-04
DAV:  13    -0.986934903622E+02   -0.70603E-06   -0.24881E-08   108   0.475E-04
  37 F= -.98693490E+02 E0= -.98693490E+02  d E =-.774657E-11
       N       E                     dE             d eps       ncg     rms          rms(c)
DAV:   1    -0.986922172753E+02    0.12724E-02   -0.20121E-01   120   0.134E+00    0.140E-01
DAV:   2    -0.986931992296E+02   -0.98195E-03   -0.11838E-02   108   0.315E-01    0.688E-02
DAV:   3    -0.986931717296E+02    0.27500E-04   -0.24197E-04   144   0.523E-02    0.384E-02
DAV:   4    -0.986931491602E+02    0.22569E-04   -0.44001E-05   108   0.307E-02    0.884E-03
DAV:   5    -0.986931445755E+02    0.45847E-05   -0.17874E-05   132   0.160E-02    0.560E-03
DAV:   6    -0.986931461080E+02   -0.15325E-05   -0.23493E-06   132   0.558E-03    0.353E-03
DAV:   7    -0.986931519818E+02   -0.58739E-05   -0.72100E-07    84   0.347E-03    0.139E-03
DAV:   8    -0.986931604882E+02   -0.85063E-05   -0.75230E-07    96   0.294E-03    0.847E-04
DAV:   9    -0.986931727217E+02   -0.12234E-04   -0.80655E-07    84   0.246E-03    0.448E-04
DAV:  10    -0.986931787284E+02   -0.60068E-05   -0.36655E-07    96   0.150E-03    0.320E-04
DAV:  11    -0.986931830379E+02   -0.43095E-05   -0.12308E-07    84   0.859E-04    0.205E-04
DAV:  12    -0.986931855710E+02   -0.25331E-05   -0.73926E-08    96   0.605E-04    0.130E-04
DAV:  13    -0.986931872293E+02   -0.16583E-05   -0.35244E-08    84   0.400E-04    0.694E-05
DAV:  14    -0.986931879913E+02   -0.76201E-06   -0.74211E-09    96   0.240E-04
  38 F= -.98693188E+02 E0= -.98693188E+02  d E =-.653202E-11
       N       E                     dE             d eps       ncg     rms          rms(c)
DAV:   1    -0.986917887821E+02    0.13984E-02   -0.40756E-01    96   0.173E+00    0.188E-01
DAV:   2    -0.986932107310E+02   -0.14219E-02   -0.17065E-02   132   0.384E-01    0.964E-02
DAV:   3    -0.986931359491E+02    0.74782E-04   -0.29982E-04   132   0.625E-02    0.508E-02
DAV:   4    -0.986931034451E+02    0.32504E-04   -0.98009E-05   108   0.414E-02    0.110E-02
DAV:   5    -0.986930994493E+02    0.39958E-05   -0.26510E-05   132   0.196E-02    0.696E-03
DAV:   6    -0.986931044383E+02   -0.49889E-05   -0.48910E-06   120   0.714E-03    0.403E-03
DAV:   7    -0.986931150747E+02   -0.10636E-04   -0.87353E-07    96   0.317E-03    0.174E-03
DAV:   8    -0.986931283579E+02   -0.13283E-04   -0.88595E-07   108   0.272E-03    0.908E-04
DAV:   9    -0.986931448005E+02   -0.16443E-04   -0.12831E-06    96   0.282E-03    0.577E-04
DAV:  10    -0.986931563620E+02   -0.11561E-04   -0.99475E-07   108   0.223E-03    0.375E-04
DAV:  11    -0.986931606502E+02   -0.42883E-05   -0.12319E-07    84   0.107E-03    0.200E-04
DAV:  12    -0.986931637194E+02   -0.30692E-05   -0.11161E-07    96   0.720E-04    0.149E-04
DAV:  13    -0.986931653353E+02   -0.16158E-05   -0.39360E-08    84   0.426E-04    0.809E-05
DAV:  14    -0.986931661122E+02   -0.77696E-06   -0.57731E-09    96   0.232E-04
  39 F= -.98693166E+02 E0= -.98693166E+02  d E =-.679740E-10
       N       E                     dE             d eps       ncg     rms          rms(c)
DAV:   1    -0.986916706003E+02    0.14947E-02   -0.20370E-01    96   0.124E+00    0.147E-01
DAV:   2    -0.986922767430E+02   -0.60614E-03   -0.73256E-03   108   0.253E-01    0.589E-02
DAV:   3    -0.986922498439E+02    0.26899E-04   -0.14677E-04   132   0.424E-02    0.303E-02
DAV:   4    -0.986922394355E+02    0.10408E-04   -0.34907E-05   108   0.248E-02    0.791E-03
DAV:   5    -0.986922369290E+02    0.25065E-05   -0.92528E-06   132   0.120E-02    0.449E-03
DAV:   6    -0.986922371282E+02   -0.19919E-06   -0.18166E-06   132   0.479E-03
  40 F= -.98692237E+02 E0= -.98692237E+02  d E =-.469619E-11
       N       E                     dE             d eps       ncg     rms          rms(c)
DAV:   1    -0.986914516041E+02    0.78532E-03   -0.39393E-01    96   0.173E+00    0.212E-01
DAV:   2    -0.986929100019E+02   -0.14584E-02   -0.17748E-02   132   0.389E-01    0.116E-01
DAV:   3    -0.986928001663E+02    0.10984E-03   -0.29220E-04   108   0.622E-02    0.587E-02
DAV:   4    -0.986927623450E+02    0.37821E-04   -0.13103E-04   120   0.420E-02    0.121E-02
DAV:   5    -0.986927515505E+02    0.10794E-04   -0.21537E-05   132   0.174E-02    0.683E-03
DAV:   6    -0.986927525492E+02   -0.99867E-06   -0.62907E-06   108   0.732E-03
  41 F= -.98692753E+02 E0= -.98692753E+02  d E =-.916727E-10
       N       E                     dE             d eps       ncg     rms          rms(c)
DAV:   1    -0.986928547361E+02   -0.10319E-03   -0.20175E-01    96   0.126E+00    0.150E-01
DAV:   2    -0.986935450804E+02   -0.69034E-03   -0.80594E-03   132   0.272E-01    0.691E-02
DAV:   3    -0.986935262299E+02    0.18851E-04   -0.13871E-04   108   0.425E-02    0.361E-02
DAV:   4    -0.986935335244E+02   -0.72946E-05   -0.48109E-05   108   0.273E-02    0.805E-03
DAV:   5    -0.986935353291E+02   -0.18046E-05   -0.10019E-05   132   0.122E-02    0.475E-03
DAV:   6    -0.986935367132E+02   -0.13842E-05   -0.20074E-06    96   0.507E-03    0.239E-03
DAV:   7    -0.986935390646E+02   -0.23513E-05   -0.44632E-07    96   0.269E-03    0.959E-04
DAV:   8    -0.986935417346E+02   -0.26700E-05   -0.24649E-07    84   0.186E-03    0.447E-04
DAV:   9    -0.986935447328E+02   -0.29983E-05   -0.20085E-07    96   0.148E-03    0.303E-04
DAV:  10    -0.986935474088E+02   -0.26760E-05   -0.16333E-07    84   0.110E-03    0.158E-04
DAV:  11    -0.986935486609E+02   -0.12520E-05   -0.35196E-08   108   0.570E-04    0.131E-04
DAV:  12    -0.986935499173E+02   -0.12565E-05   -0.32603E-08    84   0.448E-04    0.560E-05
DAV:  13    -0.986935503976E+02   -0.48021E-06   -0.71526E-09    96   0.246E-04
  42 F= -.98693550E+02 E0= -.98693550E+02  d E =-.654368E-11
       N       E                     dE             d eps       ncg     rms          rms(c)
DAV:   1    -0.986925421003E+02    0.10078E-02   -0.41292E-01   120   0.172E+00    0.175E-01
DAV:   2    -0.986936652675E+02   -0.11232E-02   -0.13616E-02   132   0.341E-01    0.790E-02
DAV:   3    -0.986936220294E+02    0.43238E-04   -0.27915E-04   132   0.609E-02    0.390E-02
DAV:   4    -0.986936074191E+02    0.14610E-04   -0.66039E-05   132   0.370E-02    0.101E-02
DAV:   5    -0.986936052463E+02    0.21727E-05   -0.19777E-05   132   0.174E-02    0.663E-03
DAV:   6    -0.986936071737E+02   -0.19274E-05   -0.34118E-06   132   0.636E-03    0.394E-03
DAV:   7    -0.986936114407E+02   -0.42669E-05   -0.32417E-07   108   0.257E-03    0.151E-03
DAV:   8    -0.986936172142E+02   -0.57735E-05   -0.42723E-07    84   0.260E-03    0.808E-04
DAV:   9    -0.986936280618E+02   -0.10848E-04   -0.93857E-07    84   0.335E-03    0.436E-04
DAV:  10    -0.986936320544E+02   -0.39927E-05   -0.42233E-07    96   0.186E-03    0.525E-04
DAV:  11    -0.986936333040E+02   -0.12496E-05   -0.26398E-08   108   0.645E-04    0.403E-04
DAV:  12    -0.986936363764E+02   -0.30724E-05   -0.87009E-08    84   0.841E-04    0.166E-04
DAV:  13    -0.986936377861E+02   -0.14096E-05   -0.51204E-08    96   0.527E-04    0.226E-04
DAV:  14    -0.986936385244E+02   -0.73831E-06   -0.47989E-09    84   0.288E-04
  43 F= -.98693639E+02 E0= -.98693639E+02  d E =-.854321E-10
       N       E                     dE             d eps       ncg     rms          rms(c)
DAV:   1    -0.986922253985E+02    0.14124E-02   -0.20160E-01    96   0.126E+00    0.144E-01
DAV:   2    -0.986932677586E+02   -0.10424E-02   -0.12207E-02   108   0.286E-01    0.622E-02
DAV:   3    -0.986932528580E+02    0.14901E-04   -0.20901E-04   132   0.454E-02    0.347E-02
DAV:   4    -0.986932427310E+02    0.10127E-04   -0.42295E-05   108   0.236E-02    0.896E-03
DAV:   5    -0.986932390861E+02    0.36448E-05   -0.73249E-06   132   0.107E-02    0.458E-03
DAV:   6    -0.986932393688E+02   -0.28268E-06   -0.23176E-06   120   0.586E-03
  44 F= -.98693239E+02 E0= -.98693239E+02  d E =-.922558E-11
       N       E                     dE             d eps       ncg     rms          rms(c)
DAV:   1    -0.986919485417E+02    0.12905E-02   -0.40933E-01    96   0.172E+00    0.189E-01
DAV:   2    -0.986933558373E+02   -0.14073E-02   -0.16629E-02   132   0.379E-01    0.922E-02
DAV:   3    -0.986933049855E+02    0.50852E-04   -0.30081E-04   120   0.620E-02    0.485E-02
DAV:   4    -0.986932811931E+02    0.23792E-04   -0.91947E-05   108   0.403E-02    0.111E-02
DAV:   5    -0.986932754696E+02    0.57235E-05   -0.25290E-05   132   0.192E-02    0.689E-03
DAV:   6    -0.986932769411E+02   -0.14714E-05   -0.42329E-06   108   0.684E-03    0.404E-03
DAV:   7    -0.986932824485E+02   -0.55075E-05   -0.59042E-07    96   0.288E-03    0.166E-03
DAV:   8    -0.986932898867E+02   -0.74381E-05   -0.56845E-07    84   0.245E-03    0.795E-04
DAV:   9    -0.986933013562E+02   -0.11470E-04   -0.91642E-07   108   0.264E-03    0.486E-04
DAV:  10    -0.986933085235E+02   -0.71672E-05   -0.52576E-07    84   0.189E-03    0.340E-04
DAV:  11    -0.986933110334E+02   -0.25099E-05   -0.10401E-07   108   0.942E-04    0.250E-04
DAV:  12    -0.986933142041E+02   -0.31707E-05   -0.11732E-07    84   0.794E-04    0.148E-04
DAV:  13    -0.986933154359E+02   -0.12318E-05   -0.40792E-08    96   0.437E-04    0.128E-04
DAV:  14    -0.986933164217E+02   -0.98575E-06   -0.17428E-08    84   0.310E-04
  45 F= -.98693316E+02 E0= -.98693316E+02  d E =-.661506E-10
       N       E                     dE             d eps       ncg     rms          rms(c)
DAV:   1    -0.986922463128E+02    0.10691E-02   -0.19828E-01    96   0.123E+00    0.137E-01
DAV:   2    -0.986930059060E+02   -0.75959E-03   -0.93450E-03   132   0.281E-01    0.827E-02
DAV:   3    -0.986929451891E+02    0.60717E-04   -0.14751E-04   132   0.455E-02    0.420E-02
DAV:   4    -0.986929195624E+02    0.25627E-04   -0.65780E-05   132   0.308E-02    0.783E-03
DAV:   5    -0.986929136917E+02    0.58707E-05   -0.12615E-05   132   0.132E-02    0.507E-03
DAV:   6    -0.986929149218E+02   -0.12302E-05   -0.36220E-06   132   0.561E-03    0.258E-03
DAV:   7    -0.986929220285E+02   -0.71067E-05   -0.69111E-07    96   0.281E-03    0.124E-03
DAV:   8    -0.986929342743E+02   -0.12246E-04   -0.86075E-07   108   0.228E-03    0.770E-04
DAV:   9    -0.986929451584E+02   -0.10884E-04   -0.50490E-07    96   0.166E-03    0.540E-04
DAV:  10    -0.986929550132E+02   -0.98548E-05   -0.53322E-07    96   0.140E-03    0.250E-04
DAV:  11    -0.986929587965E+02   -0.37834E-05   -0.95194E-08   108   0.684E-04    0.195E-04
DAV:  12    -0.986929626848E+02   -0.38883E-05   -0.80489E-08    84   0.642E-04    0.822E-05
DAV:  13    -0.986929639735E+02   -0.12887E-05   -0.22456E-08    96   0.351E-04    0.728E-05
DAV:  14    -0.986929650088E+02   -0.10352E-05   -0.43630E-09    96   0.251E-04    0.297E-05
DAV:  15    -0.986929654134E+02   -0.40464E-06    0.17475E-09    84   0.153E-04
  46 F= -.98692965E+02 E0= -.98692965E+02  d E =-.703583E-10
       N       E                     dE             d eps       ncg     rms          rms(c)
DAV:   1    -0.986909302643E+02    0.20347E-02   -0.39407E-01    96   0.176E+00    0.220E-01
DAV:   2    -0.986924157979E+02   -0.14855E-02   -0.18067E-02   120   0.396E-01    0.112E-01
DAV:   3    -0.986923084739E+02    0.10732E-03   -0.30830E-04   132   0.631E-02    0.594E-02
DAV:   4    -0.986922619239E+02    0.46550E-04   -0.11840E-04   108   0.407E-02    0.117E-02
DAV:   5    -0.986922552663E+02    0.66576E-05   -0.22147E-05   132   0.174E-02    0.691E-03
DAV:   6    -0.986922621270E+02   -0.68607E-05   -0.60814E-06   108   0.752E-03    0.354E-03
DAV:   7    -0.986922791255E+02   -0.16998E-04   -0.19058E-06   120   0.423E-03    0.171E-03
DAV:   8    -0.986923000703E+02   -0.20945E-04   -0.15636E-06   108   0.295E-03    0.923E-04
DAV:   9    -0.986923166494E+02   -0.16579E-04   -0.11861E-06   108   0.228E-03    0.718E-04
DAV:  10    -0.986923336999E+02   -0.17051E-04   -0.16763E-06   108   0.234E-03    0.308E-04
DAV:  11    -0.986923384138E+02   -0.47139E-05   -0.13241E-07   108   0.858E-04    0.205E-04
DAV:  12    -0.986923427739E+02   -0.43601E-05   -0.17854E-07    84   0.814E-04    0.120E-04
DAV:  13    -0.986923444682E+02   -0.16944E-05   -0.48968E-08    96   0.441E-04    0.729E-05
DAV:  14    -0.986923454507E+02   -0.98250E-06   -0.73865E-09    84   0.256E-04
  47 F= -.98692345E+02 E0= -.98692345E+02  d E =-.413310E-11
       N       E                     dE             d eps       ncg     rms          rms(c)
DAV:   1    -0.986927675926E+02   -0.42312E-03   -0.19706E-01    96   0.123E+00    0.143E-01
DAV:   2    -0.986934977855E+02   -0.73019E-03   -0.89836E-03   108   0.279E-01    0.814E-02
DAV:   3    -0.986934383822E+02    0.59403E-04   -0.14687E-04   132   0.449E-02    0.414E-02
DAV:   4    -0.986934135053E+02    0.24877E-04   -0.63219E-05   120   0.304E-02    0.799E-03
DAV:   5    -0.986934077802E+02    0.57251E-05   -0.11898E-05   132   0.131E-02    0.503E-03
DAV:   6    -0.986934089974E+02   -0.12173E-05   -0.34205E-06   108   0.557E-03    0.267E-03
DAV:   7    -0.986934159546E+02   -0.69572E-05   -0.66853E-07    84   0.283E-03    0.124E-03
DAV:   8    -0.986934276652E+02   -0.11711E-04   -0.82629E-07    96   0.233E-03    0.770E-04
DAV:   9    -0.986934386288E+02   -0.10964E-04   -0.53041E-07    96   0.171E-03    0.552E-04
DAV:  10    -0.986934478022E+02   -0.91734E-05   -0.48041E-07    84   0.135E-03    0.232E-04
DAV:  11    -0.986934519234E+02   -0.41212E-05   -0.10108E-07    96   0.696E-04    0.184E-04
DAV:  12    -0.986934556548E+02   -0.37314E-05   -0.75191E-08    84   0.598E-04    0.843E-05
DAV:  13    -0.986934570022E+02   -0.13474E-05   -0.19870E-08    96   0.327E-04    0.599E-05
DAV:  14    -0.986934581608E+02   -0.11586E-05   -0.84525E-09    84   0.259E-04    0.288E-05
DAV:  15    -0.986934584774E+02   -0.31656E-06    0.31569E-09    96   0.129E-04
  48 F= -.98693458E+02 E0= -.98693458E+02  d E =-.624149E-11
       N       E                     dE             d eps       ncg     rms          rms(c)
DAV:   1    -0.986920635089E+02    0.13947E-02   -0.40881E-01    96   0.173E+00    0.174E-01
DAV:   2    -0.986933079749E+02   -0.12445E-02   -0.15070E-02   144   0.369E-01    0.891E-02
DAV:   3    -0.986932477833E+02    0.60192E-04   -0.27994E-04   132   0.621E-02    0.446E-02
DAV:   4    -0.986932228802E+02    0.24903E-04   -0.79891E-05   132   0.393E-02    0.998E-03
DAV:   5    -0.986932190102E+02    0.38701E-05   -0.21671E-05   132   0.181E-02    0.681E-03
DAV:   6    -0.986932224300E+02   -0.34198E-05   -0.41805E-06   132   0.713E-03    0.373E-03
DAV:   7    -0.986932305334E+02   -0.81034E-05   -0.68093E-07    84   0.329E-03    0.160E-03
DAV:   8    -0.986932415254E+02   -0.10992E-04   -0.80518E-07   108   0.284E-03    0.889E-04
DAV:   9    -0.986932566562E+02   -0.15131E-04   -0.11808E-06    96   0.293E-03    0.471E-04
DAV:  10    -0.986932653621E+02   -0.87059E-05   -0.58930E-07    96   0.197E-03    0.337E-04
DAV:  11    -0.986932697095E+02   -0.43474E-05   -0.17533E-07    84   0.108E-03    0.191E-04
DAV:  12    -0.986932729960E+02   -0.32865E-05   -0.12575E-07    96   0.748E-04    0.132E-04
DAV:  13    -0.986932742513E+02   -0.12552E-05   -0.30566E-08    84   0.394E-04    0.798E-05
DAV:  14    -0.986932751949E+02   -0.94367E-06   -0.15998E-08    96   0.281E-04
  49 F= -.98693275E+02 E0= -.98693275E+02  d E =-.912493E-10
       N       E                     dE             d eps       ncg     rms          rms(c)
DAV:   1    -0.986921021941E+02    0.11721E-02   -0.20145E-01   120   0.135E+00    0.140E-01
DAV:   2    -0.986931323485E+02   -0.10302E-02   -0.12065E-02   120   0.319E-01    0.675E-02
DAV:   3    -0.986931125825E+02    0.19766E-04   -0.22199E-04   132   0.503E-02    0.380E-02
DAV:   4    -0.986931039802E+02    0.86023E-05   -0.55184E-05   132   0.305E-02    0.884E-03
DAV:   5    -0.986931014103E+02    0.25699E-05   -0.13667E-05   132   0.141E-02    0.551E-03
DAV:   6    -0.986931025045E+02   -0.10942E-05   -0.24785E-06   132   0.572E-03    0.288E-03
DAV:   7    -0.986931066102E+02   -0.41057E-05   -0.66055E-07   108   0.315E-03    0.108E-03
DAV:   8    -0.986931119070E+02   -0.52968E-05   -0.33999E-07    96   0.201E-03    0.624E-04
DAV:   9    -0.986931195227E+02   -0.76157E-05   -0.44569E-07    96   0.180E-03    0.329E-04
DAV:  10    -0.986931244614E+02   -0.49387E-05   -0.31207E-07    96   0.131E-03    0.190E-04
DAV:  11    -0.986931274037E+02   -0.29423E-05   -0.10816E-07    84   0.776E-04    0.163E-04
DAV:  12    -0.986931288789E+02   -0.14752E-05   -0.32311E-08    96   0.457E-04    0.809E-05
DAV:  13    -0.986931299289E+02   -0.10501E-05   -0.22576E-08    84   0.338E-04    0.484E-05
DAV:  14    -0.986931304556E+02   -0.52664E-06   -0.38867E-09    96   0.206E-04
  50 F= -.98693130E+02 E0= -.98693130E+02  d E =-.578813E-10
       N       E                     dE             d eps       ncg     rms          rms(c)
DAV:   1    -0.986922457730E+02    0.88416E-03   -0.41371E-01   108   0.188E+00    0.194E-01
DAV:   2    -0.986934863592E+02   -0.12406E-02   -0.14894E-02   108   0.384E-01    0.927E-02
DAV:   3    -0.986934373539E+02    0.49005E-04   -0.28334E-04   132   0.590E-02    0.488E-02
DAV:   4    -0.986934125880E+02    0.24766E-04   -0.76736E-05   132   0.406E-02    0.976E-03
DAV:   5    -0.986934084225E+02    0.41656E-05   -0.29409E-05   132   0.204E-02    0.694E-03
DAV:   6    -0.986934093542E+02   -0.93172E-06   -0.44531E-06   132   0.712E-03
  51 F= -.98693409E+02 E0= -.98693409E+02  d E =-.105013E-10
       N       E                     dE             d eps       ncg     rms          rms(c)
DAV:   1    -0.986917309827E+02    0.16774E-02   -0.20216E-01   120   0.135E+00    0.137E-01
DAV:   2    -0.986924783220E+02   -0.74734E-03   -0.88718E-03   132   0.309E-01    0.815E-02
DAV:   3    -0.986924534410E+02    0.24881E-04   -0.13149E-04   108   0.407E-02    0.418E-02
DAV:   4    -0.986924283302E+02    0.25111E-04   -0.50962E-05   120   0.263E-02    0.730E-03
DAV:   5    -0.986924226233E+02    0.57070E-05   -0.85409E-06   120   0.117E-02    0.431E-03
DAV:   6    -0.986924266700E+02   -0.40468E-05   -0.41435E-06   108   0.686E-03    0.227E-03
DAV:   7    -0.986924359935E+02   -0.93235E-05   -0.12062E-06   120   0.395E-03    0.131E-03
DAV:   8    -0.986924478979E+02   -0.11904E-04   -0.85514E-07    96   0.252E-03    0.673E-04
DAV:   9    -0.986924591337E+02   -0.11236E-04   -0.91528E-07    96   0.220E-03    0.502E-04
DAV:  10    -0.986924691064E+02   -0.99727E-05   -0.89970E-07    96   0.190E-03    0.228E-04
DAV:  11    -0.986924719153E+02   -0.28089E-05   -0.90782E-08   108   0.735E-04    0.166E-04
DAV:  12    -0.986924745473E+02   -0.26321E-05   -0.13343E-07    84   0.729E-04    0.833E-05
DAV:  13    -0.986924751540E+02   -0.60669E-06   -0.13050E-08    96   0.302E-04
  52 F= -.98692475E+02 E0= -.98692475E+02  d E =-.749379E-10
       N       E                     dE             d eps       ncg     rms          rms(c)
DAV:   1    -0.986912685460E+02    0.12060E-02   -0.40175E-01   108   0.192E+00    0.218E-01
DAV:   2    -0.986925810652E+02   -0.13125E-02   -0.16318E-02   108   0.427E-01    0.112E-01
DAV:   3    -0.986924853323E+02    0.95733E-04   -0.25460E-04   144   0.569E-02    0.568E-02
DAV:   4    -0.986924268800E+02    0.58452E-04   -0.83615E-05   132   0.351E-02    0.108E-02
DAV:   5    -0.986924150074E+02    0.11873E-04   -0.14697E-05   132   0.164E-02    0.606E-03
DAV:   6    -0.986924196991E+02   -0.46917E-05   -0.76777E-06   132   0.101E-02    0.319E-03
DAV:   7    -0.986924353562E+02   -0.15657E-04   -0.26480E-06   132   0.601E-03    0.201E-03
DAV:   8    -0.986924568219E+02   -0.21466E-04   -0.12230E-06   120   0.343E-03    0.108E-03
DAV:   9    -0.986924782428E+02   -0.21421E-04   -0.13281E-06   108   0.281E-03    0.795E-04
DAV:  10    -0.986924981341E+02   -0.19891E-04   -0.10456E-06   108   0.215E-03    0.328E-04
DAV:  11    -0.986925072044E+02   -0.90703E-05   -0.21941E-07    96   0.108E-03    0.251E-04
DAV:  12    -0.986925137196E+02   -0.65152E-05   -0.15536E-07    84   0.787E-04    0.123E-04
DAV:  13    -0.986925159592E+02   -0.22396E-05   -0.32593E-08    96   0.404E-04    0.670E-05
DAV:  14    -0.986925174470E+02   -0.14878E-05   -0.11004E-08    84   0.295E-04    0.426E-05
DAV:  15    -0.986925179505E+02   -0.50352E-06    0.57810E-10   108   0.163E-04
  53 F= -.98692518E+02 E0= -.98692518E+02  d E =-.840728E-10
       N       E                     dE             d eps       ncg     rms          rms(c)
DAV:   1    -0.986912050331E+02    0.13124E-02   -0.20133E-01    96   0.133E+00    0.154E-01
DAV:   2    -0.986919604263E+02   -0.75539E-03   -0.92693E-03   108   0.317E-01    0.886E-02
DAV:   3    -0.986919001678E+02    0.60259E-04   -0.13690E-04   132   0.431E-02    0.471E-02
DAV:   4    -0.986918681794E+02    0.31988E-04   -0.66670E-05   108   0.316E-02    0.769E-03
DAV:   5    -0.986918643578E+02    0.38216E-05   -0.15399E-05   132   0.145E-02    0.522E-03
DAV:   6    -0.986918691254E+02   -0.47675E-05   -0.54004E-06   108   0.654E-03    0.299E-03
DAV:   7    -0.986918802972E+02   -0.11172E-04   -0.71685E-07    96   0.287E-03    0.156E-03
DAV:   8    -0.986919005328E+02   -0.20236E-04   -0.22027E-06    96   0.331E-03    0.887E-04
DAV:   9    -0.986919128322E+02   -0.12299E-04   -0.70847E-07    96   0.204E-03    0.624E-04
DAV:  10    -0.986919249443E+02   -0.12112E-04   -0.10383E-06    96   0.190E-03    0.252E-04
DAV:  11    -0.986919303613E+02   -0.54170E-05   -0.20451E-07    96   0.103E-03    0.233E-04
DAV:  12    -0.986919331217E+02   -0.27604E-05   -0.88948E-08    84   0.618E-04    0.134E-04
DAV:  13    -0.986919345879E+02   -0.14662E-05   -0.30113E-08    96   0.391E-04    0.621E-05
DAV:  14    -0.986919354193E+02   -0.83141E-06   -0.59325E-09    84   0.255E-04
  54 F= -.98691935E+02 E0= -.98691935E+02  d E =-.865071E-10
       N       E                     dE             d eps       ncg     rms          rms(c)
DAV:   1    -0.986904409191E+02    0.14937E-02   -0.40553E-01   108   0.185E+00    0.206E-01
DAV:   2    -0.986921217344E+02   -0.16808E-02   -0.20511E-02   108   0.472E-01    0.131E-01
DAV:   3    -0.986920002630E+02    0.12147E-03   -0.25358E-04   132   0.583E-02    0.731E-02
DAV:   4    -0.986919315112E+02    0.68752E-04   -0.15429E-04   120   0.470E-02    0.110E-02
DAV:   5    -0.986919277340E+02    0.37772E-05   -0.32959E-05   132   0.212E-02    0.758E-03
DAV:   6    -0.986919421147E+02   -0.14381E-04   -0.12297E-05   120   0.990E-03    0.428E-03
DAV:   7    -0.986919701022E+02   -0.27988E-04   -0.25800E-06   108   0.500E-03    0.221E-03
DAV:   8    -0.986920140371E+02   -0.43935E-04   -0.54578E-06   120   0.540E-03    0.135E-03
DAV:   9    -0.986920381747E+02   -0.24138E-04   -0.19961E-06   120   0.322E-03    0.101E-03
DAV:  10    -0.986920601746E+02   -0.22000E-04   -0.19580E-06   108   0.287E-03    0.442E-04
DAV:  11    -0.986920681132E+02   -0.79385E-05   -0.35854E-07   108   0.135E-03    0.418E-04
DAV:  12    -0.986920737380E+02   -0.56248E-05   -0.28028E-07    96   0.110E-03    0.131E-04
DAV:  13    -0.986920753275E+02   -0.15895E-05   -0.43058E-08    96   0.506E-04    0.116E-04
DAV:  14    -0.986920767911E+02   -0.14636E-05   -0.20438E-08    84   0.380E-04    0.501E-05
DAV:  15    -0.986920771720E+02   -0.38088E-06   -0.98568E-10    96   0.191E-04
  55 F= -.98692077E+02 E0= -.98692077E+02  d E =-.798494E-10
       N       E                     dE             d eps       ncg     rms          rms(c)
DAV:   1    -0.986919197604E+02    0.15703E-03   -0.20024E-01    96   0.138E+00    0.145E-01
DAV:   2    -0.986930152959E+02   -0.10955E-02   -0.13046E-02   108   0.355E-01    0.840E-02
DAV:   3    -0.986929794200E+02    0.35876E-04   -0.18143E-04   132   0.453E-02    0.502E-02
DAV:   4    -0.986929520271E+02    0.27393E-04   -0.75258E-05   108   0.333E-02    0.792E-03
DAV:   5    -0.986929462700E+02    0.57571E-05   -0.18399E-05   132   0.156E-02    0.547E-03
DAV:   6    -0.986929481210E+02   -0.18510E-05   -0.39731E-06   108   0.649E-03    0.321E-03
DAV:   7    -0.986929576270E+02   -0.95059E-05   -0.14112E-06   108   0.399E-03    0.139E-03
DAV:   8    -0.986929728956E+02   -0.15269E-04   -0.94258E-07    96   0.281E-03    0.828E-04
DAV:   9    -0.986929868828E+02   -0.13987E-04   -0.10626E-06   108   0.231E-03    0.747E-04
DAV:  10    -0.986929989980E+02   -0.12115E-04   -0.68364E-07    84   0.191E-03    0.340E-04
DAV:  11    -0.986930024642E+02   -0.34662E-05   -0.15423E-07    96   0.880E-04    0.328E-04
DAV:  12    -0.986930066672E+02   -0.42030E-05   -0.12778E-07    84   0.863E-04    0.101E-04
DAV:  13    -0.986930081095E+02   -0.14422E-05   -0.40852E-08    96   0.476E-04    0.972E-05
DAV:  14    -0.986930091394E+02   -0.10300E-05   -0.75087E-09    84   0.282E-04    0.466E-05
DAV:  15    -0.986930098523E+02   -0.71284E-06   -0.61138E-09    96   0.237E-04
  56 F= -.98693010E+02 E0= -.98693010E+02  d E =-.582058E-10
       N       E                     dE             d eps       ncg     rms          rms(c)
DAV:   1    -0.986921075433E+02    0.90160E-03   -0.41284E-01   120   0.189E+00    0.192E-01
DAV:   2    -0.986933672495E+02   -0.12597E-02   -0.15183E-02   108   0.392E-01    0.965E-02
DAV:   3    -0.986933107813E+02    0.56468E-04   -0.28199E-04   132   0.588E-02    0.504E-02
DAV:   4    -0.986932818183E+02    0.28963E-04   -0.81259E-05   132   0.405E-02    0.983E-03
DAV:   5    -0.986932760137E+02    0.58046E-05   -0.27992E-05   132   0.200E-02    0.680E-03
DAV:   6    -0.986932771826E+02   -0.11690E-05   -0.51709E-06   132   0.760E-03    0.409E-03
DAV:   7    -0.986932840285E+02   -0.68458E-05   -0.74220E-07    96   0.386E-03    0.183E-03
DAV:   8    -0.986932964054E+02   -0.12377E-04   -0.12556E-06    96   0.373E-03    0.111E-03
DAV:   9    -0.986933129582E+02   -0.16553E-04   -0.10717E-06    96   0.319E-03    0.555E-04
DAV:  10    -0.986933213251E+02   -0.83669E-05   -0.57662E-07    84   0.200E-03    0.479E-04
DAV:  11    -0.986933262997E+02   -0.49746E-05   -0.92638E-08    96   0.931E-04    0.284E-04
DAV:  12    -0.986933319382E+02   -0.56385E-05   -0.21489E-07    84   0.992E-04    0.243E-04
DAV:  13    -0.986933335438E+02   -0.16055E-05   -0.31930E-08    96   0.439E-04    0.152E-04
DAV:  14    -0.986933349899E+02   -0.14461E-05   -0.20217E-08    84   0.361E-04    0.517E-05
DAV:  15    -0.986933357063E+02   -0.71643E-06   -0.39281E-09    96   0.221E-04
  57 F= -.98693336E+02 E0= -.98693336E+02  d E =-.770504E-11
       N       E                     dE             d eps       ncg     rms          rms(c)
DAV:   1    -0.986918473190E+02    0.14877E-02   -0.20606E-01    96   0.134E+00    0.142E-01
DAV:   2    -0.986924504864E+02   -0.60317E-03   -0.72295E-03   108   0.260E-01    0.605E-02
DAV:   3    -0.986924330698E+02    0.17417E-04   -0.13952E-04   132   0.428E-02    0.318E-02
DAV:   4    -0.986924260981E+02    0.69717E-05   -0.34406E-05   132   0.286E-02    0.697E-03
DAV:   5    -0.986924255507E+02    0.54732E-06   -0.15565E-05   132   0.148E-02    0.527E-03
DAV:   6    -0.986924259785E+02   -0.42774E-06   -0.14253E-06   120   0.412E-03
  58 F= -.98692426E+02 E0= -.98692426E+02  d E =-.451152E-11
       N       E                     dE             d eps       ncg     rms          rms(c)
DAV:   1    -0.986910520425E+02    0.13735E-02   -0.40090E-01   108   0.193E+00    0.219E-01
DAV:   2    -0.986925521917E+02   -0.15001E-02   -0.18016E-02   108   0.453E-01    0.116E-01
DAV:   3    -0.986924597942E+02    0.92398E-04   -0.27152E-04   120   0.602E-02    0.626E-02
DAV:   4    -0.986924071303E+02    0.52664E-04   -0.11294E-04   108   0.418E-02    0.109E-02
DAV:   5    -0.986924014875E+02    0.56428E-05   -0.24294E-05   132   0.186E-02    0.758E-03
DAV:   6    -0.986924094479E+02   -0.79604E-05   -0.79809E-06   132   0.885E-03    0.401E-03
DAV:   7    -0.986924271727E+02   -0.17725E-04   -0.20449E-06    96   0.499E-03    0.204E-03
DAV:   8    -0.986924554452E+02   -0.28273E-04   -0.30375E-06   108   0.460E-03    0.114E-03
DAV:   9    -0.986924722087E+02   -0.16763E-04   -0.14448E-06    96   0.297E-03    0.905E-04
DAV:  10    -0.986924870538E+02   -0.14845E-04   -0.11341E-06    96   0.224E-03    0.345E-04
DAV:  11    -0.986924941228E+02   -0.70689E-05   -0.36676E-07    96   0.128E-03    0.306E-04
DAV:  12    -0.986924993742E+02   -0.52515E-05   -0.31957E-07    84   0.108E-03    0.129E-04
DAV:  13    -0.986925011247E+02   -0.17504E-05   -0.59527E-08    96   0.507E-04    0.724E-05
DAV:  14    -0.986925020583E+02   -0.93366E-06   -0.10544E-08    84   0.286E-04
  59 F= -.98692502E+02 E0= -.98692502E+02  d E =-.823521E-10
       N       E                     dE             d eps       ncg     rms          rms(c)
DAV:   1    -0.986914173597E+02    0.10838E-02   -0.20181E-01   120   0.136E+00    0.156E-01
DAV:   2    -0.986921203233E+02   -0.70296E-03   -0.86980E-03   108   0.310E-01    0.791E-02
DAV:   3    -0.986920733239E+02    0.46999E-04   -0.12546E-04   132   0.394E-02    0.417E-02
DAV:   4    -0.986920395941E+02    0.33730E-04   -0.40236E-05   120   0.238E-02    0.771E-03
DAV:   5    -0.986920320664E+02    0.75278E-05   -0.69330E-06   132   0.111E-02    0.423E-03
DAV:   6    -0.986920340104E+02   -0.19440E-05   -0.35266E-06   108   0.739E-03    0.215E-03
DAV:   7    -0.986920433715E+02   -0.93611E-05   -0.18387E-06    96   0.486E-03    0.144E-03
DAV:   8    -0.986920555514E+02   -0.12180E-04   -0.57426E-07    96   0.250E-03    0.775E-04
DAV:   9    -0.986920685365E+02   -0.12985E-04   -0.83604E-07    96   0.213E-03    0.531E-04
DAV:  10    -0.986920799488E+02   -0.11412E-04   -0.49611E-07    96   0.158E-03    0.247E-04
DAV:  11    -0.986920856207E+02   -0.56718E-05   -0.19613E-07    84   0.925E-04    0.189E-04
DAV:  12    -0.986920898564E+02   -0.42357E-05   -0.79875E-08    96   0.595E-04    0.891E-05
DAV:  13    -0.986920914107E+02   -0.15543E-05   -0.18822E-08    84   0.348E-04    0.570E-05
DAV:  14    -0.986920923376E+02   -0.92695E-06   -0.58811E-09   108   0.234E-04
  60 F= -.98692092E+02 E0= -.98692092E+02  d E =-.880519E-10
       N       E                     dE             d eps       ncg     rms          rms(c)
DAV:   1    -0.986908803127E+02    0.12111E-02   -0.40943E-01   120   0.188E+00    0.209E-01
DAV:   2    -0.986922579548E+02   -0.13776E-02   -0.17347E-02   108   0.420E-01    0.122E-01
DAV:   3    -0.986921398301E+02    0.11812E-03   -0.25276E-04   132   0.568E-02    0.620E-02
DAV:   4    -0.986920634340E+02    0.76396E-04   -0.10086E-04   132   0.369E-02    0.111E-02
DAV:   5    -0.986920612841E+02    0.21499E-05   -0.15629E-05   132   0.158E-02    0.659E-03
DAV:   6    -0.986920852343E+02   -0.23950E-04   -0.12064E-05   132   0.111E-02    0.336E-03
DAV:   7    -0.986921163319E+02   -0.31098E-04   -0.44034E-06   132   0.655E-03    0.227E-03
DAV:   8    -0.986921561757E+02   -0.39844E-04   -0.35324E-06   120   0.436E-03    0.112E-03
DAV:   9    -0.986921846876E+02   -0.28512E-04   -0.27706E-06   120   0.357E-03    0.843E-04
[...]
DAV:   3    -0.986953469922E+02    0.78820E-04   -0.22847E-04   108   0.460E-02    0.167E-02
DAV:   4    -0.986953504794E+02   -0.34872E-05   -0.36338E-05   132   0.193E-02    0.630E-03
DAV:   5    -0.986953509750E+02   -0.49566E-06   -0.14970E-06    84   0.476E-03
 132 F= -.98695351E+02 E0= -.98695351E+02  d E =-.846643E-10
       N       E                     dE             d eps       ncg     rms          rms(c)
DAV:   1    -0.986960997199E+02   -0.74924E-03   -0.54946E-01    96   0.208E+00    0.223E-01
DAV:   2    -0.986958216294E+02    0.27809E-03   -0.33942E-03    96   0.176E-01    0.118E-01
DAV:   3    -0.986956385975E+02    0.18303E-03   -0.47713E-04   120   0.624E-02    0.357E-02
DAV:   4    -0.986956392892E+02   -0.69173E-06   -0.96180E-05   120   0.286E-02    0.106E-02
DAV:   5    -0.986956384401E+02    0.84911E-06   -0.58342E-06   120   0.912E-03
 133 F= -.98695638E+02 E0= -.98695638E+02  d E =-.820220E-10
       N       E                     dE             d eps       ncg     rms          rms(c)
DAV:   1    -0.986957320499E+02   -0.92761E-04   -0.27030E-01    96   0.181E+00    0.141E-01
DAV:   2    -0.986956884385E+02    0.43611E-04   -0.19467E-03   108   0.145E-01    0.775E-02
DAV:   3    -0.986956168420E+02    0.71597E-04   -0.19240E-04   120   0.411E-02    0.225E-02
DAV:   4    -0.986956172768E+02   -0.43488E-06   -0.40687E-05   108   0.192E-02    0.700E-03
DAV:   5    -0.986956169719E+02    0.30495E-06   -0.28371E-06   132   0.584E-03
 134 F= -.98695617E+02 E0= -.98695617E+02  d E =-.913339E-10
       N       E                     dE             d eps       ncg     rms          rms(c)
DAV:   1    -0.986953596414E+02    0.25764E-03   -0.53164E-01    96   0.213E+00    0.176E-01
DAV:   2    -0.986952327545E+02    0.12689E-03   -0.25221E-03   108   0.144E-01    0.973E-02
DAV:   3    -0.986950983279E+02    0.13443E-03   -0.37002E-04   120   0.490E-02    0.218E-02
DAV:   4    -0.986950952834E+02    0.30445E-05   -0.50452E-05   108   0.209E-02    0.931E-03
DAV:   5    -0.986950952955E+02   -0.12109E-07   -0.37502E-06   132   0.640E-03
 135 F= -.98695095E+02 E0= -.98695095E+02  d E =-.820999E-10
       N       E                     dE             d eps       ncg     rms          rms(c)
DAV:   1    -0.986945428266E+02    0.55246E-03   -0.27214E-01    96   0.151E+00    0.146E-01
DAV:   2    -0.986945022929E+02    0.40534E-04   -0.21419E-03   108   0.135E-01    0.802E-02
DAV:   3    -0.986944130647E+02    0.89228E-04   -0.26726E-04   120   0.439E-02    0.219E-02
DAV:   4    -0.986944129419E+02    0.12278E-06   -0.58608E-05   108   0.207E-02    0.823E-03
DAV:   5    -0.986944116148E+02    0.13271E-05   -0.26059E-06   132   0.602E-03    0.411E-03
DAV:   6    -0.986944119043E+02   -0.28945E-06   -0.21114E-06   108   0.457E-03
 136 F= -.98694412E+02 E0= -.98694412E+02  d E =-.807529E-10
       N       E                     dE             d eps       ncg     rms          rms(c)
DAV:   1    -0.986946998138E+02   -0.28820E-03   -0.54089E-01    96   0.215E+00    0.196E-01
DAV:   2    -0.986945982762E+02    0.10154E-03   -0.43329E-03   108   0.183E-01    0.108E-01
DAV:   3    -0.986944054402E+02    0.19284E-03   -0.50068E-04   108   0.591E-02    0.289E-02
DAV:   4    -0.986944008808E+02    0.45594E-05   -0.11414E-04   132   0.281E-02    0.110E-02
DAV:   5    -0.986943994965E+02    0.13843E-05   -0.41753E-06   108   0.712E-03    0.577E-03
DAV:   6    -0.986944016848E+02   -0.21883E-05   -0.34178E-06   120   0.547E-03    0.131E-03
DAV:   7    -0.986944047434E+02   -0.30587E-05   -0.78693E-07   120   0.273E-03    0.859E-04
DAV:   8    -0.986944089014E+02   -0.41580E-05   -0.24989E-07    84   0.121E-03    0.366E-04
DAV:   9    -0.986944117353E+02   -0.28339E-05   -0.14542E-07    96   0.818E-04    0.246E-04
DAV:  10    -0.986944152945E+02   -0.35592E-05   -0.23619E-07    84   0.879E-04    0.166E-04
DAV:  11    -0.986944163307E+02   -0.10362E-05   -0.36621E-08   108   0.407E-04    0.100E-04
DAV:  12    -0.986944174872E+02   -0.11565E-05   -0.34186E-08    84   0.381E-04    0.760E-05
DAV:  13    -0.986944179605E+02   -0.47334E-06   -0.93077E-09    96   0.226E-04
 137 F= -.98694418E+02 E0= -.98694418E+02  d E =-.710977E-10
       N       E                     dE             d eps       ncg     rms          rms(c)
DAV:   1    -0.986957713475E+02   -0.13539E-02   -0.27178E-01    96   0.147E+00    0.144E-01
DAV:   2    -0.986957114510E+02    0.59897E-04   -0.21299E-03   108   0.135E-01    0.787E-02
DAV:   3    -0.986956110031E+02    0.10045E-03   -0.26813E-04   132   0.441E-02    0.215E-02
DAV:   4    -0.986956099210E+02    0.10821E-05   -0.60250E-05   108   0.211E-02    0.818E-03
DAV:   5    -0.986956091051E+02    0.81598E-06   -0.23262E-06   132   0.578E-03
 138 F= -.98695609E+02 E0= -.98695609E+02  d E =-.925273E-10
       N       E                     dE             d eps       ncg     rms          rms(c)
DAV:   1    -0.986955507691E+02    0.59152E-04   -0.52683E-01    96   0.216E+00    0.171E-01
DAV:   2    -0.986954306224E+02    0.12015E-03   -0.25556E-03   108   0.153E-01    0.972E-02
DAV:   3    -0.986953141937E+02    0.11643E-03   -0.38987E-04   120   0.561E-02    0.182E-02
DAV:   4    -0.986953178330E+02   -0.36393E-05   -0.56074E-05   120   0.229E-02    0.973E-03
DAV:   5    -0.986953179563E+02   -0.12326E-06   -0.26065E-06   132   0.541E-03
 139 F= -.98695318E+02 E0= -.98695318E+02  d E =-.857905E-10
       N       E                     dE             d eps       ncg     rms          rms(c)
DAV:   1    -0.986954678788E+02   -0.15005E-03   -0.26577E-01    96   0.151E+00    0.125E-01
DAV:   2    -0.986954278081E+02    0.40071E-04   -0.14486E-03   108   0.117E-01    0.704E-02
DAV:   3    -0.986953618259E+02    0.65982E-04   -0.23414E-04   108   0.371E-02    0.137E-02
DAV:   4    -0.986953605744E+02    0.12515E-05   -0.21990E-05   132   0.135E-02    0.731E-03
DAV:   5    -0.986953592928E+02    0.12816E-05   -0.19635E-06    96   0.511E-03    0.374E-03
DAV:   6    -0.986953593613E+02   -0.68549E-07   -0.17017E-06   120   0.421E-03
 140 F= -.98695359E+02 E0= -.98695359E+02  d E =-.891837E-10
       N       E                     dE             d eps       ncg     rms          rms(c)
DAV:   1    -0.986951443101E+02    0.21498E-03   -0.53304E-01    96   0.213E+00    0.182E-01
DAV:   2    -0.986950023792E+02    0.14193E-03   -0.27662E-03   108   0.152E-01    0.997E-02
DAV:   3    -0.986948563759E+02    0.14600E-03   -0.39456E-04   120   0.497E-02    0.242E-02
DAV:   4    -0.986948494346E+02    0.69413E-05   -0.54274E-05   120   0.215E-02    0.986E-03
DAV:   5    -0.986948498343E+02   -0.39967E-06   -0.44934E-06   132   0.716E-03
 141 F= -.98694850E+02 E0= -.98694850E+02  d E =-.861370E-10
       N       E                     dE             d eps       ncg     rms          rms(c)
DAV:   1    -0.986942242846E+02    0.62515E-03   -0.26435E-01    96   0.147E+00    0.110E-01
DAV:   2    -0.986941671311E+02    0.57153E-04   -0.10490E-03   120   0.949E-02    0.639E-02
DAV:   3    -0.986941188310E+02    0.48300E-04   -0.19967E-04   108   0.397E-02    0.814E-03
DAV:   4    -0.986941234308E+02   -0.45997E-05   -0.32991E-05   132   0.171E-02    0.590E-03
DAV:   5    -0.986941244445E+02   -0.10138E-05   -0.68519E-07    96   0.297E-03    0.410E-03
DAV:   6    -0.986941275930E+02   -0.31485E-05   -0.10744E-06    96   0.335E-03    0.601E-04
DAV:   7    -0.986941289179E+02   -0.13249E-05   -0.30750E-07    96   0.175E-03    0.541E-04
DAV:   8    -0.986941306622E+02   -0.17443E-05   -0.82131E-08    84   0.972E-04    0.241E-04
DAV:   9    -0.986941323975E+02   -0.17353E-05   -0.89820E-08    96   0.798E-04    0.178E-04
DAV:  10    -0.986941335538E+02   -0.11563E-05   -0.35983E-08    84   0.522E-04    0.970E-05
DAV:  11    -0.986941343824E+02   -0.82861E-06   -0.25248E-08    96   0.337E-04
 142 F= -.98694134E+02 E0= -.98694134E+02  d E =-.704889E-10
       N       E                     dE             d eps       ncg     rms          rms(c)
DAV:   1    -0.986944714856E+02   -0.33793E-03   -0.54579E-01    96   0.207E+00    0.200E-01
DAV:   2    -0.986943614576E+02    0.11003E-03   -0.43215E-03   108   0.186E-01    0.111E-01
DAV:   3    -0.986941536517E+02    0.20781E-03   -0.53327E-04   132   0.624E-02    0.294E-02
DAV:   4    -0.986941521317E+02    0.15200E-05   -0.13376E-04   120   0.301E-02    0.111E-02
DAV:   5    -0.986941504798E+02    0.16519E-05   -0.46283E-06   132   0.784E-03    0.587E-03
DAV:   6    -0.986941526936E+02   -0.22139E-05   -0.40261E-06   108   0.631E-03    0.155E-03
DAV:   7    -0.986941564034E+02   -0.37098E-05   -0.11490E-06   120   0.322E-03    0.109E-03
DAV:   8    -0.986941617865E+02   -0.53830E-05   -0.30891E-07    84   0.145E-03    0.426E-04
DAV:   9    -0.986941652478E+02   -0.34613E-05   -0.16424E-07    96   0.889E-04    0.306E-04
DAV:  10    -0.986941700983E+02   -0.48505E-05   -0.23082E-07    84   0.905E-04    0.202E-04
DAV:  11    -0.986941719569E+02   -0.18587E-05   -0.48135E-08    96   0.485E-04    0.109E-04
DAV:  12    -0.986941738475E+02   -0.18905E-05   -0.36714E-08    84   0.395E-04    0.989E-05
DAV:  13    -0.986941745209E+02   -0.67343E-06   -0.38649E-09    96   0.219E-04
 143 F= -.98694175E+02 E0= -.98694175E+02  d E =-.760332E-10
       N       E                     dE             d eps       ncg     rms          rms(c)
DAV:   1    -0.986962661780E+02   -0.20923E-02   -0.26910E-01    96   0.152E+00    0.126E-01
DAV:   2    -0.986961819357E+02    0.84242E-04   -0.14475E-03   108   0.112E-01    0.714E-02
DAV:   3    -0.986961024010E+02    0.79535E-04   -0.23508E-04   120   0.426E-02    0.135E-02
DAV:   4    -0.986961042928E+02   -0.18918E-05   -0.44926E-05   120   0.192E-02    0.712E-03
DAV:   5    -0.986961042136E+02    0.79252E-07   -0.12459E-06   132   0.390E-03
 144 F= -.98696104E+02 E0= -.98696104E+02  d E =-.829358E-10
       N       E                     dE             d eps       ncg     rms          rms(c)
DAV:   1    -0.986960644096E+02    0.39883E-04   -0.52508E-01    96   0.218E+00    0.158E-01
DAV:   2    -0.986959405224E+02    0.12389E-03   -0.20411E-03   108   0.136E-01    0.919E-02
DAV:   3    -0.986958375663E+02    0.10296E-03   -0.35853E-04   132   0.572E-02    0.119E-02
DAV:   4    -0.986958437225E+02   -0.61562E-05   -0.54754E-05   120   0.231E-02    0.857E-03
DAV:   5    -0.986958445506E+02   -0.82810E-06   -0.17079E-06   132   0.421E-03
 145 F= -.98695845E+02 E0= -.98695845E+02  d E =-.823536E-10
       N       E                     dE             d eps       ncg     rms          rms(c)
DAV:   1    -0.986952592320E+02    0.58449E-03   -0.26626E-01    96   0.195E+00    0.119E-01
DAV:   2    -0.986952306709E+02    0.28561E-04   -0.16361E-03   120   0.153E-01    0.687E-02
DAV:   3    -0.986951728210E+02    0.57850E-04   -0.20339E-04   108   0.489E-02    0.135E-02
DAV:   4    -0.986951770447E+02   -0.42237E-05   -0.46905E-05   132   0.230E-02    0.748E-03
DAV:   5    -0.986951770830E+02   -0.38333E-07   -0.11108E-06    84   0.421E-03
 146 F= -.98695177E+02 E0= -.98695177E+02  d E =-.751883E-10
       N       E                     dE             d eps       ncg     rms          rms(c)
DAV:   1    -0.986954409965E+02   -0.26395E-03   -0.53573E-01    96   0.272E+00    0.177E-01
DAV:   2    -0.986953072824E+02    0.13371E-03   -0.32108E-03   108   0.205E-01    0.101E-01
DAV:   3    -0.986951484593E+02    0.15882E-03   -0.48286E-04   108   0.717E-02    0.196E-02
DAV:   4    -0.986951528126E+02   -0.43533E-05   -0.10171E-04   132   0.334E-02    0.109E-02
DAV:   5    -0.986951517248E+02    0.10877E-05   -0.25929E-06   120   0.605E-03    0.696E-03
DAV:   6    -0.986951524395E+02   -0.71469E-06   -0.32765E-06   108   0.665E-03
 147 F= -.98695152E+02 E0= -.98695152E+02  d E =-.810371E-10
       N       E                     dE             d eps       ncg     rms          rms(c)
DAV:   1    -0.986941093126E+02    0.10424E-02   -0.26385E-01    96   0.185E+00    0.112E-01
DAV:   2    -0.986940444021E+02    0.64910E-04   -0.10041E-03   108   0.113E-01    0.638E-02
DAV:   3    -0.986939864259E+02    0.57976E-04   -0.16966E-04   120   0.408E-02    0.103E-02
DAV:   4    -0.986939888859E+02   -0.24600E-05   -0.23771E-05   120   0.165E-02    0.565E-03
DAV:   5    -0.986939902696E+02   -0.13836E-05   -0.10601E-06    84   0.375E-03    0.344E-03
DAV:   6    -0.986939931266E+02   -0.28571E-05   -0.76747E-07    96   0.318E-03    0.662E-04
DAV:   7    -0.986939950660E+02   -0.19394E-05   -0.25552E-07    96   0.178E-03    0.607E-04
DAV:   8    -0.986939983553E+02   -0.32892E-05   -0.19811E-07    84   0.161E-03    0.242E-04
DAV:   9    -0.986940002559E+02   -0.19006E-05   -0.13536E-07    96   0.103E-03    0.218E-04
DAV:  10    -0.986940020840E+02   -0.18282E-05   -0.57908E-08    84   0.659E-04    0.120E-04
DAV:  11    -0.986940030715E+02   -0.98746E-06   -0.33592E-08    96   0.404E-04
 148 F= -.98694003E+02 E0= -.98694003E+02  d E =-.704151E-10
       N       E                     dE             d eps       ncg     rms          rms(c)
DAV:   1    -0.986943523910E+02   -0.35031E-03   -0.54285E-01    96   0.273E+00    0.204E-01
DAV:   2    -0.986943108685E+02    0.41523E-04   -0.44952E-03   108   0.231E-01    0.111E-01
DAV:   3    -0.986941141896E+02    0.19668E-03   -0.46177E-04   132   0.648E-02    0.329E-02
DAV:   4    -0.986941024212E+02    0.11768E-04   -0.10720E-04   108   0.303E-02    0.108E-02
DAV:   5    -0.986940995984E+02    0.28228E-05   -0.66719E-06   132   0.110E-02    0.512E-03
DAV:   6    -0.986941021244E+02   -0.25259E-05   -0.46382E-06   108   0.787E-03    0.187E-03
DAV:   7    -0.986941062778E+02   -0.41535E-05   -0.11660E-06   108   0.386E-03    0.123E-03
DAV:   8    -0.986941120613E+02   -0.57835E-05   -0.39469E-07    84   0.219E-03    0.596E-04
DAV:   9    -0.986941171795E+02   -0.51182E-05   -0.31510E-07    96   0.163E-03    0.378E-04
DAV:  10    -0.986941232401E+02   -0.60606E-05   -0.32242E-07    84   0.132E-03    0.179E-04
DAV:  11    -0.986941260241E+02   -0.27839E-05   -0.74315E-08    96   0.699E-04    0.148E-04
DAV:  12    -0.986941282807E+02   -0.22566E-05   -0.32589E-08    84   0.419E-04    0.764E-05
DAV:  13    -0.986941295419E+02   -0.12612E-05   -0.19239E-08    96   0.307E-04    0.429E-05
DAV:  14    -0.986941303324E+02   -0.79049E-06   -0.31999E-09    84   0.201E-04
 149 F= -.98694130E+02 E0= -.98694130E+02  d E =-.764460E-10
       N       E                     dE             d eps       ncg     rms          rms(c)
DAV:   1    -0.986962134339E+02   -0.20839E-02   -0.26635E-01    96   0.187E+00    0.129E-01
DAV:   2    -0.986961270499E+02    0.86384E-04   -0.14223E-03   108   0.140E-01    0.712E-02
DAV:   3    -0.986960531650E+02    0.73885E-04   -0.21877E-04   132   0.461E-02    0.158E-02
DAV:   4    -0.986960534930E+02   -0.32799E-06   -0.36342E-05   132   0.197E-02    0.737E-03
DAV:   5    -0.986960538625E+02   -0.36952E-06   -0.16948E-06    84   0.502E-03
 150 F= -.98696054E+02 E0= -.98696054E+02  d E =-.890968E-10
       N       E                     dE             d eps       ncg     rms          rms(c)
DAV:   1    -0.986961488020E+02   -0.95309E-04   -0.52482E-01    96   0.263E+00    0.160E-01
DAV:   2    -0.986960097757E+02    0.13903E-03   -0.19663E-03   108   0.165E-01    0.917E-02
DAV:   3    -0.986959021625E+02    0.10761E-03   -0.36175E-04   120   0.620E-02    0.116E-02
DAV:   4    -0.986959086156E+02   -0.64531E-05   -0.52261E-05   132   0.245E-02    0.741E-03
DAV:   5    -0.986959098927E+02   -0.12772E-05   -0.15618E-06    84   0.451E-03    0.508E-03
DAV:   6    -0.986959139488E+02   -0.40561E-05   -0.16762E-06    96   0.451E-03    0.856E-04
DAV:   7    -0.986959163121E+02   -0.23633E-05   -0.55470E-07   108   0.251E-03    0.848E-04
DAV:   8    -0.986959196002E+02   -0.32881E-05   -0.18973E-07    84   0.175E-03    0.381E-04
DAV:   9    -0.986959229114E+02   -0.33111E-05   -0.23074E-07    96   0.155E-03    0.272E-04
DAV:  10    -0.986959253481E+02   -0.24367E-05   -0.11699E-07    84   0.984E-04    0.142E-04
DAV:  11    -0.986959263234E+02   -0.97529E-06   -0.30124E-08    96   0.449E-04
 151 F= -.98695926E+02 E0= -.98695926E+02  d E =-.686352E-10
       N       E                     dE             d eps       ncg     rms          rms(c)
DAV:   1    -0.986940090385E+02    0.19163E-02   -0.26645E-01   108   0.201E+00    0.130E-01
DAV:   2    -0.986939626167E+02    0.46422E-04   -0.19710E-03    96   0.165E-01    0.712E-02
DAV:   3    -0.986938815107E+02    0.81106E-04   -0.22648E-04   120   0.510E-02    0.191E-02
DAV:   4    -0.986938829294E+02   -0.14187E-05   -0.60061E-05   132   0.248E-02    0.734E-03
DAV:   5    -0.986938831725E+02   -0.24310E-06   -0.25852E-06   108   0.601E-03
 152 F= -.98693883E+02 E0= -.98693883E+02  d E =-.815144E-10
       N       E                     dE             d eps       ncg     rms          rms(c)
DAV:   1    -0.986940412124E+02   -0.15828E-03   -0.54448E-01   120   0.276E+00    0.207E-01
DAV:   2    -0.986939707514E+02    0.70461E-04   -0.47401E-03   108   0.242E-01    0.114E-01
DAV:   3    -0.986937581928E+02    0.21256E-03   -0.59357E-04   108   0.768E-02    0.307E-02
DAV:   4    -0.986937573382E+02    0.85462E-06   -0.15237E-04   132   0.377E-02    0.130E-02
DAV:   5    -0.986937545532E+02    0.27850E-05   -0.55026E-06   108   0.940E-03    0.704E-03
DAV:   6    -0.986937550790E+02   -0.52582E-06   -0.56274E-06   120   0.885E-03
 153 F= -.98693755E+02 E0= -.98693755E+02  d E =-.879609E-10
       N       E                     dE             d eps       ncg     rms          rms(c)
DAV:   1    -0.986959242933E+02   -0.21697E-02   -0.26847E-01   108   0.192E+00    0.140E-01
DAV:   2    -0.986958931377E+02    0.31156E-04   -0.20383E-03    96   0.153E-01    0.765E-02
DAV:   3    -0.986958121242E+02    0.81013E-04   -0.22758E-04   108   0.439E-02    0.221E-02
DAV:   4    -0.986958095575E+02    0.25667E-05   -0.42865E-05   120   0.198E-02    0.792E-03
DAV:   5    -0.986958083507E+02    0.12068E-05   -0.31926E-06   120   0.707E-03    0.365E-03
DAV:   6    -0.986958091559E+02   -0.80524E-06   -0.20600E-06   120   0.481E-03
 154 F= -.98695809E+02 E0= -.98695809E+02  d E =-.767561E-10
       N       E                     dE             d eps       ncg     rms          rms(c)
DAV:   1    -0.986962383990E+02   -0.43005E-03   -0.53132E-01    96   0.265E+00    0.161E-01
DAV:   2    -0.986961205692E+02    0.11783E-03   -0.20164E-03   108   0.157E-01    0.923E-02
DAV:   3    -0.986960117286E+02    0.10884E-03   -0.34403E-04   120   0.570E-02    0.146E-02
DAV:   4    -0.986960136888E+02   -0.19601E-05   -0.45300E-05   108   0.228E-02    0.742E-03
DAV:   5    -0.986960131871E+02    0.50169E-06   -0.19169E-06   120   0.513E-03
 155 F= -.98696013E+02 E0= -.98696013E+02  d E =-.886856E-10
       N       E                     dE             d eps       ncg     rms          rms(c)
DAV:   1    -0.986955436119E+02    0.47008E-03   -0.26591E-01    96   0.192E+00    0.115E-01
DAV:   2    -0.986954837092E+02    0.59903E-04   -0.11483E-03   132   0.121E-01    0.667E-02
DAV:   3    -0.986954312711E+02    0.52438E-04   -0.19133E-04   108   0.456E-02    0.889E-03
DAV:   4    -0.986954350492E+02   -0.37781E-05   -0.32399E-05   132   0.191E-02    0.583E-03
DAV:   5    -0.986954355047E+02   -0.45544E-06   -0.71312E-07    84   0.329E-03
 156 F= -.98695436E+02 E0= -.98695436E+02  d E =-.928329E-10
       N       E                     dE             d eps       ncg     rms          rms(c)
DAV:   1    -0.986957730816E+02   -0.33803E-03   -0.53259E-01    96   0.269E+00    0.172E-01
DAV:   2    -0.986956875785E+02    0.85503E-04   -0.27497E-03   120   0.182E-01    0.975E-02
DAV:   3    -0.986955506855E+02    0.13689E-03   -0.38183E-04   120   0.595E-02    0.201E-02
DAV:   4    -0.986955502513E+02    0.43416E-06   -0.60121E-05   132   0.245E-02    0.862E-03
DAV:   5    -0.986955502820E+02   -0.30728E-07   -0.33119E-06   132   0.665E-03
 157 F= -.98695550E+02 E0= -.98695550E+02  d E =-.786339E-10
