       N       E                     dE             d eps       ncg     rms          rms(c)
DAV:   1     0.248740445575E+03    0.24874E+03   -0.10141E+04   120   0.484E+02
DAV:   2    -0.196096172187E+02   -0.26835E+03   -0.25488E+03   156   0.915E+01
DAV:   3    -0.999243622556E+02   -0.80315E+02   -0.80096E+02   120   0.555E+01
DAV:   4    -0.103829443457E+03   -0.39051E+01   -0.38930E+01   132   0.175E+01
DAV:   5    -0.103883742852E+03   -0.54299E-01   -0.54251E-01   156   0.227E+00    0.145E+01
DAV:   6    -0.100605598132E+03    0.32781E+01   -0.15433E+00   108   0.429E+00    0.832E+00
DAV:   7    -0.989616425675E+02    0.16440E+01   -0.40056E+00   120   0.617E+00    0.127E+00
DAV:   8    -0.989020216726E+02    0.59621E-01   -0.33819E-01   132   0.220E+00    0.667E-01
DAV:   9    -0.988683581386E+02    0.33664E-01   -0.59941E-02   144   0.660E-01    0.343E-01
DAV:  10    -0.988671000031E+02    0.12581E-02   -0.34083E-03   132   0.192E-01    0.136E-01
DAV:  11    -0.988664298839E+02    0.67012E-03   -0.57211E-03   120   0.206E-01    0.106E-01
DAV:  12    -0.988728503562E+02   -0.64205E-02   -0.20220E-03   132   0.117E-01    0.476E-02
DAV:  13    -0.988756288479E+02   -0.27785E-02   -0.14764E-03   132   0.104E-01    0.444E-02
DAV:  14    -0.988786548621E+02   -0.30260E-02   -0.20303E-04   132   0.512E-02    0.187E-02
DAV:  15    -0.988829965591E+02   -0.43417E-02   -0.46324E-04   108   0.524E-02    0.131E-02
DAV:  16    -0.988847762938E+02   -0.17797E-02   -0.13572E-04   132   0.317E-02    0.773E-03
DAV:  17    -0.988858817671E+02   -0.11055E-02   -0.90591E-05   132   0.209E-02    0.535E-03
DAV:  18    -0.988862489738E+02   -0.36721E-03   -0.14654E-05   132   0.921E-03    0.229E-03
DAV:  19    -0.988864100650E+02   -0.16109E-03   -0.53845E-06   108   0.546E-03    0.150E-03
DAV:  20    -0.988864717744E+02   -0.61709E-04   -0.12680E-06   108   0.323E-03    0.520E-04
DAV:  21    -0.988864926000E+02   -0.20826E-04   -0.55165E-07   108   0.188E-03    0.558E-04
DAV:  22    -0.988865017171E+02   -0.91171E-05   -0.18226E-07   108   0.109E-03    0.197E-04
DAV:  23    -0.988865058262E+02   -0.41091E-05   -0.73513E-08   108   0.638E-04    0.117E-04
DAV:  24    -0.988865092778E+02   -0.34516E-05   -0.56583E-08    84   0.491E-04    0.770E-05
DAV:  25    -0.988865097991E+02   -0.52135E-06   -0.20161E-09   108   0.214E-04
   1 F= -.98886510E+02 E0= -.98886510E+02  d E =-.130457E-10
       N       E                     dE             d eps       ncg     rms          rms(c)
DAV:   1    -0.988831533297E+02    0.33559E-02   -0.81143E-02    96   0.801E-01    0.129E-01
DAV:   2    -0.988834597785E+02   -0.30645E-03   -0.35438E-03   132   0.195E-01    0.552E-02
DAV:   3    -0.988834487689E+02    0.11010E-04   -0.13247E-04   132   0.427E-02    0.287E-02
DAV:   4    -0.988834520088E+02   -0.32399E-05   -0.31112E-05   132   0.208E-02    0.818E-03
DAV:   5    -0.988834513905E+02    0.61834E-06   -0.62557E-06   132   0.979E-03
   2 F= -.98883451E+02 E0= -.98883451E+02  d E =-.130537E-10
       N       E                     dE             d eps       ncg     rms          rms(c)
DAV:   1    -0.988822105890E+02    0.12414E-02   -0.32410E-01    96   0.161E+00    0.266E-01
DAV:   2    -0.988834214003E+02   -0.12108E-02   -0.14006E-02   120   0.390E-01    0.110E-01
DAV:   3    -0.988833824823E+02    0.38918E-04   -0.52765E-04   120   0.849E-02    0.592E-02
DAV:   4    -0.988833988620E+02   -0.16380E-04   -0.12611E-04   108   0.418E-02    0.167E-02
DAV:   5    -0.988833964169E+02    0.24451E-05   -0.25446E-05   132   0.194E-02    0.967E-03
DAV:   6    -0.988833960429E+02    0.37405E-06   -0.48209E-06   132   0.752E-03
   3 F= -.98883396E+02 E0= -.98883396E+02  d E =-.117843E-10
       N       E                     dE             d eps       ncg     rms          rms(c)
DAV:   1    -0.988828863558E+02    0.51006E-03   -0.16180E-01    96   0.113E+00    0.156E-01
DAV:   2    -0.988835625072E+02   -0.67615E-03   -0.73979E-03   120   0.273E-01    0.761E-02
DAV:   3    -0.988835508515E+02    0.11656E-04   -0.26708E-04   120   0.609E-02    0.376E-02
DAV:   4    -0.988835635702E+02   -0.12719E-04   -0.59881E-05   108   0.283E-02    0.112E-02
DAV:   5    -0.988835632308E+02    0.33946E-06   -0.88479E-06   132   0.118E-02
   4 F= -.98883563E+02 E0= -.98883563E+02  d E =-.118911E-10
       N       E                     dE             d eps       ncg     rms          rms(c)
DAV:   1    -0.988819797943E+02    0.15838E-02   -0.32146E-01    96   0.158E+00    0.237E-01
DAV:   2    -0.988834025471E+02   -0.14228E-02   -0.15516E-02   108   0.405E-01    0.111E-01
DAV:   3    -0.988833667199E+02    0.35827E-04   -0.54187E-04   132   0.877E-02    0.573E-02
DAV:   4    -0.988833839899E+02   -0.17270E-04   -0.13547E-04   108   0.429E-02    0.164E-02
DAV:   5    -0.988833798072E+02    0.41827E-05   -0.23316E-05   132   0.188E-02    0.905E-03
DAV:   6    -0.988833791907E+02    0.61653E-06   -0.55216E-06   132   0.790E-03
   5 F= -.98883379E+02 E0= -.98883379E+02  d E =-.144258E-10
       N       E                     dE             d eps       ncg     rms          rms(c)
DAV:   1    -0.988812532424E+02    0.21266E-02   -0.16029E-01    96   0.116E+00    0.162E-01
DAV:   2    -0.988821447048E+02   -0.89146E-03   -0.95696E-03   108   0.315E-01    0.920E-02
DAV:   3    -0.988821074816E+02    0.37223E-04   -0.28494E-04   120   0.659E-02    0.482E-02
DAV:   4    -0.988821152649E+02   -0.77833E-05   -0.10621E-04   108   0.376E-02    0.115E-02
DAV:   5    -0.988821136265E+02    0.16384E-05   -0.19279E-05   132   0.164E-02    0.722E-03
DAV:   6    -0.988821154101E+02   -0.17837E-05   -0.36902E-06   108   0.603E-03    0.438E-03
DAV:   7    -0.988821206405E+02   -0.52303E-05   -0.46864E-07    96   0.240E-03    0.166E-03
DAV:   8    -0.988821262239E+02   -0.55835E-05   -0.45025E-07    84   0.222E-03    0.619E-04
DAV:   9    -0.988821318716E+02   -0.56476E-05   -0.37624E-07    96   0.170E-03    0.571E-04
DAV:  10    -0.988821387673E+02   -0.68958E-05   -0.56880E-07    96   0.162E-03    0.392E-04
DAV:  11    -0.988821398304E+02   -0.10630E-05   -0.29740E-08   120   0.661E-04    0.285E-04
DAV:  12    -0.988821415454E+02   -0.17151E-05   -0.38972E-08    96   0.512E-04    0.130E-04
DAV:  13    -0.988821429195E+02   -0.13740E-05   -0.38422E-08    96   0.420E-04    0.107E-04
DAV:  14    -0.988821438437E+02   -0.92424E-06   -0.15389E-08    84   0.280E-04
   6 F= -.98882144E+02 E0= -.98882144E+02  d E =-.155696E-10
       N       E                     dE             d eps       ncg     rms          rms(c)
DAV:   1    -0.988800856119E+02    0.20573E-02   -0.32955E-01    96   0.162E+00    0.265E-01
DAV:   2    -0.988823552669E+02   -0.22697E-02   -0.24629E-02   120   0.479E-01    0.168E-01
DAV:   3    -0.988821889884E+02    0.16628E-03   -0.67933E-04   132   0.102E-01    0.884E-02
DAV:   4    -0.988821878415E+02    0.11469E-05   -0.40521E-04   132   0.671E-02    0.161E-02
DAV:   5    -0.988821789930E+02    0.88485E-05   -0.61513E-05   108   0.270E-02    0.116E-02
DAV:   6    -0.988821791332E+02   -0.14022E-06   -0.10708E-05   132   0.857E-03    0.775E-03
DAV:   7    -0.988821906265E+02   -0.11493E-04   -0.11495E-06   120   0.348E-03    0.319E-03
DAV:   8    -0.988822088424E+02   -0.18216E-04   -0.18180E-06   108   0.432E-03    0.133E-03
DAV:   9    -0.988822230911E+02   -0.14249E-04   -0.10565E-06   132   0.233E-03    0.148E-03
DAV:  10    -0.988822445608E+02   -0.21470E-04   -0.11901E-06   120   0.220E-03    0.674E-04
DAV:  11    -0.988822488456E+02   -0.42848E-05   -0.95397E-08   120   0.847E-04    0.454E-04
DAV:  12    -0.988822583029E+02   -0.94573E-05   -0.32604E-07    96   0.113E-03    0.255E-04
DAV:  13    -0.988822604035E+02   -0.21006E-05   -0.54975E-08   108   0.492E-04    0.227E-04
DAV:  14    -0.988822627196E+02   -0.23161E-05   -0.25108E-08    84   0.413E-04    0.731E-05
DAV:  15    -0.988822635853E+02   -0.86574E-06   -0.10152E-08   108   0.258E-04
   7 F= -.98882264E+02 E0= -.98882264E+02  d E =-.130625E-10
       N       E                     dE             d eps       ncg     rms          rms(c)
DAV:   1    -0.988814293039E+02    0.83342E-03   -0.18946E-01    96   0.131E+00    0.190E-01
DAV:   2    -0.988827949736E+02   -0.13657E-02   -0.14199E-02    96   0.411E-01    0.119E-01
DAV:   3    -0.988827151278E+02    0.79846E-04   -0.38219E-04   132   0.818E-02    0.652E-02
DAV:   4    -0.988827135509E+02    0.15768E-05   -0.21045E-04   108   0.553E-02    0.118E-02
DAV:   5    -0.988827092575E+02    0.42934E-05   -0.43226E-05   132   0.232E-02    0.953E-03
DAV:   6    -0.988827097201E+02   -0.46256E-06   -0.44227E-06   120   0.660E-03
   8 F= -.98882710E+02 E0= -.98882710E+02  d E =-.110019E-10
       N       E                     dE             d eps       ncg     rms          rms(c)
DAV:   1    -0.988802961899E+02    0.24131E-02   -0.33759E-01    96   0.178E+00    0.257E-01
DAV:   2    -0.988823616304E+02   -0.20654E-02   -0.21174E-02   132   0.496E-01    0.154E-01
DAV:   3    -0.988822985510E+02    0.63079E-04   -0.51793E-04   108   0.878E-02    0.847E-02
DAV:   4    -0.988822931418E+02    0.54092E-05   -0.22891E-04   120   0.575E-02    0.148E-02
DAV:   5    -0.988822845134E+02    0.86284E-05   -0.46493E-05   132   0.254E-02    0.104E-02
DAV:   6    -0.988822833896E+02    0.11238E-05   -0.73494E-06   132   0.950E-03    0.640E-03
DAV:   7    -0.988822948390E+02   -0.11449E-04   -0.32798E-06   120   0.779E-03    0.210E-03
DAV:   8    -0.988823102857E+02   -0.15447E-04   -0.21271E-06   132   0.578E-03    0.189E-03
DAV:   9    -0.988823189360E+02   -0.86503E-05   -0.51194E-07   108   0.261E-03    0.166E-03
DAV:  10    -0.988823354872E+02   -0.16551E-04   -0.69803E-07    84   0.189E-03    0.489E-04
DAV:  11    -0.988823451970E+02   -0.97098E-05   -0.61329E-07    96   0.173E-03    0.652E-04
DAV:  12    -0.988823503197E+02   -0.51227E-05   -0.13549E-07   108   0.112E-03    0.379E-04
DAV:  13    -0.988823567441E+02   -0.64243E-05   -0.23269E-07    84   0.101E-03    0.336E-04
DAV:  14    -0.988823585273E+02   -0.17832E-05   -0.30180E-08   108   0.467E-04    0.174E-04
DAV:  15    -0.988823607365E+02   -0.22092E-05   -0.44311E-08    84   0.538E-04    0.213E-04
DAV:  16    -0.988823612267E+02   -0.49013E-06   -0.18381E-09   108   0.274E-04
   9 F= -.98882361E+02 E0= -.98882361E+02  d E =-.129570E-10
       N       E                     dE             d eps       ncg     rms          rms(c)
DAV:   1    -0.988802922750E+02    0.20685E-02   -0.17107E-01    96   0.125E+00    0.183E-01
DAV:   2    -0.988814297822E+02   -0.11375E-02   -0.11675E-02   108   0.374E-01    0.116E-01
DAV:   3    -0.988813763368E+02    0.53445E-04   -0.26761E-04   132   0.669E-02    0.652E-02
DAV:   4    -0.988813699277E+02    0.64091E-05   -0.17064E-04   108   0.501E-02    0.115E-02
DAV:   5    -0.988813663808E+02    0.35469E-05   -0.40791E-05   132   0.232E-02    0.877E-03
DAV:   6    -0.988813680535E+02   -0.16727E-05   -0.79036E-06   132   0.868E-03    0.559E-03
DAV:   7    -0.988813782280E+02   -0.10174E-04   -0.17763E-06   132   0.467E-03    0.221E-03
DAV:   8    -0.988813915398E+02   -0.13312E-04   -0.10526E-06   108   0.299E-03    0.872E-04
DAV:   9    -0.988814068653E+02   -0.15326E-04   -0.15392E-06   108   0.295E-03    0.103E-03
DAV:  10    -0.988814180529E+02   -0.11188E-04   -0.79263E-07   108   0.211E-03    0.492E-04
DAV:  11    -0.988814232544E+02   -0.52015E-05   -0.37195E-07    84   0.123E-03    0.211E-04
DAV:  12    -0.988814269772E+02   -0.37227E-05   -0.15492E-07    96   0.790E-04    0.168E-04
DAV:  13    -0.988814284157E+02   -0.14386E-05   -0.39944E-08   108   0.435E-04    0.125E-04
DAV:  14    -0.988814295728E+02   -0.11570E-05   -0.24548E-08    84   0.342E-04    0.511E-05
DAV:  15    -0.988814299393E+02   -0.36655E-06    0.44892E-10   108   0.178E-04
  10 F= -.98881430E+02 E0= -.98881430E+02  d E =-.150194E-10
       N       E                     dE             d eps       ncg     rms          rms(c)
DAV:   1    -0.988792713817E+02    0.21582E-02   -0.35184E-01    96   0.177E+00    0.255E-01
DAV:   2    -0.988819526269E+02   -0.26812E-02   -0.27245E-02   108   0.556E-01    0.185E-01
DAV:   3    -0.988817860965E+02    0.16653E-03   -0.61340E-04   144   0.106E-01    0.947E-02
DAV:   4    -0.988817986094E+02   -0.12513E-04   -0.51657E-04   120   0.833E-02    0.186E-02
DAV:   5    -0.988817847832E+02    0.13826E-04   -0.10259E-04   132   0.364E-02    0.125E-02
DAV:   6    -0.988817868945E+02   -0.21113E-05   -0.19321E-05   132   0.116E-02    0.707E-03
DAV:   7    -0.988818052349E+02   -0.18340E-04   -0.14150E-06   120   0.393E-03    0.339E-03
DAV:   8    -0.988818368040E+02   -0.31569E-04   -0.52989E-06   108   0.610E-03    0.178E-03
DAV:   9    -0.988818546816E+02   -0.17878E-04   -0.15791E-06   132   0.322E-03    0.188E-03
DAV:  10    -0.988818756764E+02   -0.20995E-04   -0.15635E-06   120   0.279E-03    0.491E-04
DAV:  11    -0.988818815669E+02   -0.58904E-05   -0.19774E-07   108   0.121E-03    0.334E-04
DAV:  12    -0.988818906114E+02   -0.90445E-05   -0.38235E-07    84   0.122E-03    0.195E-04
DAV:  13    -0.988818927450E+02   -0.21336E-05   -0.57374E-08   108   0.488E-04    0.207E-04
DAV:  14    -0.988818953162E+02   -0.25713E-05   -0.41503E-08    84   0.465E-04    0.950E-05
DAV:  15    -0.988818959481E+02   -0.63184E-06   -0.64470E-09   108   0.241E-04
  11 F= -.98881896E+02 E0= -.98881896E+02  d E =-.145967E-10
       N       E                     dE             d eps       ncg     rms          rms(c)
DAV:   1    -0.988820660267E+02   -0.17071E-03   -0.17096E-01    96   0.126E+00    0.173E-01
DAV:   2    -0.988834001673E+02   -0.13341E-02   -0.13547E-02   108   0.398E-01    0.123E-01
DAV:   3    -0.988833303110E+02    0.69856E-04   -0.29968E-04   156   0.725E-02    0.681E-02
DAV:   4    -0.988833293053E+02    0.10057E-05   -0.21895E-04   132   0.575E-02    0.122E-02
DAV:   5    -0.988833246988E+02    0.46065E-05   -0.58842E-05   132   0.278E-02    0.901E-03
DAV:   6    -0.988833249411E+02   -0.24226E-06   -0.84065E-06   132   0.835E-03
  12 F= -.98883325E+02 E0= -.98883325E+02  d E =-.123624E-10
       N       E                     dE             d eps       ncg     rms          rms(c)
DAV:   1    -0.988812240077E+02    0.21007E-02   -0.32533E-01    96   0.171E+00    0.219E-01
DAV:   2    -0.988830250427E+02   -0.18010E-02   -0.18244E-02   132   0.454E-01    0.128E-01
DAV:   3    -0.988830214941E+02    0.35486E-05   -0.48937E-04   132   0.859E-02    0.696E-02
DAV:   4    -0.988830512880E+02   -0.29794E-04   -0.17549E-04   108   0.550E-02    0.132E-02
DAV:   5    -0.988830479001E+02    0.33879E-05   -0.45997E-05   132   0.258E-02    0.998E-03
DAV:   6    -0.988830475685E+02    0.33166E-06   -0.63895E-06   120   0.838E-03
  13 F= -.98883048E+02 E0= -.98883048E+02  d E =-.152798E-10
       N       E                     dE             d eps       ncg     rms          rms(c)
DAV:   1    -0.988804456321E+02    0.26023E-02   -0.16692E-01    96   0.125E+00    0.171E-01
DAV:   2    -0.988817509394E+02   -0.13053E-02   -0.13393E-02   132   0.385E-01    0.113E-01
DAV:   3    -0.988817028492E+02    0.48090E-04   -0.32597E-04   120   0.730E-02    0.657E-02
DAV:   4    -0.988817142886E+02   -0.11439E-04   -0.18911E-04   108   0.558E-02    0.120E-02
DAV:   5    -0.988817117462E+02    0.25425E-05   -0.58793E-05   132   0.279E-02    0.997E-03
DAV:   6    -0.988817096092E+02    0.21370E-05   -0.59049E-06   132   0.780E-03    0.702E-03
DAV:   7    -0.988817124851E+02   -0.28759E-05   -0.17610E-06   108   0.499E-03    0.280E-03
DAV:   8    -0.988817190565E+02   -0.65714E-05   -0.74614E-07    96   0.383E-03    0.824E-04
DAV:   9    -0.988817270485E+02   -0.79920E-05   -0.78833E-07   120   0.265E-03    0.129E-03
DAV:  10    -0.988817350586E+02   -0.80101E-05   -0.26665E-07    84   0.149E-03    0.436E-04
DAV:  11    -0.988817398484E+02   -0.47898E-05   -0.23639E-07    96   0.109E-03    0.306E-04
DAV:  12    -0.988817438790E+02   -0.40306E-05   -0.11698E-07    84   0.739E-04    0.120E-04
DAV:  13    -0.988817465911E+02   -0.27121E-05   -0.81770E-08    96   0.561E-04    0.144E-04
DAV:  14    -0.988817475921E+02   -0.10011E-05   -0.10046E-08   108   0.276E-04    0.119E-04
DAV:  15    -0.988817486767E+02   -0.10846E-05   -0.15645E-08    84   0.297E-04    0.302E-05
DAV:  16    -0.988817488965E+02   -0.21981E-06    0.28819E-09   108   0.133E-04
  14 F= -.98881749E+02 E0= -.98881749E+02  d E =-.124765E-10
       N       E                     dE             d eps       ncg     rms          rms(c)
DAV:   1    -0.988799059080E+02    0.18428E-02   -0.34888E-01    96   0.177E+00    0.259E-01
DAV:   2    -0.988823014050E+02   -0.23955E-02   -0.24472E-02   132   0.539E-01    0.172E-01
DAV:   3    -0.988821830369E+02    0.11837E-03   -0.56879E-04   144   0.100E-01    0.938E-02
DAV:   4    -0.988821864575E+02   -0.34206E-05   -0.40193E-04   132   0.767E-02    0.174E-02
DAV:   5    -0.988821780870E+02    0.83706E-05   -0.94672E-05   132   0.356E-02    0.127E-02
DAV:   6    -0.988821820919E+02   -0.40050E-05   -0.17050E-05   132   0.115E-02    0.814E-03
DAV:   7    -0.988822010440E+02   -0.18952E-04   -0.21492E-06   132   0.516E-03    0.341E-03
DAV:   8    -0.988822271072E+02   -0.26063E-04   -0.27518E-06   132   0.467E-03    0.111E-03
DAV:   9    -0.988822497604E+02   -0.22653E-04   -0.24651E-06   132   0.376E-03    0.169E-03
DAV:  10    -0.988822695830E+02   -0.19823E-04   -0.16101E-06   108   0.292E-03    0.636E-04
DAV:  11    -0.988822758835E+02   -0.63005E-05   -0.24931E-07   108   0.124E-03    0.324E-04
DAV:  12    -0.988822830822E+02   -0.71988E-05   -0.38212E-07   108   0.120E-03    0.222E-04
DAV:  13    -0.988822847467E+02   -0.16645E-05   -0.50588E-08   108   0.470E-04    0.256E-04
DAV:  14    -0.988822867532E+02   -0.20065E-05   -0.46977E-08    84   0.490E-04    0.800E-05
DAV:  15    -0.988822872691E+02   -0.51589E-06   -0.67426E-09   108   0.251E-04
  15 F= -.98882287E+02 E0= -.98882287E+02  d E =-.169809E-10
       N       E                     dE             d eps       ncg     rms          rms(c)
DAV:   1    -0.988812606626E+02    0.10261E-02   -0.17589E-01    96   0.126E+00    0.180E-01
DAV:   2    -0.988825676098E+02   -0.13069E-02   -0.13331E-02   108   0.398E-01    0.130E-01
DAV:   3    -0.988824874459E+02    0.80164E-04   -0.30141E-04   144   0.749E-02    0.661E-02
DAV:   4    -0.988824920499E+02   -0.46040E-05   -0.24570E-04   108   0.581E-02    0.131E-02
DAV:   5    -0.988824837026E+02    0.83473E-05   -0.49215E-05   120   0.256E-02    0.883E-03
DAV:   6    -0.988824851026E+02   -0.13999E-05   -0.89495E-06   132   0.794E-03    0.476E-03
DAV:   7    -0.988824957268E+02   -0.10624E-04   -0.57610E-07    84   0.248E-03    0.232E-03
DAV:   8    -0.988825136803E+02   -0.17954E-04   -0.25322E-06   120   0.418E-03    0.120E-03
DAV:   9    -0.988825261416E+02   -0.12461E-04   -0.91102E-07   108   0.243E-03    0.105E-03
DAV:  10    -0.988825373711E+02   -0.11229E-04   -0.72171E-07    84   0.186E-03    0.383E-04
DAV:  11    -0.988825408115E+02   -0.34405E-05   -0.15422E-07   108   0.902E-04    0.216E-04
DAV:  12    -0.988825452351E+02   -0.44235E-05   -0.15855E-07    84   0.814E-04    0.131E-04
DAV:  13    -0.988825467771E+02   -0.15420E-05   -0.49599E-08    96   0.459E-04    0.149E-04
DAV:  14    -0.988825479721E+02   -0.11950E-05   -0.15859E-08    84   0.308E-04    0.632E-05
DAV:  15    -0.988825484089E+02   -0.43680E-06   -0.34206E-10    96   0.187E-04
  16 F= -.98882548E+02 E0= -.98882548E+02  d E =-.133713E-10
       N       E                     dE             d eps       ncg     rms          rms(c)
DAV:   1    -0.988804238849E+02    0.21241E-02   -0.33920E-01    96   0.177E+00    0.256E-01
DAV:   2    -0.988825317611E+02   -0.21079E-02   -0.21762E-02   108   0.504E-01    0.155E-01
DAV:   3    -0.988824415696E+02    0.90192E-04   -0.53036E-04   132   0.932E-02    0.827E-02
DAV:   4    -0.988824461494E+02   -0.45798E-05   -0.30124E-04   132   0.663E-02    0.163E-02
DAV:   5    -0.988824372847E+02    0.88646E-05   -0.67618E-05   132   0.303E-02    0.117E-02
DAV:   6    -0.988824352280E+02    0.20567E-05   -0.12276E-05   132   0.111E-02    0.721E-03
DAV:   7    -0.988824438794E+02   -0.86514E-05   -0.26270E-06   132   0.603E-03    0.288E-03
DAV:   8    -0.988824580483E+02   -0.14169E-04   -0.14205E-06   108   0.429E-03    0.117E-03
DAV:   9    -0.988824741801E+02   -0.16132E-04   -0.10495E-06   108   0.295E-03    0.125E-03
DAV:  10    -0.988824902833E+02   -0.16103E-04   -0.98913E-07    96   0.226E-03    0.616E-04
DAV:  11    -0.988824989690E+02   -0.86857E-05   -0.28946E-07    96   0.127E-03    0.253E-04
DAV:  12    -0.988825048812E+02   -0.59122E-05   -0.16757E-07    84   0.816E-04    0.241E-04
DAV:  13    -0.988825082289E+02   -0.33477E-05   -0.58485E-08    96   0.490E-04    0.129E-04
DAV:  14    -0.988825101295E+02   -0.19006E-05   -0.23079E-08    84   0.345E-04    0.448E-05
DAV:  15    -0.988825109655E+02   -0.83600E-06   -0.45159E-09   108   0.209E-04
  17 F= -.98882511E+02 E0= -.98882511E+02  d E =-.121467E-10
       N       E                     dE             d eps       ncg     rms          rms(c)
DAV:   1    -0.988820664052E+02    0.44372E-03   -0.17085E-01    96   0.128E+00    0.172E-01
DAV:   2    -0.988831447923E+02   -0.10784E-02   -0.11128E-02   108   0.368E-01    0.115E-01
DAV:   3    -0.988830975467E+02    0.47246E-04   -0.24983E-04   132   0.639E-02    0.629E-02
DAV:   4    -0.988830810544E+02    0.16492E-04   -0.13611E-04   132   0.435E-02    0.107E-02
DAV:   5    -0.988830784335E+02    0.26209E-05   -0.21379E-05   132   0.174E-02    0.775E-03
DAV:   6    -0.988830833041E+02   -0.48705E-05   -0.69662E-06   132   0.917E-03    0.428E-03
DAV:   7    -0.988830994569E+02   -0.16153E-04   -0.26828E-06   132   0.573E-03    0.162E-03
DAV:   8    -0.988831173887E+02   -0.17932E-04   -0.12627E-06   120   0.354E-03    0.968E-04
DAV:   9    -0.988831360643E+02   -0.18676E-04   -0.18350E-06   132   0.320E-03    0.865E-04
DAV:  10    -0.988831491663E+02   -0.13102E-04   -0.11290E-06   120   0.222E-03    0.374E-04
DAV:  11    -0.988831529713E+02   -0.38050E-05   -0.12744E-07   108   0.843E-04    0.216E-04
DAV:  12    -0.988831573664E+02   -0.43952E-05   -0.27278E-07   108   0.997E-04    0.149E-04
DAV:  13    -0.988831584224E+02   -0.10560E-05   -0.28500E-08   108   0.396E-04    0.717E-05
DAV:  14    -0.988831592771E+02   -0.85466E-06   -0.17110E-08   108   0.321E-04
  18 F= -.98883159E+02 E0= -.98883159E+02  d E =-.133911E-10
       N       E                     dE             d eps       ncg     rms          rms(c)
DAV:   1    -0.988806953666E+02    0.24631E-02   -0.33217E-01    96   0.176E+00    0.214E-01
DAV:   2    -0.988826300639E+02   -0.19347E-02   -0.19750E-02   108   0.478E-01    0.142E-01
DAV:   3    -0.988825826325E+02    0.47431E-04   -0.47189E-04   132   0.844E-02    0.759E-02
DAV:   4    -0.988825765695E+02    0.60630E-05   -0.19286E-04   132   0.552E-02    0.133E-02
DAV:   5    -0.988825676109E+02    0.89586E-05   -0.42689E-05   132   0.252E-02    0.945E-03
DAV:   6    -0.988825685324E+02   -0.92154E-06   -0.73526E-06   132   0.885E-03
  19 F= -.98882569E+02 E0= -.98882569E+02  d E =-.161790E-10
       N       E                     dE             d eps       ncg     rms          rms(c)
DAV:   1    -0.988809282096E+02    0.16394E-02   -0.18157E-01    96   0.131E+00    0.156E-01
DAV:   2    -0.988821728121E+02   -0.12446E-02   -0.13618E-02   132   0.377E-01    0.992E-02
DAV:   3    -0.988821630260E+02    0.97860E-05   -0.24722E-04   144   0.572E-02    0.602E-02
DAV:   4    -0.988821762434E+02   -0.13217E-04   -0.87671E-05   108   0.361E-02    0.951E-03
DAV:   5    -0.988821750362E+02    0.12072E-05   -0.20387E-05   132   0.164E-02    0.575E-03
DAV:   6    -0.988821768160E+02   -0.17798E-05   -0.39402E-06   132   0.669E-03    0.363E-03
DAV:   7    -0.988821843868E+02   -0.75708E-05   -0.16157E-06    96   0.478E-03    0.132E-03
DAV:   8    -0.988821938628E+02   -0.94760E-05   -0.79185E-07   108   0.332E-03    0.915E-04
DAV:   9    -0.988822028573E+02   -0.89945E-05   -0.52259E-07    84   0.206E-03    0.737E-04
DAV:  10    -0.988822125679E+02   -0.97106E-05   -0.49655E-07    84   0.158E-03    0.274E-04
DAV:  11    -0.988822156804E+02   -0.31125E-05   -0.11700E-07   108   0.804E-04    0.224E-04
DAV:  12    -0.988822202112E+02   -0.45308E-05   -0.15528E-07    84   0.861E-04    0.128E-04
DAV:  13    -0.988822216867E+02   -0.14755E-05   -0.46306E-08   108   0.486E-04    0.987E-05
DAV:  14    -0.988822226759E+02   -0.98920E-06   -0.10687E-08   108   0.321E-04
  20 F= -.98882223E+02 E0= -.98882223E+02  d E =-.133824E-10
       N       E                     dE             d eps       ncg     rms          rms(c)
DAV:   1    -0.988809917539E+02    0.12299E-02   -0.40712E-01    96   0.173E+00    0.212E-01
DAV:   2    -0.988824570753E+02   -0.14653E-02   -0.18077E-02   120   0.407E-01    0.126E-01
DAV:   3    -0.988823428491E+02    0.11423E-03   -0.29595E-04   132   0.612E-02    0.665E-02
DAV:   4    -0.988822846150E+02    0.58234E-04   -0.13232E-04   120   0.434E-02    0.112E-02
DAV:   5    -0.988822796625E+02    0.49525E-05   -0.28242E-05   132   0.196E-02    0.747E-03
DAV:   6    -0.988822924191E+02   -0.12757E-04   -0.10608E-05   120   0.865E-03    0.415E-03
DAV:   7    -0.988823156005E+02   -0.23181E-04   -0.15351E-06   120   0.377E-03    0.215E-03
DAV:   8    -0.988823531209E+02   -0.37520E-04   -0.41345E-06   108   0.435E-03    0.125E-03
DAV:   9    -0.988823749597E+02   -0.21839E-04   -0.15189E-06   120   0.270E-03    0.854E-04
DAV:  10    -0.988823960557E+02   -0.21096E-04   -0.18098E-06    96   0.258E-03    0.346E-04
DAV:  11    -0.988824039050E+02   -0.78493E-05   -0.28592E-07   108   0.121E-03    0.315E-04
DAV:  12    -0.988824101278E+02   -0.62227E-05   -0.31466E-07    84   0.108E-03    0.129E-04
DAV:  13    -0.988824116317E+02   -0.15040E-05   -0.38798E-08   108   0.444E-04    0.875E-05
DAV:  14    -0.988824130627E+02   -0.14310E-05   -0.17737E-08   108   0.343E-04    0.574E-05
DAV:  15    -0.988824135489E+02   -0.48625E-06   -0.14284E-09   108   0.189E-04
  21 F= -.98882414E+02 E0= -.98882414E+02  d E =-.161981E-10
       N       E                     dE             d eps       ncg     rms          rms(c)
DAV:   1    -0.988819139465E+02    0.49912E-03   -0.20225E-01    96   0.124E+00    0.150E-01
DAV:   2    -0.988826438387E+02   -0.72989E-03   -0.89485E-03   108   0.283E-01    0.781E-02
DAV:   3    -0.988826023430E+02    0.41496E-04   -0.15666E-04   132   0.422E-02    0.409E-02
DAV:   4    -0.988825748053E+02    0.27538E-04   -0.44221E-05   132   0.255E-02    0.811E-03
DAV:   5    -0.988825682172E+02    0.65881E-05   -0.90925E-06   132   0.119E-02    0.473E-03
DAV:   6    -0.988825691179E+02   -0.90072E-06   -0.32958E-06   132   0.620E-03
  22 F= -.98882569E+02 E0= -.98882569E+02  d E =-.124380E-10
       N       E                     dE             d eps       ncg     rms          rms(c)
DAV:   1    -0.988812914313E+02    0.12768E-02   -0.40205E-01    96   0.175E+00    0.216E-01
DAV:   2    -0.988827967239E+02   -0.15053E-02   -0.18145E-02   132   0.402E-01    0.116E-01
DAV:   3    -0.988827214671E+02    0.75257E-04   -0.30747E-04   108   0.584E-02    0.610E-02
DAV:   4    -0.988826601500E+02    0.61317E-04   -0.94404E-05   120   0.352E-02    0.117E-02
DAV:   5    -0.988826529847E+02    0.71652E-05   -0.14861E-05   132   0.153E-02    0.673E-03
DAV:   6    -0.988826656519E+02   -0.12667E-04   -0.77362E-06   132   0.933E-03    0.324E-03
DAV:   7    -0.988826878342E+02   -0.22182E-04   -0.36178E-06   132   0.593E-03    0.209E-03
DAV:   8    -0.988827146589E+02   -0.26825E-04   -0.19990E-06   120   0.350E-03    0.102E-03
DAV:   9    -0.988827357997E+02   -0.21141E-04   -0.18811E-06   120   0.299E-03    0.770E-04
DAV:  10    -0.988827543206E+02   -0.18521E-04   -0.18150E-06    96   0.260E-03    0.306E-04
DAV:  11    -0.988827607616E+02   -0.64410E-05   -0.31698E-07   108   0.126E-03    0.254E-04
DAV:  12    -0.988827650492E+02   -0.42876E-05   -0.20628E-07   108   0.865E-04    0.114E-04
DAV:  13    -0.988827665085E+02   -0.14593E-05   -0.49525E-08   108   0.443E-04    0.625E-05
DAV:  14    -0.988827673893E+02   -0.88078E-06   -0.10472E-08   108   0.286E-04
  23 F= -.98882767E+02 E0= -.98882767E+02  d E =-.127069E-10
       N       E                     dE             d eps       ncg     rms          rms(c)
DAV:   1    -0.988827304651E+02    0.36043E-04   -0.20225E-01    96   0.123E+00    0.142E-01
DAV:   2    -0.988833901411E+02   -0.65968E-03   -0.79785E-03   108   0.264E-01    0.696E-02
DAV:   3    -0.988833618747E+02    0.28266E-04   -0.15153E-04   132   0.433E-02    0.362E-02
DAV:   4    -0.988833489033E+02    0.12971E-04   -0.44142E-05   132   0.288E-02    0.769E-03
DAV:   5    -0.988833462759E+02    0.26275E-05   -0.13808E-05   132   0.138E-02    0.540E-03
DAV:   6    -0.988833467147E+02   -0.43889E-06   -0.24207E-06   132   0.496E-03
  24 F= -.98883347E+02 E0= -.98883347E+02  d E =-.123374E-10
       N       E                     dE             d eps       ncg     rms          rms(c)
DAV:   1    -0.988822678227E+02    0.10785E-02   -0.40715E-01    96   0.170E+00    0.186E-01
DAV:   2    -0.988836529493E+02   -0.13851E-02   -0.16611E-02   144   0.371E-01    0.938E-02
DAV:   3    -0.988836152410E+02    0.37708E-04   -0.28667E-04   120   0.574E-02    0.500E-02
DAV:   4    -0.988835968307E+02    0.18410E-04   -0.76839E-05   108   0.376E-02    0.102E-02
DAV:   5    -0.988835934355E+02    0.33952E-05   -0.22801E-05   132   0.183E-02    0.710E-03
DAV:   6    -0.988835962395E+02   -0.28040E-05   -0.43881E-06   120   0.703E-03    0.430E-03
DAV:   7    -0.988836036548E+02   -0.74153E-05   -0.93549E-07   108   0.433E-03    0.164E-03
DAV:   8    -0.988836139309E+02   -0.10276E-04   -0.11787E-06   120   0.380E-03    0.121E-03
DAV:   9    -0.988836303383E+02   -0.16407E-04   -0.11558E-06    96   0.318E-03    0.476E-04
DAV:  10    -0.988836367007E+02   -0.63625E-05   -0.30911E-07   108   0.169E-03    0.478E-04
DAV:  11    -0.988836430729E+02   -0.63722E-05   -0.17946E-07   108   0.105E-03    0.225E-04
DAV:  12    -0.988836469283E+02   -0.38554E-05   -0.11065E-07    84   0.694E-04    0.192E-04
DAV:  13    -0.988836494846E+02   -0.25563E-05   -0.44588E-08   108   0.472E-04    0.725E-05
DAV:  14    -0.988836505014E+02   -0.10168E-05   -0.15424E-08   108   0.283E-04    0.586E-05
DAV:  15    -0.988836513646E+02   -0.86318E-06   -0.45972E-09    84   0.225E-04
  25 F= -.98883651E+02 E0= -.98883651E+02  d E =-.221803E-10
       N       E                     dE             d eps       ncg     rms          rms(c)
DAV:   1    -0.988818312240E+02    0.18193E-02   -0.19665E-01    96   0.134E+00    0.141E-01
DAV:   2    -0.988828847972E+02   -0.10536E-02   -0.12672E-02   120   0.325E-01    0.781E-02
DAV:   3    -0.988828427742E+02    0.42023E-04   -0.21873E-04   132   0.494E-02    0.439E-02
DAV:   4    -0.988828114179E+02    0.31356E-04   -0.61726E-05   120   0.323E-02    0.893E-03
DAV:   5    -0.988828042669E+02    0.71510E-05   -0.17614E-05   132   0.159E-02    0.571E-03
DAV:   6    -0.988828070640E+02   -0.27971E-05   -0.33298E-06   132   0.611E-03    0.360E-03
DAV:   7    -0.988828172552E+02   -0.10191E-04   -0.98674E-07    96   0.357E-03    0.140E-03
DAV:   8    -0.988828299860E+02   -0.12731E-04   -0.96956E-07   108   0.302E-03    0.930E-04
DAV:   9    -0.988828475699E+02   -0.17584E-04   -0.15198E-06    96   0.295E-03    0.527E-04
DAV:  10    -0.988828553072E+02   -0.77373E-05   -0.45983E-07    96   0.173E-03    0.383E-04
DAV:  11    -0.988828596808E+02   -0.43735E-05   -0.17961E-07    84   0.947E-04    0.233E-04
DAV:  12    -0.988828630327E+02   -0.33519E-05   -0.13545E-07    96   0.742E-04    0.148E-04
DAV:  13    -0.988828644708E+02   -0.14381E-05   -0.37919E-08    84   0.423E-04    0.880E-05
DAV:  14    -0.988828653074E+02   -0.83656E-06   -0.16619E-08   108   0.286E-04
  26 F= -.98882865E+02 E0= -.98882865E+02  d E =-.187636E-10
       N       E                     dE             d eps       ncg     rms          rms(c)
DAV:   1    -0.988810914361E+02    0.17730E-02   -0.39134E-01    96   0.172E+00    0.193E-01
DAV:   2    -0.988826527167E+02   -0.15613E-02   -0.19240E-02   120   0.411E-01    0.120E-01
DAV:   3    -0.988825269730E+02    0.12574E-03   -0.30616E-04   120   0.642E-02    0.626E-02
DAV:   4    -0.988824772692E+02    0.49704E-04   -0.14132E-04   108   0.450E-02    0.114E-02
DAV:   5    -0.988824656024E+02    0.11667E-04   -0.28045E-05   132   0.196E-02    0.711E-03
DAV:   6    -0.988824689628E+02   -0.33604E-05   -0.75826E-06   132   0.806E-03    0.398E-03
DAV:   7    -0.988824840692E+02   -0.15106E-04   -0.15117E-06   108   0.389E-03    0.181E-03
DAV:   8    -0.988825071520E+02   -0.23083E-04   -0.14999E-06   108   0.315E-03    0.114E-03
DAV:   9    -0.988825270224E+02   -0.19870E-04   -0.99130E-07    96   0.217E-03    0.825E-04
DAV:  10    -0.988825467513E+02   -0.19729E-04   -0.11374E-06   108   0.202E-03    0.385E-04
DAV:  11    -0.988825517079E+02   -0.49566E-05   -0.76714E-08   108   0.786E-04    0.281E-04
DAV:  12    -0.988825596100E+02   -0.79021E-05   -0.24001E-07    84   0.102E-03    0.136E-04
DAV:  13    -0.988825613820E+02   -0.17720E-05   -0.31457E-08   108   0.456E-04    0.975E-05
DAV:  14    -0.988825631486E+02   -0.17667E-05   -0.14874E-08    84   0.353E-04    0.480E-05
DAV:  15    -0.988825637238E+02   -0.57516E-06   -0.12750E-09   108   0.196E-04
  27 F= -.98882564E+02 E0= -.98882564E+02  d E =-.139846E-10
       N       E                     dE             d eps       ncg     rms          rms(c)
DAV:   1    -0.988833426613E+02   -0.77951E-03   -0.19860E-01   108   0.124E+00    0.133E-01
DAV:   2    -0.988841055188E+02   -0.76286E-03   -0.92470E-03   108   0.291E-01    0.775E-02
DAV:   3    -0.988840522941E+02    0.53225E-04   -0.15137E-04   132   0.452E-02    0.407E-02
DAV:   4    -0.988840285284E+02    0.23766E-04   -0.64323E-05   132   0.314E-02    0.772E-03
DAV:   5    -0.988840242328E+02    0.42957E-05   -0.13495E-05   132   0.140E-02    0.500E-03
DAV:   6    -0.988840275798E+02   -0.33471E-05   -0.34756E-06   132   0.578E-03    0.281E-03
DAV:   7    -0.988840360067E+02   -0.84269E-05   -0.67363E-07   108   0.274E-03    0.127E-03
DAV:   8    -0.988840472384E+02   -0.11232E-04   -0.90885E-07   120   0.238E-03    0.746E-04
DAV:   9    -0.988840586552E+02   -0.11417E-04   -0.80566E-07    96   0.204E-03    0.505E-04
DAV:  10    -0.988840675516E+02   -0.88965E-05   -0.65448E-07    84   0.167E-03    0.259E-04
DAV:  11    -0.988840698128E+02   -0.22611E-05   -0.10082E-07   108   0.761E-04    0.175E-04
DAV:  12    -0.988840729963E+02   -0.31835E-05   -0.14563E-07    96   0.789E-04    0.104E-04
DAV:  13    -0.988840739954E+02   -0.99910E-06   -0.36619E-08   108   0.406E-04
  28 F= -.98884074E+02 E0= -.98884074E+02  d E =-.253401E-10
       N       E                     dE             d eps       ncg     rms          rms(c)
DAV:   1    -0.988823127345E+02    0.17603E-02   -0.40779E-01    96   0.176E+00    0.170E-01
DAV:   2    -0.988836305414E+02   -0.13178E-02   -0.15541E-02   108   0.360E-01    0.798E-02
DAV:   3    -0.988835829596E+02    0.47582E-04   -0.29317E-04   132   0.611E-02    0.404E-02
DAV:   4    -0.988835666678E+02    0.16292E-04   -0.75200E-05   132   0.372E-02    0.102E-02
DAV:   5    -0.988835634912E+02    0.31766E-05   -0.21172E-05   132   0.180E-02    0.609E-03
DAV:   6    -0.988835650756E+02   -0.15844E-05   -0.43858E-06   132   0.712E-03    0.349E-03
DAV:   7    -0.988835690346E+02   -0.39590E-05   -0.40685E-07   108   0.260E-03    0.154E-03
DAV:   8    -0.988835749808E+02   -0.59462E-05   -0.52421E-07   108   0.272E-03    0.779E-04
DAV:   9    -0.988835831505E+02   -0.81696E-05   -0.62401E-07   108   0.260E-03    0.454E-04
DAV:  10    -0.988835889027E+02   -0.57522E-05   -0.45461E-07   108   0.188E-03    0.414E-04
DAV:  11    -0.988835916777E+02   -0.27750E-05   -0.71717E-08   108   0.995E-04    0.192E-04
DAV:  12    -0.988835941367E+02   -0.24590E-05   -0.68009E-08   108   0.639E-04    0.162E-04
DAV:  13    -0.988835953507E+02   -0.12140E-05   -0.19864E-08   108   0.343E-04    0.879E-05
DAV:  14    -0.988835965438E+02   -0.11931E-05   -0.24496E-08   108   0.323E-04    0.648E-05
DAV:  15    -0.988835969329E+02   -0.38910E-06    0.84576E-10   108   0.164E-04
  29 F= -.98883597E+02 E0= -.98883597E+02  d E =-.178923E-10
       N       E                     dE             d eps       ncg     rms          rms(c)
DAV:   1    -0.988829558174E+02    0.64073E-03   -0.20533E-01    96   0.126E+00    0.128E-01
DAV:   2    -0.988835707122E+02   -0.61489E-03   -0.73292E-03   108   0.256E-01    0.582E-02
DAV:   3    -0.988835446914E+02    0.26021E-04   -0.14381E-04   132   0.421E-02    0.297E-02
DAV:   4    -0.988835360952E+02    0.85962E-05   -0.37758E-05   132   0.261E-02    0.758E-03
DAV:   5    -0.988835343477E+02    0.17475E-05   -0.10255E-05   132   0.125E-02    0.440E-03
DAV:   6    -0.988835350153E+02   -0.66753E-06   -0.21298E-06   132   0.515E-03
  30 F= -.98883535E+02 E0= -.98883535E+02  d E =-.107139E-10
       N       E                     dE             d eps       ncg     rms          rms(c)
DAV:   1    -0.988821212665E+02    0.14131E-02   -0.40655E-01    96   0.179E+00    0.211E-01
DAV:   2    -0.988834708991E+02   -0.13496E-02   -0.16199E-02   144   0.385E-01    0.930E-02
DAV:   3    -0.988834114515E+02    0.59448E-04   -0.31432E-04   132   0.634E-02    0.473E-02
DAV:   4    -0.988833935689E+02    0.17883E-04   -0.95601E-05   108   0.390E-02    0.119E-02
DAV:   5    -0.988833877642E+02    0.58047E-05   -0.19890E-05   132   0.172E-02    0.669E-03
DAV:   6    -0.988833887761E+02   -0.10119E-05   -0.42098E-06   120   0.705E-03    0.338E-03
DAV:   7    -0.988833942897E+02   -0.55136E-05   -0.65549E-07   108   0.315E-03    0.144E-03
DAV:   8    -0.988834016200E+02   -0.73303E-05   -0.51666E-07   108   0.233E-03    0.706E-04
DAV:   9    -0.988834110502E+02   -0.94301E-05   -0.69024E-07   120   0.224E-03    0.504E-04
DAV:  10    -0.988834183949E+02   -0.73447E-05   -0.49530E-07   108   0.176E-03    0.261E-04
DAV:  11    -0.988834204918E+02   -0.20969E-05   -0.93022E-08   108   0.858E-04    0.236E-04
DAV:  12    -0.988834228396E+02   -0.23478E-05   -0.60509E-08   108   0.606E-04    0.108E-04
DAV:  13    -0.988834246053E+02   -0.17657E-05   -0.66270E-08   108   0.511E-04    0.934E-05
DAV:  14    -0.988834254665E+02   -0.86121E-06   -0.15311E-08   108   0.285E-04
  31 F= -.98883425E+02 E0= -.98883425E+02  d E =-.205505E-10
       N       E                     dE             d eps       ncg     rms          rms(c)
DAV:   1    -0.988824767861E+02    0.94782E-03   -0.19900E-01    96   0.130E+00    0.150E-01
DAV:   2    -0.988835789709E+02   -0.11022E-02   -0.13080E-02   120   0.312E-01    0.694E-02
DAV:   3    -0.988835405402E+02    0.38431E-04   -0.24882E-04   144   0.531E-02    0.383E-02
DAV:   4    -0.988835234293E+02    0.17111E-04   -0.57806E-05   120   0.305E-02    0.100E-02
DAV:   5    -0.988835192319E+02    0.41974E-05   -0.15208E-05   132   0.150E-02    0.559E-03
DAV:   6    -0.988835200182E+02   -0.78621E-06   -0.28017E-06   108   0.625E-03
  32 F= -.98883520E+02 E0= -.98883520E+02  d E =-.229789E-10
       N       E                     dE             d eps       ncg     rms          rms(c)
DAV:   1    -0.988817972840E+02    0.17219E-02   -0.40778E-01    96   0.176E+00    0.183E-01
DAV:   2    -0.988833034556E+02   -0.15062E-02   -0.17656E-02   132   0.389E-01    0.972E-02
DAV:   3    -0.988832448778E+02    0.58578E-04   -0.28707E-04   132   0.607E-02    0.520E-02
DAV:   4    -0.988832187160E+02    0.26162E-04   -0.10506E-04   108   0.412E-02    0.104E-02
DAV:   5    -0.988832117340E+02    0.69820E-05   -0.26185E-05   132   0.193E-02    0.647E-03
DAV:   6    -0.988832131426E+02   -0.14086E-05   -0.50976E-06   132   0.731E-03    0.364E-03
DAV:   7    -0.988832198784E+02   -0.67358E-05   -0.86571E-07   120   0.329E-03    0.163E-03
DAV:   8    -0.988832290992E+02   -0.92208E-05   -0.73647E-07   120   0.264E-03    0.795E-04
DAV:   9    -0.988832395516E+02   -0.10452E-04   -0.75171E-07   120   0.225E-03    0.565E-04
DAV:  10    -0.988832493246E+02   -0.97730E-05   -0.78408E-07    96   0.195E-03    0.285E-04
DAV:  11    -0.988832523718E+02   -0.30472E-05   -0.87741E-08   108   0.889E-04    0.221E-04
DAV:  12    -0.988832556548E+02   -0.32830E-05   -0.11065E-07   108   0.730E-04    0.118E-04
DAV:  13    -0.988832573688E+02   -0.17140E-05   -0.57375E-08   108   0.473E-04    0.950E-05
DAV:  14    -0.988832583055E+02   -0.93673E-06   -0.98760E-09   108   0.271E-04
  33 F= -.98883258E+02 E0= -.98883258E+02  d E =-.225269E-10
       N       E                     dE             d eps       ncg     rms          rms(c)
DAV:   1    -0.988824817895E+02    0.77558E-03   -0.20558E-01    96   0.122E+00    0.120E-01
DAV:   2    -0.988831546339E+02   -0.67284E-03   -0.79478E-03   108   0.257E-01    0.574E-02
DAV:   3    -0.988831301283E+02    0.24506E-04   -0.15110E-04   132   0.437E-02    0.293E-02
DAV:   4    -0.988831209551E+02    0.91732E-05   -0.38131E-05   120   0.263E-02    0.724E-03
DAV:   5    -0.988831185442E+02    0.24109E-05   -0.10555E-05   132   0.128E-02    0.433E-03
DAV:   6    -0.988831190599E+02   -0.51565E-06   -0.22550E-06   132   0.509E-03
  34 F= -.98883119E+02 E0= -.98883119E+02  d E =-.220573E-10
       N       E                     dE             d eps       ncg     rms          rms(c)
DAV:   1    -0.988811849568E+02    0.19336E-02   -0.39445E-01    96   0.174E+00    0.189E-01
DAV:   2    -0.988827105893E+02   -0.15256E-02   -0.18452E-02   108   0.405E-01    0.114E-01
DAV:   3    -0.988826114329E+02    0.99156E-04   -0.32333E-04   120   0.658E-02    0.584E-02
DAV:   4    -0.988825746321E+02    0.36801E-04   -0.13607E-04   120   0.441E-02    0.110E-02
DAV:   5    -0.988825637652E+02    0.10867E-04   -0.26518E-05   108   0.193E-02    0.698E-03
DAV:   6    -0.988825642744E+02   -0.50912E-06   -0.68646E-06   132   0.761E-03
  35 F= -.98882564E+02 E0= -.98882564E+02  d E =-.131032E-10
       N       E                     dE             d eps       ncg     rms          rms(c)
DAV:   1    -0.988830783981E+02   -0.51463E-03   -0.20231E-01    96   0.125E+00    0.132E-01
DAV:   2    -0.988837809235E+02   -0.70253E-03   -0.81967E-03   144   0.274E-01    0.692E-02
DAV:   3    -0.988837638307E+02    0.17093E-04   -0.14151E-04   132   0.431E-02    0.359E-02
DAV:   4    -0.988837725806E+02   -0.87500E-05   -0.49309E-05   108   0.282E-02    0.811E-03
DAV:   5    -0.988837746601E+02   -0.20795E-05   -0.10824E-05   132   0.126E-02    0.500E-03
DAV:   6    -0.988837762769E+02   -0.16167E-05   -0.23577E-06   132   0.531E-03    0.261E-03
DAV:   7    -0.988837786359E+02   -0.23591E-05   -0.40718E-07   108   0.243E-03    0.104E-03
DAV:   8    -0.988837808606E+02   -0.22247E-05   -0.20428E-07    84   0.162E-03    0.490E-04
DAV:   9    -0.988837841280E+02   -0.32674E-05   -0.20429E-07   108   0.141E-03    0.304E-04
DAV:  10    -0.988837869506E+02   -0.28226E-05   -0.18899E-07    84   0.112E-03    0.155E-04
DAV:  11    -0.988837885250E+02   -0.15744E-05   -0.50800E-08   108   0.636E-04    0.123E-04
DAV:  12    -0.988837896664E+02   -0.11414E-05   -0.28752E-08    96   0.399E-04    0.629E-05
DAV:  13    -0.988837902247E+02   -0.55838E-06   -0.79488E-09   108   0.238E-04
  36 F= -.98883790E+02 E0= -.98883790E+02  d E =-.113223E-10
       N       E                     dE             d eps       ncg     rms          rms(c)
DAV:   1    -0.988824828705E+02    0.13068E-02   -0.41232E-01    96   0.180E+00    0.203E-01
DAV:   2    -0.988837242322E+02   -0.12414E-02   -0.15018E-02   120   0.369E-01    0.834E-02
DAV:   3    -0.988836720079E+02    0.52224E-04   -0.31175E-04   120   0.625E-02    0.425E-02
DAV:   4    -0.988836567908E+02    0.15217E-04   -0.73402E-05   132   0.356E-02    0.121E-02
DAV:   5    -0.988836536454E+02    0.31454E-05   -0.18640E-05   132   0.169E-02    0.689E-03
DAV:   6    -0.988836549841E+02   -0.13387E-05   -0.36129E-06   132   0.674E-03    0.357E-03
DAV:   7    -0.988836590663E+02   -0.40822E-05   -0.36735E-07   108   0.265E-03    0.144E-03
DAV:   8    -0.988836646998E+02   -0.56335E-05   -0.35627E-07   108   0.230E-03    0.695E-04
DAV:   9    -0.988836734346E+02   -0.87348E-05   -0.62410E-07   108   0.259E-03    0.435E-04
DAV:  10    -0.988836783732E+02   -0.49386E-05   -0.39409E-07   108   0.172E-03    0.341E-04
DAV:  11    -0.988836799845E+02   -0.16114E-05   -0.39114E-08   108   0.731E-04    0.279E-04
DAV:  12    -0.988836823143E+02   -0.23297E-05   -0.53344E-08   108   0.615E-04    0.103E-04
DAV:  13    -0.988836836005E+02   -0.12862E-05   -0.32874E-08   108   0.413E-04    0.129E-04
DAV:  14    -0.988836844497E+02   -0.84917E-06   -0.90238E-09   108   0.290E-04
  37 F= -.98883684E+02 E0= -.98883684E+02  d E =-.227309E-10
       N       E                     dE             d eps       ncg     rms          rms(c)
DAV:   1    -0.988825750574E+02    0.11085E-02   -0.20342E-01    96   0.130E+00    0.143E-01
DAV:   2    -0.988834866328E+02   -0.91158E-03   -0.10820E-02   108   0.297E-01    0.630E-02
DAV:   3    -0.988834646037E+02    0.22029E-04   -0.19030E-04   132   0.457E-02    0.345E-02
DAV:   4    -0.988834531048E+02    0.11499E-04   -0.44508E-05   132   0.245E-02    0.861E-03
DAV:   5    -0.988834503027E+02    0.28021E-05   -0.74555E-06   132   0.108E-02    0.508E-03
DAV:   6    -0.988834506738E+02   -0.37104E-06   -0.20436E-06   108   0.586E-03
  38 F= -.98883451E+02 E0= -.98883451E+02  d E =-.308792E-10
       N       E                     dE             d eps       ncg     rms          rms(c)
DAV:   1    -0.988822366547E+02    0.12136E-02   -0.41328E-01    96   0.170E+00    0.176E-01
DAV:   2    -0.988835924880E+02   -0.13558E-02   -0.16063E-02   132   0.370E-01    0.896E-02
DAV:   3    -0.988835465223E+02    0.45966E-04   -0.26283E-04   132   0.586E-02    0.465E-02
DAV:   4    -0.988835207343E+02    0.25788E-04   -0.83918E-05   108   0.391E-02    0.979E-03
DAV:   5    -0.988835145109E+02    0.62234E-05   -0.24691E-05   132   0.189E-02    0.642E-03
DAV:   6    -0.988835155161E+02   -0.10052E-05   -0.47003E-06   120   0.724E-03    0.376E-03
DAV:   7    -0.988835206589E+02   -0.51428E-05   -0.64252E-07   108   0.310E-03    0.184E-03
DAV:   8    -0.988835294558E+02   -0.87969E-05   -0.78625E-07   120   0.277E-03    0.801E-04
DAV:   9    -0.988835408646E+02   -0.11409E-04   -0.91266E-07    96   0.262E-03    0.614E-04
DAV:  10    -0.988835488204E+02   -0.79557E-05   -0.53837E-07   108   0.190E-03    0.362E-04
DAV:  11    -0.988835528519E+02   -0.40315E-05   -0.18771E-07   108   0.108E-03    0.230E-04
DAV:  12    -0.988835553893E+02   -0.25374E-05   -0.83262E-08   108   0.646E-04    0.159E-04
DAV:  13    -0.988835567972E+02   -0.14079E-05   -0.34753E-08   108   0.415E-04    0.101E-04
DAV:  14    -0.988835576856E+02   -0.88833E-06   -0.19397E-08   108   0.297E-04
  39 F= -.98883558E+02 E0= -.98883558E+02  d E =-.229256E-10
       N       E                     dE             d eps       ncg     rms          rms(c)
DAV:   1    -0.988820174922E+02    0.15393E-02   -0.19843E-01    96   0.120E+00    0.136E-01
DAV:   2    -0.988827743509E+02   -0.75686E-03   -0.94175E-03   108   0.281E-01    0.821E-02
DAV:   3    -0.988827142466E+02    0.60104E-04   -0.14787E-04   132   0.437E-02    0.417E-02
DAV:   4    -0.988826863061E+02    0.27941E-04   -0.62107E-05   108   0.300E-02    0.780E-03
DAV:   5    -0.988826799396E+02    0.63666E-05   -0.12532E-05   132   0.132E-02    0.474E-03
DAV:   6    -0.988826815982E+02   -0.16586E-05   -0.37573E-06   132   0.562E-03    0.258E-03
DAV:   7    -0.988826893484E+02   -0.77502E-05   -0.63507E-07   108   0.259E-03    0.127E-03
DAV:   8    -0.988827023723E+02   -0.13024E-04   -0.91774E-07    96   0.226E-03    0.757E-04
DAV:   9    -0.988827137759E+02   -0.11404E-04   -0.53984E-07    84   0.166E-03    0.573E-04
DAV:  10    -0.988827242442E+02   -0.10468E-04   -0.57412E-07    84   0.143E-03    0.228E-04
DAV:  11    -0.988827282798E+02   -0.40356E-05   -0.10349E-07   108   0.686E-04    0.189E-04
DAV:  12    -0.988827322097E+02   -0.39300E-05   -0.80671E-08    84   0.623E-04    0.869E-05
DAV:  13    -0.988827334749E+02   -0.12652E-05   -0.20736E-08   108   0.333E-04    0.615E-05
DAV:  14    -0.988827345245E+02   -0.10496E-05   -0.58334E-09    84   0.242E-04    0.289E-05
DAV:  15    -0.988827348933E+02   -0.36875E-06    0.24460E-09   108   0.136E-04
  40 F= -.98882735E+02 E0= -.98882735E+02  d E =-.203258E-10
       N       E                     dE             d eps       ncg     rms          rms(c)
DAV:   1    -0.988818012740E+02    0.93325E-03   -0.39942E-01    96   0.172E+00    0.189E-01
DAV:   2    -0.988832692052E+02   -0.14679E-02   -0.18059E-02   108   0.389E-01    0.109E-01
DAV:   3    -0.988831723132E+02    0.96892E-04   -0.29045E-04   132   0.604E-02    0.571E-02
DAV:   4    -0.988831236212E+02    0.48692E-04   -0.10795E-04   132   0.407E-02    0.108E-02
DAV:   5    -0.988831177033E+02    0.59179E-05   -0.23432E-05   132   0.182E-02    0.667E-03
DAV:   6    -0.988831266393E+02   -0.89360E-05   -0.68880E-06   132   0.799E-03    0.351E-03
DAV:   7    -0.988831437076E+02   -0.17068E-04   -0.17540E-06   132   0.391E-03    0.185E-03
DAV:   8    -0.988831663240E+02   -0.22616E-04   -0.17374E-06   132   0.292E-03    0.944E-04
DAV:   9    -0.988831864479E+02   -0.20124E-04   -0.17352E-06   108   0.267E-03    0.806E-04
DAV:  10    -0.988832043358E+02   -0.17888E-04   -0.17269E-06    96   0.245E-03    0.312E-04
DAV:  11    -0.988832088314E+02   -0.44957E-05   -0.13431E-07   108   0.927E-04    0.275E-04
DAV:  12    -0.988832138377E+02   -0.50062E-05   -0.21774E-07    96   0.953E-04    0.133E-04
DAV:  13    -0.988832150183E+02   -0.11807E-05   -0.36656E-08   108   0.422E-04    0.923E-05
DAV:  14    -0.988832159309E+02   -0.91253E-06   -0.60779E-09   108   0.274E-04
  41 F= -.98883216E+02 E0= -.98883216E+02  d E =-.169853E-10
       N       E                     dE             d eps       ncg     rms          rms(c)
DAV:   1    -0.988830521321E+02    0.16289E-03   -0.19901E-01    96   0.120E+00    0.133E-01
DAV:   2    -0.988838271097E+02   -0.77498E-03   -0.95359E-03   120   0.284E-01    0.801E-02
DAV:   3    -0.988837704846E+02    0.56625E-04   -0.14212E-04   132   0.427E-02    0.412E-02
DAV:   4    -0.988837437621E+02    0.26723E-04   -0.61716E-05   120   0.301E-02    0.759E-03
DAV:   5    -0.988837378666E+02    0.58955E-05   -0.13751E-05   132   0.136E-02    0.472E-03
DAV:   6    -0.988837391681E+02   -0.13015E-05   -0.34883E-06   132   0.546E-03    0.263E-03
DAV:   7    -0.988837462936E+02   -0.71255E-05   -0.66762E-07    84   0.271E-03    0.130E-03
DAV:   8    -0.988837586076E+02   -0.12314E-04   -0.86534E-07    96   0.224E-03    0.738E-04
DAV:   9    -0.988837702890E+02   -0.11681E-04   -0.56964E-07   108   0.171E-03    0.544E-04
DAV:  10    -0.988837804965E+02   -0.10207E-04   -0.56478E-07    84   0.143E-03    0.223E-04
DAV:  11    -0.988837851204E+02   -0.46239E-05   -0.12504E-07   108   0.749E-04    0.176E-04
DAV:  12    -0.988837885636E+02   -0.34432E-05   -0.63587E-08    84   0.564E-04    0.818E-05
DAV:  13    -0.988837899297E+02   -0.13661E-05   -0.20639E-08   108   0.326E-04    0.556E-05
DAV:  14    -0.988837909784E+02   -0.10487E-05   -0.63063E-09    84   0.239E-04    0.279E-05
DAV:  15    -0.988837913135E+02   -0.33506E-06    0.28181E-09   108   0.128E-04
  42 F= -.98883791E+02 E0= -.98883791E+02  d E =-.172398E-10
       N       E                     dE             d eps       ncg     rms          rms(c)
DAV:   1    -0.988820757080E+02    0.17153E-02   -0.41098E-01    96   0.169E+00    0.172E-01
DAV:   2    -0.988833869470E+02   -0.13112E-02   -0.15882E-02   120   0.360E-01    0.868E-02
DAV:   3    -0.988833303194E+02    0.56628E-04   -0.26924E-04   132   0.581E-02    0.443E-02
DAV:   4    -0.988833033864E+02    0.26933E-04   -0.79853E-05   144   0.378E-02    0.972E-03
DAV:   5    -0.988832992995E+02    0.40869E-05   -0.21810E-05   132   0.175E-02    0.581E-03
DAV:   6    -0.988833030752E+02   -0.37758E-05   -0.45919E-06   132   0.734E-03    0.302E-03
DAV:   7    -0.988833116777E+02   -0.86025E-05   -0.83871E-07   108   0.339E-03    0.161E-03
DAV:   8    -0.988833251621E+02   -0.13484E-04   -0.10133E-06   120   0.288E-03    0.762E-04
DAV:   9    -0.988833373361E+02   -0.12174E-04   -0.80351E-07   120   0.240E-03    0.573E-04
DAV:  10    -0.988833487774E+02   -0.11441E-04   -0.82274E-07   120   0.202E-03    0.277E-04
DAV:  11    -0.988833519814E+02   -0.32041E-05   -0.76172E-08   108   0.852E-04    0.218E-04
DAV:  12    -0.988833556650E+02   -0.36835E-05   -0.11667E-07   108   0.742E-04    0.124E-04
DAV:  13    -0.988833572683E+02   -0.16034E-05   -0.52194E-08   108   0.457E-04    0.820E-05
DAV:  14    -0.988833580200E+02   -0.75162E-06   -0.22922E-09   108   0.221E-04
  43 F= -.98883358E+02 E0= -.98883358E+02  d E =-.246950E-10
       N       E                     dE             d eps       ncg     rms          rms(c)
DAV:   1    -0.988814101780E+02    0.19471E-02   -0.19707E-01   120   0.134E+00    0.141E-01
DAV:   2    -0.988825628858E+02   -0.11527E-02   -0.14121E-02   120   0.351E-01    0.777E-02
DAV:   3    -0.988825298181E+02    0.33068E-04   -0.23849E-04   144   0.501E-02    0.448E-02
DAV:   4    -0.988825042360E+02    0.25582E-04   -0.54300E-05   132   0.299E-02    0.937E-03
DAV:   5    -0.988824957330E+02    0.85030E-05   -0.14643E-05   132   0.145E-02    0.493E-03
DAV:   6    -0.988824961456E+02   -0.41265E-06   -0.33712E-06   132   0.704E-03
  44 F= -.98882496E+02 E0= -.98882496E+02  d E =-.193466E-10
       N       E                     dE             d eps       ncg     rms          rms(c)
DAV:   1    -0.988810417591E+02    0.14540E-02   -0.40307E-01   108   0.186E+00    0.193E-01
DAV:   2    -0.988826190177E+02   -0.15773E-02   -0.19004E-02   144   0.435E-01    0.118E-01
DAV:   3    -0.988825402499E+02    0.78768E-04   -0.26312E-04   108   0.542E-02    0.638E-02
DAV:   4    -0.988824644241E+02    0.75826E-04   -0.11086E-04   132   0.368E-02    0.105E-02
DAV:   5    -0.988824547369E+02    0.96872E-05   -0.17900E-05   132   0.163E-02    0.595E-03
DAV:   6    -0.988824674554E+02   -0.12719E-04   -0.10852E-05   132   0.105E-02    0.311E-03
DAV:   7    -0.988824908961E+02   -0.23441E-04   -0.37400E-06   132   0.618E-03    0.212E-03
DAV:   8    -0.988825185015E+02   -0.27605E-04   -0.20622E-06    96   0.348E-03    0.104E-03
DAV:   9    -0.988825455072E+02   -0.27006E-04   -0.28234E-06   108   0.356E-03    0.803E-04
DAV:  10    -0.988825663884E+02   -0.20881E-04   -0.21959E-06    96   0.287E-03    0.297E-04
DAV:  11    -0.988825712965E+02   -0.49082E-05   -0.17175E-07   108   0.101E-03    0.268E-04
DAV:  12    -0.988825754972E+02   -0.42006E-05   -0.17201E-07    84   0.823E-04    0.124E-04
DAV:  13    -0.988825770390E+02   -0.15418E-05   -0.35928E-08    96   0.405E-04    0.650E-05
DAV:  14    -0.988825781204E+02   -0.10814E-05   -0.11505E-08    84   0.295E-04    0.449E-05
DAV:  15    -0.988825784820E+02   -0.36164E-06    0.17399E-09   108   0.151E-04
  45 F= -.98882578E+02 E0= -.98882578E+02  d E =-.186407E-10
       N       E                     dE             d eps       ncg     rms          rms(c)
DAV:   1    -0.988828838724E+02   -0.30575E-03   -0.20217E-01    96   0.128E+00    0.132E-01
DAV:   2    -0.988836750911E+02   -0.79122E-03   -0.96151E-03   108   0.301E-01    0.750E-02
DAV:   3    -0.988836433814E+02    0.31710E-04   -0.15462E-04   132   0.418E-02    0.413E-02
DAV:   4    -0.988836200099E+02    0.23372E-04   -0.47220E-05   108   0.289E-02    0.713E-03
DAV:   5    -0.988836149275E+02    0.50823E-05   -0.14076E-05   132   0.140E-02    0.506E-03
DAV:   6    -0.988836154553E+02   -0.52778E-06   -0.35433E-06   132   0.594E-03
  46 F= -.98883615E+02 E0= -.98883615E+02  d E =-.141174E-10
       N       E                     dE             d eps       ncg     rms          rms(c)
DAV:   1    -0.988824690665E+02    0.11459E-02   -0.41102E-01   108   0.182E+00    0.171E-01
DAV:   2    -0.988838625608E+02   -0.13935E-02   -0.16403E-02   108   0.380E-01    0.822E-02
DAV:   3    -0.988838553283E+02    0.72326E-05   -0.29547E-04   132   0.602E-02    0.442E-02
DAV:   4    -0.988838551377E+02    0.19056E-06   -0.67117E-05   108   0.416E-02    0.849E-03
DAV:   5    -0.988838577913E+02   -0.26536E-05   -0.33844E-05   132   0.214E-02    0.716E-03
DAV:   6    -0.988838595344E+02   -0.17431E-05   -0.29368E-06   120   0.557E-03    0.535E-03
DAV:   7    -0.988838637295E+02   -0.41951E-05   -0.72903E-07   108   0.320E-03    0.220E-03
DAV:   8    -0.988838691129E+02   -0.53834E-05   -0.96074E-07   108   0.351E-03    0.126E-03
DAV:   9    -0.988838791653E+02   -0.10052E-04   -0.90807E-07    84   0.359E-03    0.888E-04
DAV:  10    -0.988838828761E+02   -0.37109E-05   -0.38541E-07   108   0.194E-03    0.829E-04
DAV:  11    -0.988838847587E+02   -0.18826E-05   -0.43741E-08   108   0.744E-04    0.545E-04
DAV:  12    -0.988838879029E+02   -0.31442E-05   -0.89759E-08   108   0.757E-04    0.179E-04
DAV:  13    -0.988838899677E+02   -0.20648E-05   -0.60875E-08   108   0.559E-04    0.250E-04
DAV:  14    -0.988838909633E+02   -0.99559E-06   -0.15557E-08   108   0.323E-04
  47 F= -.98883891E+02 E0= -.98883891E+02  d E =-.230424E-10
       N       E                     dE             d eps       ncg     rms          rms(c)
DAV:   1    -0.988814999736E+02    0.23900E-02   -0.20477E-01   108   0.130E+00    0.127E-01
DAV:   2    -0.988822390425E+02   -0.73907E-03   -0.89024E-03    96   0.294E-01    0.684E-02
DAV:   3    -0.988822173973E+02    0.21645E-04   -0.17329E-04   144   0.442E-02    0.366E-02
DAV:   4    -0.988822043199E+02    0.13077E-04   -0.42580E-05   132   0.297E-02    0.660E-03
DAV:   5    -0.988822016739E+02    0.26460E-05   -0.16542E-05   132   0.148E-02    0.485E-03
DAV:   6    -0.988822020690E+02   -0.39505E-06   -0.26383E-06   132   0.531E-03
  48 F= -.98882202E+02 E0= -.98882202E+02  d E =-.156709E-10
       N       E                     dE             d eps       ncg     rms          rms(c)
DAV:   1    -0.988807215130E+02    0.14802E-02   -0.40206E-01   120   0.184E+00    0.202E-01
DAV:   2    -0.988822961309E+02   -0.15746E-02   -0.19088E-02   120   0.449E-01    0.126E-01
DAV:   3    -0.988821994750E+02    0.96656E-04   -0.29768E-04   108   0.595E-02    0.651E-02
DAV:   4    -0.988821426940E+02    0.56781E-04   -0.12773E-04   120   0.422E-02    0.108E-02
DAV:   5    -0.988821329367E+02    0.97573E-05   -0.24815E-05   132   0.186E-02    0.637E-03
DAV:   6    -0.988821432235E+02   -0.10287E-04   -0.11502E-05   132   0.944E-03    0.368E-03
DAV:   7    -0.988821637792E+02   -0.20556E-04   -0.16242E-06   120   0.420E-03    0.206E-03
DAV:   8    -0.988821976840E+02   -0.33905E-04   -0.39627E-06    96   0.439E-03    0.104E-03
DAV:   9    -0.988822161897E+02   -0.18506E-04   -0.14233E-06   120   0.266E-03    0.811E-04
DAV:  10    -0.988822352957E+02   -0.19106E-04   -0.17131E-06   108   0.256E-03    0.305E-04
DAV:  11    -0.988822418582E+02   -0.65626E-05   -0.27800E-07   108   0.116E-03    0.276E-04
DAV:  12    -0.988822472815E+02   -0.54233E-05   -0.31004E-07    84   0.106E-03    0.122E-04
DAV:  13    -0.988822484822E+02   -0.12007E-05   -0.35791E-08   108   0.419E-04    0.804E-05
DAV:  14    -0.988822496013E+02   -0.11191E-05   -0.14872E-08    96   0.323E-04    0.476E-05
DAV:  15    -0.988822500402E+02   -0.43894E-06   -0.18677E-09   108   0.193E-04
  49 F= -.98882250E+02 E0= -.98882250E+02  d E =-.137649E-10
       N       E                     dE             d eps       ncg     rms          rms(c)
DAV:   1    -0.988825099335E+02   -0.26033E-03   -0.20123E-01    96   0.134E+00    0.139E-01
DAV:   2    -0.988835216962E+02   -0.10118E-02   -0.12241E-02   108   0.343E-01    0.785E-02
DAV:   3    -0.988834839356E+02    0.37761E-04   -0.20146E-04   132   0.480E-02    0.453E-02
DAV:   4    -0.988834510846E+02    0.32851E-04   -0.57676E-05   120   0.335E-02    0.783E-03
DAV:   5    -0.988834437166E+02    0.73679E-05   -0.21670E-05   132   0.172E-02    0.619E-03
DAV:   6    -0.988834447009E+02   -0.98424E-06   -0.41964E-06   132   0.668E-03
  50 F= -.98883445E+02 E0= -.98883445E+02  d E =-.152316E-10
       N       E                     dE             d eps       ncg     rms          rms(c)
DAV:   1    -0.988821027407E+02    0.13410E-02   -0.41028E-01   120   0.168E+00    0.175E-01
DAV:   2    -0.988835258214E+02   -0.14231E-02   -0.16711E-02   108   0.368E-01    0.923E-02
DAV:   3    -0.988835077301E+02    0.18091E-04   -0.28719E-04   132   0.595E-02    0.496E-02
DAV:   4    -0.988835026683E+02    0.50618E-05   -0.78063E-05   132   0.426E-02    0.915E-03
DAV:   5    -0.988835022548E+02    0.41349E-06   -0.33296E-05   132   0.212E-02    0.778E-03
DAV:   6    -0.988835034435E+02   -0.11887E-05   -0.39208E-06   132   0.609E-03    0.541E-03
DAV:   7    -0.988835077836E+02   -0.43401E-05   -0.69608E-07   108   0.346E-03    0.238E-03
DAV:   8    -0.988835152583E+02   -0.74747E-05   -0.13453E-06   120   0.379E-03    0.124E-03
DAV:   9    -0.988835267167E+02   -0.11458E-04   -0.79020E-07   108   0.301E-03    0.715E-04
DAV:  10    -0.988835318481E+02   -0.51314E-05   -0.37094E-07   108   0.177E-03    0.623E-04
DAV:  11    -0.988835352421E+02   -0.33940E-05   -0.62682E-08   108   0.834E-04    0.344E-04
DAV:  12    -0.988835399640E+02   -0.47219E-05   -0.17575E-07   108   0.894E-04    0.243E-04
DAV:  13    -0.988835413915E+02   -0.14276E-05   -0.28340E-08   108   0.402E-04    0.213E-04
DAV:  14    -0.988835429058E+02   -0.15142E-05   -0.27910E-08   108   0.376E-04    0.782E-05
DAV:  15    -0.988835434318E+02   -0.52605E-06   -0.24721E-09   108   0.196E-04
  51 F= -.98883543E+02 E0= -.98883543E+02  d E =-.226933E-10
       N       E                     dE             d eps       ncg     rms          rms(c)
DAV:   1    -0.988820590439E+02    0.14839E-02   -0.20082E-01    96   0.119E+00    0.135E-01
DAV:   2    -0.988828532700E+02   -0.79423E-03   -0.99202E-03   108   0.284E-01    0.823E-02
DAV:   3    -0.988828024102E+02    0.50860E-04   -0.14094E-04   132   0.393E-02    0.453E-02
DAV:   4    -0.988827630196E+02    0.39391E-04   -0.51500E-05   132   0.269E-02    0.751E-03
DAV:   5    -0.988827607761E+02    0.22435E-05   -0.11150E-05   132   0.126E-02    0.455E-03
DAV:   6    -0.988827703027E+02   -0.95266E-05   -0.50539E-06   132   0.643E-03    0.250E-03
DAV:   7    -0.988827858063E+02   -0.15504E-04   -0.15367E-06   120   0.382E-03    0.153E-03
DAV:   8    -0.988828097792E+02   -0.23973E-04   -0.22157E-06   120   0.345E-03    0.778E-04
DAV:   9    -0.988828239254E+02   -0.14146E-04   -0.11733E-06   120   0.239E-03    0.657E-04
DAV:  10    -0.988828368412E+02   -0.12916E-04   -0.10548E-06   108   0.201E-03    0.254E-04
DAV:  11    -0.988828410443E+02   -0.42031E-05   -0.17256E-07   108   0.890E-04    0.232E-04
DAV:  12    -0.988828444037E+02   -0.33594E-05   -0.15600E-07   108   0.765E-04    0.907E-05
DAV:  13    -0.988828454578E+02   -0.10541E-05   -0.27227E-08   108   0.363E-04    0.593E-05
DAV:  14    -0.988828461656E+02   -0.70783E-06   -0.58968E-09   108   0.243E-04
  52 F= -.98882846E+02 E0= -.98882846E+02  d E =-.150125E-10
       N       E                     dE             d eps       ncg     rms          rms(c)
DAV:   1    -0.988812954860E+02    0.15500E-02   -0.40239E-01    96   0.167E+00    0.188E-01
DAV:   2    -0.988828399970E+02   -0.15445E-02   -0.19103E-02   120   0.395E-01    0.112E-01
DAV:   3    -0.988827577913E+02    0.82206E-04   -0.28571E-04   132   0.546E-02    0.600E-02
DAV:   4    -0.988826987298E+02    0.59061E-04   -0.91352E-05   132   0.361E-02    0.105E-02
DAV:   5    -0.988826860924E+02    0.12637E-04   -0.19472E-05   132   0.171E-02    0.626E-03
DAV:   6    -0.988826896644E+02   -0.35719E-05   -0.82513E-06   132   0.905E-03    0.336E-03
DAV:   7    -0.988827050238E+02   -0.15359E-04   -0.25131E-06   132   0.539E-03    0.210E-03
DAV:   8    -0.988827309668E+02   -0.25943E-04   -0.17686E-06   120   0.383E-03    0.108E-03
DAV:   9    -0.988827523304E+02   -0.21364E-04   -0.14442E-06   120   0.290E-03    0.924E-04
DAV:  10    -0.988827734602E+02   -0.21130E-04   -0.10022E-06   120   0.212E-03    0.349E-04
DAV:  11    -0.988827822662E+02   -0.88060E-05   -0.21037E-07   108   0.101E-03    0.328E-04
DAV:  12    -0.988827895765E+02   -0.73104E-05   -0.17291E-07   108   0.821E-04    0.131E-04
DAV:  13    -0.988827924260E+02   -0.28495E-05   -0.42518E-08   108   0.436E-04    0.754E-05
DAV:  14    -0.988827940657E+02   -0.16397E-05   -0.11112E-08   108   0.291E-04    0.540E-05
DAV:  15    -0.988827946820E+02   -0.61626E-06   -0.44224E-10   108   0.172E-04
  53 F= -.98882795E+02 E0= -.98882795E+02  d E =-.183314E-10
       N       E                     dE             d eps       ncg     rms          rms(c)
DAV:   1    -0.988813102399E+02    0.14838E-02   -0.20036E-01   120   0.116E+00    0.146E-01
DAV:   2    -0.988821411148E+02   -0.83087E-03   -0.10269E-02   108   0.289E-01    0.880E-02
DAV:   3    -0.988820848282E+02    0.56287E-04   -0.14417E-04   132   0.410E-02    0.475E-02
DAV:   4    -0.988820524188E+02    0.32409E-04   -0.65282E-05   132   0.310E-02    0.752E-03
DAV:   5    -0.988820485722E+02    0.38466E-05   -0.16192E-05   132   0.145E-02    0.505E-03
DAV:   6    -0.988820536534E+02   -0.50813E-05   -0.56400E-06   132   0.624E-03    0.305E-03
DAV:   7    -0.988820652057E+02   -0.11552E-04   -0.69269E-07   108   0.268E-03    0.165E-03
DAV:   8    -0.988820878867E+02   -0.22681E-04   -0.25350E-06   120   0.330E-03    0.891E-04
DAV:   9    -0.988820995078E+02   -0.11621E-04   -0.66031E-07   108   0.193E-03    0.709E-04
DAV:  10    -0.988821134043E+02   -0.13897E-04   -0.12457E-06   108   0.207E-03    0.314E-04
DAV:  11    -0.988821178142E+02   -0.44099E-05   -0.14813E-07   108   0.988E-04    0.250E-04
DAV:  12    -0.988821207372E+02   -0.29230E-05   -0.80710E-08    96   0.655E-04    0.157E-04
DAV:  13    -0.988821223074E+02   -0.15702E-05   -0.39246E-08   108   0.432E-04    0.102E-04
DAV:  14    -0.988821231010E+02   -0.79361E-06   -0.35016E-09    96   0.238E-04
  54 F= -.98882123E+02 E0= -.98882123E+02  d E =-.181546E-10
       N       E                     dE             d eps       ncg     rms          rms(c)
DAV:   1    -0.988805923353E+02    0.15300E-02   -0.40032E-01    96   0.165E+00    0.201E-01
DAV:   2    -0.988823224291E+02   -0.17301E-02   -0.21482E-02   108   0.406E-01    0.131E-01
DAV:   3    -0.988822049213E+02    0.11751E-03   -0.28018E-04   132   0.569E-02    0.763E-02
DAV:   4    -0.988821387491E+02    0.66172E-04   -0.16823E-04   132   0.484E-02    0.111E-02
DAV:   5    -0.988821370350E+02    0.17141E-05   -0.41070E-05   132   0.229E-02    0.796E-03
DAV:   6    -0.988821503045E+02   -0.13269E-04   -0.13700E-05   132   0.951E-03    0.465E-03
DAV:   7    -0.988821767971E+02   -0.26493E-04   -0.25903E-06   132   0.478E-03    0.247E-03
DAV:   8    -0.988822232000E+02   -0.46403E-04   -0.58875E-06   132   0.518E-03    0.130E-03
DAV:   9    -0.988822452350E+02   -0.22035E-04   -0.16682E-06   120   0.279E-03    0.106E-03
DAV:  10    -0.988822689352E+02   -0.23700E-04   -0.21104E-06   120   0.283E-03    0.412E-04
DAV:  11    -0.988822783855E+02   -0.94504E-05   -0.49091E-07   108   0.146E-03    0.322E-04
DAV:  12    -0.988822836694E+02   -0.52838E-05   -0.27019E-07   108   0.977E-04    0.163E-04
DAV:  13    -0.988822858030E+02   -0.21336E-05   -0.56326E-08   108   0.494E-04    0.821E-05
DAV:  14    -0.988822871691E+02   -0.13661E-05   -0.21127E-08   108   0.344E-04    0.593E-05
DAV:  15    -0.988822876187E+02   -0.44960E-06   -0.93561E-10   108   0.175E-04
  55 F= -.98882288E+02 E0= -.98882288E+02  d E =-.129351E-10
       N       E                     dE             d eps       ncg     rms          rms(c)
DAV:   1    -0.988821990907E+02    0.88078E-04   -0.19895E-01   120   0.132E+00    0.141E-01
DAV:   2    -0.988832964408E+02   -0.10974E-02   -0.13326E-02   108   0.345E-01    0.826E-02
DAV:   3    -0.988832657261E+02    0.30715E-04   -0.19437E-04   132   0.446E-02    0.490E-02
DAV:   4    -0.988832400057E+02    0.25720E-04   -0.66668E-05   132   0.305E-02    0.759E-03
DAV:   5    -0.988832339119E+02    0.60938E-05   -0.13790E-05   132   0.131E-02    0.488E-03
DAV:   6    -0.988832360506E+02   -0.21387E-05   -0.44876E-06   120   0.657E-03    0.254E-03
DAV:   7    -0.988832456710E+02   -0.96205E-05   -0.14159E-06   120   0.383E-03    0.137E-03
DAV:   8    -0.988832625907E+02   -0.16920E-04   -0.10081E-06   108   0.253E-03    0.693E-04
DAV:   9    -0.988832756664E+02   -0.13076E-04   -0.90778E-07   108   0.204E-03    0.561E-04
DAV:  10    -0.988832889587E+02   -0.13292E-04   -0.85489E-07    96   0.183E-03    0.234E-04
DAV:  11    -0.988832928285E+02   -0.38698E-05   -0.14003E-07   108   0.807E-04    0.212E-04
DAV:  12    -0.988832964749E+02   -0.36464E-05   -0.99872E-08   108   0.689E-04    0.840E-05
DAV:  13    -0.988832977283E+02   -0.12534E-05   -0.26571E-08   108   0.377E-04    0.663E-05
DAV:  14    -0.988832986997E+02   -0.97139E-06   -0.83750E-09   108   0.257E-04
  56 F= -.98883299E+02 E0= -.98883299E+02  d E =-.161443E-10
       N       E                     dE             d eps       ncg     rms          rms(c)
DAV:   1    -0.988819414261E+02    0.13563E-02   -0.41080E-01   120   0.177E+00    0.182E-01
DAV:   2    -0.988834975926E+02   -0.15562E-02   -0.18585E-02   108   0.421E-01    0.967E-02
DAV:   3    -0.988834563524E+02    0.41240E-04   -0.33655E-04   144   0.611E-02    0.537E-02
DAV:   4    -0.988834254364E+02    0.30916E-04   -0.89925E-05   120   0.423E-02    0.935E-03
DAV:   5    -0.988834201331E+02    0.53033E-05   -0.34334E-05   132   0.213E-02    0.695E-03
DAV:   6    -0.988834209792E+02   -0.84608E-06   -0.58416E-06   120   0.779E-03
  57 F= -.98883421E+02 E0= -.98883421E+02  d E =-.268806E-10
       N       E                     dE             d eps       ncg     rms          rms(c)
DAV:   1    -0.988819732292E+02    0.14469E-02   -0.20629E-01    96   0.125E+00    0.119E-01
DAV:   2    -0.988826517991E+02   -0.67857E-03   -0.79903E-03   120   0.257E-01    0.574E-02
DAV:   3    -0.988826564378E+02   -0.46387E-05   -0.16037E-04   120   0.434E-02    0.310E-02
DAV:   4    -0.988826630122E+02   -0.65743E-05   -0.33896E-05   120   0.286E-02    0.583E-03
DAV:   5    -0.988826679157E+02   -0.49035E-05   -0.15697E-05   132   0.145E-02    0.506E-03
DAV:   6    -0.988826706267E+02   -0.27110E-05   -0.13008E-06   120   0.367E-03    0.372E-03
DAV:   7    -0.988826770542E+02   -0.64275E-05   -0.52466E-07   108   0.255E-03    0.132E-03
DAV:   8    -0.988826834471E+02   -0.63929E-05   -0.54513E-07    84   0.248E-03    0.886E-04
DAV:   9    -0.988826934284E+02   -0.99813E-05   -0.66774E-07   108   0.268E-03    0.559E-04
DAV:  10    -0.988826957346E+02   -0.23062E-05   -0.18195E-07   108   0.133E-03    0.499E-04
DAV:  11    -0.988826979266E+02   -0.21920E-05   -0.39461E-08   108   0.611E-04    0.274E-04
DAV:  12    -0.988827007071E+02   -0.27806E-05   -0.72211E-08    96   0.601E-04    0.165E-04
DAV:  13    -0.988827025116E+02   -0.18044E-05   -0.37953E-08    84   0.437E-04    0.180E-04
DAV:  14    -0.988827030473E+02   -0.53569E-06   -0.12156E-09   108   0.208E-04
  58 F= -.98882703E+02 E0= -.98882703E+02  d E =-.135223E-10
       N       E                     dE             d eps       ncg     rms          rms(c)
DAV:   1    -0.988812338961E+02    0.14686E-02   -0.40231E-01   120   0.182E+00    0.194E-01
DAV:   2    -0.988829067215E+02   -0.16728E-02   -0.20376E-02   108   0.449E-01    0.115E-01
DAV:   3    -0.988828285033E+02    0.78218E-04   -0.33140E-04   144   0.603E-02    0.631E-02
DAV:   4    -0.988827683447E+02    0.60159E-04   -0.95745E-05   132   0.398E-02    0.107E-02
DAV:   5    -0.988827637324E+02    0.46123E-05   -0.26066E-05   132   0.189E-02    0.716E-03
DAV:   6    -0.988827755777E+02   -0.11845E-04   -0.81575E-06   132   0.874E-03    0.397E-03
DAV:   7    -0.988827986527E+02   -0.23075E-04   -0.30298E-06   132   0.538E-03    0.211E-03
DAV:   8    -0.988828318633E+02   -0.33211E-04   -0.31651E-06   120   0.437E-03    0.112E-03
DAV:   9    -0.988828548193E+02   -0.22956E-04   -0.21325E-06   120   0.334E-03    0.945E-04
DAV:  10    -0.988828742724E+02   -0.19453E-04   -0.17721E-06   108   0.276E-03    0.369E-04
DAV:  11    -0.988828807300E+02   -0.64575E-05   -0.27562E-07   108   0.120E-03    0.355E-04
DAV:  12    -0.988828856381E+02   -0.49081E-05   -0.23403E-07    84   0.974E-04    0.135E-04
DAV:  13    -0.988828873660E+02   -0.17280E-05   -0.51418E-08   108   0.482E-04    0.865E-05
DAV:  14    -0.988828884525E+02   -0.10864E-05   -0.98560E-09    96   0.291E-04    0.502E-05
DAV:  15    -0.988828889008E+02   -0.44830E-06   -0.17286E-09   108   0.184E-04
  59 F= -.98882889E+02 E0= -.98882889E+02  d E =-.202889E-10
       N       E                     dE             d eps       ncg     rms          rms(c)
DAV:   1    -0.988816703725E+02    0.12181E-02   -0.20218E-01   108   0.133E+00    0.134E-01
DAV:   2    -0.988824268591E+02   -0.75649E-03   -0.94096E-03   108   0.311E-01    0.759E-02
DAV:   3    -0.988823873849E+02    0.39474E-04   -0.14256E-04   132   0.391E-02    0.401E-02
DAV:   4    -0.988823529658E+02    0.34419E-04   -0.39698E-05   132   0.241E-02    0.701E-03
DAV:   5    -0.988823458957E+02    0.70701E-05   -0.79721E-06   132   0.116E-02    0.402E-03
DAV:   6    -0.988823483423E+02   -0.24466E-05   -0.42554E-06   132   0.768E-03    0.214E-03
DAV:   7    -0.988823575824E+02   -0.92401E-05   -0.17426E-06   120   0.472E-03    0.152E-03
DAV:   8    -0.988823699053E+02   -0.12323E-04   -0.57247E-07   108   0.221E-03    0.779E-04
DAV:   9    -0.988823846013E+02   -0.14696E-04   -0.10794E-06    96   0.233E-03    0.598E-04
DAV:  10    -0.988823973262E+02   -0.12725E-04   -0.58860E-07    84   0.174E-03    0.223E-04
DAV:  11    -0.988824022079E+02   -0.48816E-05   -0.17587E-07   108   0.914E-04    0.265E-04
DAV:  12    -0.988824066195E+02   -0.44116E-05   -0.79518E-08   108   0.644E-04    0.952E-05
DAV:  13    -0.988824081925E+02   -0.15730E-05   -0.24444E-08   108   0.361E-04    0.698E-05
DAV:  14    -0.988824092800E+02   -0.10875E-05   -0.75307E-09   108   0.250E-04    0.416E-05
DAV:  15    -0.988824098099E+02   -0.52988E-06    0.96492E-10   108   0.163E-04
  60 F= -.98882410E+02 E0= -.98882410E+02  d E =-.200066E-10
       N       E                     dE             d eps       ncg     rms          rms(c)
DAV:   1    -0.988809494602E+02    0.14598E-02   -0.40833E-01   120   0.187E+00    0.195E-01
DAV:   2    -0.988824087683E+02   -0.14593E-02   -0.18365E-02   132   0.439E-01    0.121E-01
DAV:   3    -0.988822907210E+02    0.11805E-03   -0.27049E-04   132   0.573E-02    0.610E-02
DAV:   4    -0.988822188681E+02    0.71853E-04   -0.10831E-04   120   0.384E-02    0.109E-02
DAV:   5    -0.988822193028E+02   -0.43466E-06   -0.18431E-05   132   0.167E-02    0.650E-03
DAV:   6    -0.988822440928E+02   -0.24790E-04   -0.13084E-05   120   0.111E-02    0.334E-03
DAV:   7    -0.988822746775E+02   -0.30585E-04   -0.37470E-06   132   0.632E-03    0.228E-03
DAV:   8    -0.988823172450E+02   -0.42568E-04   -0.42446E-06   120   0.468E-03    0.106E-03
DAV:   9    -0.988823459063E+02   -0.28661E-04   -0.29006E-06   120   0.364E-03    0.881E-04
DAV:  10    -0.988823680467E+02   -0.22140E-04   -0.22156E-06    96   0.291E-03    0.349E-04
DAV:  11    -0.988823745740E+02   -0.65274E-05   -0.28278E-07   108   0.123E-03    0.297E-04
DAV:  12    -0.988823790822E+02   -0.45082E-05   -0.20031E-07   108   0.897E-04    0.129E-04
DAV:  13    -0.988823806284E+02   -0.15462E-05   -0.37512E-08   108   0.441E-04    0.758E-05
DAV:  14    -0.988823817249E+02   -0.10964E-05   -0.12501E-08    96   0.331E-04    0.478E-05
DAV:  15    -0.988823820243E+02   -0.29940E-06    0.21529E-09   108   0.152E-04
  61 F= -.98882382E+02 E0= -.98882382E+02  d E =-.127401E-10
       N       E                     dE             d eps       ncg     rms          rms(c)
DAV:   1    -0.988852964973E+02   -0.29148E-02   -0.23323E-01   108   0.163E+00    0.131E-01
DAV:   2    -0.988857048720E+02   -0.40837E-03   -0.61015E-03   120   0.258E-01    0.782E-02
DAV:   3    -0.988856441895E+02    0.60682E-04   -0.15858E-04   132   0.438E-02    0.333E-02
DAV:   4    -0.988856265273E+02    0.17662E-04   -0.57507E-05   108   0.260E-02    0.727E-03
DAV:   5    -0.988856227077E+02    0.38196E-05   -0.76455E-06   132   0.105E-02    0.462E-03
DAV:   6    -0.988856244281E+02   -0.17204E-05   -0.35819E-06   108   0.611E-03    0.202E-03
DAV:   7    -0.988856294734E+02   -0.50453E-05   -0.56893E-07   108   0.309E-03    0.121E-03
DAV:   8    -0.988856385215E+02   -0.90480E-05   -0.60785E-07    84   0.230E-03    0.671E-04
DAV:   9    -0.988856475168E+02   -0.89953E-05   -0.53396E-07    96   0.184E-03    0.390E-04
DAV:  10    -0.988856549835E+02   -0.74667E-05   -0.35650E-07    84   0.132E-03    0.261E-04
DAV:  11    -0.988856595164E+02   -0.45329E-05   -0.10937E-07    96   0.768E-04    0.138E-04
DAV:  12    -0.988856621891E+02   -0.26727E-05   -0.59446E-08    84   0.526E-04    0.991E-05
DAV:  13    -0.988856629598E+02   -0.77074E-06   -0.39868E-09   108   0.244E-04
  62 F= -.98885663E+02 E0= -.98885663E+02  d E =-.146743E-10
       N       E                     dE             d eps       ncg     rms          rms(c)
DAV:   1    -0.988859255128E+02   -0.26332E-03   -0.52830E-01    96   0.225E+00    0.174E-01
DAV:   2    -0.988857830044E+02    0.14251E-03   -0.26289E-03   108   0.158E-01    0.982E-02
DAV:   3    -0.988856361290E+02    0.14688E-03   -0.44036E-04   132   0.605E-02    0.179E-02
DAV:   4    -0.988856393731E+02   -0.32442E-05   -0.66515E-05   132   0.255E-02    0.927E-03
DAV:   5    -0.988856405241E+02   -0.11510E-05   -0.39816E-06   132   0.678E-03    0.533E-03
DAV:   6    -0.988856446015E+02   -0.40774E-05   -0.23922E-06   108   0.481E-03    0.130E-03
DAV:   7    -0.988856481763E+02   -0.35748E-05   -0.49645E-07   108   0.247E-03    0.973E-04
DAV:   8    -0.988856524528E+02   -0.42765E-05   -0.21088E-07    84   0.160E-03    0.498E-04
DAV:   9    -0.988856567684E+02   -0.43156E-05   -0.25895E-07    96   0.153E-03    0.294E-04
DAV:  10    -0.988856598889E+02   -0.31204E-05   -0.18201E-07    84   0.102E-03    0.190E-04
DAV:  11    -0.988856612998E+02   -0.14110E-05   -0.45572E-08    96   0.534E-04    0.126E-04
DAV:  12    -0.988856622252E+02   -0.92535E-06   -0.20245E-08    84   0.355E-04
  63 F= -.98885662E+02 E0= -.98885662E+02  d E =-.142020E-10
       N       E                     dE             d eps       ncg     rms          rms(c)
DAV:   1    -0.988847145702E+02    0.94673E-03   -0.27243E-01   108   0.160E+00    0.145E-01
DAV:   2    -0.988846528103E+02    0.61760E-04   -0.20471E-03   108   0.132E-01    0.805E-02
DAV:   3    -0.988845506820E+02    0.10213E-03   -0.28785E-04   132   0.439E-02    0.197E-02
DAV:   4    -0.988845459565E+02    0.47255E-05   -0.45661E-05   108   0.190E-02    0.809E-03
DAV:   5    -0.988845446275E+02    0.13290E-05   -0.39950E-06   132   0.690E-03    0.353E-03
DAV:   6    -0.988845464191E+02   -0.17916E-05   -0.22598E-06   108   0.475E-03    0.149E-03
DAV:   7    -0.988845495808E+02   -0.31617E-05   -0.50732E-07    96   0.246E-03    0.913E-04
DAV:   8    -0.988845525798E+02   -0.29989E-05   -0.18949E-07    84   0.142E-03    0.601E-04
DAV:   9    -0.988845572870E+02   -0.47072E-05   -0.30351E-07    84   0.132E-03    0.248E-04
DAV:  10    -0.988845595828E+02   -0.22958E-05   -0.10561E-07    96   0.797E-04    0.159E-04
DAV:  11    -0.988845610254E+02   -0.14426E-05   -0.20716E-08    84   0.366E-04    0.118E-04
DAV:  12    -0.988845629717E+02   -0.19463E-05   -0.40742E-08    84   0.398E-04    0.645E-05
DAV:  13    -0.988845634771E+02   -0.50539E-06   -0.30418E-09   108   0.194E-04
  64 F= -.98884563E+02 E0= -.98884563E+02  d E =-.150811E-10
       N       E                     dE             d eps       ncg     rms          rms(c)
[...]
DAV:   9    -0.988841954796E+02   -0.91233E-05   -0.87351E-07    96   0.186E-03    0.320E-04
DAV:  10    -0.988841986692E+02   -0.31896E-05   -0.15488E-07    96   0.100E-03    0.184E-04
DAV:  11    -0.988842010431E+02   -0.23740E-05   -0.10988E-07    84   0.650E-04    0.121E-04
DAV:  12    -0.988842026816E+02   -0.16385E-05   -0.56475E-08    96   0.469E-04    0.848E-05
DAV:  13    -0.988842033945E+02   -0.71293E-06   -0.14128E-08    84   0.293E-04
 129 F= -.98884203E+02 E0= -.98884203E+02  d E =-.130805E-10
       N       E                     dE             d eps       ncg     rms          rms(c)
DAV:   1    -0.988864047158E+02   -0.22020E-02   -0.26807E-01    96   0.158E+00    0.131E-01
DAV:   2    -0.988863559319E+02    0.48784E-04   -0.17326E-03   108   0.130E-01    0.739E-02
DAV:   3    -0.988862740753E+02    0.81857E-04   -0.24783E-04   132   0.431E-02    0.171E-02
DAV:   4    -0.988862723710E+02    0.17043E-05   -0.38906E-05   108   0.190E-02    0.738E-03
DAV:   5    -0.988862717356E+02    0.63538E-06   -0.27765E-06   120   0.607E-03
 130 F= -.98886272E+02 E0= -.98886272E+02  d E =-.162997E-10
       N       E                     dE             d eps       ncg     rms          rms(c)
DAV:   1    -0.988863511436E+02   -0.78773E-04   -0.52551E-01    96   0.234E+00    0.156E-01
DAV:   2    -0.988862428699E+02    0.10827E-03   -0.19422E-03   108   0.144E-01    0.910E-02
DAV:   3    -0.988861488394E+02    0.94030E-04   -0.38076E-04   120   0.594E-02    0.106E-02
DAV:   4    -0.988861553559E+02   -0.65165E-05   -0.55349E-05   132   0.241E-02    0.676E-03
DAV:   5    -0.988861562310E+02   -0.87514E-06   -0.18061E-06   108   0.469E-03
 131 F= -.98886156E+02 E0= -.98886156E+02  d E =-.158906E-10
       N       E                     dE             d eps       ncg     rms          rms(c)
DAV:   1    -0.988857628317E+02    0.39252E-03   -0.26213E-01    96   0.166E+00    0.110E-01
DAV:   2    -0.988857068193E+02    0.56012E-04   -0.10121E-03   108   0.103E-01    0.640E-02
DAV:   3    -0.988856593298E+02    0.47490E-04   -0.18676E-04   108   0.418E-02    0.811E-03
DAV:   4    -0.988856622555E+02   -0.29257E-05   -0.26946E-05   132   0.172E-02    0.515E-03
DAV:   5    -0.988856627138E+02   -0.45827E-06   -0.95466E-07   108   0.348E-03
 132 F= -.98885663E+02 E0= -.98885663E+02  d E =-.167105E-10
       N       E                     dE             d eps       ncg     rms          rms(c)
DAV:   1    -0.988861258762E+02   -0.46362E-03   -0.52784E-01    96   0.225E+00    0.168E-01
DAV:   2    -0.988860223607E+02    0.10352E-03   -0.24734E-03   108   0.160E-01    0.952E-02
DAV:   3    -0.988859063700E+02    0.11599E-03   -0.39749E-04   120   0.598E-02    0.180E-02
DAV:   4    -0.988859094619E+02   -0.30919E-05   -0.64437E-05   132   0.258E-02    0.947E-03
DAV:   5    -0.988859088903E+02    0.57166E-06   -0.28990E-06   108   0.599E-03
 133 F= -.98885909E+02 E0= -.98885909E+02  d E =-.130704E-10
       N       E                     dE             d eps       ncg     rms          rms(c)
DAV:   1    -0.988858076320E+02    0.10183E-03   -0.27083E-01    96   0.198E+00    0.143E-01
DAV:   2    -0.988857540616E+02    0.53570E-04   -0.18640E-03   108   0.157E-01    0.781E-02
DAV:   3    -0.988856811693E+02    0.72892E-04   -0.18473E-04   120   0.434E-02    0.225E-02
DAV:   4    -0.988856816150E+02   -0.44571E-06   -0.46234E-05   108   0.213E-02    0.685E-03
DAV:   5    -0.988856809179E+02    0.69712E-06   -0.28238E-06   132   0.645E-03
 134 F= -.98885681E+02 E0= -.98885681E+02  d E =-.151640E-10
       N       E                     dE             d eps       ncg     rms          rms(c)
DAV:   1    -0.988859004482E+02   -0.21883E-03   -0.55325E-01    96   0.267E+00    0.231E-01
DAV:   2    -0.988855645671E+02    0.33588E-03   -0.32720E-03   108   0.200E-01    0.121E-01
DAV:   3    -0.988853502006E+02    0.21437E-03   -0.48216E-04   120   0.640E-02    0.370E-02
DAV:   4    -0.988853448261E+02    0.53744E-05   -0.10210E-04   108   0.309E-02    0.128E-02
DAV:   5    -0.988853451834E+02   -0.35722E-06   -0.65393E-06   132   0.104E-02
 135 F= -.98885345E+02 E0= -.98885345E+02  d E =-.135640E-10
       N       E                     dE             d eps       ncg     rms          rms(c)
DAV:   1    -0.988849714880E+02    0.37334E-03   -0.28957E-01    96   0.195E+00    0.208E-01
DAV:   2    -0.988847263285E+02    0.24516E-03   -0.24522E-03   108   0.180E-01    0.103E-01
DAV:   3    -0.988845841376E+02    0.14219E-03   -0.39614E-04   120   0.640E-02    0.356E-02
DAV:   4    -0.988845846688E+02   -0.53113E-06   -0.11662E-04   120   0.337E-02    0.148E-02
DAV:   5    -0.988845830667E+02    0.16020E-05   -0.52016E-06   108   0.964E-03    0.574E-03
DAV:   6    -0.988845832278E+02   -0.16111E-06   -0.28090E-06   132   0.599E-03
 136 F= -.98884583E+02 E0= -.98884583E+02  d E =-.145394E-10
       N       E                     dE             d eps       ncg     rms          rms(c)
DAV:   1    -0.988852176639E+02   -0.63460E-03   -0.57193E-01   108   0.272E+00    0.272E-01
DAV:   2    -0.988846909685E+02    0.52670E-03   -0.46688E-03   108   0.252E-01    0.137E-01
DAV:   3    -0.988843966343E+02    0.29433E-03   -0.77915E-04   120   0.910E-02    0.462E-02
DAV:   4    -0.988843962272E+02    0.40701E-06   -0.20446E-04   120   0.461E-02    0.204E-02
DAV:   5    -0.988843956046E+02    0.62269E-06   -0.81967E-06   108   0.117E-02
 137 F= -.98884396E+02 E0= -.98884396E+02  d E =-.144307E-10
       N       E                     dE             d eps       ncg     rms          rms(c)
DAV:   1    -0.988860858787E+02   -0.16897E-02   -0.28764E-01    96   0.193E+00    0.204E-01
DAV:   2    -0.988858356873E+02    0.25019E-03   -0.23873E-03   108   0.178E-01    0.101E-01
DAV:   3    -0.988856912395E+02    0.14445E-03   -0.39037E-04   120   0.649E-02    0.345E-02
DAV:   4    -0.988856929117E+02   -0.16722E-05   -0.11542E-04   108   0.341E-02    0.138E-02
DAV:   5    -0.988856919360E+02    0.97567E-06   -0.51953E-06   132   0.947E-03
 138 F= -.98885692E+02 E0= -.98885692E+02  d E =-.153106E-10
       N       E                     dE             d eps       ncg     rms          rms(c)
DAV:   1    -0.988861121468E+02   -0.41924E-03   -0.54727E-01    96   0.268E+00    0.227E-01
DAV:   2    -0.988858014581E+02    0.31069E-03   -0.33958E-03   108   0.205E-01    0.120E-01
DAV:   3    -0.988856021902E+02    0.19927E-03   -0.47589E-04   120   0.672E-02    0.361E-02
DAV:   4    -0.988856025282E+02   -0.33797E-06   -0.10067E-04   132   0.316E-02    0.119E-02
DAV:   5    -0.988856025046E+02    0.23562E-07   -0.60284E-06   132   0.969E-03
 139 F= -.98885603E+02 E0= -.98885603E+02  d E =-.131949E-10
       N       E                     dE             d eps       ncg     rms          rms(c)
DAV:   1    -0.988855539283E+02    0.48600E-04   -0.27613E-01    96   0.191E+00    0.168E-01
DAV:   2    -0.988854493709E+02    0.10456E-03   -0.18798E-03   108   0.146E-01    0.874E-02
DAV:   3    -0.988853588022E+02    0.90569E-04   -0.24780E-04   120   0.440E-02    0.277E-02
DAV:   4    -0.988853547975E+02    0.40047E-05   -0.41726E-05   108   0.187E-02    0.974E-03
DAV:   5    -0.988853531878E+02    0.16097E-05   -0.25264E-06   132   0.712E-03    0.466E-03
DAV:   6    -0.988853531909E+02   -0.31121E-08   -0.21150E-06   108   0.544E-03
 140 F= -.98885353E+02 E0= -.98885353E+02  d E =-.151739E-10
       N       E                     dE             d eps       ncg     rms          rms(c)
DAV:   1    -0.988858144580E+02   -0.46127E-03   -0.55607E-01    96   0.256E+00    0.245E-01
DAV:   2    -0.988854477466E+02    0.36671E-03   -0.34593E-03   108   0.203E-01    0.124E-01
DAV:   3    -0.988852283076E+02    0.21944E-03   -0.50251E-04   120   0.645E-02    0.400E-02
DAV:   4    -0.988852193292E+02    0.89784E-05   -0.10882E-04   108   0.311E-02    0.128E-02
DAV:   5    -0.988852193884E+02   -0.59201E-07   -0.69153E-06   132   0.107E-02
 141 F= -.98885219E+02 E0= -.98885219E+02  d E =-.137175E-10
       N       E                     dE             d eps       ncg     rms          rms(c)
DAV:   1    -0.988845158544E+02    0.70347E-03   -0.27226E-01    96   0.183E+00    0.140E-01
DAV:   2    -0.988843786981E+02    0.13716E-03   -0.14793E-03   120   0.132E-01    0.786E-02
DAV:   3    -0.988842923821E+02    0.86316E-04   -0.25271E-04   108   0.502E-02    0.170E-02
DAV:   4    -0.988842972174E+02   -0.48353E-05   -0.46905E-05   132   0.223E-02    0.845E-03
DAV:   5    -0.988842977938E+02   -0.57641E-06   -0.10623E-06   108   0.424E-03
 142 F= -.98884298E+02 E0= -.98884298E+02  d E =-.147726E-10
       N       E                     dE             d eps       ncg     rms          rms(c)
DAV:   1    -0.988848818611E+02   -0.58464E-03   -0.57954E-01   108   0.265E+00    0.285E-01
DAV:   2    -0.988843439348E+02    0.53793E-03   -0.48210E-03   108   0.249E-01    0.142E-01
DAV:   3    -0.988840337094E+02    0.31023E-03   -0.81901E-04   120   0.931E-02    0.469E-02
DAV:   4    -0.988840344458E+02   -0.73642E-06   -0.22698E-04   108   0.469E-02    0.199E-02
DAV:   5    -0.988840318906E+02    0.25552E-05   -0.89955E-06   132   0.125E-02    0.862E-03
DAV:   6    -0.988840320914E+02   -0.20076E-06   -0.56198E-06   120   0.843E-03
 143 F= -.98884032E+02 E0= -.98884032E+02  d E =-.142397E-10
       N       E                     dE             d eps       ncg     rms          rms(c)
DAV:   1    -0.988864478528E+02   -0.24160E-02   -0.28147E-01    96   0.183E+00    0.169E-01
DAV:   2    -0.988862325775E+02    0.21528E-03   -0.19249E-03   108   0.157E-01    0.893E-02
DAV:   3    -0.988861177177E+02    0.11486E-03   -0.32801E-04   120   0.580E-02    0.261E-02
DAV:   4    -0.988861223180E+02   -0.46003E-05   -0.74350E-05   132   0.276E-02    0.113E-02
DAV:   5    -0.988861225928E+02   -0.27486E-06   -0.28653E-06   132   0.676E-03
 144 F= -.98886123E+02 E0= -.98886123E+02  d E =-.143676E-10
       N       E                     dE             d eps       ncg     rms          rms(c)
DAV:   1    -0.988866982228E+02   -0.57590E-03   -0.54208E-01    96   0.252E+00    0.200E-01
DAV:   2    -0.988864205892E+02    0.27763E-03   -0.27254E-03   108   0.177E-01    0.112E-01
DAV:   3    -0.988862438916E+02    0.17670E-03   -0.46340E-04   120   0.663E-02    0.225E-02
DAV:   4    -0.988862499754E+02   -0.60838E-05   -0.70582E-05   132   0.272E-02    0.882E-03
DAV:   5    -0.988862502867E+02   -0.31130E-06   -0.31132E-06   132   0.654E-03
 145 F= -.98886250E+02 E0= -.98886250E+02  d E =-.144900E-10
       N       E                     dE             d eps       ncg     rms          rms(c)
DAV:   1    -0.988853798549E+02    0.87012E-03   -0.27006E-01    96   0.197E+00    0.134E-01
DAV:   2    -0.988853199035E+02    0.59951E-04   -0.18383E-03   120   0.153E-01    0.762E-02
DAV:   3    -0.988852442244E+02    0.75679E-04   -0.22704E-04   108   0.491E-02    0.181E-02
DAV:   4    -0.988852476116E+02   -0.33872E-05   -0.48322E-05   132   0.224E-02    0.737E-03
DAV:   5    -0.988852475677E+02    0.43926E-07   -0.15711E-06    84   0.507E-03
 146 F= -.98885248E+02 E0= -.98885248E+02  d E =-.143438E-10
       N       E                     dE             d eps       ncg     rms          rms(c)
DAV:   1    -0.988858282280E+02   -0.58062E-03   -0.53497E-01   108   0.241E+00    0.178E-01
DAV:   2    -0.988856982963E+02    0.12993E-03   -0.32226E-03   108   0.182E-01    0.101E-01
DAV:   3    -0.988855413576E+02    0.15694E-03   -0.46725E-04   108   0.637E-02    0.210E-02
DAV:   4    -0.988855439798E+02   -0.26222E-05   -0.88465E-05   132   0.289E-02    0.103E-02
DAV:   5    -0.988855429532E+02    0.10266E-05   -0.28542E-06   132   0.595E-03    0.601E-03
DAV:   6    -0.988855438668E+02   -0.91360E-06   -0.26088E-06   108   0.526E-03
 147 F= -.98885544E+02 E0= -.98885544E+02  d E =-.145271E-10
       N       E                     dE             d eps       ncg     rms          rms(c)
DAV:   1    -0.988843460597E+02    0.11969E-02   -0.26388E-01    96   0.171E+00    0.112E-01
DAV:   2    -0.988842803071E+02    0.65753E-04   -0.10122E-03   108   0.100E-01    0.638E-02
DAV:   3    -0.988842238050E+02    0.56502E-04   -0.16617E-04   120   0.374E-02    0.106E-02
DAV:   4    -0.988842262364E+02   -0.24314E-05   -0.22723E-05   132   0.152E-02    0.545E-03
DAV:   5    -0.988842276758E+02   -0.14394E-05   -0.93584E-07   108   0.348E-03    0.338E-03
DAV:   6    -0.988842306656E+02   -0.29898E-05   -0.75375E-07    84   0.302E-03    0.640E-04
DAV:   7    -0.988842325091E+02   -0.18434E-05   -0.25847E-07   108   0.170E-03    0.606E-04
DAV:   8    -0.988842360409E+02   -0.35318E-05   -0.23993E-07    96   0.162E-03    0.219E-04
DAV:   9    -0.988842375036E+02   -0.14628E-05   -0.11007E-07   108   0.897E-04    0.223E-04
DAV:  10    -0.988842391268E+02   -0.16232E-05   -0.42756E-08    96   0.564E-04    0.130E-04
DAV:  11    -0.988842403756E+02   -0.12487E-05   -0.54592E-08    84   0.457E-04    0.802E-05
DAV:  12    -0.988842409326E+02   -0.55706E-06   -0.92508E-09   108   0.241E-04
 148 F= -.98884241E+02 E0= -.98884241E+02  d E =-.139015E-10
       N       E                     dE             d eps       ncg     rms          rms(c)
DAV:   1    -0.988846980658E+02   -0.45769E-03   -0.54409E-01    96   0.244E+00    0.204E-01
DAV:   2    -0.988845964536E+02    0.10161E-03   -0.40501E-03   108   0.200E-01    0.110E-01
DAV:   3    -0.988844041546E+02    0.19230E-03   -0.48395E-04   132   0.601E-02    0.316E-02
DAV:   4    -0.988843938553E+02    0.10299E-04   -0.97121E-05   132   0.276E-02    0.110E-02
DAV:   5    -0.988843913785E+02    0.24768E-05   -0.57929E-06   132   0.958E-03    0.524E-03
DAV:   6    -0.988843939998E+02   -0.26213E-05   -0.42392E-06   132   0.703E-03    0.182E-03
DAV:   7    -0.988843984212E+02   -0.44214E-05   -0.10854E-06   108   0.363E-03    0.122E-03
DAV:   8    -0.988844044374E+02   -0.60162E-05   -0.41631E-07   108   0.209E-03    0.632E-04
DAV:   9    -0.988844095728E+02   -0.51354E-05   -0.29710E-07   108   0.157E-03    0.371E-04
DAV:  10    -0.988844155641E+02   -0.59912E-05   -0.30904E-07    84   0.125E-03    0.197E-04
DAV:  11    -0.988844180289E+02   -0.24648E-05   -0.62738E-08   108   0.642E-04    0.156E-04
DAV:  12    -0.988844206920E+02   -0.26631E-05   -0.48315E-08    96   0.467E-04    0.875E-05
DAV:  13    -0.988844217245E+02   -0.10326E-05   -0.16171E-08   108   0.286E-04    0.578E-05
DAV:  14    -0.988844224736E+02   -0.74902E-06   -0.19566E-09    96   0.191E-04
 149 F= -.98884422E+02 E0= -.98884422E+02  d E =-.146972E-10
       N       E                     dE             d eps       ncg     rms          rms(c)
DAV:   1    -0.988863406051E+02   -0.19189E-02   -0.26616E-01    96   0.175E+00    0.127E-01
DAV:   2    -0.988862526434E+02    0.87962E-04   -0.13928E-03   108   0.126E-01    0.712E-02
DAV:   3    -0.988861805418E+02    0.72102E-04   -0.21852E-04   120   0.439E-02    0.148E-02
DAV:   4    -0.988861812921E+02   -0.75033E-06   -0.33930E-05   132   0.185E-02    0.714E-03
DAV:   5    -0.988861818249E+02   -0.53275E-06   -0.14926E-06   120   0.459E-03
 150 F= -.98886182E+02 E0= -.98886182E+02  d E =-.147152E-10
       N       E                     dE             d eps       ncg     rms          rms(c)
DAV:   1    -0.988864723344E+02   -0.29104E-03   -0.52566E-01    96   0.241E+00    0.160E-01
DAV:   2    -0.988863460072E+02    0.12633E-03   -0.20811E-03   108   0.151E-01    0.921E-02
DAV:   3    -0.988862349702E+02    0.11104E-03   -0.36673E-04   132   0.591E-02    0.123E-02
DAV:   4    -0.988862413650E+02   -0.63948E-05   -0.55399E-05   132   0.240E-02    0.741E-03
DAV:   5    -0.988862425573E+02   -0.11923E-05   -0.17332E-06   108   0.471E-03    0.490E-03
DAV:   6    -0.988862464299E+02   -0.38727E-05   -0.19310E-06   120   0.447E-03    0.889E-04
DAV:   7    -0.988862489077E+02   -0.24778E-05   -0.41918E-07   108   0.218E-03    0.800E-04
DAV:   8    -0.988862525011E+02   -0.35934E-05   -0.19121E-07   108   0.164E-03    0.422E-04
DAV:   9    -0.988862558230E+02   -0.33219E-05   -0.19843E-07    84   0.142E-03    0.239E-04
DAV:  10    -0.988862587445E+02   -0.29215E-05   -0.15416E-07   108   0.963E-04    0.162E-04
DAV:  11    -0.988862596488E+02   -0.90434E-06   -0.22679E-08   108   0.404E-04
 151 F= -.98886260E+02 E0= -.98886260E+02  d E =-.132759E-10
       N       E                     dE             d eps       ncg     rms          rms(c)
DAV:   1    -0.988842312458E+02    0.20275E-02   -0.26669E-01   108   0.175E+00    0.130E-01
DAV:   2    -0.988841679803E+02    0.63265E-04   -0.18417E-03   108   0.141E-01    0.711E-02
DAV:   3    -0.988840893250E+02    0.78655E-04   -0.22632E-04   120   0.472E-02    0.185E-02
DAV:   4    -0.988840906100E+02   -0.12850E-05   -0.52443E-05   120   0.222E-02    0.677E-03
DAV:   5    -0.988840912081E+02   -0.59815E-06   -0.23866E-06   132   0.559E-03
 152 F= -.98884091E+02 E0= -.98884091E+02  d E =-.135876E-10
       N       E                     dE             d eps       ncg     rms          rms(c)
DAV:   1    -0.988843829622E+02   -0.29235E-03   -0.54535E-01   108   0.246E+00    0.204E-01
DAV:   2    -0.988842452613E+02    0.13770E-03   -0.42345E-03   108   0.216E-01    0.114E-01
DAV:   3    -0.988840396283E+02    0.20563E-03   -0.60883E-04   108   0.717E-02    0.281E-02
DAV:   4    -0.988840388269E+02    0.80141E-06   -0.12404E-04   132   0.330E-02    0.119E-02
DAV:   5    -0.988840362755E+02    0.25515E-05   -0.52036E-06   132   0.862E-03    0.606E-03
DAV:   6    -0.988840370350E+02   -0.75955E-06   -0.45084E-06   132   0.734E-03
 153 F= -.98884037E+02 E0= -.98884037E+02  d E =-.153738E-10
       N       E                     dE             d eps       ncg     rms          rms(c)
DAV:   1    -0.988861009333E+02   -0.20647E-02   -0.26900E-01    96   0.174E+00    0.140E-01
DAV:   2    -0.988860342418E+02    0.66692E-04   -0.18205E-03   108   0.136E-01    0.761E-02
DAV:   3    -0.988859581944E+02    0.76047E-04   -0.23353E-04   108   0.414E-02    0.205E-02
DAV:   4    -0.988859564196E+02    0.17748E-05   -0.37301E-05   120   0.180E-02    0.784E-03
DAV:   5    -0.988859555814E+02    0.83827E-06   -0.28648E-06   108   0.622E-03
 154 F= -.98885956E+02 E0= -.98885956E+02  d E =-.138240E-10
       N       E                     dE             d eps       ncg     rms          rms(c)
DAV:   1    -0.988865701092E+02   -0.61369E-03   -0.53085E-01    96   0.241E+00    0.161E-01
DAV:   2    -0.988864553330E+02    0.11478E-03   -0.20253E-03   108   0.141E-01    0.921E-02
DAV:   3    -0.988863488253E+02    0.10651E-03   -0.34752E-04   120   0.531E-02    0.146E-02
DAV:   4    -0.988863514271E+02   -0.26018E-05   -0.46953E-05   120   0.216E-02    0.748E-03
DAV:   5    -0.988863508726E+02    0.55449E-06   -0.18175E-06   132   0.468E-03
 155 F= -.98886351E+02 E0= -.98886351E+02  d E =-.149230E-10
       N       E                     dE             d eps       ncg     rms          rms(c)
DAV:   1    -0.988857572888E+02    0.59414E-03   -0.26447E-01    96   0.173E+00    0.115E-01
DAV:   2    -0.988856959387E+02    0.61350E-04   -0.11416E-03   108   0.113E-01    0.668E-02
DAV:   3    -0.988856446677E+02    0.51271E-04   -0.19055E-04   132   0.436E-02    0.917E-03
DAV:   4    -0.988856483068E+02   -0.36391E-05   -0.31818E-05   132   0.180E-02    0.590E-03
DAV:   5    -0.988856487721E+02   -0.46525E-06   -0.76040E-07   108   0.328E-03
 156 F= -.98885649E+02 E0= -.98885649E+02  d E =-.167491E-10
       N       E                     dE             d eps       ncg     rms          rms(c)
DAV:   1    -0.988860081283E+02   -0.35982E-03   -0.53044E-01    96   0.242E+00    0.173E-01
DAV:   2    -0.988858931358E+02    0.11499E-03   -0.26710E-03   120   0.171E-01    0.972E-02
DAV:   3    -0.988857619336E+02    0.13120E-03   -0.39056E-04   120   0.572E-02    0.193E-02
DAV:   4    -0.988857618040E+02    0.12962E-06   -0.55679E-05   132   0.233E-02    0.884E-03
DAV:   5    -0.988857618009E+02    0.31250E-08   -0.33266E-06   132   0.629E-03
 157 F= -.98885762E+02 E0= -.98885762E+02  d E =-.122281E-10
