       N       E                     dE             d eps       ncg     rms          rms(c)
DAV:   1     0.209989489049E+03    0.20999E+03   -0.10460E+04   116   0.546E+02
DAV:   2    -0.237609096074E+02   -0.23375E+03   -0.21851E+03   144   0.103E+02
DAV:   3    -0.992279902574E+02   -0.75467E+02   -0.75307E+02   112   0.554E+01
DAV:   4    -0.103542413544E+03   -0.43144E+01   -0.42984E+01   104   0.180E+01
DAV:   5    -0.103608041965E+03   -0.65628E-01   -0.65586E-01   144   0.237E+00    0.144E+01
DAV:   6    -0.100450430742E+03    0.31576E+01   -0.16177E+00   104   0.456E+00    0.826E+00
DAV:   7    -0.988116481187E+02    0.16388E+01   -0.39693E+00   104   0.663E+00    0.121E+00
DAV:   8    -0.987547322451E+02    0.56916E-01   -0.27456E-01   112   0.219E+00    0.593E-01
DAV:   9    -0.987194478614E+02    0.35284E-01   -0.69517E-02   120   0.746E-01    0.313E-01
DAV:  10    -0.987193547790E+02    0.93082E-04   -0.25616E-03   112   0.203E-01    0.138E-01
DAV:  11    -0.987191260505E+02    0.22873E-03   -0.63095E-03   104   0.233E-01    0.818E-02
DAV:  12    -0.987242065924E+02   -0.50805E-02   -0.16280E-03   102   0.113E-01    0.524E-02
DAV:  13    -0.987283062253E+02   -0.40996E-02   -0.14620E-03   112   0.984E-02    0.345E-02
DAV:  14    -0.987333589844E+02   -0.50528E-02   -0.45776E-04   112   0.648E-02    0.151E-02
DAV:  15    -0.987366401357E+02   -0.32812E-02   -0.32505E-04   112   0.476E-02    0.113E-02
DAV:  16    -0.987379220496E+02   -0.12819E-02   -0.86771E-05   112   0.246E-02    0.597E-03
DAV:  17    -0.987388734060E+02   -0.95136E-03   -0.80101E-05   112   0.213E-02    0.304E-03
DAV:  18    -0.987391519341E+02   -0.27853E-03   -0.10023E-05   104   0.818E-03    0.149E-03
DAV:  19    -0.987392472192E+02   -0.95285E-04   -0.24323E-06    96   0.405E-03    0.105E-03
DAV:  20    -0.987392948197E+02   -0.47601E-04   -0.95811E-07    88   0.296E-03    0.514E-04
DAV:  21    -0.987393116455E+02   -0.16826E-04   -0.51521E-07    88   0.178E-03    0.385E-04
DAV:  22    -0.987393183290E+02   -0.66835E-05   -0.15395E-07    88   0.116E-03    0.174E-04
DAV:  23    -0.987393211246E+02   -0.27955E-05   -0.57931E-08    88   0.650E-04    0.132E-04
DAV:  24    -0.987393230551E+02   -0.19305E-05   -0.26640E-08    88   0.434E-04    0.543E-05
DAV:  25    -0.987393234576E+02   -0.40253E-06   -0.71612E-09    88   0.236E-04
   1 F= -.98739323E+02 E0= -.98739323E+02  d E =-.987393E+02
       N       E                     dE             d eps       ncg     rms          rms(c)
DAV:   1    -0.988785027440E+02   -0.13918E+00   -0.59996E+00    84   0.992E+00    0.113E+00
DAV:   2    -0.989035354597E+02   -0.25033E-01   -0.30450E-01   120   0.217E+00    0.544E-01
DAV:   3    -0.989001021482E+02    0.34333E-02   -0.10455E-02   120   0.403E-01    0.283E-01
DAV:   4    -0.988992778888E+02    0.82426E-03   -0.48557E-03   112   0.250E-01    0.606E-02
DAV:   5    -0.988991325332E+02    0.14536E-03   -0.54459E-04   112   0.976E-02    0.379E-02
DAV:   6    -0.988991641060E+02   -0.31573E-04   -0.12922E-04   120   0.410E-02    0.213E-02
DAV:   7    -0.988993285780E+02   -0.16447E-03   -0.44195E-05   102   0.318E-02    0.696E-03
DAV:   8    -0.988994260540E+02   -0.97476E-04   -0.31260E-05   112   0.229E-02    0.862E-03
DAV:   9    -0.988995038589E+02   -0.77805E-04   -0.59521E-06   112   0.918E-03    0.682E-03
DAV:  10    -0.988996622801E+02   -0.15842E-03   -0.11769E-05   112   0.825E-03    0.327E-03
DAV:  11    -0.988996974918E+02   -0.35212E-04   -0.13551E-06    88   0.385E-03    0.213E-03
DAV:  12    -0.988997710372E+02   -0.73545E-04   -0.51877E-06   104   0.573E-03    0.160E-03
DAV:  13    -0.988997742338E+02   -0.31966E-05   -0.26955E-07    96   0.226E-03    0.680E-04
DAV:  14    -0.988997940621E+02   -0.19828E-04   -0.39616E-07    80   0.231E-03    0.866E-04
DAV:  15    -0.988998025966E+02   -0.85345E-05   -0.26390E-07    88   0.133E-03    0.354E-04
DAV:  16    -0.988998081429E+02   -0.55462E-05   -0.86309E-08    88   0.902E-04    0.247E-04
DAV:  17    -0.988998101676E+02   -0.20247E-05   -0.32789E-08    88   0.542E-04    0.233E-04
DAV:  18    -0.988998114353E+02   -0.12677E-05   -0.17163E-08    88   0.352E-04    0.511E-05
DAV:  19    -0.988998119223E+02   -0.48701E-06   -0.54662E-09    88   0.205E-04
   2 F= -.98899812E+02 E0= -.98899812E+02  d E =-.160488E+00
       N       E                     dE             d eps       ncg     rms          rms(c)
DAV:   1    -0.989019231669E+02   -0.21117E-02   -0.65785E-02    84   0.104E+00    0.110E-01
DAV:   2    -0.989021780752E+02   -0.25491E-03   -0.32776E-03   118   0.226E-01    0.590E-02
DAV:   3    -0.989021324227E+02    0.45652E-04   -0.12450E-04   120   0.439E-02    0.290E-02
DAV:   4    -0.989021191655E+02    0.13257E-04   -0.51912E-05   112   0.259E-02    0.740E-03
DAV:   5    -0.989021172995E+02    0.18660E-05   -0.51846E-06   112   0.964E-03    0.392E-03
DAV:   6    -0.989021202136E+02   -0.29141E-05   -0.15549E-06    88   0.472E-03    0.194E-03
DAV:   7    -0.989021276171E+02   -0.74035E-05   -0.83596E-07    78   0.391E-03    0.728E-04
DAV:   8    -0.989021313415E+02   -0.37243E-05   -0.51146E-07    88   0.253E-03    0.973E-04
DAV:   9    -0.989021344842E+02   -0.31427E-05   -0.15458E-07    88   0.132E-03    0.428E-04
DAV:  10    -0.989021397411E+02   -0.52569E-05   -0.46578E-07    88   0.149E-03    0.382E-04
DAV:  11    -0.989021409380E+02   -0.11969E-05   -0.58035E-08    88   0.650E-04    0.174E-04
DAV:  12    -0.989021421957E+02   -0.12578E-05   -0.56731E-08    88   0.584E-04    0.580E-05
DAV:  13    -0.989021429153E+02   -0.71957E-06   -0.29745E-08    88   0.403E-04
   3 F= -.98902143E+02 E0= -.98902143E+02  d E =-.162819E+00
       N       E                     dE             d eps       ncg     rms          rms(c)
DAV:   1    -0.989372303170E+02   -0.35088E-01   -0.82434E-01    84   0.406E+00    0.320E-01
DAV:   2    -0.989389704020E+02   -0.17401E-02   -0.28913E-02   112   0.585E-01    0.146E-01
DAV:   3    -0.989385656159E+02    0.40479E-03   -0.13949E-03   120   0.134E-01    0.755E-02
DAV:   4    -0.989384717859E+02    0.93830E-04   -0.41691E-04   112   0.668E-02    0.241E-02
DAV:   5    -0.989384739974E+02   -0.22116E-05   -0.22168E-05   120   0.224E-02    0.131E-02
DAV:   6    -0.989384927805E+02   -0.18783E-04   -0.13098E-05   112   0.170E-02    0.366E-03
DAV:   7    -0.989385137327E+02   -0.20952E-04   -0.68223E-06   112   0.961E-03    0.279E-03
DAV:   8    -0.989385257474E+02   -0.12015E-04   -0.54749E-07    88   0.284E-03    0.176E-03
DAV:   9    -0.989385430787E+02   -0.17331E-04   -0.91133E-07    88   0.266E-03    0.630E-04
DAV:  10    -0.989385599459E+02   -0.16867E-04   -0.12717E-06    96   0.296E-03    0.626E-04
DAV:  11    -0.989385690879E+02   -0.91420E-05   -0.51445E-07    88   0.194E-03    0.210E-04
DAV:  12    -0.989385717630E+02   -0.26751E-05   -0.10831E-07    88   0.929E-04    0.216E-04
DAV:  13    -0.989385752249E+02   -0.34619E-05   -0.13340E-07    88   0.990E-04    0.175E-04
DAV:  14    -0.989385758530E+02   -0.62806E-06   -0.29491E-08    88   0.436E-04
   4 F= -.98938576E+02 E0= -.98938576E+02  d E =-.364329E-01
       N       E                     dE             d eps       ncg     rms          rms(c)
DAV:   1    -0.989455740644E+02   -0.69988E-02   -0.42219E-01    84   0.291E+00    0.229E-01
DAV:   2    -0.989464861501E+02   -0.91209E-03   -0.14976E-02   112   0.421E-01    0.104E-01
DAV:   3    -0.989462771732E+02    0.20898E-03   -0.71092E-04   128   0.960E-02    0.541E-02
DAV:   4    -0.989462244272E+02    0.52746E-04   -0.21333E-04   112   0.477E-02    0.172E-02
DAV:   5    -0.989462240811E+02    0.34604E-06   -0.11771E-05   120   0.162E-02    0.946E-03
DAV:   6    -0.989462333837E+02   -0.93026E-05   -0.65655E-06   104   0.121E-02    0.267E-03
DAV:   7    -0.989462447625E+02   -0.11379E-04   -0.35153E-06   112   0.684E-03    0.202E-03
DAV:   8    -0.989462515143E+02   -0.67517E-05   -0.26826E-07    88   0.199E-03    0.127E-03
DAV:   9    -0.989462621127E+02   -0.10598E-04   -0.49141E-07    88   0.193E-03    0.443E-04
DAV:  10    -0.989462723804E+02   -0.10268E-04   -0.64042E-07    88   0.212E-03    0.454E-04
DAV:  11    -0.989462786595E+02   -0.62791E-05   -0.38600E-07    88   0.153E-03    0.161E-04
DAV:  12    -0.989462804361E+02   -0.17766E-05   -0.51022E-08    88   0.738E-04    0.122E-04
DAV:  13    -0.989462822657E+02   -0.18296E-05   -0.65346E-08    88   0.658E-04    0.759E-05
DAV:  14    -0.989462825804E+02   -0.31464E-06   -0.11288E-08    88   0.280E-04
   5 F= -.98946283E+02 E0= -.98946283E+02  d E =-.441397E-01
       N       E                     dE             d eps       ncg     rms          rms(c)
DAV:   1    -0.989640662391E+02   -0.17784E-01   -0.69328E-01    84   0.362E+00    0.262E-01
DAV:   2    -0.989664256009E+02   -0.23594E-02   -0.33214E-02   112   0.654E-01    0.148E-01
DAV:   3    -0.989661258332E+02    0.29977E-03   -0.11785E-03   120   0.131E-01    0.779E-02
DAV:   4    -0.989660771347E+02    0.48699E-04   -0.36481E-04   112   0.678E-02    0.214E-02
DAV:   5    -0.989660701152E+02    0.70195E-05   -0.26938E-05   112   0.219E-02    0.975E-03
DAV:   6    -0.989660777779E+02   -0.76626E-05   -0.90648E-06   112   0.107E-02    0.450E-03
DAV:   7    -0.989661005688E+02   -0.22791E-04   -0.30392E-06   102   0.555E-03    0.197E-03
DAV:   8    -0.989661129122E+02   -0.12343E-04   -0.26893E-07    88   0.173E-03    0.127E-03
DAV:   9    -0.989661434040E+02   -0.30492E-04   -0.25390E-06   104   0.352E-03    0.106E-03
DAV:  10    -0.989661514647E+02   -0.80608E-05   -0.28106E-07    88   0.157E-03    0.458E-04
DAV:  11    -0.989661613025E+02   -0.98377E-05   -0.39670E-07    88   0.149E-03    0.502E-04
DAV:  12    -0.989661654249E+02   -0.41225E-05   -0.13872E-07    88   0.981E-04    0.172E-04
DAV:  13    -0.989661678005E+02   -0.23756E-05   -0.36599E-08    88   0.493E-04    0.828E-05
DAV:  14    -0.989661698866E+02   -0.20861E-05   -0.61904E-08    88   0.495E-04    0.769E-05
DAV:  15    -0.989661705638E+02   -0.67713E-06   -0.59674E-09    88   0.211E-04
   6 F= -.98966171E+02 E0= -.98966171E+02  d E =-.198880E-01
       N       E                     dE             d eps       ncg     rms          rms(c)
DAV:   1    -0.989685001398E+02   -0.23303E-02   -0.22844E-01    84   0.208E+00    0.151E-01
DAV:   2    -0.989692758942E+02   -0.77575E-03   -0.10975E-02   104   0.376E-01    0.849E-02
DAV:   3    -0.989691765531E+02    0.99341E-04   -0.37988E-04   120   0.754E-02    0.449E-02
DAV:   4    -0.989691577423E+02    0.18811E-04   -0.12078E-04   112   0.391E-02    0.118E-02
DAV:   5    -0.989691546883E+02    0.30541E-05   -0.96446E-06   112   0.129E-02    0.563E-03
DAV:   6    -0.989691564991E+02   -0.18109E-05   -0.29729E-06   104   0.618E-03    0.257E-03
DAV:   7    -0.989691638152E+02   -0.73161E-05   -0.80784E-07    78   0.316E-03    0.866E-04
DAV:   8    -0.989691695219E+02   -0.57067E-05   -0.27769E-07    88   0.161E-03    0.746E-04
DAV:   9    -0.989691824089E+02   -0.12887E-04   -0.90120E-07    88   0.224E-03    0.624E-04
DAV:  10    -0.989691853870E+02   -0.29781E-05   -0.16189E-07    88   0.106E-03    0.306E-04
DAV:  11    -0.989691892199E+02   -0.38329E-05   -0.12947E-07    88   0.977E-04    0.319E-04
DAV:  12    -0.989691911855E+02   -0.19656E-05   -0.74683E-08    88   0.643E-04    0.134E-04
DAV:  13    -0.989691918686E+02   -0.68309E-06   -0.11594E-08    88   0.282E-04
   7 F= -.98969192E+02 E0= -.98969192E+02  d E =-.229093E-01
       N       E                     dE             d eps       ncg     rms          rms(c)
DAV:   1    -0.989845709223E+02   -0.15380E-01   -0.83450E-01    84   0.417E+00    0.257E-01
DAV:   2    -0.989852104255E+02   -0.63950E-03   -0.15744E-02   112   0.493E-01    0.140E-01
DAV:   3    -0.989848119509E+02    0.39847E-03   -0.10188E-03   128   0.129E-01    0.607E-02
DAV:   4    -0.989848045194E+02    0.74314E-05   -0.42316E-04   120   0.738E-02    0.196E-02
DAV:   5    -0.989848103533E+02   -0.58339E-05   -0.38339E-05   112   0.256E-02    0.911E-03
DAV:   6    -0.989848161347E+02   -0.57814E-05   -0.76099E-06   112   0.991E-03    0.389E-03
DAV:   7    -0.989848269212E+02   -0.10787E-04   -0.99285E-07    88   0.402E-03    0.127E-03
DAV:   8    -0.989848356862E+02   -0.87651E-05   -0.56323E-07    88   0.316E-03    0.931E-04
DAV:   9    -0.989848500418E+02   -0.14356E-04   -0.94149E-07    88   0.361E-03    0.729E-04
DAV:  10    -0.989848553444E+02   -0.53026E-05   -0.39895E-07    88   0.207E-03    0.376E-04
DAV:  11    -0.989848586052E+02   -0.32608E-05   -0.10529E-07    88   0.113E-03    0.210E-04
DAV:  12    -0.989848619106E+02   -0.33054E-05   -0.10717E-07    88   0.794E-04    0.115E-04
DAV:  13    -0.989848640880E+02   -0.21774E-05   -0.70185E-08    88   0.571E-04    0.805E-05
DAV:  14    -0.989848653772E+02   -0.12893E-05   -0.35428E-08    88   0.410E-04    0.416E-05
DAV:  15    -0.989848657716E+02   -0.39436E-06   -0.94628E-09    88   0.222E-04
   8 F= -.98984866E+02 E0= -.98984866E+02  d E =-.156739E-01
       N       E                     dE             d eps       ncg     rms          rms(c)
DAV:   1    -0.989882122346E+02   -0.33469E-02   -0.50138E-01    84   0.323E+00    0.199E-01
DAV:   2    -0.989885963092E+02   -0.38407E-03   -0.94699E-03   120   0.382E-01    0.108E-01
DAV:   3    -0.989883543307E+02    0.24198E-03   -0.61343E-04   128   0.997E-02    0.468E-02
DAV:   4    -0.989883485820E+02    0.57487E-05   -0.25245E-04   120   0.571E-02    0.152E-02
DAV:   5    -0.989883520391E+02   -0.34571E-05   -0.22555E-05   112   0.197E-02    0.703E-03
DAV:   6    -0.989883556361E+02   -0.35970E-05   -0.45466E-06   112   0.766E-03    0.301E-03
DAV:   7    -0.989883627549E+02   -0.71188E-05   -0.60850E-07    88   0.315E-03    0.983E-04
DAV:   8    -0.989883686084E+02   -0.58535E-05   -0.34303E-07    88   0.247E-03    0.726E-04
DAV:   9    -0.989883787432E+02   -0.10135E-04   -0.60376E-07    88   0.284E-03    0.566E-04
DAV:  10    -0.989883823918E+02   -0.36486E-05   -0.24617E-07    88   0.162E-03    0.300E-04
DAV:  11    -0.989883844924E+02   -0.21006E-05   -0.61527E-08    88   0.871E-04    0.163E-04
DAV:  12    -0.989883867182E+02   -0.22258E-05   -0.65327E-08    88   0.614E-04    0.901E-05
DAV:  13    -0.989883882352E+02   -0.15170E-05   -0.43577E-08    88   0.451E-04    0.631E-05
DAV:  14    -0.989883891800E+02   -0.94475E-06   -0.23811E-08    88   0.337E-04
   9 F= -.98988389E+02 E0= -.98988389E+02  d E =-.191973E-01
       N       E                     dE             d eps       ncg     rms          rms(c)
DAV:   1    -0.989951785105E+02   -0.67903E-02   -0.47013E-01    84   0.307E+00    0.195E-01
DAV:   2    -0.989960986964E+02   -0.92019E-03   -0.13982E-02   120   0.451E-01    0.109E-01
DAV:   3    -0.989959189065E+02    0.17979E-03   -0.55735E-04   120   0.934E-02    0.536E-02
DAV:   4    -0.989958763209E+02    0.42586E-04   -0.19197E-04   112   0.511E-02    0.136E-02
DAV:   5    -0.989958690096E+02    0.73113E-05   -0.22794E-05   112   0.214E-02    0.622E-03
DAV:   6    -0.989958747961E+02   -0.57865E-05   -0.77494E-06   120   0.106E-02    0.376E-03
DAV:   7    -0.989958893951E+02   -0.14599E-04   -0.90319E-07    80   0.448E-03    0.120E-03
DAV:   8    -0.989959013711E+02   -0.11976E-04   -0.77065E-07    88   0.351E-03    0.110E-03
DAV:   9    -0.989959231830E+02   -0.21812E-04   -0.17637E-06    96   0.400E-03    0.433E-04
DAV:  10    -0.989959304999E+02   -0.73169E-05   -0.50142E-07    88   0.230E-03    0.375E-04
DAV:  11    -0.989959338317E+02   -0.33318E-05   -0.10282E-07    88   0.103E-03    0.257E-04
DAV:  12    -0.989959399630E+02   -0.61313E-05   -0.28712E-07    88   0.126E-03    0.132E-04
DAV:  13    -0.989959417070E+02   -0.17440E-05   -0.75520E-08    88   0.604E-04    0.123E-04
DAV:  14    -0.989959428947E+02   -0.11877E-05   -0.33666E-08    88   0.410E-04    0.489E-05
DAV:  15    -0.989959433170E+02   -0.42235E-06   -0.84433E-09    88   0.234E-04
  10 F= -.98995943E+02 E0= -.98995943E+02  d E =-.755414E-02
       N       E                     dE             d eps       ncg     rms          rms(c)
DAV:   1    -0.989962852568E+02   -0.34236E-03   -0.42133E-02    84   0.919E-01    0.584E-02
DAV:   2    -0.989963643365E+02   -0.79080E-04   -0.12475E-03   120   0.135E-01    0.326E-02
DAV:   3    -0.989963464775E+02    0.17859E-04   -0.49935E-05   120   0.279E-02    0.160E-02
DAV:   4    -0.989963414261E+02    0.50514E-05   -0.16853E-05   112   0.151E-02    0.404E-03
DAV:   5    -0.989963402933E+02    0.11328E-05   -0.18672E-06    96   0.633E-03    0.179E-03
DAV:   6    -0.989963406441E+02   -0.35078E-06   -0.76693E-07    88   0.354E-03
  11 F= -.98996341E+02 E0= -.98996341E+02  d E =-.795146E-02
       N       E                     dE             d eps       ncg     rms          rms(c)
DAV:   1    -0.989979618556E+02   -0.16216E-02   -0.63106E-02    84   0.111E+00    0.658E-02
DAV:   2    -0.989980539419E+02   -0.92086E-04   -0.15051E-03   120   0.157E-01    0.414E-02
DAV:   3    -0.989980406586E+02    0.13283E-04   -0.63103E-05   120   0.314E-02    0.196E-02
DAV:   4    -0.989980395932E+02    0.10654E-05   -0.18688E-05   112   0.151E-02    0.386E-03
DAV:   5    -0.989980391043E+02    0.48896E-06   -0.12028E-06    88   0.483E-03
  12 F= -.98998039E+02 E0= -.98998039E+02  d E =-.169846E-02
       N       E                     dE             d eps       ncg     rms          rms(c)
DAV:   1    -0.989982547626E+02   -0.21517E-03   -0.18194E-02    84   0.596E-01    0.354E-02
DAV:   2    -0.989982789904E+02   -0.24228E-04   -0.44369E-04   120   0.855E-02    0.223E-02
DAV:   3    -0.989982729527E+02    0.60377E-05   -0.18539E-05   120   0.170E-02    0.107E-02
DAV:   4    -0.989982721872E+02    0.76552E-06   -0.54629E-06   112   0.815E-03
  13 F= -.98998272E+02 E0= -.98998272E+02  d E =-.193154E-02
       N       E                     dE             d eps       ncg     rms          rms(c)
DAV:   1    -0.989994048455E+02   -0.11319E-02   -0.27452E-02    84   0.741E-01    0.468E-02
DAV:   2    -0.989994271789E+02   -0.22333E-04   -0.62242E-04   120   0.942E-02    0.264E-02
DAV:   3    -0.989994189470E+02    0.82319E-05   -0.33220E-05   120   0.222E-02    0.131E-02
DAV:   4    -0.989994188544E+02    0.92620E-07   -0.71821E-06   112   0.115E-02
  14 F= -.98999419E+02 E0= -.98999419E+02  d E =-.114667E-02
       N       E                     dE             d eps       ncg     rms          rms(c)
DAV:   1    -0.990003858305E+02   -0.96688E-03   -0.13782E-01    84   0.166E+00    0.105E-01
DAV:   2    -0.990005041525E+02   -0.11832E-03   -0.31449E-03   120   0.211E-01    0.592E-02
DAV:   3    -0.990004611069E+02    0.43046E-04   -0.16254E-04   128   0.488E-02    0.294E-02
DAV:   4    -0.990004553757E+02    0.57312E-05   -0.35571E-05   112   0.252E-02    0.674E-03
DAV:   5    -0.990004574623E+02   -0.20865E-05   -0.62921E-06   112   0.106E-02    0.423E-03
DAV:   6    -0.990004605285E+02   -0.30663E-05   -0.61443E-07    88   0.296E-03    0.190E-03
DAV:   7    -0.990004655583E+02   -0.50298E-05   -0.31479E-07    88   0.199E-03    0.647E-04
DAV:   8    -0.990004723281E+02   -0.67698E-05   -0.36834E-07    88   0.194E-03    0.592E-04
DAV:   9    -0.990004784496E+02   -0.61215E-05   -0.39940E-07    88   0.176E-03    0.230E-04
DAV:  10    -0.990004813257E+02   -0.28760E-05   -0.14480E-07    88   0.107E-03    0.147E-04
DAV:  11    -0.990004829068E+02   -0.15811E-05   -0.45037E-08    88   0.585E-04    0.921E-05
DAV:  12    -0.990004838102E+02   -0.90339E-06   -0.28050E-08    88   0.399E-04
  15 F= -.99000484E+02 E0= -.99000484E+02  d E =-.221162E-02
