       N       E                     dE             d eps       ncg     rms          rms(c)
DAV:   1     0.250422006290E+03    0.25042E+03   -0.10116E+04   120   0.484E+02
DAV:   2    -0.185255346213E+02   -0.26895E+03   -0.25474E+03   156   0.915E+01
DAV:   3    -0.986685830163E+02   -0.80143E+02   -0.79916E+02   120   0.556E+01
DAV:   4    -0.102591258576E+03   -0.39227E+01   -0.39095E+01   120   0.175E+01
DAV:   5    -0.102651891376E+03   -0.60633E-01   -0.60497E-01   144   0.241E+00    0.142E+01
DAV:   6    -0.994433238259E+02    0.32086E+01   -0.14857E+00   108   0.421E+00    0.812E+00
DAV:   7    -0.978439341918E+02    0.15994E+01   -0.40080E+00   120   0.615E+00    0.127E+00
DAV:   8    -0.977849344648E+02    0.59000E-01   -0.35173E-01   132   0.224E+00    0.680E-01
DAV:   9    -0.977496063305E+02    0.35328E-01   -0.56864E-02   144   0.665E-01    0.359E-01
DAV:  10    -0.977476799692E+02    0.19264E-02   -0.46155E-03   132   0.218E-01    0.139E-01
DAV:  11    -0.977468603284E+02    0.81964E-03   -0.65856E-03   120   0.223E-01    0.115E-01
DAV:  12    -0.977539479039E+02   -0.70876E-02   -0.21641E-03   132   0.124E-01    0.504E-02
DAV:  13    -0.977564239908E+02   -0.24761E-02   -0.14530E-03   120   0.113E-01    0.497E-02
DAV:  14    -0.977596509292E+02   -0.32269E-02   -0.28345E-04   132   0.607E-02    0.186E-02
DAV:  15    -0.977635878209E+02   -0.39369E-02   -0.43900E-04   108   0.517E-02    0.136E-02
DAV:  16    -0.977658092787E+02   -0.22215E-02   -0.22930E-04   132   0.376E-02    0.722E-03
DAV:  17    -0.977664692171E+02   -0.65994E-03   -0.40365E-05   132   0.148E-02    0.547E-03
DAV:  18    -0.977668432362E+02   -0.37402E-03   -0.13555E-05   132   0.878E-03    0.197E-03
DAV:  19    -0.977669657112E+02   -0.12247E-03   -0.36858E-06   132   0.459E-03    0.177E-03
DAV:  20    -0.977670273705E+02   -0.61659E-04   -0.13937E-06   120   0.336E-03    0.689E-04
DAV:  21    -0.977670471067E+02   -0.19736E-04   -0.39048E-07   108   0.181E-03    0.516E-04
DAV:  22    -0.977670591143E+02   -0.12008E-04   -0.25472E-07   108   0.116E-03    0.300E-04
DAV:  23    -0.977670629499E+02   -0.38356E-05   -0.77734E-08   108   0.643E-04    0.151E-04
DAV:  24    -0.977670667323E+02   -0.37823E-05   -0.61335E-08    84   0.575E-04    0.139E-04
DAV:  25    -0.977670671393E+02   -0.40699E-06   -0.25248E-09   108   0.241E-04
   1 F= -.97767067E+02 E0= -.97767067E+02  d E =-.144040E-10
       N       E                     dE             d eps       ncg     rms          rms(c)
DAV:   1    -0.977628066911E+02    0.42600E-02   -0.83785E-02   120   0.889E-01    0.105E-01
DAV:   2    -0.977633434065E+02   -0.53672E-03   -0.54807E-03   144   0.252E-01    0.762E-02
DAV:   3    -0.977633273150E+02    0.16092E-04   -0.12064E-04   132   0.423E-02    0.451E-02
DAV:   4    -0.977633121106E+02    0.15204E-04   -0.51453E-05   132   0.285E-02    0.655E-03
DAV:   5    -0.977633104833E+02    0.16273E-05   -0.11493E-05   132   0.127E-02    0.467E-03
DAV:   6    -0.977633123365E+02   -0.18532E-05   -0.18936E-06   120   0.515E-03    0.286E-03
DAV:   7    -0.977633210244E+02   -0.86880E-05   -0.12446E-06   120   0.456E-03    0.115E-03
DAV:   8    -0.977633325259E+02   -0.11501E-04   -0.13786E-06   120   0.373E-03    0.984E-04
DAV:   9    -0.977633399773E+02   -0.74514E-05   -0.38476E-07   108   0.195E-03    0.800E-04
DAV:  10    -0.977633464090E+02   -0.64316E-05   -0.35559E-07   108   0.126E-03    0.277E-04
DAV:  11    -0.977633503746E+02   -0.39656E-05   -0.23121E-07   108   0.972E-04    0.207E-04
DAV:  12    -0.977633520151E+02   -0.16405E-05   -0.42428E-08   108   0.510E-04    0.111E-04
DAV:  13    -0.977633542365E+02   -0.22214E-05   -0.99129E-08   108   0.619E-04    0.759E-05
DAV:  14    -0.977633547131E+02   -0.47668E-06   -0.76354E-09   108   0.242E-04
   2 F= -.97763355E+02 E0= -.97763355E+02  d E =-.182771E-10
       N       E                     dE             d eps       ncg     rms          rms(c)
DAV:   1    -0.977608733560E+02    0.24809E-02   -0.33516E-01    96   0.177E+00    0.213E-01
DAV:   2    -0.977630074356E+02   -0.21341E-02   -0.21843E-02   144   0.491E-01    0.151E-01
DAV:   3    -0.977629553009E+02    0.52135E-04   -0.48755E-04   132   0.836E-02    0.868E-02
DAV:   4    -0.977629335928E+02    0.21708E-04   -0.19907E-04   132   0.556E-02    0.131E-02
DAV:   5    -0.977629254135E+02    0.81793E-05   -0.43062E-05   132   0.247E-02    0.897E-03
DAV:   6    -0.977629252826E+02    0.13090E-06   -0.75013E-06   132   0.988E-03
   3 F= -.97762925E+02 E0= -.97762925E+02  d E =-.126086E-10
       N       E                     dE             d eps       ncg     rms          rms(c)
DAV:   1    -0.977606896694E+02    0.22357E-02   -0.17116E-01    96   0.125E+00    0.159E-01
DAV:   2    -0.977618862426E+02   -0.11966E-02   -0.11807E-02   144   0.369E-01    0.114E-01
DAV:   3    -0.977618755110E+02    0.10732E-04   -0.25974E-04   120   0.653E-02    0.635E-02
DAV:   4    -0.977619023457E+02   -0.26835E-04   -0.16523E-04   120   0.492E-02    0.113E-02
DAV:   5    -0.977619007411E+02    0.16046E-05   -0.39654E-05   132   0.226E-02    0.811E-03
DAV:   6    -0.977619017022E+02   -0.96110E-06   -0.76397E-06   108   0.844E-03
   4 F= -.97761902E+02 E0= -.97761902E+02  d E =-.174470E-10
       N       E                     dE             d eps       ncg     rms          rms(c)
DAV:   1    -0.977598157481E+02    0.20850E-02   -0.34984E-01    96   0.176E+00    0.258E-01
DAV:   2    -0.977624772542E+02   -0.26615E-02   -0.26718E-02   132   0.554E-01    0.182E-01
DAV:   3    -0.977623458541E+02    0.13140E-03   -0.61027E-04   144   0.105E-01    0.920E-02
DAV:   4    -0.977623720516E+02   -0.26197E-04   -0.48418E-04   120   0.789E-02    0.184E-02
DAV:   5    -0.977623556259E+02    0.16426E-04   -0.90933E-05   132   0.345E-02    0.117E-02
DAV:   6    -0.977623552413E+02    0.38452E-06   -0.17026E-05   108   0.107E-02    0.608E-03
DAV:   7    -0.977623687468E+02   -0.13506E-04   -0.91287E-07   120   0.309E-03    0.309E-03
DAV:   8    -0.977623907487E+02   -0.22002E-04   -0.38385E-06   108   0.514E-03    0.151E-03
DAV:   9    -0.977624025455E+02   -0.11797E-04   -0.12563E-06   120   0.280E-03    0.158E-03
DAV:  10    -0.977624178935E+02   -0.15348E-04   -0.96138E-07    96   0.234E-03    0.490E-04
DAV:  11    -0.977624235556E+02   -0.56621E-05   -0.35908E-07   108   0.125E-03    0.298E-04
DAV:  12    -0.977624299246E+02   -0.63690E-05   -0.24143E-07    84   0.101E-03    0.141E-04
DAV:  13    -0.977624322070E+02   -0.22825E-05   -0.72875E-08   108   0.532E-04    0.155E-04
DAV:  14    -0.977624341990E+02   -0.19920E-05   -0.38819E-08    84   0.451E-04    0.118E-04
DAV:  15    -0.977624348203E+02   -0.62130E-06   -0.49183E-09   108   0.257E-04
   5 F= -.97762435E+02 E0= -.97762435E+02  d E =-.132465E-10
       N       E                     dE             d eps       ncg     rms          rms(c)
DAV:   1    -0.977623815015E+02    0.52698E-04   -0.17186E-01    96   0.125E+00    0.168E-01
DAV:   2    -0.977637421336E+02   -0.13606E-02   -0.13796E-02   132   0.395E-01    0.122E-01
DAV:   3    -0.977636757158E+02    0.66418E-04   -0.29093E-04   156   0.702E-02    0.693E-02
DAV:   4    -0.977636731531E+02    0.25627E-05   -0.21444E-04   132   0.569E-02    0.120E-02
DAV:   5    -0.977636691456E+02    0.40075E-05   -0.59946E-05   132   0.277E-02    0.873E-03
DAV:   6    -0.977636691428E+02    0.28263E-08   -0.81880E-06   132   0.831E-03
   6 F= -.97763669E+02 E0= -.97763669E+02  d E =-.132555E-10
       N       E                     dE             d eps       ncg     rms          rms(c)
DAV:   1    -0.977619099206E+02    0.17592E-02   -0.33121E-01    96   0.171E+00    0.201E-01
DAV:   2    -0.977637597080E+02   -0.18498E-02   -0.18620E-02   132   0.448E-01    0.125E-01
DAV:   3    -0.977637723008E+02   -0.12593E-04   -0.48535E-04   120   0.848E-02    0.664E-02
DAV:   4    -0.977638032921E+02   -0.30991E-04   -0.16313E-04   120   0.535E-02    0.128E-02
DAV:   5    -0.977638006480E+02    0.26441E-05   -0.43049E-05   132   0.249E-02    0.939E-03
DAV:   6    -0.977638006975E+02   -0.49502E-07   -0.64580E-06   120   0.840E-03
   7 F= -.97763801E+02 E0= -.97763801E+02  d E =-.176206E-10
       N       E                     dE             d eps       ncg     rms          rms(c)
DAV:   1    -0.977609303317E+02    0.28703E-02   -0.16556E-01    96   0.125E+00    0.154E-01
DAV:   2    -0.977622556115E+02   -0.13253E-02   -0.13551E-02   132   0.385E-01    0.112E-01
DAV:   3    -0.977622157340E+02    0.39877E-04   -0.31359E-04   144   0.710E-02    0.669E-02
DAV:   4    -0.977622254738E+02   -0.97398E-05   -0.18011E-04   108   0.569E-02    0.116E-02
DAV:   5    -0.977622239963E+02    0.14775E-05   -0.64755E-05   132   0.292E-02    0.957E-03
DAV:   6    -0.977622214080E+02    0.25884E-05   -0.58664E-06   132   0.812E-03    0.658E-03
DAV:   7    -0.977622238065E+02   -0.23986E-05   -0.24141E-06   144   0.584E-03    0.262E-03
DAV:   8    -0.977622306552E+02   -0.68487E-05   -0.73955E-07   108   0.393E-03    0.818E-04
DAV:   9    -0.977622393732E+02   -0.87180E-05   -0.84638E-07    96   0.281E-03    0.135E-03
DAV:  10    -0.977622489785E+02   -0.96053E-05   -0.41101E-07   108   0.175E-03    0.355E-04
DAV:  11    -0.977622524844E+02   -0.35059E-05   -0.16200E-07   108   0.972E-04    0.259E-04
DAV:  12    -0.977622564774E+02   -0.39930E-05   -0.97931E-08    84   0.690E-04    0.118E-04
DAV:  13    -0.977622593455E+02   -0.28681E-05   -0.94350E-08   108   0.587E-04    0.132E-04
DAV:  14    -0.977622607039E+02   -0.13584E-05   -0.20198E-08   108   0.324E-04    0.903E-05
DAV:  15    -0.977622615185E+02   -0.81456E-06   -0.83145E-09    84   0.245E-04
   8 F= -.97762262E+02 E0= -.97762262E+02  d E =-.157815E-10
       N       E                     dE             d eps       ncg     rms          rms(c)
DAV:   1    -0.977604543803E+02    0.18063E-02   -0.34246E-01    96   0.176E+00    0.240E-01
DAV:   2    -0.977629101048E+02   -0.24557E-02   -0.24964E-02   132   0.540E-01    0.170E-01
DAV:   3    -0.977628026613E+02    0.10744E-03   -0.59612E-04   156   0.102E-01    0.885E-02
DAV:   4    -0.977628065210E+02   -0.38598E-05   -0.36805E-04   132   0.720E-02    0.163E-02
DAV:   5    -0.977627987579E+02    0.77631E-05   -0.76732E-05   132   0.320E-02    0.112E-02
DAV:   6    -0.977628041048E+02   -0.53469E-05   -0.15257E-05   132   0.108E-02    0.658E-03
DAV:   7    -0.977628251165E+02   -0.21012E-04   -0.21220E-06   132   0.492E-03    0.286E-03
DAV:   8    -0.977628564340E+02   -0.31317E-04   -0.38737E-06   132   0.547E-03    0.139E-03
DAV:   9    -0.977628764784E+02   -0.20044E-04   -0.20314E-06   132   0.347E-03    0.177E-03
DAV:  10    -0.977628959193E+02   -0.19441E-04   -0.15017E-06   132   0.285E-03    0.448E-04
DAV:  11    -0.977629020138E+02   -0.60946E-05   -0.25893E-07   108   0.131E-03    0.325E-04
DAV:  12    -0.977629093501E+02   -0.73363E-05   -0.37898E-07   108   0.121E-03    0.231E-04
DAV:  13    -0.977629110176E+02   -0.16674E-05   -0.55754E-08   108   0.476E-04    0.212E-04
DAV:  14    -0.977629128998E+02   -0.18822E-05   -0.36276E-08   108   0.446E-04    0.659E-05
DAV:  15    -0.977629134803E+02   -0.58047E-06   -0.81307E-09   108   0.261E-04
   9 F= -.97762913E+02 E0= -.97762913E+02  d E =-.156420E-10
       N       E                     dE             d eps       ncg     rms          rms(c)
DAV:   1    -0.977618440519E+02    0.10688E-02   -0.17449E-01    96   0.124E+00    0.177E-01
DAV:   2    -0.977631961329E+02   -0.13521E-02   -0.13708E-02   132   0.394E-01    0.129E-01
DAV:   3    -0.977631184121E+02    0.77721E-04   -0.30039E-04   144   0.728E-02    0.679E-02
DAV:   4    -0.977631191546E+02   -0.74244E-06   -0.24050E-04   120   0.568E-02    0.126E-02
DAV:   5    -0.977631113894E+02    0.77652E-05   -0.52045E-05   120   0.258E-02    0.854E-03
DAV:   6    -0.977631127145E+02   -0.13251E-05   -0.87036E-06   132   0.764E-03    0.489E-03
DAV:   7    -0.977631241373E+02   -0.11423E-04   -0.58222E-07    96   0.248E-03    0.240E-03
DAV:   8    -0.977631437476E+02   -0.19610E-04   -0.28481E-06   108   0.435E-03    0.137E-03
DAV:   9    -0.977631545838E+02   -0.10836E-04   -0.87427E-07   120   0.239E-03    0.132E-03
DAV:  10    -0.977631665959E+02   -0.12012E-04   -0.71031E-07    84   0.191E-03    0.465E-04
DAV:  11    -0.977631702308E+02   -0.36349E-05   -0.20299E-07   108   0.102E-03    0.248E-04
DAV:  12    -0.977631740238E+02   -0.37930E-05   -0.94292E-08    84   0.704E-04    0.122E-04
DAV:  13    -0.977631762951E+02   -0.22712E-05   -0.82018E-08    96   0.543E-04    0.148E-04
DAV:  14    -0.977631774299E+02   -0.11349E-05   -0.14324E-08   108   0.294E-04    0.869E-05
DAV:  15    -0.977631779726E+02   -0.54262E-06   -0.10973E-09    84   0.195E-04
  10 F= -.97763178E+02 E0= -.97763178E+02  d E =-.190334E-10
       N       E                     dE             d eps       ncg     rms          rms(c)
DAV:   1    -0.977609136565E+02    0.22638E-02   -0.33920E-01    96   0.176E+00    0.222E-01
DAV:   2    -0.977631411301E+02   -0.22275E-02   -0.22685E-02   144   0.508E-01    0.152E-01
DAV:   3    -0.977630734019E+02    0.67728E-04   -0.51029E-04   132   0.904E-02    0.836E-02
DAV:   4    -0.977630757407E+02   -0.23388E-05   -0.28779E-04   132   0.658E-02    0.160E-02
DAV:   5    -0.977630685459E+02    0.71949E-05   -0.70759E-05   132   0.309E-02    0.108E-02
DAV:   6    -0.977630658700E+02    0.26758E-05   -0.12508E-05   132   0.114E-02    0.642E-03
DAV:   7    -0.977630745451E+02   -0.86751E-05   -0.30870E-06   132   0.630E-03    0.273E-03
DAV:   8    -0.977630905382E+02   -0.15993E-04   -0.15857E-06   132   0.447E-03    0.118E-03
DAV:   9    -0.977631071023E+02   -0.16564E-04   -0.11728E-06   120   0.307E-03    0.125E-03
DAV:  10    -0.977631245895E+02   -0.17487E-04   -0.10622E-06   120   0.240E-03    0.466E-04
DAV:  11    -0.977631319544E+02   -0.73649E-05   -0.22788E-07   108   0.118E-03    0.305E-04
DAV:  12    -0.977631385618E+02   -0.66074E-05   -0.18007E-07   108   0.888E-04    0.193E-04
DAV:  13    -0.977631416709E+02   -0.31091E-05   -0.56596E-08   108   0.502E-04    0.121E-04
DAV:  14    -0.977631440381E+02   -0.23672E-05   -0.30508E-08   108   0.385E-04    0.484E-05
DAV:  15    -0.977631446693E+02   -0.63114E-06   -0.20462E-09   108   0.187E-04
  11 F= -.97763145E+02 E0= -.97763145E+02  d E =-.123323E-10
       N       E                     dE             d eps       ncg     rms          rms(c)
DAV:   1    -0.977623171217E+02    0.82692E-03   -0.17136E-01    96   0.128E+00    0.158E-01
DAV:   2    -0.977634509477E+02   -0.11338E-02   -0.11633E-02   144   0.369E-01    0.115E-01
DAV:   3    -0.977634083990E+02    0.42549E-04   -0.24743E-04   132   0.625E-02    0.644E-02
DAV:   4    -0.977633877459E+02    0.20653E-04   -0.13653E-04   132   0.431E-02    0.105E-02
DAV:   5    -0.977633864788E+02    0.12671E-05   -0.23374E-05   132   0.178E-02    0.737E-03
DAV:   6    -0.977633918483E+02   -0.53695E-05   -0.70592E-06   132   0.894E-03    0.425E-03
DAV:   7    -0.977634086899E+02   -0.16842E-04   -0.28679E-06   132   0.574E-03    0.165E-03
DAV:   8    -0.977634297360E+02   -0.21046E-04   -0.16876E-06   120   0.401E-03    0.983E-04
DAV:   9    -0.977634474824E+02   -0.17746E-04   -0.17563E-06   120   0.311E-03    0.102E-03
DAV:  10    -0.977634606619E+02   -0.13179E-04   -0.10134E-06   108   0.212E-03    0.374E-04
DAV:  11    -0.977634640772E+02   -0.34153E-05   -0.13417E-07   108   0.861E-04    0.280E-04
DAV:  12    -0.977634680420E+02   -0.39648E-05   -0.17825E-07    84   0.861E-04    0.120E-04
DAV:  13    -0.977634697339E+02   -0.16919E-05   -0.67299E-08   108   0.526E-04    0.954E-05
DAV:  14    -0.977634707020E+02   -0.96812E-06   -0.11942E-08    96   0.304E-04
  12 F= -.97763471E+02 E0= -.97763471E+02  d E =-.138044E-10
       N       E                     dE             d eps       ncg     rms          rms(c)
DAV:   1    -0.977613206591E+02    0.21491E-02   -0.33303E-01    96   0.176E+00    0.207E-01
DAV:   2    -0.977633341165E+02   -0.20135E-02   -0.20559E-02   144   0.478E-01    0.141E-01
DAV:   3    -0.977632965811E+02    0.37535E-04   -0.48417E-04   132   0.836E-02    0.771E-02
DAV:   4    -0.977632889944E+02    0.75866E-05   -0.18119E-04   132   0.546E-02    0.130E-02
DAV:   5    -0.977632812747E+02    0.77198E-05   -0.43889E-05   132   0.253E-02    0.931E-03
DAV:   6    -0.977632821929E+02   -0.91824E-06   -0.67832E-06   132   0.865E-03
  13 F= -.97763282E+02 E0= -.97763282E+02  d E =-.163160E-10
       N       E                     dE             d eps       ncg     rms          rms(c)
DAV:   1    -0.977631309311E+02    0.15034E-03   -0.18123E-01    96   0.127E+00    0.154E-01
DAV:   2    -0.977641601630E+02   -0.10292E-02   -0.11033E-02   144   0.326E-01    0.836E-02
DAV:   3    -0.977641633740E+02   -0.32110E-05   -0.24626E-04   144   0.577E-02    0.475E-02
DAV:   4    -0.977641896057E+02   -0.26232E-04   -0.69348E-05   132   0.354E-02    0.888E-03
DAV:   5    -0.977641950146E+02   -0.54089E-05   -0.22911E-05   132   0.174E-02    0.623E-03
DAV:   6    -0.977641972739E+02   -0.22593E-05   -0.18542E-06   120   0.496E-03    0.418E-03
DAV:   7    -0.977642011811E+02   -0.39073E-05   -0.75317E-07   108   0.384E-03    0.156E-03
DAV:   8    -0.977642039918E+02   -0.28107E-05   -0.54029E-07   108   0.279E-03    0.577E-04
DAV:   9    -0.977642066010E+02   -0.26092E-05   -0.15941E-07   108   0.150E-03    0.388E-04
DAV:  10    -0.977642091041E+02   -0.25031E-05   -0.13381E-07   108   0.110E-03    0.239E-04
DAV:  11    -0.977642104326E+02   -0.13285E-05   -0.51639E-08   108   0.674E-04    0.166E-04
DAV:  12    -0.977642115768E+02   -0.11442E-05   -0.27766E-08   108   0.438E-04    0.926E-05
DAV:  13    -0.977642122435E+02   -0.66679E-06   -0.13129E-08   108   0.297E-04
  14 F= -.97764212E+02 E0= -.97764212E+02  d E =-.133877E-10
       N       E                     dE             d eps       ncg     rms          rms(c)
DAV:   1    -0.977632012652E+02    0.10103E-02   -0.40329E-01    96   0.176E+00    0.217E-01
DAV:   2    -0.977643664541E+02   -0.11652E-02   -0.14253E-02   132   0.357E-01    0.861E-02
DAV:   3    -0.977643032905E+02    0.63164E-04   -0.32972E-04   132   0.637E-02    0.445E-02
DAV:   4    -0.977642862796E+02    0.17011E-04   -0.78915E-05   132   0.365E-02    0.126E-02
DAV:   5    -0.977642839075E+02    0.23721E-05   -0.20773E-05   132   0.178E-02    0.752E-03
DAV:   6    -0.977642848612E+02   -0.95376E-06   -0.37570E-06   132   0.709E-03
  15 F= -.97764285E+02 E0= -.97764285E+02  d E =-.196348E-10
       N       E                     dE             d eps       ncg     rms          rms(c)
DAV:   1    -0.977634789738E+02    0.80493E-03   -0.20187E-01    96   0.123E+00    0.135E-01
DAV:   2    -0.977641089531E+02   -0.62998E-03   -0.74663E-03   132   0.248E-01    0.592E-02
DAV:   3    -0.977640900387E+02    0.18914E-04   -0.15717E-04   120   0.441E-02    0.298E-02
DAV:   4    -0.977640912766E+02   -0.12379E-05   -0.38539E-05   120   0.248E-02    0.809E-03
DAV:   5    -0.977640922202E+02   -0.94364E-06   -0.83840E-06   132   0.113E-02
  16 F= -.97764092E+02 E0= -.97764092E+02  d E =-.892976E-11
       N       E                     dE             d eps       ncg     rms          rms(c)
DAV:   1    -0.977632654492E+02    0.82583E-03   -0.39969E-01    96   0.169E+00    0.200E-01
DAV:   2    -0.977645292420E+02   -0.12638E-02   -0.15077E-02   132   0.360E-01    0.856E-02
DAV:   3    -0.977644807031E+02    0.48539E-04   -0.31170E-04   108   0.623E-02    0.437E-02
DAV:   4    -0.977644703750E+02    0.10328E-04   -0.81034E-05   120   0.358E-02    0.116E-02
DAV:   5    -0.977644662918E+02    0.40832E-05   -0.17724E-05   132   0.163E-02    0.672E-03
DAV:   6    -0.977644656075E+02    0.68435E-06   -0.36021E-06   132   0.671E-03
  17 F= -.97764466E+02 E0= -.97764466E+02  d E =-.344557E-10
       N       E                     dE             d eps       ncg     rms          rms(c)
DAV:   1    -0.977625594956E+02    0.19068E-02   -0.19931E-01    96   0.122E+00    0.137E-01
DAV:   2    -0.977632897215E+02   -0.73023E-03   -0.86854E-03   132   0.270E-01    0.701E-02
DAV:   3    -0.977632528609E+02    0.36861E-04   -0.15682E-04   108   0.445E-02    0.375E-02
DAV:   4    -0.977632426013E+02    0.10260E-04   -0.52831E-05   120   0.282E-02    0.825E-03
DAV:   5    -0.977632415809E+02    0.10204E-05   -0.11680E-05   120   0.130E-02    0.524E-03
DAV:   6    -0.977632446033E+02   -0.30224E-05   -0.25393E-06   120   0.523E-03    0.269E-03
DAV:   7    -0.977632507547E+02   -0.61513E-05   -0.64048E-07   120   0.263E-03    0.114E-03
DAV:   8    -0.977632580483E+02   -0.72936E-05   -0.40712E-07    96   0.180E-03    0.598E-04
DAV:   9    -0.977632661543E+02   -0.81061E-05   -0.60449E-07   108   0.165E-03    0.406E-04
DAV:  10    -0.977632731850E+02   -0.70307E-05   -0.58558E-07   108   0.148E-03    0.219E-04
DAV:  11    -0.977632749086E+02   -0.17236E-05   -0.35755E-08   108   0.581E-04    0.145E-04
DAV:  12    -0.977632771578E+02   -0.22491E-05   -0.76843E-08    84   0.583E-04    0.755E-05
DAV:  13    -0.977632780212E+02   -0.86344E-06   -0.20481E-08   108   0.318E-04
  18 F= -.97763278E+02 E0= -.97763278E+02  d E =-.198427E-10
       N       E                     dE             d eps       ncg     rms          rms(c)
DAV:   1    -0.977615714012E+02    0.17058E-02   -0.38824E-01    96   0.168E+00    0.203E-01
DAV:   2    -0.977630189550E+02   -0.14476E-02   -0.17988E-02   120   0.382E-01    0.125E-01
DAV:   3    -0.977628766651E+02    0.14229E-03   -0.30724E-04   144   0.667E-02    0.624E-02
DAV:   4    -0.977628308988E+02    0.45766E-04   -0.15223E-04   132   0.449E-02    0.115E-02
DAV:   5    -0.977628198847E+02    0.11014E-04   -0.23882E-05   120   0.186E-02    0.723E-03
DAV:   6    -0.977628233762E+02   -0.34915E-05   -0.86010E-06   132   0.805E-03    0.376E-03
DAV:   7    -0.977628386851E+02   -0.15309E-04   -0.16143E-06   132   0.383E-03    0.186E-03
DAV:   8    -0.977628628004E+02   -0.24115E-04   -0.15210E-06   108   0.292E-03    0.109E-03
DAV:   9    -0.977628837088E+02   -0.20908E-04   -0.10744E-06   120   0.206E-03    0.810E-04
DAV:  10    -0.977629042193E+02   -0.20510E-04   -0.11428E-06    96   0.195E-03    0.370E-04
DAV:  11    -0.977629107416E+02   -0.65222E-05   -0.11464E-07   108   0.821E-04    0.244E-04
DAV:  12    -0.977629180797E+02   -0.73382E-05   -0.23118E-07    84   0.940E-04    0.131E-04
DAV:  13    -0.977629197905E+02   -0.17108E-05   -0.23493E-08   108   0.404E-04    0.870E-05
DAV:  14    -0.977629212757E+02   -0.14852E-05   -0.10648E-08    84   0.298E-04    0.404E-05
DAV:  15    -0.977629217942E+02   -0.51844E-06    0.29749E-10   108   0.170E-04
  19 F= -.97762922E+02 E0= -.97762922E+02  d E =-.120804E-10
       N       E                     dE             d eps       ncg     rms          rms(c)
DAV:   1    -0.977619583536E+02    0.96292E-03   -0.18539E-01    96   0.127E+00    0.144E-01
DAV:   2    -0.977629187218E+02   -0.96037E-03   -0.11963E-02   120   0.333E-01    0.921E-02
DAV:   3    -0.977628526875E+02    0.66034E-04   -0.17557E-04   132   0.459E-02    0.532E-02
DAV:   4    -0.977628112229E+02    0.41465E-04   -0.79794E-05   132   0.338E-02    0.859E-03
DAV:   5    -0.977628025394E+02    0.86835E-05   -0.16717E-05   132   0.152E-02    0.558E-03
DAV:   6    -0.977628052088E+02   -0.26694E-05   -0.51362E-06   132   0.708E-03    0.311E-03
DAV:   7    -0.977628178155E+02   -0.12607E-04   -0.17367E-06   108   0.411E-03    0.158E-03
DAV:   8    -0.977628392493E+02   -0.21434E-04   -0.15502E-06    96   0.291E-03    0.861E-04
DAV:   9    -0.977628547664E+02   -0.15517E-04   -0.92523E-07   120   0.208E-03    0.679E-04
DAV:  10    -0.977628705119E+02   -0.15746E-04   -0.10471E-06    96   0.194E-03    0.309E-04
DAV:  11    -0.977628750561E+02   -0.45442E-05   -0.11126E-07   108   0.765E-04    0.248E-04
DAV:  12    -0.977628802049E+02   -0.51488E-05   -0.17019E-07    84   0.856E-04    0.114E-04
DAV:  13    -0.977628814609E+02   -0.12560E-05   -0.27401E-08   108   0.398E-04    0.864E-05
DAV:  14    -0.977628825880E+02   -0.11271E-05   -0.70789E-09    84   0.276E-04    0.315E-05
DAV:  15    -0.977628830721E+02   -0.48404E-06   -0.54309E-10   108   0.174E-04
  20 F= -.97762883E+02 E0= -.97762883E+02  d E =-.170223E-10
       N       E                     dE             d eps       ncg     rms          rms(c)
DAV:   1    -0.977614073439E+02    0.14752E-02   -0.40326E-01   108   0.172E+00    0.205E-01
DAV:   2    -0.977628886710E+02   -0.14813E-02   -0.18448E-02   120   0.403E-01    0.124E-01
DAV:   3    -0.977627790385E+02    0.10963E-03   -0.27532E-04   144   0.577E-02    0.645E-02
DAV:   4    -0.977627166283E+02    0.62410E-04   -0.12493E-04   108   0.429E-02    0.105E-02
DAV:   5    -0.977627146746E+02    0.19537E-05   -0.27906E-05   132   0.195E-02    0.744E-03
DAV:   6    -0.977627276340E+02   -0.12959E-04   -0.10654E-05   132   0.867E-03    0.413E-03
DAV:   7    -0.977627508427E+02   -0.23209E-04   -0.15557E-06   120   0.386E-03    0.217E-03
DAV:   8    -0.977627914581E+02   -0.40615E-04   -0.47275E-06   108   0.465E-03    0.126E-03
DAV:   9    -0.977628138490E+02   -0.22391E-04   -0.16277E-06   120   0.282E-03    0.853E-04
DAV:  10    -0.977628345328E+02   -0.20684E-04   -0.16486E-06    96   0.251E-03    0.361E-04
DAV:  11    -0.977628432676E+02   -0.87348E-05   -0.36440E-07   108   0.129E-03    0.328E-04
DAV:  12    -0.977628489989E+02   -0.57313E-05   -0.28367E-07    84   0.101E-03    0.125E-04
DAV:  13    -0.977628506658E+02   -0.16669E-05   -0.38282E-08   108   0.435E-04    0.831E-05
DAV:  14    -0.977628520337E+02   -0.13679E-05   -0.15858E-08   108   0.333E-04    0.599E-05
DAV:  15    -0.977628524910E+02   -0.45734E-06   -0.74346E-10   108   0.183E-04
  21 F= -.97762852E+02 E0= -.97762852E+02  d E =-.157559E-10
       N       E                     dE             d eps       ncg     rms          rms(c)
DAV:   1    -0.977626296849E+02    0.22235E-03   -0.20174E-01    96   0.123E+00    0.131E-01
DAV:   2    -0.977633910946E+02   -0.76141E-03   -0.94331E-03   108   0.278E-01    0.753E-02
DAV:   3    -0.977633571851E+02    0.33909E-04   -0.14782E-04   144   0.396E-02    0.398E-02
DAV:   4    -0.977633280634E+02    0.29122E-04   -0.38297E-05   132   0.244E-02    0.716E-03
DAV:   5    -0.977633213007E+02    0.67628E-05   -0.88064E-06   132   0.117E-02    0.442E-03
DAV:   6    -0.977633223835E+02   -0.10829E-05   -0.35612E-06   132   0.639E-03    0.226E-03
DAV:   7    -0.977633291742E+02   -0.67907E-05   -0.12380E-06   120   0.396E-03    0.147E-03
DAV:   8    -0.977633418248E+02   -0.12651E-04   -0.70950E-07    84   0.256E-03    0.724E-04
DAV:   9    -0.977633534562E+02   -0.11631E-04   -0.85112E-07   120   0.216E-03    0.621E-04
DAV:  10    -0.977633650205E+02   -0.11564E-04   -0.45685E-07    84   0.155E-03    0.242E-04
DAV:  11    -0.977633705526E+02   -0.55321E-05   -0.20645E-07    96   0.872E-04    0.256E-04
DAV:  12    -0.977633745763E+02   -0.40237E-05   -0.63476E-08    96   0.539E-04    0.109E-04
DAV:  13    -0.977633767646E+02   -0.21883E-05   -0.35199E-08    96   0.392E-04    0.587E-05
DAV:  14    -0.977633779974E+02   -0.12328E-05   -0.10562E-08    96   0.256E-04    0.427E-05
DAV:  15    -0.977633784919E+02   -0.49451E-06    0.13397E-09    96   0.155E-04
  22 F= -.97763378E+02 E0= -.97763378E+02  d E =-.266061E-10
       N       E                     dE             d eps       ncg     rms          rms(c)
DAV:   1    -0.977617293782E+02    0.16486E-02   -0.40371E-01    96   0.171E+00    0.193E-01
DAV:   2    -0.977632189046E+02   -0.14895E-02   -0.18681E-02   120   0.391E-01    0.112E-01
DAV:   3    -0.977631298443E+02    0.89060E-04   -0.28019E-04   144   0.545E-02    0.581E-02
DAV:   4    -0.977630552764E+02    0.74568E-04   -0.79553E-05   132   0.337E-02    0.102E-02
DAV:   5    -0.977630538871E+02    0.13893E-05   -0.15439E-05   132   0.157E-02    0.620E-03
DAV:   6    -0.977630756005E+02   -0.21713E-04   -0.94116E-06   132   0.998E-03    0.313E-03
DAV:   7    -0.977631033012E+02   -0.27701E-04   -0.39273E-06   132   0.620E-03    0.232E-03
DAV:   8    -0.977631393515E+02   -0.36050E-04   -0.28051E-06    96   0.386E-03    0.106E-03
DAV:   9    -0.977631679805E+02   -0.28629E-04   -0.29624E-06   120   0.366E-03    0.951E-04
DAV:  10    -0.977631913726E+02   -0.23392E-04   -0.25546E-06    96   0.310E-03    0.365E-04
DAV:  11    -0.977631964311E+02   -0.50585E-05   -0.19080E-07   108   0.112E-03    0.360E-04
DAV:  12    -0.977632009905E+02   -0.45594E-05   -0.17371E-07    84   0.884E-04    0.147E-04
DAV:  13    -0.977632027812E+02   -0.17907E-05   -0.57551E-08   108   0.489E-04    0.974E-05
DAV:  14    -0.977632037835E+02   -0.10023E-05   -0.78102E-09    96   0.295E-04    0.517E-05
DAV:  15    -0.977632042871E+02   -0.50364E-06   -0.18863E-09   108   0.199E-04
  23 F= -.97763204E+02 E0= -.97763204E+02  d E =-.103677E-10
       N       E                     dE             d eps       ncg     rms          rms(c)
DAV:   1    -0.977633462798E+02   -0.14250E-03   -0.20177E-01   120   0.122E+00    0.125E-01
DAV:   2    -0.977640705244E+02   -0.72424E-03   -0.87315E-03   108   0.266E-01    0.667E-02
DAV:   3    -0.977640501436E+02    0.20381E-04   -0.13988E-04   132   0.417E-02    0.355E-02
DAV:   4    -0.977640362025E+02    0.13941E-04   -0.38420E-05   132   0.289E-02    0.653E-03
DAV:   5    -0.977640335553E+02    0.26472E-05   -0.15059E-05   132   0.142E-02    0.506E-03
DAV:   6    -0.977640340015E+02   -0.44624E-06   -0.21964E-06   132   0.459E-03
  24 F= -.97764034E+02 E0= -.97764034E+02  d E =-.836461E-11
       N       E                     dE             d eps       ncg     rms          rms(c)
DAV:   1    -0.977627230123E+02    0.13105E-02   -0.40215E-01   120   0.167E+00    0.172E-01
DAV:   2    -0.977640519538E+02   -0.13289E-02   -0.16032E-02   108   0.357E-01    0.909E-02
DAV:   3    -0.977640242163E+02    0.27738E-04   -0.26596E-04   132   0.553E-02    0.486E-02
DAV:   4    -0.977640056350E+02    0.18581E-04   -0.69067E-05   120   0.374E-02    0.860E-03
DAV:   5    -0.977640041649E+02    0.14701E-05   -0.23630E-05   132   0.181E-02    0.678E-03
DAV:   6    -0.977640069296E+02   -0.27647E-05   -0.38286E-06   108   0.644E-03    0.397E-03
DAV:   7    -0.977640141433E+02   -0.72137E-05   -0.81151E-07    96   0.420E-03    0.169E-03
DAV:   8    -0.977640266965E+02   -0.12553E-04   -0.15108E-06    96   0.430E-03    0.126E-03
DAV:   9    -0.977640421301E+02   -0.15434E-04   -0.11827E-06   108   0.313E-03    0.616E-04
DAV:  10    -0.977640484997E+02   -0.63696E-05   -0.23073E-07   108   0.146E-03    0.444E-04
DAV:  11    -0.977640550761E+02   -0.65764E-05   -0.18302E-07    84   0.938E-04    0.192E-04
DAV:  12    -0.977640591235E+02   -0.40473E-05   -0.11206E-07    96   0.659E-04    0.178E-04
DAV:  13    -0.977640618123E+02   -0.26889E-05   -0.46671E-08    84   0.452E-04    0.589E-05
DAV:  14    -0.977640626615E+02   -0.84918E-06   -0.10023E-08   108   0.250E-04
  25 F= -.97764063E+02 E0= -.97764063E+02  d E =-.399731E-10
       N       E                     dE             d eps       ncg     rms          rms(c)
DAV:   1    -0.977624636561E+02    0.15982E-02   -0.19611E-01    96   0.133E+00    0.136E-01
DAV:   2    -0.977634760663E+02   -0.10124E-02   -0.12240E-02   132   0.322E-01    0.765E-02
DAV:   3    -0.977634364484E+02    0.39618E-04   -0.20058E-04   132   0.478E-02    0.433E-02
DAV:   4    -0.977634042629E+02    0.32185E-04   -0.57389E-05   132   0.324E-02    0.838E-03
DAV:   5    -0.977633978895E+02    0.63735E-05   -0.19092E-05   132   0.162E-02    0.564E-03
DAV:   6    -0.977634006621E+02   -0.27727E-05   -0.32445E-06   132   0.605E-03    0.346E-03
DAV:   7    -0.977634105111E+02   -0.98489E-05   -0.90057E-07    84   0.365E-03    0.145E-03
DAV:   8    -0.977634244869E+02   -0.13976E-04   -0.13283E-06   120   0.335E-03    0.972E-04
DAV:   9    -0.977634413641E+02   -0.16877E-04   -0.13789E-06    96   0.291E-03    0.508E-04
DAV:  10    -0.977634485113E+02   -0.71472E-05   -0.38224E-07    96   0.157E-03    0.364E-04
DAV:  11    -0.977634538809E+02   -0.53696E-05   -0.23194E-07    84   0.103E-03    0.173E-04
DAV:  12    -0.977634570354E+02   -0.31545E-05   -0.12964E-07   108   0.702E-04    0.142E-04
DAV:  13    -0.977634585927E+02   -0.15573E-05   -0.34287E-08    96   0.403E-04    0.734E-05
DAV:  14    -0.977634594287E+02   -0.83603E-06   -0.17084E-08    96   0.286E-04
  26 F= -.97763459E+02 E0= -.97763459E+02  d E =-.210826E-10
       N       E                     dE             d eps       ncg     rms          rms(c)
DAV:   1    -0.977616258014E+02    0.18328E-02   -0.39293E-01    96   0.178E+00    0.192E-01
DAV:   2    -0.977632298906E+02   -0.16041E-02   -0.19570E-02   132   0.414E-01    0.120E-01
DAV:   3    -0.977631038769E+02    0.12601E-03   -0.30685E-04   132   0.644E-02    0.635E-02
DAV:   4    -0.977630521474E+02    0.51729E-04   -0.14645E-04   120   0.464E-02    0.112E-02
DAV:   5    -0.977630410891E+02    0.11058E-04   -0.31539E-05   132   0.207E-02    0.720E-03
DAV:   6    -0.977630440111E+02   -0.29221E-05   -0.76148E-06   132   0.821E-03    0.408E-03
DAV:   7    -0.977630586980E+02   -0.14687E-04   -0.16009E-06   132   0.403E-03    0.185E-03
DAV:   8    -0.977630807631E+02   -0.22065E-04   -0.13556E-06    96   0.304E-03    0.112E-03
DAV:   9    -0.977631012623E+02   -0.20499E-04   -0.10488E-06   120   0.222E-03    0.821E-04
DAV:  10    -0.977631211448E+02   -0.19882E-04   -0.11750E-06    96   0.206E-03    0.381E-04
DAV:  11    -0.977631264701E+02   -0.53253E-05   -0.84241E-08   108   0.824E-04    0.266E-04
DAV:  12    -0.977631341794E+02   -0.77093E-05   -0.23680E-07    84   0.101E-03    0.135E-04
DAV:  13    -0.977631360855E+02   -0.19061E-05   -0.33132E-08   108   0.454E-04    0.946E-05
DAV:  14    -0.977631377450E+02   -0.16595E-05   -0.12646E-08    84   0.327E-04    0.447E-05
DAV:  15    -0.977631383608E+02   -0.61574E-06   -0.11860E-09   108   0.188E-04
  27 F= -.97763138E+02 E0= -.97763138E+02  d E =-.135679E-10
       N       E                     dE             d eps       ncg     rms          rms(c)
DAV:   1    -0.977638753073E+02   -0.73756E-03   -0.19920E-01   108   0.127E+00    0.133E-01
DAV:   2    -0.977646245527E+02   -0.74925E-03   -0.91010E-03   120   0.283E-01    0.770E-02
DAV:   3    -0.977645719525E+02    0.52600E-04   -0.15162E-04   132   0.453E-02    0.402E-02
DAV:   4    -0.977645487115E+02    0.23241E-04   -0.63609E-05   132   0.309E-02    0.772E-03
DAV:   5    -0.977645446955E+02    0.40161E-05   -0.12393E-05   132   0.133E-02    0.507E-03
DAV:   6    -0.977645479205E+02   -0.32250E-05   -0.33833E-06   132   0.581E-03    0.257E-03
DAV:   7    -0.977645560602E+02   -0.81398E-05   -0.84175E-07   120   0.296E-03    0.124E-03
DAV:   8    -0.977645670938E+02   -0.11034E-04   -0.70130E-07    96   0.208E-03    0.677E-04
DAV:   9    -0.977645787758E+02   -0.11682E-04   -0.86867E-07    96   0.199E-03    0.500E-04
DAV:  10    -0.977645883932E+02   -0.96174E-05   -0.82927E-07    96   0.176E-03    0.238E-04
DAV:  11    -0.977645912474E+02   -0.28542E-05   -0.73784E-08   108   0.738E-04    0.149E-04
DAV:  12    -0.977645937371E+02   -0.24897E-05   -0.10475E-07    96   0.662E-04    0.809E-05
DAV:  13    -0.977645944419E+02   -0.70482E-06   -0.12248E-08   108   0.294E-04
  28 F= -.97764594E+02 E0= -.97764594E+02  d E =-.224985E-10
       N       E                     dE             d eps       ncg     rms          rms(c)
DAV:   1    -0.977629222046E+02    0.16715E-02   -0.40603E-01    96   0.175E+00    0.170E-01
DAV:   2    -0.977642264640E+02   -0.13043E-02   -0.15473E-02   144   0.368E-01    0.801E-02
DAV:   3    -0.977641786014E+02    0.47863E-04   -0.28827E-04   132   0.606E-02    0.406E-02
DAV:   4    -0.977641627333E+02    0.15868E-04   -0.75468E-05   132   0.371E-02    0.103E-02
DAV:   5    -0.977641596433E+02    0.30900E-05   -0.20334E-05   132   0.176E-02    0.615E-03
DAV:   6    -0.977641612538E+02   -0.16105E-05   -0.43100E-06   132   0.714E-03    0.326E-03
DAV:   7    -0.977641653098E+02   -0.40560E-05   -0.48459E-07   108   0.280E-03    0.144E-03
DAV:   8    -0.977641713697E+02   -0.60599E-05   -0.49861E-07   108   0.262E-03    0.736E-04
DAV:   9    -0.977641790799E+02   -0.77101E-05   -0.55155E-07   108   0.238E-03    0.431E-04
DAV:  10    -0.977641852641E+02   -0.61842E-05   -0.46009E-07   108   0.184E-03    0.311E-04
DAV:  11    -0.977641884398E+02   -0.31757E-05   -0.92919E-08   108   0.102E-03    0.170E-04
DAV:  12    -0.977641908621E+02   -0.24223E-05   -0.71599E-08   108   0.613E-04    0.120E-04
DAV:  13    -0.977641918703E+02   -0.10082E-05   -0.15010E-08   108   0.306E-04    0.669E-05
DAV:  14    -0.977641928537E+02   -0.98345E-06   -0.16892E-08   108   0.283E-04
  29 F= -.97764193E+02 E0= -.97764193E+02  d E =-.210896E-10
       N       E                     dE             d eps       ncg     rms          rms(c)
DAV:   1    -0.977635183065E+02    0.67356E-03   -0.20385E-01    96   0.130E+00    0.127E-01
DAV:   2    -0.977640960855E+02   -0.57778E-03   -0.69560E-03   132   0.254E-01    0.580E-02
DAV:   3    -0.977640697878E+02    0.26298E-04   -0.13274E-04   132   0.412E-02    0.289E-02
DAV:   4    -0.977640618013E+02    0.79865E-05   -0.36862E-05   120   0.257E-02    0.731E-03
DAV:   5    -0.977640601418E+02    0.16595E-05   -0.97959E-06   132   0.121E-02    0.423E-03
DAV:   6    -0.977640609712E+02   -0.82944E-06   -0.19942E-06   120   0.494E-03
  30 F= -.97764061E+02 E0= -.97764061E+02  d E =-.126816E-10
       N       E                     dE             d eps       ncg     rms          rms(c)
DAV:   1    -0.977626453167E+02    0.14148E-02   -0.40440E-01    96   0.180E+00    0.211E-01
DAV:   2    -0.977639875307E+02   -0.13422E-02   -0.16077E-02   132   0.405E-01    0.941E-02
DAV:   3    -0.977639235120E+02    0.64019E-04   -0.30522E-04   108   0.633E-02    0.484E-02
DAV:   4    -0.977639044830E+02    0.19029E-04   -0.10071E-04   108   0.395E-02    0.119E-02
DAV:   5    -0.977638988350E+02    0.56480E-05   -0.21127E-05   132   0.175E-02    0.682E-03
DAV:   6    -0.977638997188E+02   -0.88376E-06   -0.43150E-06   132   0.717E-03
  31 F= -.97763900E+02 E0= -.97763900E+02  d E =-.210019E-10
       N       E                     dE             d eps       ncg     rms          rms(c)
DAV:   1    -0.977630048387E+02    0.89400E-03   -0.19852E-01    96   0.131E+00    0.151E-01
DAV:   2    -0.977640983303E+02   -0.10935E-02   -0.12833E-02   108   0.310E-01    0.693E-02
DAV:   3    -0.977640714485E+02    0.26882E-04   -0.24517E-04   144   0.529E-02    0.380E-02
DAV:   4    -0.977640664444E+02    0.50041E-05   -0.54815E-05   108   0.294E-02    0.991E-03
DAV:   5    -0.977640651263E+02    0.13181E-05   -0.14001E-05   132   0.142E-02    0.551E-03
DAV:   6    -0.977640656104E+02   -0.48406E-06   -0.25073E-06   132   0.601E-03
  32 F= -.97764066E+02 E0= -.97764066E+02  d E =-.159451E-10
       N       E                     dE             d eps       ncg     rms          rms(c)
DAV:   1    -0.977624160574E+02    0.16491E-02   -0.39929E-01    96   0.177E+00    0.181E-01
DAV:   2    -0.977639054997E+02   -0.14894E-02   -0.17596E-02   132   0.403E-01    0.971E-02
DAV:   3    -0.977638467658E+02    0.58734E-04   -0.28253E-04   132   0.607E-02    0.514E-02
DAV:   4    -0.977638196877E+02    0.27078E-04   -0.10375E-04   108   0.407E-02    0.104E-02
DAV:   5    -0.977638124680E+02    0.72197E-05   -0.24236E-05   132   0.185E-02    0.643E-03
DAV:   6    -0.977638133353E+02   -0.86730E-06   -0.51440E-06   120   0.755E-03
  33 F= -.97763813E+02 E0= -.97763813E+02  d E =-.262897E-10
       N       E                     dE             d eps       ncg     rms          rms(c)
DAV:   1    -0.977630123727E+02    0.80010E-03   -0.20264E-01    96   0.127E+00    0.120E-01
DAV:   2    -0.977636727701E+02   -0.66040E-03   -0.77469E-03   120   0.257E-01    0.575E-02
DAV:   3    -0.977636566811E+02    0.16089E-04   -0.14531E-04   132   0.428E-02    0.289E-02
DAV:   4    -0.977636579485E+02   -0.12674E-05   -0.38151E-05   108   0.259E-02    0.727E-03
DAV:   5    -0.977636603244E+02   -0.23759E-05   -0.95065E-06   132   0.119E-02    0.427E-03
DAV:   6    -0.977636638806E+02   -0.35562E-05   -0.21495E-06   132   0.496E-03    0.227E-03
DAV:   7    -0.977636682305E+02   -0.43499E-05   -0.29686E-07   108   0.195E-03    0.980E-04
DAV:   8    -0.977636734705E+02   -0.52399E-05   -0.36171E-07    84   0.180E-03    0.521E-04
DAV:   9    -0.977636789018E+02   -0.54314E-05   -0.34516E-07   108   0.165E-03    0.298E-04
DAV:  10    -0.977636830833E+02   -0.41815E-05   -0.30008E-07    84   0.132E-03    0.221E-04
DAV:  11    -0.977636849488E+02   -0.18655E-05   -0.51139E-08   108   0.734E-04    0.118E-04
DAV:  12    -0.977636864005E+02   -0.14517E-05   -0.39467E-08    84   0.461E-04    0.936E-05
DAV:  13    -0.977636870276E+02   -0.62714E-06   -0.71834E-09   108   0.240E-04
  34 F= -.97763687E+02 E0= -.97763687E+02  d E =-.213342E-10
       N       E                     dE             d eps       ncg     rms          rms(c)
DAV:   1    -0.977617974627E+02    0.18889E-02   -0.39463E-01    96   0.176E+00    0.190E-01
DAV:   2    -0.977633016937E+02   -0.15042E-02   -0.18326E-02   120   0.414E-01    0.114E-01
DAV:   3    -0.977631891272E+02    0.11257E-03   -0.31444E-04   132   0.656E-02    0.587E-02
DAV:   4    -0.977631423993E+02    0.46728E-04   -0.13602E-04   132   0.451E-02    0.110E-02
DAV:   5    -0.977631326233E+02    0.97759E-05   -0.25994E-05   132   0.193E-02    0.722E-03
DAV:   6    -0.977631347962E+02   -0.21729E-05   -0.71119E-06   132   0.830E-03    0.390E-03
DAV:   7    -0.977631472057E+02   -0.12409E-04   -0.15889E-06   132   0.412E-03    0.183E-03
DAV:   8    -0.977631666163E+02   -0.19411E-04   -0.11726E-06    96   0.284E-03    0.102E-03
DAV:   9    -0.977631853643E+02   -0.18748E-04   -0.10448E-06   120   0.225E-03    0.811E-04
DAV:  10    -0.977632043075E+02   -0.18943E-04   -0.11744E-06    96   0.212E-03    0.366E-04
DAV:  11    -0.977632092617E+02   -0.49542E-05   -0.79532E-08   108   0.819E-04    0.263E-04
DAV:  12    -0.977632162731E+02   -0.70114E-05   -0.21177E-07    84   0.970E-04    0.123E-04
DAV:  13    -0.977632181479E+02   -0.18748E-05   -0.34869E-08   108   0.439E-04    0.985E-05
DAV:  14    -0.977632194805E+02   -0.13326E-05   -0.66998E-09    84   0.294E-04    0.452E-05
DAV:  15    -0.977632201289E+02   -0.64838E-06   -0.12439E-09    96   0.186E-04
  35 F= -.97763220E+02 E0= -.97763220E+02  d E =-.146373E-10
       N       E                     dE             d eps       ncg     rms          rms(c)
DAV:   1    -0.977636626466E+02   -0.44317E-03   -0.20277E-01    96   0.129E+00    0.135E-01
DAV:   2    -0.977643639224E+02   -0.70128E-03   -0.84051E-03   132   0.278E-01    0.682E-02
DAV:   3    -0.977643256074E+02    0.38315E-04   -0.14649E-04   132   0.433E-02    0.361E-02
DAV:   4    -0.977643071387E+02    0.18469E-04   -0.50461E-05   132   0.287E-02    0.795E-03
DAV:   5    -0.977643043371E+02    0.28016E-05   -0.11815E-05   132   0.131E-02    0.509E-03
DAV:   6    -0.977643062925E+02   -0.19553E-05   -0.24889E-06   132   0.548E-03    0.261E-03
DAV:   7    -0.977643114698E+02   -0.51774E-05   -0.56387E-07   108   0.274E-03    0.114E-03
DAV:   8    -0.977643183846E+02   -0.69148E-05   -0.47231E-07   120   0.197E-03    0.652E-04
DAV:   9    -0.977643278471E+02   -0.94625E-05   -0.66407E-07   120   0.194E-03    0.371E-04
DAV:  10    -0.977643338553E+02   -0.60082E-05   -0.36487E-07   108   0.137E-03    0.201E-04
DAV:  11    -0.977643373383E+02   -0.34830E-05   -0.16442E-07   108   0.871E-04    0.136E-04
DAV:  12    -0.977643392585E+02   -0.19202E-05   -0.62781E-08   108   0.526E-04    0.743E-05
DAV:  13    -0.977643400774E+02   -0.81892E-06   -0.11784E-08   108   0.285E-04
  36 F= -.97764340E+02 E0= -.97764340E+02  d E =-.144485E-10
       N       E                     dE             d eps       ncg     rms          rms(c)
DAV:   1    -0.977630118625E+02    0.13274E-02   -0.40875E-01    96   0.181E+00    0.206E-01
DAV:   2    -0.977642347948E+02   -0.12229E-02   -0.14789E-02   132   0.376E-01    0.832E-02
DAV:   3    -0.977641815810E+02    0.53214E-04   -0.31635E-04   132   0.625E-02    0.425E-02
DAV:   4    -0.977641657709E+02    0.15810E-04   -0.73044E-05   132   0.355E-02    0.117E-02
DAV:   5    -0.977641626385E+02    0.31324E-05   -0.19252E-05   144   0.171E-02    0.657E-03
DAV:   6    -0.977641638707E+02   -0.12322E-05   -0.37328E-06   132   0.692E-03    0.343E-03
DAV:   7    -0.977641677395E+02   -0.38688E-05   -0.36297E-07   108   0.253E-03    0.154E-03
DAV:   8    -0.977641735898E+02   -0.58502E-05   -0.38770E-07   108   0.241E-03    0.701E-04
DAV:   9    -0.977641812493E+02   -0.76595E-05   -0.50924E-07   108   0.237E-03    0.466E-04
DAV:  10    -0.977641868823E+02   -0.56331E-05   -0.41385E-07   108   0.177E-03    0.356E-04
DAV:  11    -0.977641895615E+02   -0.26791E-05   -0.79983E-08   108   0.953E-04    0.169E-04
DAV:  12    -0.977641912399E+02   -0.16784E-05   -0.38677E-08   108   0.504E-04    0.131E-04
DAV:  13    -0.977641922860E+02   -0.10462E-05   -0.15137E-08   108   0.309E-04    0.775E-05
DAV:  14    -0.977641930580E+02   -0.77195E-06   -0.11527E-08   108   0.255E-04
  37 F= -.97764193E+02 E0= -.97764193E+02  d E =-.198080E-10
       N       E                     dE             d eps       ncg     rms          rms(c)
DAV:   1    -0.977630890463E+02    0.11032E-02   -0.19961E-01    96   0.131E+00    0.147E-01
DAV:   2    -0.977640567718E+02   -0.96773E-03   -0.11453E-02   120   0.302E-01    0.632E-02
DAV:   3    -0.977640337347E+02    0.23037E-04   -0.19086E-04   132   0.459E-02    0.351E-02
DAV:   4    -0.977640222869E+02    0.11448E-04   -0.45606E-05   120   0.250E-02    0.879E-03
DAV:   5    -0.977640194547E+02    0.28322E-05   -0.80069E-06   132   0.111E-02    0.523E-03
DAV:   6    -0.977640198758E+02   -0.42107E-06   -0.21603E-06   120   0.570E-03
  38 F= -.97764020E+02 E0= -.97764020E+02  d E =-.222128E-10
       N       E                     dE             d eps       ncg     rms          rms(c)
DAV:   1    -0.977628499607E+02    0.11695E-02   -0.40308E-01    96   0.169E+00    0.174E-01
DAV:   2    -0.977641484304E+02   -0.12985E-02   -0.15437E-02    96   0.368E-01    0.889E-02
DAV:   3    -0.977641042019E+02    0.44228E-04   -0.29080E-04   144   0.609E-02    0.455E-02
DAV:   4    -0.977640790158E+02    0.25186E-04   -0.83420E-05   108   0.390E-02    0.952E-03
DAV:   5    -0.977640733224E+02    0.56934E-05   -0.24049E-05   132   0.185E-02    0.620E-03
DAV:   6    -0.977640743867E+02   -0.10643E-05   -0.44003E-06   132   0.691E-03    0.353E-03
DAV:   7    -0.977640799002E+02   -0.55136E-05   -0.64469E-07   108   0.300E-03    0.174E-03
DAV:   8    -0.977640892224E+02   -0.93222E-05   -0.83493E-07   120   0.275E-03    0.777E-04
DAV:   9    -0.977640991790E+02   -0.99565E-05   -0.67203E-07   108   0.234E-03    0.605E-04
DAV:  10    -0.977641079144E+02   -0.87354E-05   -0.75282E-07    96   0.196E-03    0.339E-04
DAV:  11    -0.977641111730E+02   -0.32586E-05   -0.99217E-08   108   0.955E-04    0.229E-04
DAV:  12    -0.977641133734E+02   -0.22005E-05   -0.54932E-08   108   0.565E-04    0.147E-04
DAV:  13    -0.977641154912E+02   -0.21178E-05   -0.66012E-08    84   0.508E-04    0.854E-05
DAV:  14    -0.977641162056E+02   -0.71438E-06   -0.83100E-09   108   0.235E-04
  39 F= -.97764116E+02 E0= -.97764116E+02  d E =-.222631E-10
       N       E                     dE             d eps       ncg     rms          rms(c)
DAV:   1    -0.977626708447E+02    0.14446E-02   -0.19720E-01    96   0.121E+00    0.134E-01
DAV:   2    -0.977634097811E+02   -0.73894E-03   -0.91695E-03   108   0.265E-01    0.820E-02
DAV:   3    -0.977633485206E+02    0.61261E-04   -0.14508E-04   132   0.425E-02    0.412E-02
DAV:   4    -0.977633202192E+02    0.28301E-04   -0.64889E-05   108   0.297E-02    0.768E-03
DAV:   5    -0.977633136746E+02    0.65446E-05   -0.13635E-05   132   0.134E-02    0.453E-03
DAV:   6    -0.977633155121E+02   -0.18375E-05   -0.36491E-06   108   0.522E-03    0.260E-03
DAV:   7    -0.977633234100E+02   -0.78979E-05   -0.55833E-07    96   0.238E-03    0.123E-03
DAV:   8    -0.977633358554E+02   -0.12445E-04   -0.88234E-07    96   0.219E-03    0.774E-04
DAV:   9    -0.977633478268E+02   -0.11971E-04   -0.60631E-07   108   0.168E-03    0.515E-04
DAV:  10    -0.977633579340E+02   -0.10107E-04   -0.47944E-07    84   0.137E-03    0.258E-04
DAV:  11    -0.977633610948E+02   -0.31608E-05   -0.77090E-08   108   0.636E-04    0.171E-04
DAV:  12    -0.977633656572E+02   -0.45624E-05   -0.14270E-07    96   0.734E-04    0.944E-05
DAV:  13    -0.977633668505E+02   -0.11934E-05   -0.20822E-08   108   0.340E-04    0.604E-05
DAV:  14    -0.977633680057E+02   -0.11552E-05   -0.10200E-08    84   0.258E-04    0.312E-05
DAV:  15    -0.977633684073E+02   -0.40156E-06    0.20366E-09    96   0.143E-04
  40 F= -.97763368E+02 E0= -.97763368E+02  d E =-.159660E-10
       N       E                     dE             d eps       ncg     rms          rms(c)
DAV:   1    -0.977624244240E+02    0.94358E-03   -0.39761E-01    96   0.164E+00    0.187E-01
DAV:   2    -0.977638051527E+02   -0.13807E-02   -0.17071E-02   120   0.380E-01    0.107E-01
DAV:   3    -0.977637076640E+02    0.97489E-04   -0.29171E-04   132   0.604E-02    0.537E-02
DAV:   4    -0.977636614892E+02    0.46175E-04   -0.10612E-04   108   0.401E-02    0.106E-02
DAV:   5    -0.977636563039E+02    0.51853E-05   -0.23452E-05   132   0.181E-02    0.623E-03
DAV:   6    -0.977636659670E+02   -0.96631E-05   -0.68109E-06   132   0.768E-03    0.339E-03
DAV:   7    -0.977636829328E+02   -0.16966E-04   -0.14947E-06   132   0.365E-03    0.177E-03
DAV:   8    -0.977637046585E+02   -0.21726E-04   -0.16888E-06   108   0.286E-03    0.924E-04
DAV:   9    -0.977637241724E+02   -0.19514E-04   -0.16353E-06   120   0.260E-03    0.749E-04
DAV:  10    -0.977637420600E+02   -0.17888E-04   -0.17840E-06   108   0.245E-03    0.330E-04
DAV:  11    -0.977637468006E+02   -0.47405E-05   -0.12060E-07   108   0.884E-04    0.212E-04
DAV:  12    -0.977637511800E+02   -0.43795E-05   -0.18952E-07    84   0.834E-04    0.115E-04
DAV:  13    -0.977637525518E+02   -0.13718E-05   -0.35804E-08   108   0.391E-04    0.653E-05
DAV:  14    -0.977637534453E+02   -0.89352E-06   -0.48987E-09    84   0.240E-04
  41 F= -.97763753E+02 E0= -.97763753E+02  d E =-.248637E-10
       N       E                     dE             d eps       ncg     rms          rms(c)
DAV:   1    -0.977635357254E+02    0.21683E-03   -0.19733E-01    96   0.119E+00    0.134E-01
DAV:   2    -0.977642898628E+02   -0.75414E-03   -0.93224E-03   120   0.269E-01    0.798E-02
DAV:   3    -0.977642323862E+02    0.57477E-04   -0.13652E-04   120   0.420E-02    0.407E-02
DAV:   4    -0.977642048924E+02    0.27494E-04   -0.62162E-05   108   0.300E-02    0.752E-03
DAV:   5    -0.977641990140E+02    0.58784E-05   -0.14289E-05   132   0.138E-02    0.460E-03
DAV:   6    -0.977642003457E+02   -0.13317E-05   -0.34728E-06   108   0.520E-03    0.266E-03
DAV:   7    -0.977642075892E+02   -0.72435E-05   -0.58801E-07    96   0.247E-03    0.130E-03
DAV:   8    -0.977642200067E+02   -0.12417E-04   -0.90329E-07    96   0.223E-03    0.738E-04
DAV:   9    -0.977642317329E+02   -0.11726E-04   -0.61135E-07   108   0.170E-03    0.561E-04
DAV:  10    -0.977642419388E+02   -0.10206E-04   -0.46256E-07    84   0.138E-03    0.232E-04
DAV:  11    -0.977642457669E+02   -0.38281E-05   -0.10584E-07   108   0.710E-04    0.175E-04
DAV:  12    -0.977642497502E+02   -0.39834E-05   -0.10605E-07    84   0.652E-04    0.946E-05
DAV:  13    -0.977642511215E+02   -0.13712E-05   -0.21781E-08    96   0.339E-04    0.563E-05
DAV:  14    -0.977642521830E+02   -0.10615E-05   -0.87553E-09    84   0.241E-04    0.324E-05
DAV:  15    -0.977642526074E+02   -0.42437E-06    0.20454E-09    96   0.142E-04
  42 F= -.97764253E+02 E0= -.97764253E+02  d E =-.437427E-10
       N       E                     dE             d eps       ncg     rms          rms(c)
DAV:   1    -0.977627385927E+02    0.15136E-02   -0.40186E-01    96   0.165E+00    0.173E-01
DAV:   2    -0.977639880437E+02   -0.12495E-02   -0.15160E-02   108   0.360E-01    0.873E-02
DAV:   3    -0.977639299469E+02    0.58097E-04   -0.27403E-04   132   0.586E-02    0.452E-02
DAV:   4    -0.977639009419E+02    0.29005E-04   -0.82320E-05   120   0.392E-02    0.933E-03
DAV:   5    -0.977638977220E+02    0.32199E-05   -0.25830E-05   132   0.187E-02    0.597E-03
DAV:   6    -0.977639012812E+02   -0.35593E-05   -0.43451E-06   132   0.683E-03    0.325E-03
DAV:   7    -0.977639100005E+02   -0.87193E-05   -0.71899E-07    84   0.310E-03    0.167E-03
DAV:   8    -0.977639240189E+02   -0.14018E-04   -0.11601E-06   108   0.301E-03    0.815E-04
DAV:   9    -0.977639354162E+02   -0.11397E-04   -0.71959E-07   120   0.229E-03    0.611E-04
DAV:  10    -0.977639470430E+02   -0.11627E-04   -0.80874E-07    96   0.199E-03    0.283E-04
DAV:  11    -0.977639502209E+02   -0.31779E-05   -0.83308E-08   108   0.866E-04    0.234E-04
DAV:  12    -0.977639537282E+02   -0.35073E-05   -0.94199E-08    96   0.689E-04    0.124E-04
DAV:  13    -0.977639559219E+02   -0.21936E-05   -0.79414E-08    96   0.532E-04    0.881E-05
DAV:  14    -0.977639568593E+02   -0.93747E-06   -0.74245E-09    96   0.252E-04
  43 F= -.97763957E+02 E0= -.97763957E+02  d E =-.140657E-10
       N       E                     dE             d eps       ncg     rms          rms(c)
DAV:   1    -0.977620490725E+02    0.19068E-02   -0.19500E-01   108   0.131E+00    0.143E-01
DAV:   2    -0.977632073096E+02   -0.11582E-02   -0.14207E-02   108   0.344E-01    0.778E-02
DAV:   3    -0.977631750106E+02    0.32299E-04   -0.23431E-04   144   0.497E-02    0.449E-02
DAV:   4    -0.977631493969E+02    0.25614E-04   -0.53416E-05   132   0.298E-02    0.931E-03
DAV:   5    -0.977631411511E+02    0.82458E-05   -0.15203E-05   132   0.146E-02    0.489E-03
DAV:   6    -0.977631414951E+02   -0.34399E-06   -0.33147E-06   132   0.679E-03
  44 F= -.97763141E+02 E0= -.97763141E+02  d E =-.198205E-10
       N       E                     dE             d eps       ncg     rms          rms(c)
DAV:   1    -0.977614494756E+02    0.16917E-02   -0.40628E-01    96   0.186E+00    0.193E-01
DAV:   2    -0.977630954934E+02   -0.16460E-02   -0.19814E-02   132   0.439E-01    0.119E-01
DAV:   3    -0.977630192290E+02    0.76264E-04   -0.26260E-04   108   0.542E-02    0.663E-02
DAV:   4    -0.977629418395E+02    0.77390E-04   -0.11667E-04   120   0.380E-02    0.104E-02
DAV:   5    -0.977629324604E+02    0.93790E-05   -0.19672E-05   132   0.169E-02    0.626E-03
DAV:   6    -0.977629441032E+02   -0.11643E-04   -0.10909E-05   132   0.105E-02    0.314E-03
DAV:   7    -0.977629665007E+02   -0.22397E-04   -0.39446E-06   132   0.623E-03    0.217E-03
DAV:   8    -0.977629949718E+02   -0.28471E-04   -0.21678E-06   120   0.361E-03    0.105E-03
DAV:   9    -0.977630217201E+02   -0.26748E-04   -0.27601E-06    96   0.356E-03    0.809E-04
DAV:  10    -0.977630430969E+02   -0.21377E-04   -0.22597E-06   120   0.291E-03    0.307E-04
DAV:  11    -0.977630485043E+02   -0.54074E-05   -0.20531E-07   108   0.107E-03    0.272E-04
DAV:  12    -0.977630525400E+02   -0.40357E-05   -0.16940E-07   108   0.808E-04    0.130E-04
DAV:  13    -0.977630541498E+02   -0.16099E-05   -0.37233E-08   108   0.413E-04    0.664E-05
DAV:  14    -0.977630552001E+02   -0.10502E-05   -0.10853E-08   108   0.294E-04    0.463E-05
DAV:  15    -0.977630555931E+02   -0.39298E-06    0.10040E-09   108   0.160E-04
  45 F= -.97763056E+02 E0= -.97763056E+02  d E =-.150933E-10
       N       E                     dE             d eps       ncg     rms          rms(c)
DAV:   1    -0.977634999963E+02   -0.44480E-03   -0.20260E-01    96   0.127E+00    0.133E-01
DAV:   2    -0.977643321482E+02   -0.83215E-03   -0.10125E-02   120   0.308E-01    0.746E-02
DAV:   3    -0.977643023124E+02    0.29836E-04   -0.16606E-04   132   0.431E-02    0.409E-02
DAV:   4    -0.977642798828E+02    0.22430E-04   -0.47644E-05   120   0.286E-02    0.718E-03
DAV:   5    -0.977642747241E+02    0.51587E-05   -0.13809E-05   132   0.138E-02    0.498E-03
DAV:   6    -0.977642754104E+02   -0.68632E-06   -0.34997E-06   108   0.576E-03
  46 F= -.97764275E+02 E0= -.97764275E+02  d E =-.174468E-10
       N       E                     dE             d eps       ncg     rms          rms(c)
DAV:   1    -0.977628069024E+02    0.14678E-02   -0.40466E-01   120   0.181E+00    0.171E-01
DAV:   2    -0.977642947360E+02   -0.14878E-02   -0.17484E-02   108   0.379E-01    0.825E-02
DAV:   3    -0.977642897989E+02    0.49371E-05   -0.30761E-04   132   0.613E-02    0.444E-02
DAV:   4    -0.977642904354E+02   -0.63658E-06   -0.68754E-05   108   0.411E-02    0.863E-03
DAV:   5    -0.977642930459E+02   -0.26104E-05   -0.33003E-05   132   0.211E-02    0.709E-03
DAV:   6    -0.977642947808E+02   -0.17350E-05   -0.28777E-06   132   0.544E-03    0.524E-03
DAV:   7    -0.977642989195E+02   -0.41387E-05   -0.64690E-07   108   0.305E-03    0.217E-03
DAV:   8    -0.977643043422E+02   -0.54227E-05   -0.10768E-06    84   0.364E-03    0.133E-03
DAV:   9    -0.977643141782E+02   -0.98361E-05   -0.88945E-07   108   0.353E-03    0.877E-04
DAV:  10    -0.977643175341E+02   -0.33558E-05   -0.35631E-07   108   0.190E-03    0.882E-04
DAV:  11    -0.977643189546E+02   -0.14205E-05   -0.30145E-08   108   0.696E-04    0.592E-04
DAV:  12    -0.977643224130E+02   -0.34584E-05   -0.10226E-07   108   0.836E-04    0.160E-04
DAV:  13    -0.977643242448E+02   -0.18318E-05   -0.48887E-08   108   0.533E-04    0.220E-04
DAV:  14    -0.977643255799E+02   -0.13351E-05   -0.24300E-08   108   0.357E-04    0.133E-04
DAV:  15    -0.977643260673E+02   -0.48744E-06   -0.23902E-09   108   0.202E-04
  47 F= -.97764326E+02 E0= -.97764326E+02  d E =-.233226E-10
       N       E                     dE             d eps       ncg     rms          rms(c)
DAV:   1    -0.977620999772E+02    0.22256E-02   -0.20377E-01   120   0.129E+00    0.127E-01
DAV:   2    -0.977628359779E+02   -0.73600E-03   -0.88733E-03   120   0.293E-01    0.681E-02
DAV:   3    -0.977628124009E+02    0.23577E-04   -0.15810E-04   132   0.431E-02    0.360E-02
DAV:   4    -0.977627996891E+02    0.12712E-04   -0.44067E-05   120   0.297E-02    0.657E-03
DAV:   5    -0.977627968839E+02    0.28052E-05   -0.16229E-05   132   0.146E-02    0.470E-03
DAV:   6    -0.977627972923E+02   -0.40840E-06   -0.27397E-06   132   0.531E-03
  48 F= -.97762797E+02 E0= -.97762797E+02  d E =-.151742E-10
       N       E                     dE             d eps       ncg     rms          rms(c)
DAV:   1    -0.977612254206E+02    0.15715E-02   -0.40701E-01   108   0.187E+00    0.203E-01
DAV:   2    -0.977628366490E+02   -0.16112E-02   -0.19534E-02   108   0.451E-01    0.127E-01
DAV:   3    -0.977627396140E+02    0.97035E-04   -0.28754E-04   120   0.590E-02    0.673E-02
DAV:   4    -0.977626835320E+02    0.56082E-04   -0.13823E-04   120   0.438E-02    0.107E-02
DAV:   5    -0.977626745557E+02    0.89762E-05   -0.29986E-05   120   0.201E-02    0.650E-03
DAV:   6    -0.977626845058E+02   -0.99500E-05   -0.11751E-05   132   0.938E-03    0.381E-03
DAV:   7    -0.977627042821E+02   -0.19776E-04   -0.14278E-06    96   0.394E-03    0.211E-03
DAV:   8    -0.977627384682E+02   -0.34186E-04   -0.41564E-06    96   0.452E-03    0.107E-03
DAV:   9    -0.977627553427E+02   -0.16874E-04   -0.12216E-06   108   0.253E-03    0.819E-04
DAV:  10    -0.977627746467E+02   -0.19304E-04   -0.17121E-06    96   0.255E-03    0.315E-04
DAV:  11    -0.977627810759E+02   -0.64293E-05   -0.26964E-07    96   0.115E-03    0.276E-04
DAV:  12    -0.977627867888E+02   -0.57129E-05   -0.31559E-07    84   0.107E-03    0.130E-04
DAV:  13    -0.977627880265E+02   -0.12377E-05   -0.44202E-08    96   0.439E-04    0.102E-04
DAV:  14    -0.977627893231E+02   -0.12966E-05   -0.20978E-08    84   0.358E-04    0.474E-05
DAV:  15    -0.977627897023E+02   -0.37923E-06   -0.16440E-09    96   0.188E-04
  49 F= -.97762790E+02 E0= -.97762790E+02  d E =-.189493E-10
       N       E                     dE             d eps       ncg     rms          rms(c)
DAV:   1    -0.977629732088E+02   -0.18389E-03   -0.20225E-01    96   0.132E+00    0.140E-01
DAV:   2    -0.977640067316E+02   -0.10335E-02   -0.12527E-02   132   0.345E-01    0.788E-02
DAV:   3    -0.977639686881E+02    0.38043E-04   -0.20087E-04   120   0.483E-02    0.457E-02
DAV:   4    -0.977639365972E+02    0.32091E-04   -0.59418E-05   120   0.340E-02    0.788E-03
DAV:   5    -0.977639293556E+02    0.72416E-05   -0.22400E-05   132   0.174E-02    0.618E-03
DAV:   6    -0.977639301791E+02   -0.82344E-06   -0.43354E-06   132   0.684E-03
  50 F= -.97763930E+02 E0= -.97763930E+02  d E =-.182518E-10
       N       E                     dE             d eps       ncg     rms          rms(c)
DAV:   1    -0.977626641954E+02    0.12652E-02   -0.41013E-01   120   0.170E+00    0.175E-01
DAV:   2    -0.977641345883E+02   -0.14704E-02   -0.17254E-02   108   0.376E-01    0.933E-02
DAV:   3    -0.977641179314E+02    0.16657E-04   -0.28995E-04   132   0.594E-02    0.506E-02
DAV:   4    -0.977641136198E+02    0.43116E-05   -0.77971E-05   132   0.419E-02    0.936E-03
DAV:   5    -0.977641127471E+02    0.87272E-06   -0.31250E-05   144   0.208E-02    0.759E-03
DAV:   6    -0.977641139865E+02   -0.12394E-05   -0.40853E-06   132   0.628E-03    0.518E-03
DAV:   7    -0.977641183892E+02   -0.44027E-05   -0.75332E-07   108   0.360E-03    0.222E-03
DAV:   8    -0.977641258442E+02   -0.74550E-05   -0.13285E-06   120   0.378E-03    0.122E-03
DAV:   9    -0.977641372933E+02   -0.11449E-04   -0.79061E-07    84   0.300E-03    0.667E-04
DAV:  10    -0.977641421020E+02   -0.48087E-05   -0.34617E-07   108   0.170E-03    0.577E-04
DAV:  11    -0.977641455082E+02   -0.34062E-05   -0.61055E-08   108   0.791E-04    0.334E-04
DAV:  12    -0.977641501132E+02   -0.46050E-05   -0.16968E-07    84   0.865E-04    0.236E-04
DAV:  13    -0.977641517170E+02   -0.16038E-05   -0.31742E-08   108   0.411E-04    0.192E-04
DAV:  14    -0.977641531251E+02   -0.14081E-05   -0.24436E-08   108   0.355E-04    0.792E-05
DAV:  15    -0.977641536468E+02   -0.52163E-06   -0.14146E-09   108   0.185E-04
  51 F= -.97764154E+02 E0= -.97764154E+02  d E =-.172089E-10
       N       E                     dE             d eps       ncg     rms          rms(c)
DAV:   1    -0.977624483378E+02    0.17048E-02   -0.20158E-01    96   0.119E+00    0.134E-01
DAV:   2    -0.977632822060E+02   -0.83387E-03   -0.10311E-02   120   0.287E-01    0.839E-02
DAV:   3    -0.977632311444E+02    0.51062E-04   -0.14012E-04   132   0.383E-02    0.474E-02
DAV:   4    -0.977631904342E+02    0.40710E-04   -0.55513E-05   120   0.275E-02    0.763E-03
DAV:   5    -0.977631874754E+02    0.29588E-05   -0.11480E-05   132   0.126E-02    0.474E-03
DAV:   6    -0.977631965867E+02   -0.91113E-05   -0.51014E-06   132   0.655E-03    0.245E-03
DAV:   7    -0.977632120923E+02   -0.15506E-04   -0.18762E-06   120   0.403E-03    0.155E-03
DAV:   8    -0.977632359807E+02   -0.23888E-04   -0.20940E-06    96   0.340E-03    0.761E-04
DAV:   9    -0.977632508675E+02   -0.14887E-04   -0.12676E-06   120   0.245E-03    0.626E-04
DAV:  10    -0.977632636707E+02   -0.12803E-04   -0.10358E-06    96   0.198E-03    0.249E-04
DAV:  11    -0.977632677976E+02   -0.41269E-05   -0.17416E-07   108   0.881E-04    0.223E-04
DAV:  12    -0.977632710294E+02   -0.32318E-05   -0.14289E-07    84   0.735E-04    0.928E-05
DAV:  13    -0.977632721292E+02   -0.10998E-05   -0.28410E-08   108   0.368E-04    0.598E-05
DAV:  14    -0.977632728469E+02   -0.71767E-06   -0.61279E-09    84   0.249E-04
  52 F= -.97763273E+02 E0= -.97763273E+02  d E =-.193072E-10
       N       E                     dE             d eps       ncg     rms          rms(c)
DAV:   1    -0.977619775034E+02    0.12946E-02   -0.40466E-01   108   0.169E+00    0.187E-01
DAV:   2    -0.977635361096E+02   -0.15586E-02   -0.19199E-02   144   0.393E-01    0.112E-01
DAV:   3    -0.977634541465E+02    0.81963E-04   -0.28128E-04   132   0.534E-02    0.606E-02
DAV:   4    -0.977633940631E+02    0.60083E-04   -0.91299E-05   132   0.360E-02    0.104E-02
DAV:   5    -0.977633813082E+02    0.12755E-04   -0.19186E-05   132   0.168E-02    0.626E-03
DAV:   6    -0.977633848272E+02   -0.35190E-05   -0.81181E-06   132   0.894E-03    0.330E-03
DAV:   7    -0.977634002570E+02   -0.15430E-04   -0.26486E-06   132   0.538E-03    0.210E-03
DAV:   8    -0.977634261224E+02   -0.25865E-04   -0.16769E-06   120   0.371E-03    0.107E-03
DAV:   9    -0.977634475926E+02   -0.21470E-04   -0.14350E-06   120   0.285E-03    0.903E-04
DAV:  10    -0.977634687814E+02   -0.21189E-04   -0.10122E-06    96   0.210E-03    0.340E-04
DAV:  11    -0.977634773508E+02   -0.85694E-05   -0.20194E-07   108   0.979E-04    0.323E-04
DAV:  12    -0.977634845404E+02   -0.71896E-05   -0.16330E-07   108   0.793E-04    0.127E-04
DAV:  13    -0.977634873870E+02   -0.28466E-05   -0.43625E-08    84   0.432E-04    0.753E-05
DAV:  14    -0.977634890596E+02   -0.16726E-05   -0.11817E-08   108   0.294E-04    0.523E-05
DAV:  15    -0.977634896419E+02   -0.58228E-06   -0.23910E-10   108   0.168E-04
  53 F= -.97763490E+02 E0= -.97763490E+02  d E =-.151451E-10
       N       E                     dE             d eps       ncg     rms          rms(c)
DAV:   1    -0.977618326251E+02    0.16564E-02   -0.20031E-01   120   0.116E+00    0.143E-01
DAV:   2    -0.977627215103E+02   -0.88889E-03   -0.10807E-02   132   0.299E-01    0.898E-02
DAV:   3    -0.977626640875E+02    0.57423E-04   -0.14094E-04   132   0.399E-02    0.505E-02
DAV:   4    -0.977626307474E+02    0.33340E-04   -0.71814E-05   108   0.322E-02    0.755E-03
DAV:   5    -0.977626266359E+02    0.41115E-05   -0.17835E-05   132   0.152E-02    0.530E-03
DAV:   6    -0.977626308814E+02   -0.42455E-05   -0.59109E-06   132   0.647E-03    0.308E-03
DAV:   7    -0.977626420621E+02   -0.11181E-04   -0.96665E-07    96   0.302E-03    0.165E-03
DAV:   8    -0.977626636754E+02   -0.21613E-04   -0.21742E-06   108   0.316E-03    0.818E-04
DAV:   9    -0.977626764539E+02   -0.12778E-04   -0.84906E-07   120   0.198E-03    0.726E-04
DAV:  10    -0.977626905404E+02   -0.14086E-04   -0.10764E-06    96   0.202E-03    0.227E-04
DAV:  11    -0.977626947150E+02   -0.41746E-05   -0.13072E-07   108   0.846E-04    0.244E-04
DAV:  12    -0.977626983569E+02   -0.36419E-05   -0.12084E-07    84   0.722E-04    0.103E-04
DAV:  13    -0.977626995001E+02   -0.11432E-05   -0.24111E-08   108   0.351E-04    0.724E-05
DAV:  14    -0.977627004235E+02   -0.92338E-06   -0.58251E-09    96   0.248E-04
  54 F= -.97762700E+02 E0= -.97762700E+02  d E =-.151331E-10
       N       E                     dE             d eps       ncg     rms          rms(c)
DAV:   1    -0.977612464435E+02    0.14531E-02   -0.39524E-01   120   0.166E+00    0.201E-01
DAV:   2    -0.977628823742E+02   -0.16359E-02   -0.20432E-02   120   0.392E-01    0.129E-01
DAV:   3    -0.977627654711E+02    0.11690E-03   -0.25278E-04   132   0.552E-02    0.725E-02
DAV:   4    -0.977627001250E+02    0.65346E-04   -0.15357E-04   132   0.455E-02    0.110E-02
DAV:   5    -0.977626989899E+02    0.11351E-05   -0.34611E-05   132   0.214E-02    0.750E-03
DAV:   6    -0.977627139419E+02   -0.14952E-04   -0.13738E-05   132   0.934E-03    0.437E-03
DAV:   7    -0.977627398380E+02   -0.25896E-04   -0.22126E-06   132   0.443E-03    0.243E-03
DAV:   8    -0.977627859957E+02   -0.46158E-04   -0.57021E-06   108   0.490E-03    0.119E-03
DAV:   9    -0.977628063681E+02   -0.20372E-04   -0.14436E-06   120   0.250E-03    0.986E-04
DAV:  10    -0.977628310779E+02   -0.24710E-04   -0.23069E-06    96   0.282E-03    0.373E-04
DAV:  11    -0.977628395896E+02   -0.85117E-05   -0.40540E-07    96   0.133E-03    0.291E-04
DAV:  12    -0.977628453528E+02   -0.57632E-05   -0.29953E-07    84   0.101E-03    0.158E-04
DAV:  13    -0.977628470874E+02   -0.17345E-05   -0.47248E-08   108   0.449E-04    0.889E-05
DAV:  14    -0.977628485657E+02   -0.14783E-05   -0.25574E-08    84   0.365E-04    0.559E-05
DAV:  15    -0.977628489342E+02   -0.36852E-06    0.14234E-10   108   0.165E-04
  55 F= -.97762849E+02 E0= -.97762849E+02  d E =-.160574E-10
       N       E                     dE             d eps       ncg     rms          rms(c)
DAV:   1    -0.977627730739E+02    0.75492E-04   -0.19613E-01   120   0.132E+00    0.140E-01
DAV:   2    -0.977638905349E+02   -0.11175E-02   -0.13578E-02   120   0.346E-01    0.823E-02
DAV:   3    -0.977638606615E+02    0.29873E-04   -0.19228E-04   132   0.446E-02    0.486E-02
DAV:   4    -0.977638361572E+02    0.24504E-04   -0.64396E-05   120   0.299E-02    0.766E-03
DAV:   5    -0.977638300516E+02    0.61056E-05   -0.12962E-05   132   0.128E-02    0.482E-03
DAV:   6    -0.977638322335E+02   -0.21818E-05   -0.45195E-06   108   0.662E-03    0.245E-03
DAV:   7    -0.977638418457E+02   -0.96123E-05   -0.14357E-06   120   0.382E-03    0.137E-03
DAV:   8    -0.977638583576E+02   -0.16512E-04   -0.93737E-07    84   0.240E-03    0.676E-04
DAV:   9    -0.977638714950E+02   -0.13137E-04   -0.91463E-07    96   0.200E-03    0.538E-04
DAV:  10    -0.977638848928E+02   -0.13398E-04   -0.89726E-07    84   0.184E-03    0.224E-04
DAV:  11    -0.977638886489E+02   -0.37561E-05   -0.13697E-07   108   0.794E-04    0.202E-04
DAV:  12    -0.977638920970E+02   -0.34481E-05   -0.89798E-08    84   0.656E-04    0.824E-05
DAV:  13    -0.977638933565E+02   -0.12596E-05   -0.27520E-08   108   0.372E-04    0.643E-05
DAV:  14    -0.977638942954E+02   -0.93894E-06   -0.78275E-09    84   0.251E-04
  56 F= -.97763894E+02 E0= -.97763894E+02  d E =-.169465E-10
       N       E                     dE             d eps       ncg     rms          rms(c)
DAV:   1    -0.977624513581E+02    0.14420E-02   -0.40504E-01   108   0.181E+00    0.178E-01
DAV:   2    -0.977640038819E+02   -0.15525E-02   -0.18591E-02   120   0.412E-01    0.973E-02
DAV:   3    -0.977639615740E+02    0.42308E-04   -0.31115E-04   132   0.595E-02    0.528E-02
DAV:   4    -0.977639326565E+02    0.28917E-04   -0.84116E-05   132   0.407E-02    0.951E-03
DAV:   5    -0.977639268923E+02    0.57643E-05   -0.31011E-05   132   0.204E-02    0.663E-03
DAV:   6    -0.977639279127E+02   -0.10204E-05   -0.54006E-06   132   0.752E-03    0.383E-03
DAV:   7    -0.977639349725E+02   -0.70598E-05   -0.10218E-06   108   0.425E-03    0.188E-03
DAV:   8    -0.977639499044E+02   -0.14932E-04   -0.17379E-06    96   0.430E-03    0.116E-03
DAV:   9    -0.977639644286E+02   -0.14524E-04   -0.93821E-07   108   0.296E-03    0.693E-04
DAV:  10    -0.977639739040E+02   -0.94755E-05   -0.51262E-07   108   0.181E-03    0.398E-04
DAV:  11    -0.977639814995E+02   -0.75955E-05   -0.23907E-07   108   0.111E-03    0.238E-04
DAV:  12    -0.977639845869E+02   -0.30873E-05   -0.75111E-08   108   0.591E-04    0.187E-04
DAV:  13    -0.977639874392E+02   -0.28523E-05   -0.63086E-08   108   0.495E-04    0.679E-05
DAV:  14    -0.977639883505E+02   -0.91129E-06   -0.93595E-09   108   0.266E-04
  57 F= -.97763988E+02 E0= -.97763988E+02  d E =-.240938E-10
       N       E                     dE             d eps       ncg     rms          rms(c)
DAV:   1    -0.977626728207E+02    0.13146E-02   -0.20290E-01   120   0.127E+00    0.120E-01
DAV:   2    -0.977633818105E+02   -0.70899E-03   -0.84436E-03   108   0.264E-01    0.573E-02
DAV:   3    -0.977633744067E+02    0.74038E-05   -0.14807E-04   132   0.427E-02    0.309E-02
DAV:   4    -0.977633675076E+02    0.68991E-05   -0.32179E-05   132   0.291E-02    0.600E-03
DAV:   5    -0.977633668719E+02    0.63565E-06   -0.17342E-05   132   0.152E-02    0.498E-03
DAV:   6    -0.977633672501E+02   -0.37814E-06   -0.13525E-06   120   0.378E-03
  58 F= -.97763367E+02 E0= -.97763367E+02  d E =-.168946E-10
       N       E                     dE             d eps       ncg     rms          rms(c)
DAV:   1    -0.977615626971E+02    0.18042E-02   -0.40552E-01   120   0.185E+00    0.195E-01
DAV:   2    -0.977633304078E+02   -0.17677E-02   -0.21212E-02   108   0.451E-01    0.115E-01
DAV:   3    -0.977632610915E+02    0.69316E-04   -0.32368E-04   120   0.603E-02    0.643E-02
DAV:   4    -0.977632087491E+02    0.52342E-04   -0.11630E-04   108   0.423E-02    0.104E-02
DAV:   5    -0.977632042878E+02    0.44613E-05   -0.28431E-05   132   0.193E-02    0.738E-03
DAV:   6    -0.977632124362E+02   -0.81484E-05   -0.88633E-06   132   0.882E-03    0.395E-03
DAV:   7    -0.977632302983E+02   -0.17862E-04   -0.26916E-06   132   0.515E-03    0.214E-03
DAV:   8    -0.977632586909E+02   -0.28393E-04   -0.28083E-06    96   0.402E-03    0.102E-03
DAV:   9    -0.977632777496E+02   -0.19059E-04   -0.17397E-06   108   0.296E-03    0.904E-04
DAV:  10    -0.977632960626E+02   -0.18313E-04   -0.17654E-06    96   0.263E-03    0.338E-04
DAV:  11    -0.977633017639E+02   -0.57013E-05   -0.25522E-07   108   0.113E-03    0.302E-04
DAV:  12    -0.977633063912E+02   -0.46272E-05   -0.24865E-07    84   0.967E-04    0.132E-04
DAV:  13    -0.977633078357E+02   -0.14445E-05   -0.42066E-08   108   0.441E-04    0.758E-05
DAV:  14    -0.977633088729E+02   -0.10372E-05   -0.12353E-08    96   0.296E-04    0.481E-05
DAV:  15    -0.977633092284E+02   -0.35556E-06    0.11495E-10   108   0.164E-04
  59 F= -.97763309E+02 E0= -.97763309E+02  d E =-.176036E-10
       N       E                     dE             d eps       ncg     rms          rms(c)
DAV:   1    -0.977622626919E+02    0.10462E-02   -0.20293E-01    96   0.131E+00    0.134E-01
DAV:   2    -0.977630387319E+02   -0.77604E-03   -0.96529E-03   120   0.314E-01    0.764E-02
DAV:   3    -0.977630003551E+02    0.38377E-04   -0.14314E-04   132   0.393E-02    0.410E-02
DAV:   4    -0.977629656259E+02    0.34729E-04   -0.41041E-05   120   0.243E-02    0.706E-03
DAV:   5    -0.977629583333E+02    0.72926E-05   -0.80343E-06   132   0.116E-02    0.405E-03
DAV:   6    -0.977629605602E+02   -0.22269E-05   -0.42797E-06   108   0.762E-03    0.216E-03
DAV:   7    -0.977629696910E+02   -0.91308E-05   -0.17906E-06   120   0.465E-03    0.149E-03
DAV:   8    -0.977629823824E+02   -0.12691E-04   -0.62119E-07    84   0.233E-03    0.769E-04
DAV:   9    -0.977629967868E+02   -0.14404E-04   -0.10379E-06    96   0.228E-03    0.568E-04
DAV:  10    -0.977630092965E+02   -0.12510E-04   -0.56605E-07    96   0.169E-03    0.232E-04
DAV:  11    -0.977630144454E+02   -0.51489E-05   -0.18303E-07    84   0.892E-04    0.242E-04
DAV:  12    -0.977630187860E+02   -0.43406E-05   -0.76899E-08    96   0.602E-04    0.853E-05
DAV:  13    -0.977630203821E+02   -0.15961E-05   -0.22026E-08    84   0.342E-04    0.561E-05
DAV:  14    -0.977630215233E+02   -0.11412E-05   -0.92573E-09   108   0.245E-04    0.370E-05
DAV:  15    -0.977630220320E+02   -0.50873E-06    0.13526E-09    84   0.155E-04
  60 F= -.97763022E+02 E0= -.97763022E+02  d E =-.157571E-10
       N       E                     dE             d eps       ncg     rms          rms(c)
DAV:   1    -0.977614012806E+02    0.16202E-02   -0.40564E-01    96   0.190E+00    0.195E-01
DAV:   2    -0.977629432394E+02   -0.15420E-02   -0.19310E-02   120   0.447E-01    0.122E-01
DAV:   3    -0.977628300844E+02    0.11315E-03   -0.27511E-04   132   0.574E-02    0.648E-02
DAV:   4    -0.977627561976E+02    0.73887E-04   -0.11644E-04   120   0.398E-02    0.109E-02
DAV:   5    -0.977627562095E+02   -0.11865E-07   -0.21462E-05   132   0.178E-02    0.663E-03
DAV:   6    -0.977627788375E+02   -0.22628E-04   -0.12986E-05   132   0.109E-02    0.350E-03
DAV:   7    -0.977628087329E+02   -0.29895E-04   -0.35943E-06   108   0.613E-03    0.229E-03
DAV:   8    -0.977628526966E+02   -0.43964E-04   -0.46381E-06   120   0.493E-03    0.108E-03
DAV:   9    -0.977628802304E+02   -0.27534E-04   -0.26773E-06   120   0.352E-03    0.889E-04
DAV:  10    -0.977629026790E+02   -0.22449E-04   -0.21942E-06    96   0.292E-03    0.386E-04
DAV:  11    -0.977629096361E+02   -0.69571E-05   -0.31943E-07   108   0.126E-03    0.273E-04
DAV:  12    -0.977629144952E+02   -0.48591E-05   -0.24334E-07    84   0.968E-04    0.163E-04
DAV:  13    -0.977629161959E+02   -0.17007E-05   -0.43741E-08   108   0.488E-04    0.724E-05
DAV:  14    -0.977629171747E+02   -0.97883E-06   -0.10684E-08    84   0.316E-04
  61 F= -.97762917E+02 E0= -.97762917E+02  d E =-.174426E-10
       N       E                     dE             d eps       ncg     rms          rms(c)
DAV:   1    -0.977658352221E+02   -0.29190E-02   -0.23440E-01    96   0.162E+00    0.132E-01
DAV:   2    -0.977662634756E+02   -0.42825E-03   -0.63133E-03   120   0.261E-01    0.785E-02
DAV:   3    -0.977662039715E+02    0.59504E-04   -0.15884E-04   132   0.438E-02    0.349E-02
DAV:   4    -0.977661854207E+02    0.18551E-04   -0.59789E-05   120   0.267E-02    0.707E-03
DAV:   5    -0.977661817314E+02    0.36893E-05   -0.85904E-06   132   0.112E-02    0.464E-03
DAV:   6    -0.977661832808E+02   -0.15494E-05   -0.34738E-06   120   0.593E-03    0.220E-03
DAV:   7    -0.977661882191E+02   -0.49383E-05   -0.50615E-07   108   0.296E-03    0.119E-03
DAV:   8    -0.977661968739E+02   -0.86548E-05   -0.59291E-07    84   0.234E-03    0.708E-04
DAV:   9    -0.977662066414E+02   -0.97674E-05   -0.62609E-07    96   0.202E-03    0.400E-04
DAV:  10    -0.977662138801E+02   -0.72388E-05   -0.36372E-07    84   0.139E-03    0.270E-04
DAV:  11    -0.977662181938E+02   -0.43137E-05   -0.83597E-08   108   0.747E-04    0.123E-04
DAV:  12    -0.977662206589E+02   -0.24652E-05   -0.60337E-08    84   0.517E-04    0.869E-05
DAV:  13    -0.977662214931E+02   -0.83418E-06   -0.41747E-09   108   0.238E-04
  62 F= -.97766221E+02 E0= -.97766221E+02  d E =-.139102E-10
       N       E                     dE             d eps       ncg     rms          rms(c)
DAV:   1    -0.977664798118E+02   -0.25915E-03   -0.53344E-01    96   0.211E+00    0.174E-01
DAV:   2    -0.977663383480E+02    0.14146E-03   -0.26652E-03   120   0.157E-01    0.980E-02
DAV:   3    -0.977661912437E+02    0.14710E-03   -0.45138E-04   132   0.608E-02    0.175E-02
DAV:   4    -0.977661943608E+02   -0.31171E-05   -0.64909E-05   132   0.253E-02    0.895E-03
DAV:   5    -0.977661955842E+02   -0.12234E-05   -0.38496E-06   132   0.665E-03    0.511E-03
DAV:   6    -0.977661996505E+02   -0.40663E-05   -0.22546E-06   132   0.465E-03    0.129E-03
DAV:   7    -0.977662032132E+02   -0.35627E-05   -0.45657E-07   108   0.235E-03    0.948E-04
DAV:   8    -0.977662075883E+02   -0.43751E-05   -0.21650E-07   108   0.163E-03    0.472E-04
DAV:   9    -0.977662117713E+02   -0.41830E-05   -0.24905E-07    84   0.149E-03    0.279E-04
DAV:  10    -0.977662151263E+02   -0.33550E-05   -0.20123E-07   108   0.104E-03    0.181E-04
DAV:  11    -0.977662164226E+02   -0.12963E-05   -0.40705E-08   108   0.510E-04    0.115E-04
DAV:  12    -0.977662173773E+02   -0.95465E-06   -0.21643E-08    84   0.358E-04
  63 F= -.97766217E+02 E0= -.97766217E+02  d E =-.159754E-10
       N       E                     dE             d eps       ncg     rms          rms(c)
DAV:   1    -0.977652650712E+02    0.95135E-03   -0.27227E-01   108   0.151E+00    0.147E-01
DAV:   2    -0.977652173690E+02    0.47702E-04   -0.22194E-03   108   0.129E-01    0.804E-02
DAV:   3    -0.977651164688E+02    0.10090E-03   -0.26214E-04   132   0.413E-02    0.217E-02
DAV:   4    -0.977651108492E+02    0.56196E-05   -0.46750E-05   108   0.185E-02    0.773E-03
DAV:   5    -0.977651096855E+02    0.11637E-05   -0.39001E-06   120   0.685E-03    0.337E-03
DAV:   6    -0.977651115643E+02   -0.18788E-05   -0.22677E-06   108   0.465E-03    0.141E-03
DAV:   7    -0.977651150002E+02   -0.34359E-05   -0.52133E-07    96   0.240E-03    0.802E-04
DAV:   8    -0.977651179783E+02   -0.29781E-05   -0.19371E-07    84   0.147E-03    0.548E-04
DAV:   9    -0.977651225405E+02   -0.45622E-05   -0.29829E-07    84   0.132E-03    0.221E-04
DAV:  10    -0.977651248447E+02   -0.23043E-05   -0.10779E-07    96   0.803E-04    0.153E-04
[...]
DAV:   1    -0.977669326685E+02   -0.20888E-02   -0.26791E-01    96   0.162E+00    0.132E-01
DAV:   2    -0.977668882314E+02    0.44437E-04   -0.17872E-03   108   0.138E-01    0.735E-02
DAV:   3    -0.977668076631E+02    0.80568E-04   -0.24411E-04   132   0.434E-02    0.177E-02
DAV:   4    -0.977668058484E+02    0.18146E-05   -0.40026E-05   120   0.190E-02    0.723E-03
DAV:   5    -0.977668051476E+02    0.70084E-06   -0.30740E-06    96   0.647E-03
 130 F= -.97766805E+02 E0= -.97766805E+02  d E =-.155512E-10
       N       E                     dE             d eps       ncg     rms          rms(c)
DAV:   1    -0.977669348053E+02   -0.12896E-03   -0.52414E-01    96   0.231E+00    0.156E-01
DAV:   2    -0.977668234068E+02    0.11140E-03   -0.19318E-03   108   0.141E-01    0.910E-02
DAV:   3    -0.977667301827E+02    0.93224E-04   -0.37633E-04   120   0.586E-02    0.108E-02
DAV:   4    -0.977667365335E+02   -0.63509E-05   -0.54200E-05   132   0.237E-02    0.677E-03
DAV:   5    -0.977667373886E+02   -0.85512E-06   -0.17918E-06   108   0.466E-03
 131 F= -.97766737E+02 E0= -.97766737E+02  d E =-.155404E-10
       N       E                     dE             d eps       ncg     rms          rms(c)
DAV:   1    -0.977663386782E+02    0.39786E-03   -0.26169E-01    96   0.163E+00    0.110E-01
DAV:   2    -0.977662826021E+02    0.56076E-04   -0.10080E-03   120   0.104E-01    0.641E-02
DAV:   3    -0.977662355588E+02    0.47043E-04   -0.18291E-04   120   0.413E-02    0.803E-03
DAV:   4    -0.977662383129E+02   -0.27541E-05   -0.25494E-05   120   0.166E-02    0.505E-03
DAV:   5    -0.977662387611E+02   -0.44815E-06   -0.95143E-07   108   0.345E-03
 132 F= -.97766239E+02 E0= -.97766239E+02  d E =-.167344E-10
       N       E                     dE             d eps       ncg     rms          rms(c)
DAV:   1    -0.977666015526E+02   -0.36324E-03   -0.52800E-01    96   0.220E+00    0.168E-01
DAV:   2    -0.977664877853E+02    0.11377E-03   -0.23687E-03   108   0.161E-01    0.957E-02
DAV:   3    -0.977663724054E+02    0.11538E-03   -0.40927E-04   132   0.609E-02    0.170E-02
DAV:   4    -0.977663752024E+02   -0.27971E-05   -0.61680E-05   132   0.254E-02    0.949E-03
DAV:   5    -0.977663746396E+02    0.56281E-06   -0.30085E-06   120   0.611E-03
 133 F= -.97766375E+02 E0= -.97766375E+02  d E =-.133425E-10
       N       E                     dE             d eps       ncg     rms          rms(c)
DAV:   1    -0.977662939666E+02    0.81236E-04   -0.27139E-01    96   0.199E+00    0.144E-01
DAV:   2    -0.977662490742E+02    0.44892E-04   -0.19175E-03   120   0.158E-01    0.785E-02
DAV:   3    -0.977661737078E+02    0.75366E-04   -0.18144E-04   108   0.427E-02    0.236E-02
DAV:   4    -0.977661744424E+02   -0.73456E-06   -0.48500E-05   120   0.214E-02    0.661E-03
DAV:   5    -0.977661737802E+02    0.66219E-06   -0.28974E-06   132   0.643E-03
 134 F= -.97766174E+02 E0= -.97766174E+02  d E =-.147399E-10
       N       E                     dE             d eps       ncg     rms          rms(c)
DAV:   1    -0.977665175083E+02   -0.34307E-03   -0.55576E-01    96   0.255E+00    0.233E-01
DAV:   2    -0.977662102452E+02    0.30726E-03   -0.33804E-03   108   0.194E-01    0.121E-01
DAV:   3    -0.977659910610E+02    0.21918E-03   -0.47674E-04   120   0.627E-02    0.379E-02
DAV:   4    -0.977659850411E+02    0.60198E-05   -0.10612E-04   108   0.310E-02    0.117E-02
DAV:   5    -0.977659850753E+02   -0.34146E-07   -0.69590E-06   132   0.105E-02
 135 F= -.97765985E+02 E0= -.97765985E+02  d E =-.145757E-10
       N       E                     dE             d eps       ncg     rms          rms(c)
DAV:   1    -0.977654296547E+02    0.55539E-03   -0.29103E-01    96   0.181E+00    0.209E-01
DAV:   2    -0.977651881586E+02    0.24150E-03   -0.24238E-03   120   0.171E-01    0.103E-01
DAV:   3    -0.977650436709E+02    0.14449E-03   -0.40222E-04   120   0.623E-02    0.355E-02
DAV:   4    -0.977650438988E+02   -0.22791E-06   -0.11392E-04   132   0.326E-02    0.140E-02
DAV:   5    -0.977650423563E+02    0.15425E-05   -0.51754E-06   120   0.941E-03    0.544E-03
DAV:   6    -0.977650425887E+02   -0.23238E-06   -0.28005E-06   132   0.589E-03
 136 F= -.97765043E+02 E0= -.97765043E+02  d E =-.143380E-10
       N       E                     dE             d eps       ncg     rms          rms(c)
DAV:   1    -0.977658721970E+02   -0.82984E-03   -0.57267E-01   108   0.256E+00    0.271E-01
DAV:   2    -0.977653374483E+02    0.53475E-03   -0.45555E-03   120   0.237E-01    0.137E-01
DAV:   3    -0.977650391664E+02    0.29828E-03   -0.79931E-04   132   0.888E-02    0.454E-02
DAV:   4    -0.977650394416E+02   -0.27513E-06   -0.19974E-04   108   0.445E-02    0.201E-02
DAV:   5    -0.977650385398E+02    0.90175E-06   -0.80176E-06   132   0.113E-02
 137 F= -.97765039E+02 E0= -.97765039E+02  d E =-.149527E-10
       N       E                     dE             d eps       ncg     rms          rms(c)
DAV:   1    -0.977666443612E+02   -0.16049E-02   -0.28863E-01    96   0.183E+00    0.208E-01
DAV:   2    -0.977663947726E+02    0.24959E-03   -0.23542E-03   120   0.170E-01    0.101E-01
DAV:   3    -0.977662497986E+02    0.14497E-03   -0.39486E-04   120   0.626E-02    0.352E-02
DAV:   4    -0.977662502208E+02   -0.42221E-06   -0.11383E-04   120   0.328E-02    0.127E-02
DAV:   5    -0.977662494243E+02    0.79650E-06   -0.50663E-06   132   0.906E-03
 138 F= -.97766249E+02 E0= -.97766249E+02  d E =-.147562E-10
       N       E                     dE             d eps       ncg     rms          rms(c)
DAV:   1    -0.977666641335E+02   -0.41391E-03   -0.55356E-01    96   0.253E+00    0.230E-01
DAV:   2    -0.977663551999E+02    0.30893E-03   -0.33588E-03   108   0.195E-01    0.120E-01
DAV:   3    -0.977661498213E+02    0.20538E-03   -0.48370E-04   144   0.658E-02    0.372E-02
DAV:   4    -0.977661499395E+02   -0.11827E-06   -0.10397E-04   132   0.315E-02    0.115E-02
DAV:   5    -0.977661502004E+02   -0.26091E-06   -0.65648E-06   132   0.984E-03
 139 F= -.97766150E+02 E0= -.97766150E+02  d E =-.145301E-10
       N       E                     dE             d eps       ncg     rms          rms(c)
DAV:   1    -0.977660250457E+02    0.12489E-03   -0.27763E-01    96   0.186E+00    0.169E-01
DAV:   2    -0.977659119816E+02    0.11306E-03   -0.18304E-03   120   0.142E-01    0.874E-02
DAV:   3    -0.977658191173E+02    0.92864E-04   -0.24538E-04   120   0.433E-02    0.278E-02
DAV:   4    -0.977658144939E+02    0.46235E-05   -0.38885E-05   120   0.180E-02    0.961E-03
DAV:   5    -0.977658128603E+02    0.16335E-05   -0.26812E-06   108   0.716E-03    0.448E-03
DAV:   6    -0.977658129807E+02   -0.12031E-06   -0.20083E-06   120   0.520E-03
 140 F= -.97765813E+02 E0= -.97765813E+02  d E =-.141796E-10
       N       E                     dE             d eps       ncg     rms          rms(c)
DAV:   1    -0.977664903903E+02   -0.67753E-03   -0.55610E-01    96   0.252E+00    0.245E-01
DAV:   2    -0.977661148371E+02    0.37555E-03   -0.33857E-03   108   0.196E-01    0.124E-01
DAV:   3    -0.977658923249E+02    0.22251E-03   -0.51549E-04   120   0.642E-02    0.398E-02
DAV:   4    -0.977658822160E+02    0.10109E-04   -0.10601E-04   120   0.307E-02    0.126E-02
DAV:   5    -0.977658821029E+02    0.11309E-06   -0.69867E-06   132   0.108E-02
 141 F= -.97765882E+02 E0= -.97765882E+02  d E =-.149763E-10
       N       E                     dE             d eps       ncg     rms          rms(c)
DAV:   1    -0.977652270295E+02    0.65519E-03   -0.27277E-01    96   0.179E+00    0.140E-01
DAV:   2    -0.977650806132E+02    0.14642E-03   -0.14201E-03   120   0.128E-01    0.788E-02
DAV:   3    -0.977649930692E+02    0.87544E-04   -0.27616E-04   108   0.514E-02    0.162E-02
DAV:   4    -0.977649984967E+02   -0.54275E-05   -0.49740E-05   132   0.230E-02    0.834E-03
DAV:   5    -0.977649991729E+02   -0.67615E-06   -0.10868E-06   108   0.435E-03
 142 F= -.97764999E+02 E0= -.97764999E+02  d E =-.143431E-10
       N       E                     dE             d eps       ncg     rms          rms(c)
DAV:   1    -0.977652788562E+02   -0.28036E-03   -0.58025E-01    96   0.258E+00    0.288E-01
DAV:   2    -0.977647278614E+02    0.55099E-03   -0.46770E-03   108   0.243E-01    0.142E-01
DAV:   3    -0.977644177147E+02    0.31015E-03   -0.82419E-04   132   0.915E-02    0.479E-02
DAV:   4    -0.977644166671E+02    0.10476E-05   -0.22443E-04   132   0.466E-02    0.193E-02
DAV:   5    -0.977644141457E+02    0.25214E-05   -0.91963E-06   132   0.123E-02    0.908E-03
DAV:   6    -0.977644142134E+02   -0.67643E-07   -0.53888E-06   132   0.841E-03
 143 F= -.97764414E+02 E0= -.97764414E+02  d E =-.149429E-10
       N       E                     dE             d eps       ncg     rms          rms(c)
DAV:   1    -0.977670368714E+02   -0.26227E-02   -0.28168E-01    96   0.181E+00    0.169E-01
DAV:   2    -0.977668104155E+02    0.22646E-03   -0.18392E-03   120   0.151E-01    0.897E-02
DAV:   3    -0.977666943371E+02    0.11608E-03   -0.35318E-04   120   0.591E-02    0.249E-02
DAV:   4    -0.977666996309E+02   -0.52937E-05   -0.76287E-05   132   0.281E-02    0.115E-02
DAV:   5    -0.977666998037E+02   -0.17281E-06   -0.24947E-06   108   0.634E-03
 144 F= -.97766700E+02 E0= -.97766700E+02  d E =-.160195E-10
       N       E                     dE             d eps       ncg     rms          rms(c)
DAV:   1    -0.977672395067E+02   -0.53988E-03   -0.54316E-01    96   0.252E+00    0.201E-01
DAV:   2    -0.977669561919E+02    0.28331E-03   -0.27698E-03   108   0.173E-01    0.113E-01
DAV:   3    -0.977667771914E+02    0.17900E-03   -0.46983E-04   120   0.666E-02    0.230E-02
DAV:   4    -0.977667836816E+02   -0.64902E-05   -0.75589E-05   132   0.281E-02    0.875E-03
DAV:   5    -0.977667840658E+02   -0.38421E-06   -0.32768E-06   132   0.677E-03
 145 F= -.97766784E+02 E0= -.97766784E+02  d E =-.133404E-10
       N       E                     dE             d eps       ncg     rms          rms(c)
DAV:   1    -0.977659149895E+02    0.86869E-03   -0.27064E-01    96   0.198E+00    0.135E-01
DAV:   2    -0.977658501538E+02    0.64836E-04   -0.18175E-03   120   0.152E-01    0.764E-02
DAV:   3    -0.977657727249E+02    0.77429E-04   -0.23642E-04   120   0.496E-02    0.179E-02
DAV:   4    -0.977657760483E+02   -0.33235E-05   -0.48236E-05   132   0.225E-02    0.712E-03
DAV:   5    -0.977657759046E+02    0.14377E-06   -0.16825E-06    84   0.526E-03
 146 F= -.97765776E+02 E0= -.97765776E+02  d E =-.155787E-10
       N       E                     dE             d eps       ncg     rms          rms(c)
DAV:   1    -0.977663899903E+02   -0.61394E-03   -0.53578E-01   108   0.249E+00    0.179E-01
DAV:   2    -0.977662600163E+02    0.12997E-03   -0.33103E-03   108   0.184E-01    0.101E-01
DAV:   3    -0.977661001539E+02    0.15986E-03   -0.48752E-04   120   0.641E-02    0.204E-02
DAV:   4    -0.977661028591E+02   -0.27051E-05   -0.88868E-05   132   0.289E-02    0.101E-02
DAV:   5    -0.977661018027E+02    0.10563E-05   -0.31898E-06   132   0.611E-03    0.570E-03
DAV:   6    -0.977661027795E+02   -0.97678E-06   -0.25748E-06   132   0.506E-03
 147 F= -.97766103E+02 E0= -.97766103E+02  d E =-.138370E-10
       N       E                     dE             d eps       ncg     rms          rms(c)
DAV:   1    -0.977650697573E+02    0.10320E-02   -0.26406E-01    96   0.172E+00    0.113E-01
DAV:   2    -0.977650052536E+02    0.64504E-04   -0.10389E-03   120   0.101E-01    0.641E-02
DAV:   3    -0.977649456334E+02    0.59620E-04   -0.17247E-04   108   0.378E-02    0.103E-02
DAV:   4    -0.977649482465E+02   -0.26131E-05   -0.25238E-05   132   0.157E-02    0.508E-03
DAV:   5    -0.977649497703E+02   -0.15238E-05   -0.10515E-06    96   0.367E-03    0.289E-03
DAV:   6    -0.977649526394E+02   -0.28691E-05   -0.83263E-07    84   0.302E-03    0.654E-04
DAV:   7    -0.977649549006E+02   -0.22612E-05   -0.25761E-07    96   0.172E-03    0.533E-04
DAV:   8    -0.977649583878E+02   -0.34872E-05   -0.24039E-07    84   0.155E-03    0.272E-04
DAV:   9    -0.977649600063E+02   -0.16185E-05   -0.10587E-07   108   0.874E-04    0.207E-04
DAV:  10    -0.977649619085E+02   -0.19022E-05   -0.62471E-08    84   0.559E-04    0.105E-04
DAV:  11    -0.977649629509E+02   -0.10424E-05   -0.37428E-08    96   0.376E-04    0.764E-05
DAV:  12    -0.977649637392E+02   -0.78835E-06   -0.18223E-08    84   0.286E-04
 148 F= -.97764964E+02 E0= -.97764964E+02  d E =-.145424E-10
       N       E                     dE             d eps       ncg     rms          rms(c)
DAV:   1    -0.977650899643E+02   -0.12701E-03   -0.54260E-01   108   0.249E+00    0.204E-01
DAV:   2    -0.977650068007E+02    0.83164E-04   -0.41224E-03   120   0.199E-01    0.111E-01
DAV:   3    -0.977648105679E+02    0.19623E-03   -0.45429E-04   132   0.579E-02    0.320E-02
DAV:   4    -0.977647976753E+02    0.12893E-04   -0.95719E-05   132   0.269E-02    0.102E-02
DAV:   5    -0.977647951707E+02    0.25046E-05   -0.68767E-06   132   0.997E-03    0.449E-03
DAV:   6    -0.977647980789E+02   -0.29082E-05   -0.40143E-06   132   0.652E-03    0.186E-03
DAV:   7    -0.977648033855E+02   -0.53066E-05   -0.91154E-07   108   0.330E-03    0.110E-03
DAV:   8    -0.977648091422E+02   -0.57567E-05   -0.40105E-07    84   0.213E-03    0.688E-04
DAV:   9    -0.977648157217E+02   -0.65795E-05   -0.41080E-07   108   0.170E-03    0.323E-04
DAV:  10    -0.977648209449E+02   -0.52233E-05   -0.26137E-07    84   0.118E-03    0.207E-04
DAV:  11    -0.977648235216E+02   -0.25767E-05   -0.44034E-08   108   0.545E-04    0.146E-04
DAV:  12    -0.977648263995E+02   -0.28779E-05   -0.65792E-08    84   0.507E-04    0.850E-05
DAV:  13    -0.977648269996E+02   -0.60010E-06   -0.57225E-09   108   0.225E-04
 149 F= -.97764827E+02 E0= -.97764827E+02  d E =-.147054E-10
       N       E                     dE             d eps       ncg     rms          rms(c)
DAV:   1    -0.977668723343E+02   -0.20459E-02   -0.26636E-01    96   0.174E+00    0.127E-01
DAV:   2    -0.977667877587E+02    0.84576E-04   -0.14032E-03   120   0.123E-01    0.716E-02
DAV:   3    -0.977667115346E+02    0.76224E-04   -0.22167E-04   120   0.434E-02    0.138E-02
DAV:   4    -0.977667120607E+02   -0.52615E-06   -0.33305E-05   132   0.181E-02    0.651E-03
DAV:   5    -0.977667126023E+02   -0.54157E-06   -0.18088E-06   120   0.485E-03
 150 F= -.97766713E+02 E0= -.97766713E+02  d E =-.166026E-10
       N       E                     dE             d eps       ncg     rms          rms(c)
DAV:   1    -0.977670736659E+02   -0.36161E-03   -0.52454E-01    96   0.244E+00    0.161E-01
DAV:   2    -0.977669307615E+02    0.14290E-03   -0.19726E-03   108   0.145E-01    0.924E-02
DAV:   3    -0.977668174927E+02    0.11327E-03   -0.36482E-04   120   0.594E-02    0.120E-02
DAV:   4    -0.977668244714E+02   -0.69788E-05   -0.57813E-05   132   0.243E-02    0.705E-03
DAV:   5    -0.977668259520E+02   -0.14806E-05   -0.20923E-06   132   0.485E-03    0.444E-03
DAV:   6    -0.977668297550E+02   -0.38030E-05   -0.13284E-06    84   0.372E-03    0.984E-04
DAV:   7    -0.977668326238E+02   -0.28687E-05   -0.36460E-07   108   0.204E-03    0.809E-04
DAV:   8    -0.977668372106E+02   -0.45868E-05   -0.25301E-07    84   0.197E-03    0.305E-04
DAV:   9    -0.977668397793E+02   -0.25687E-05   -0.19364E-07    96   0.132E-03    0.304E-04
DAV:  10    -0.977668418147E+02   -0.20354E-05   -0.65965E-08    84   0.739E-04    0.157E-04
DAV:  11    -0.977668432905E+02   -0.14758E-05   -0.46957E-08    96   0.478E-04    0.118E-04
DAV:  12    -0.977668440448E+02   -0.75423E-06   -0.16397E-08    84   0.314E-04
 151 F= -.97766844E+02 E0= -.97766844E+02  d E =-.130865E-10
       N       E                     dE             d eps       ncg     rms          rms(c)
DAV:   1    -0.977649055903E+02    0.19377E-02   -0.26684E-01   108   0.176E+00    0.130E-01
DAV:   2    -0.977648436717E+02    0.61919E-04   -0.18384E-03   108   0.139E-01    0.714E-02
DAV:   3    -0.977647625578E+02    0.81114E-04   -0.23177E-04   132   0.471E-02    0.182E-02
DAV:   4    -0.977647636389E+02   -0.10812E-05   -0.53963E-05   132   0.222E-02    0.676E-03
DAV:   5    -0.977647640024E+02   -0.36343E-06   -0.24145E-06   132   0.554E-03
 152 F= -.97764764E+02 E0= -.97764764E+02  d E =-.143418E-10
       N       E                     dE             d eps       ncg     rms          rms(c)
DAV:   1    -0.977648187280E+02   -0.55089E-04   -0.54581E-01   108   0.249E+00    0.204E-01
DAV:   2    -0.977646915622E+02    0.12717E-03   -0.42706E-03   120   0.214E-01    0.114E-01
DAV:   3    -0.977644828955E+02    0.20867E-03   -0.58909E-04   120   0.697E-02    0.272E-02
DAV:   4    -0.977644802649E+02    0.26307E-05   -0.11539E-04   132   0.314E-02    0.114E-02
DAV:   5    -0.977644775662E+02    0.26987E-05   -0.56622E-06   132   0.864E-03    0.557E-03
DAV:   6    -0.977644784307E+02   -0.86454E-06   -0.42103E-06   132   0.696E-03
 153 F= -.97764478E+02 E0= -.97764478E+02  d E =-.151561E-10
       N       E                     dE             d eps       ncg     rms          rms(c)
DAV:   1    -0.977667592386E+02   -0.22817E-02   -0.26956E-01    96   0.175E+00    0.139E-01
DAV:   2    -0.977666988896E+02    0.60349E-04   -0.18471E-03   108   0.136E-01    0.765E-02
DAV:   3    -0.977666193012E+02    0.79588E-04   -0.22887E-04   108   0.401E-02    0.201E-02
DAV:   4    -0.977666167200E+02    0.25813E-05   -0.36176E-05   120   0.176E-02    0.720E-03
DAV:   5    -0.977666155625E+02    0.11574E-05   -0.32515E-06   120   0.643E-03    0.295E-03
DAV:   6    -0.977666166918E+02   -0.11293E-05   -0.15417E-06   132   0.381E-03    0.108E-03
DAV:   7    -0.977666189323E+02   -0.22405E-05   -0.26341E-07    84   0.177E-03    0.572E-04
DAV:   8    -0.977666210189E+02   -0.20866E-05   -0.10134E-07    96   0.114E-03    0.331E-04
DAV:   9    -0.977666235365E+02   -0.25176E-05   -0.13529E-07    84   0.981E-04    0.167E-04
DAV:  10    -0.977666252741E+02   -0.17376E-05   -0.91343E-08    96   0.713E-04    0.108E-04
DAV:  11    -0.977666259425E+02   -0.66842E-06   -0.12474E-08   108   0.319E-04
 154 F= -.97766626E+02 E0= -.97766626E+02  d E =-.146909E-10
       N       E                     dE             d eps       ncg     rms          rms(c)
DAV:   1    -0.977670529149E+02   -0.42764E-03   -0.53182E-01    96   0.246E+00    0.161E-01
DAV:   2    -0.977669269279E+02    0.12599E-03   -0.21118E-03   120   0.144E-01    0.924E-02
DAV:   3    -0.977668100584E+02    0.11687E-03   -0.36083E-04   132   0.539E-02    0.144E-02
DAV:   4    -0.977668126634E+02   -0.26050E-05   -0.52478E-05   132   0.226E-02    0.728E-03
DAV:   5    -0.977668122948E+02    0.36856E-06   -0.20225E-06   132   0.497E-03
 155 F= -.97766812E+02 E0= -.97766812E+02  d E =-.147882E-10
       N       E                     dE             d eps       ncg     rms          rms(c)
DAV:   1    -0.977662681031E+02    0.54456E-03   -0.26439E-01    96   0.173E+00    0.116E-01
DAV:   2    -0.977661960460E+02    0.72057E-04   -0.10600E-03   120   0.107E-01    0.669E-02
DAV:   3    -0.977661431673E+02    0.52879E-04   -0.20138E-04   120   0.443E-02    0.875E-03
DAV:   4    -0.977661479164E+02   -0.47492E-05   -0.34638E-05   132   0.187E-02    0.565E-03
DAV:   5    -0.977661487375E+02   -0.82108E-06   -0.85645E-07   108   0.342E-03
 156 F= -.97766149E+02 E0= -.97766149E+02  d E =-.167188E-10
       N       E                     dE             d eps       ncg     rms          rms(c)
DAV:   1    -0.977666414151E+02   -0.49350E-03   -0.52595E-01    96   0.246E+00    0.174E-01
DAV:   2    -0.977665066888E+02    0.13473E-03   -0.25043E-03   108   0.162E-01    0.974E-02
DAV:   3    -0.977663739460E+02    0.13274E-03   -0.38333E-04   120   0.572E-02    0.196E-02
DAV:   4    -0.977663741965E+02   -0.25047E-06   -0.56381E-05   132   0.233E-02    0.850E-03
DAV:   5    -0.977663742711E+02   -0.74622E-07   -0.39345E-06   132   0.676E-03
 157 F= -.97766374E+02 E0= -.97766374E+02  d E =-.129401E-10
