       N       E                     dE             d eps       ncg     rms          rms(c)
DAV:   1     0.250292041153E+03    0.25029E+03   -0.10121E+04   120   0.484E+02
DAV:   2    -0.193885642332E+02   -0.26968E+03   -0.25600E+03   156   0.919E+01
DAV:   3    -0.998700410440E+02   -0.80481E+02   -0.80256E+02   120   0.560E+01
DAV:   4    -0.103773826461E+03   -0.39038E+01   -0.38904E+01   120   0.176E+01
DAV:   5    -0.103841867292E+03   -0.68041E-01   -0.67978E-01   156   0.255E+00    0.145E+01
DAV:   6    -0.100566744915E+03    0.32751E+01   -0.15399E+00   120   0.427E+00    0.832E+00
DAV:   7    -0.989253634826E+02    0.16414E+01   -0.40465E+00   120   0.617E+00    0.127E+00
DAV:   8    -0.988664486872E+02    0.58915E-01   -0.33106E-01   132   0.218E+00    0.670E-01
DAV:   9    -0.988314143658E+02    0.35034E-01   -0.61206E-02   144   0.660E-01    0.352E-01
DAV:  10    -0.988301802588E+02    0.12341E-02   -0.29924E-03   132   0.178E-01    0.146E-01
DAV:  11    -0.988292933526E+02    0.88691E-03   -0.62569E-03   120   0.216E-01    0.109E-01
DAV:  12    -0.988352378310E+02   -0.59445E-02   -0.16324E-03   120   0.108E-01    0.566E-02
DAV:  13    -0.988388402454E+02   -0.36024E-02   -0.18355E-03   120   0.116E-01    0.479E-02
DAV:  14    -0.988416570212E+02   -0.28168E-02   -0.21095E-04   144   0.497E-02    0.226E-02
DAV:  15    -0.988463053239E+02   -0.46483E-02   -0.53361E-04    96   0.589E-02    0.146E-02
DAV:  16    -0.988481906412E+02   -0.18853E-02   -0.16152E-04   132   0.350E-02    0.805E-03
DAV:  17    -0.988490196229E+02   -0.82898E-03   -0.56039E-05   132   0.170E-02    0.543E-03
DAV:  18    -0.988493655671E+02   -0.34594E-03   -0.10918E-05   132   0.775E-03    0.164E-03
DAV:  19    -0.988495672473E+02   -0.20168E-03   -0.83263E-06   108   0.638E-03    0.201E-03
DAV:  20    -0.988496229220E+02   -0.55675E-04   -0.96350E-07   108   0.289E-03    0.727E-04
DAV:  21    -0.988496456549E+02   -0.22733E-04   -0.53153E-07    84   0.184E-03    0.554E-04
DAV:  22    -0.988496596754E+02   -0.14020E-04   -0.29642E-07    96   0.130E-03    0.259E-04
DAV:  23    -0.988496630202E+02   -0.33448E-05   -0.66851E-08    96   0.576E-04    0.151E-04
DAV:  24    -0.988496669184E+02   -0.38982E-05   -0.56749E-08    84   0.528E-04    0.104E-04
DAV:  25    -0.988496676435E+02   -0.72512E-06   -0.75854E-09    96   0.279E-04
   1 F= -.98849668E+02 E0= -.98849668E+02  d E =-.783041E-11
       N       E                     dE             d eps       ncg     rms          rms(c)
DAV:   1    -0.988463023924E+02    0.33645E-02   -0.84036E-02    96   0.799E-01    0.930E-02
DAV:   2    -0.988466788669E+02   -0.37647E-03   -0.39487E-03   120   0.197E-01    0.506E-02
DAV:   3    -0.988466767300E+02    0.21368E-05   -0.11435E-04   132   0.405E-02    0.238E-02
DAV:   4    -0.988466796435E+02   -0.29134E-05   -0.25865E-05   108   0.198E-02    0.677E-03
DAV:   5    -0.988466785819E+02    0.10616E-05   -0.48807E-06   132   0.881E-03    0.320E-03
DAV:   6    -0.988466791603E+02   -0.57845E-06   -0.15205E-06   108   0.415E-03
   2 F= -.98846679E+02 E0= -.98846679E+02  d E =-.804738E-11
       N       E                     dE             d eps       ncg     rms          rms(c)
DAV:   1    -0.988452119053E+02    0.14667E-02   -0.33478E-01    96   0.161E+00    0.192E-01
DAV:   2    -0.988467049849E+02   -0.14931E-02   -0.15550E-02   120   0.387E-01    0.101E-01
DAV:   3    -0.988467081521E+02   -0.31672E-05   -0.46703E-04   120   0.801E-02    0.510E-02
DAV:   4    -0.988467242035E+02   -0.16051E-04   -0.97025E-05   108   0.394E-02    0.138E-02
DAV:   5    -0.988467204749E+02    0.37287E-05   -0.21054E-05   132   0.183E-02    0.689E-03
DAV:   6    -0.988467209207E+02   -0.44586E-06   -0.62289E-06   132   0.828E-03
   3 F= -.98846721E+02 E0= -.98846721E+02  d E =-.797026E-11
       N       E                     dE             d eps       ncg     rms          rms(c)
DAV:   1    -0.988460497796E+02    0.67070E-03   -0.16560E-01    96   0.113E+00    0.133E-01
DAV:   2    -0.988467352257E+02   -0.68545E-03   -0.71309E-03   132   0.266E-01    0.700E-02
DAV:   3    -0.988467448087E+02   -0.95829E-05   -0.22643E-04   120   0.560E-02    0.338E-02
DAV:   4    -0.988467568192E+02   -0.12011E-04   -0.44544E-05   108   0.265E-02    0.924E-03
DAV:   5    -0.988467563777E+02    0.44150E-06   -0.86052E-06   120   0.117E-02
   4 F= -.98846756E+02 E0= -.98846756E+02  d E =-.819918E-11
       N       E                     dE             d eps       ncg     rms          rms(c)
DAV:   1    -0.988450668165E+02    0.16900E-02   -0.32976E-01    96   0.160E+00    0.190E-01
DAV:   2    -0.988465577797E+02   -0.14910E-02   -0.15457E-02   108   0.396E-01    0.104E-01
DAV:   3    -0.988465563469E+02    0.14328E-05   -0.44911E-04   108   0.799E-02    0.533E-02
DAV:   4    -0.988465720503E+02   -0.15703E-04   -0.10564E-04   120   0.407E-02    0.133E-02
DAV:   5    -0.988465671764E+02    0.48739E-05   -0.23448E-05   120   0.187E-02    0.646E-03
DAV:   6    -0.988465674045E+02   -0.22815E-06   -0.58578E-06   132   0.779E-03
   5 F= -.98846567E+02 E0= -.98846567E+02  d E =-.815092E-11
       N       E                     dE             d eps       ncg     rms          rms(c)
DAV:   1    -0.988443469346E+02    0.22202E-02   -0.16706E-01    96   0.113E+00    0.144E-01
DAV:   2    -0.988452799589E+02   -0.93302E-03   -0.96714E-03   132   0.307E-01    0.887E-02
DAV:   3    -0.988452600222E+02    0.19937E-04   -0.25850E-04   120   0.605E-02    0.488E-02
DAV:   4    -0.988452677012E+02   -0.76790E-05   -0.89503E-05   120   0.342E-02    0.108E-02
DAV:   5    -0.988452670288E+02    0.67241E-06   -0.18256E-05   120   0.152E-02    0.618E-03
DAV:   6    -0.988452691595E+02   -0.21306E-05   -0.34106E-06   120   0.572E-03    0.374E-03
DAV:   7    -0.988452748977E+02   -0.57382E-05   -0.49551E-07    84   0.234E-03    0.143E-03
DAV:   8    -0.988452812267E+02   -0.63290E-05   -0.46778E-07   108   0.190E-03    0.626E-04
DAV:   9    -0.988452881900E+02   -0.69632E-05   -0.40374E-07    84   0.169E-03    0.513E-04
DAV:  10    -0.988452944940E+02   -0.63040E-05   -0.53311E-07   108   0.150E-03    0.323E-04
DAV:  11    -0.988452965302E+02   -0.20362E-05   -0.54761E-08   108   0.718E-04    0.206E-04
DAV:  12    -0.988452984361E+02   -0.19059E-05   -0.55956E-08    84   0.529E-04    0.926E-05
DAV:  13    -0.988452995428E+02   -0.11067E-05   -0.20487E-08   108   0.322E-04    0.887E-05
DAV:  14    -0.988453002579E+02   -0.71507E-06   -0.74828E-09    84   0.223E-04
   6 F= -.98845300E+02 E0= -.98845300E+02  d E =-.965275E-11
       N       E                     dE             d eps       ncg     rms          rms(c)
DAV:   1    -0.988431770642E+02    0.21225E-02   -0.33998E-01    96   0.156E+00    0.242E-01
DAV:   2    -0.988453606571E+02   -0.21836E-02   -0.23527E-02   120   0.460E-01    0.164E-01
DAV:   3    -0.988452204126E+02    0.14024E-03   -0.66746E-04   132   0.977E-02    0.821E-02
DAV:   4    -0.988452211022E+02   -0.68962E-06   -0.37820E-04   132   0.634E-02    0.156E-02
DAV:   5    -0.988452112541E+02    0.98481E-05   -0.56145E-05   120   0.253E-02    0.111E-02
DAV:   6    -0.988452124478E+02   -0.11937E-05   -0.12211E-05   120   0.864E-03    0.659E-03
DAV:   7    -0.988452255710E+02   -0.13123E-04   -0.10666E-06   120   0.327E-03    0.289E-03
DAV:   8    -0.988452481228E+02   -0.22552E-04   -0.20810E-06   108   0.404E-03    0.128E-03
DAV:   9    -0.988452637579E+02   -0.15635E-04   -0.10262E-06   108   0.225E-03    0.151E-03
DAV:  10    -0.988452869370E+02   -0.23179E-04   -0.14040E-06   108   0.240E-03    0.635E-04
DAV:  11    -0.988452907362E+02   -0.37992E-05   -0.79524E-08   120   0.842E-04    0.379E-04
DAV:  12    -0.988452996322E+02   -0.88959E-05   -0.26904E-07    84   0.110E-03    0.284E-04
DAV:  13    -0.988453018963E+02   -0.22641E-05   -0.55691E-08   108   0.510E-04    0.219E-04
DAV:  14    -0.988453040773E+02   -0.21810E-05   -0.21388E-08    84   0.391E-04    0.654E-05
DAV:  15    -0.988453049937E+02   -0.91643E-06   -0.96041E-09    96   0.260E-04
   7 F= -.98845305E+02 E0= -.98845305E+02  d E =-.704683E-11
       N       E                     dE             d eps       ncg     rms          rms(c)
DAV:   1    -0.988436804275E+02    0.16236E-02   -0.16830E-01    96   0.129E+00    0.159E-01
DAV:   2    -0.988450782227E+02   -0.13978E-02   -0.14588E-02   132   0.404E-01    0.122E-01
DAV:   3    -0.988450039582E+02    0.74264E-04   -0.32384E-04   156   0.715E-02    0.713E-02
DAV:   4    -0.988449873397E+02    0.16619E-04   -0.19904E-04   120   0.556E-02    0.121E-02
DAV:   5    -0.988449840380E+02    0.33017E-05   -0.55962E-05   132   0.264E-02    0.857E-03
DAV:   6    -0.988449821245E+02    0.19135E-05   -0.65053E-06   120   0.851E-03    0.568E-03
DAV:   7    -0.988449921746E+02   -0.10050E-04   -0.30675E-06   108   0.644E-03    0.221E-03
DAV:   8    -0.988450079941E+02   -0.15820E-04   -0.13529E-06   108   0.444E-03    0.112E-03
DAV:   9    -0.988450206715E+02   -0.12677E-04   -0.74518E-07    96   0.260E-03    0.139E-03
DAV:  10    -0.988450355064E+02   -0.14835E-04   -0.98025E-07    96   0.200E-03    0.486E-04
DAV:  11    -0.988450403558E+02   -0.48493E-05   -0.15181E-07   108   0.898E-04    0.320E-04
DAV:  12    -0.988450456758E+02   -0.53200E-05   -0.16887E-07    84   0.859E-04    0.144E-04
DAV:  13    -0.988450476393E+02   -0.19635E-05   -0.47506E-08   108   0.507E-04    0.118E-04
DAV:  14    -0.988450492198E+02   -0.15805E-05   -0.16759E-08    84   0.343E-04    0.728E-05
DAV:  15    -0.988450497820E+02   -0.56223E-06   -0.26608E-09    96   0.196E-04
   8 F= -.98845050E+02 E0= -.98845050E+02  d E =-.599963E-11
       N       E                     dE             d eps       ncg     rms          rms(c)
DAV:   1    -0.988434495382E+02    0.15997E-02   -0.34536E-01    96   0.181E+00    0.229E-01
DAV:   2    -0.988455598161E+02   -0.21103E-02   -0.21706E-02   132   0.507E-01    0.161E-01
DAV:   3    -0.988454879115E+02    0.71905E-04   -0.49695E-04   132   0.898E-02    0.861E-02
DAV:   4    -0.988454635649E+02    0.24347E-04   -0.24800E-04   132   0.584E-02    0.148E-02
DAV:   5    -0.988454629467E+02    0.61817E-06   -0.38058E-05   132   0.233E-02    0.104E-02
DAV:   6    -0.988454763991E+02   -0.13452E-04   -0.14370E-05   132   0.125E-02    0.587E-03
DAV:   7    -0.988455065124E+02   -0.30113E-04   -0.45381E-06   120   0.730E-03    0.227E-03
DAV:   8    -0.988455419829E+02   -0.35470E-04   -0.31608E-06   108   0.527E-03    0.133E-03
DAV:   9    -0.988455764277E+02   -0.34445E-04   -0.40994E-06   120   0.475E-03    0.121E-03
DAV:  10    -0.988455962231E+02   -0.19795E-04   -0.16258E-06    96   0.293E-03    0.532E-04
DAV:  11    -0.988456045536E+02   -0.83305E-05   -0.41183E-07   108   0.144E-03    0.335E-04
DAV:  12    -0.988456100272E+02   -0.54736E-05   -0.27495E-07    84   0.106E-03    0.186E-04
DAV:  13    -0.988456122364E+02   -0.22092E-05   -0.57424E-08   108   0.541E-04    0.883E-05
DAV:  14    -0.988456135565E+02   -0.13201E-05   -0.20279E-08    84   0.372E-04    0.477E-05
DAV:  15    -0.988456140684E+02   -0.51191E-06   -0.11565E-09   108   0.195E-04
   9 F= -.98845614E+02 E0= -.98845614E+02  d E =-.109210E-10
       N       E                     dE             d eps       ncg     rms          rms(c)
DAV:   1    -0.988455851441E+02    0.28412E-04   -0.16805E-01    96   0.125E+00    0.151E-01
DAV:   2    -0.988465994288E+02   -0.10143E-02   -0.10342E-02   108   0.346E-01    0.102E-01
DAV:   3    -0.988465749311E+02    0.24498E-04   -0.24109E-04   132   0.626E-02    0.530E-02
DAV:   4    -0.988465742337E+02    0.69734E-06   -0.11481E-04   132   0.422E-02    0.103E-02
DAV:   5    -0.988465698415E+02    0.43922E-05   -0.24519E-05   132   0.190E-02    0.673E-03
DAV:   6    -0.988465693013E+02    0.54020E-06   -0.54194E-06   120   0.749E-03
  10 F= -.98846569E+02 E0= -.98846569E+02  d E =-.568410E-11
       N       E                     dE             d eps       ncg     rms          rms(c)
DAV:   1    -0.988449767490E+02    0.15931E-02   -0.33417E-01    96   0.170E+00    0.194E-01
DAV:   2    -0.988466223667E+02   -0.16456E-02   -0.16542E-02   132   0.420E-01    0.112E-01
DAV:   3    -0.988466533927E+02   -0.31026E-04   -0.45725E-04   120   0.822E-02    0.569E-02
DAV:   4    -0.988466852484E+02   -0.31856E-04   -0.12487E-04   132   0.484E-02    0.125E-02
DAV:   5    -0.988466855024E+02   -0.25407E-06   -0.33938E-05   132   0.219E-02    0.821E-03
DAV:   6    -0.988466871791E+02   -0.16767E-05   -0.58577E-06   132   0.777E-03    0.450E-03
DAV:   7    -0.988466911371E+02   -0.39580E-05   -0.69061E-07   108   0.352E-03    0.195E-03
DAV:   8    -0.988466969596E+02   -0.58225E-05   -0.74934E-07    84   0.347E-03    0.913E-04
DAV:   9    -0.988467038566E+02   -0.68970E-05   -0.45221E-07   108   0.258E-03    0.586E-04
DAV:  10    -0.988467095531E+02   -0.56965E-05   -0.33971E-07    84   0.193E-03    0.317E-04
DAV:  11    -0.988467124233E+02   -0.28703E-05   -0.10893E-07   108   0.110E-03    0.260E-04
DAV:  12    -0.988467152544E+02   -0.28311E-05   -0.68559E-08    84   0.671E-04    0.128E-04
DAV:  13    -0.988467167544E+02   -0.15000E-05   -0.35612E-08    96   0.427E-04    0.118E-04
DAV:  14    -0.988467179409E+02   -0.11865E-05   -0.19300E-08    84   0.316E-04    0.367E-05
DAV:  15    -0.988467184173E+02   -0.47640E-06   -0.25780E-09    96   0.196E-04
  11 F= -.98846718E+02 E0= -.98846718E+02  d E =-.126018E-10
       N       E                     dE             d eps       ncg     rms          rms(c)
DAV:   1    -0.988440357617E+02    0.26822E-02   -0.16946E-01    96   0.124E+00    0.146E-01
DAV:   2    -0.988450032934E+02   -0.96753E-03   -0.98274E-03   132   0.337E-01    0.959E-02
DAV:   3    -0.988449896548E+02    0.13639E-04   -0.24753E-04   132   0.627E-02    0.506E-02
DAV:   4    -0.988449970220E+02   -0.73673E-05   -0.11104E-04   132   0.435E-02    0.101E-02
DAV:   5    -0.988449943274E+02    0.26946E-05   -0.30972E-05   132   0.205E-02    0.785E-03
DAV:   6    -0.988449931803E+02    0.11471E-05   -0.51846E-06   132   0.734E-03    0.465E-03
DAV:   7    -0.988449958347E+02   -0.26544E-05   -0.11389E-06   108   0.422E-03    0.198E-03
DAV:   8    -0.988450015950E+02   -0.57603E-05   -0.68865E-07    84   0.316E-03    0.724E-04
DAV:   9    -0.988450084923E+02   -0.68973E-05   -0.54803E-07    96   0.233E-03    0.866E-04
DAV:  10    -0.988450163867E+02   -0.78943E-05   -0.42635E-07    84   0.180E-03    0.288E-04
DAV:  11    -0.988450197221E+02   -0.33354E-05   -0.12220E-07   108   0.933E-04    0.183E-04
DAV:  12    -0.988450229206E+02   -0.31984E-05   -0.84432E-08    84   0.651E-04    0.129E-04
DAV:  13    -0.988450240540E+02   -0.11335E-05   -0.19533E-08    96   0.350E-04    0.100E-04
DAV:  14    -0.988450252347E+02   -0.11807E-05   -0.14331E-08    84   0.283E-04    0.397E-05
DAV:  15    -0.988450255475E+02   -0.31274E-06    0.23330E-09   108   0.140E-04
  12 F= -.98845026E+02 E0= -.98845026E+02  d E =-.864115E-11
       N       E                     dE             d eps       ncg     rms          rms(c)
DAV:   1    -0.988422094024E+02    0.28158E-02   -0.35085E-01    96   0.180E+00    0.242E-01
DAV:   2    -0.988449138628E+02   -0.27045E-02   -0.27423E-02   132   0.576E-01    0.180E-01
DAV:   3    -0.988447927580E+02    0.12110E-03   -0.57358E-04   156   0.987E-02    0.104E-01
DAV:   4    -0.988447785331E+02    0.14225E-04   -0.43140E-04   120   0.803E-02    0.166E-02
DAV:   5    -0.988447741679E+02    0.43651E-05   -0.11526E-04   132   0.382E-02    0.127E-02
DAV:   6    -0.988447773101E+02   -0.31421E-05   -0.20624E-05   120   0.135E-02    0.796E-03
DAV:   7    -0.988448001856E+02   -0.22876E-04   -0.52613E-06   132   0.739E-03    0.318E-03
DAV:   8    -0.988448343069E+02   -0.34121E-04   -0.36757E-06   120   0.508E-03    0.127E-03
DAV:   9    -0.988448642618E+02   -0.29955E-04   -0.33029E-06   132   0.398E-03    0.165E-03
DAV:  10    -0.988448843496E+02   -0.20088E-04   -0.15503E-06   120   0.282E-03    0.622E-04
DAV:  11    -0.988448938920E+02   -0.95425E-05   -0.56246E-07    96   0.161E-03    0.361E-04
DAV:  12    -0.988448988062E+02   -0.49141E-05   -0.24065E-07    96   0.101E-03    0.235E-04
DAV:  13    -0.988449014508E+02   -0.26446E-05   -0.86079E-08    84   0.615E-04    0.126E-04
DAV:  14    -0.988449027019E+02   -0.12511E-05   -0.18086E-08    96   0.348E-04    0.496E-05
DAV:  15    -0.988449032916E+02   -0.58970E-06   -0.49783E-09    84   0.216E-04
  13 F= -.98844903E+02 E0= -.98844903E+02  d E =-.780571E-11
       N       E                     dE             d eps       ncg     rms          rms(c)
DAV:   1    -0.988452571835E+02   -0.35448E-03   -0.17035E-01    96   0.127E+00    0.154E-01
DAV:   2    -0.988465114235E+02   -0.12542E-02   -0.12900E-02   108   0.389E-01    0.110E-01
DAV:   3    -0.988464689834E+02    0.42440E-04   -0.29707E-04   144   0.693E-02    0.640E-02
DAV:   4    -0.988464568807E+02    0.12103E-04   -0.17035E-04   132   0.538E-02    0.114E-02
DAV:   5    -0.988464532543E+02    0.36264E-05   -0.56024E-05   132   0.274E-02    0.884E-03
DAV:   6    -0.988464511252E+02    0.21291E-05   -0.68834E-06   120   0.836E-03    0.570E-03
DAV:   7    -0.988464570576E+02   -0.59325E-05   -0.21478E-06   120   0.566E-03    0.239E-03
DAV:   8    -0.988464698179E+02   -0.12760E-04   -0.15367E-06   108   0.480E-03    0.115E-03
DAV:   9    -0.988464827337E+02   -0.12916E-04   -0.99933E-07   108   0.310E-03    0.139E-03
DAV:  10    -0.988464936317E+02   -0.10898E-04   -0.50381E-07    84   0.189E-03    0.513E-04
DAV:  11    -0.988465006102E+02   -0.69786E-05   -0.32992E-07    96   0.128E-03    0.258E-04
DAV:  12    -0.988465058022E+02   -0.51920E-05   -0.16265E-07    84   0.851E-04    0.177E-04
DAV:  13    -0.988465081036E+02   -0.23014E-05   -0.68711E-08   108   0.508E-04    0.146E-04
DAV:  14    -0.988465097393E+02   -0.16357E-05   -0.23935E-08    84   0.370E-04    0.646E-05
DAV:  15    -0.988465103178E+02   -0.57851E-06   -0.50694E-09   108   0.213E-04
  14 F= -.98846510E+02 E0= -.98846510E+02  d E =-.134354E-10
       N       E                     dE             d eps       ncg     rms          rms(c)
DAV:   1    -0.988444632266E+02    0.20465E-02   -0.33550E-01    96   0.172E+00    0.201E-01
DAV:   2    -0.988462435705E+02   -0.17803E-02   -0.18028E-02   132   0.449E-01    0.125E-01
DAV:   3    -0.988462342914E+02    0.92791E-05   -0.47501E-04   132   0.857E-02    0.637E-02
DAV:   4    -0.988462486666E+02   -0.14375E-04   -0.16771E-04   132   0.544E-02    0.131E-02
DAV:   5    -0.988462437614E+02    0.49051E-05   -0.44351E-05   132   0.251E-02    0.900E-03
DAV:   6    -0.988462436150E+02    0.14647E-06   -0.82193E-06   132   0.918E-03
  15 F= -.98846244E+02 E0= -.98846244E+02  d E =-.533630E-11
       N       E                     dE             d eps       ncg     rms          rms(c)
DAV:   1    -0.988446676554E+02    0.15761E-02   -0.17054E-01    96   0.128E+00    0.156E-01
DAV:   2    -0.988457773156E+02   -0.11097E-02   -0.11072E-02   132   0.361E-01    0.112E-01
DAV:   3    -0.988457664837E+02    0.10832E-04   -0.24311E-04   132   0.631E-02    0.608E-02
DAV:   4    -0.988457685787E+02   -0.20950E-05   -0.13567E-04   108   0.438E-02    0.106E-02
DAV:   5    -0.988457651293E+02    0.34494E-05   -0.23933E-05   132   0.185E-02    0.744E-03
DAV:   6    -0.988457657696E+02   -0.64032E-06   -0.65674E-06   108   0.840E-03
  16 F= -.98845766E+02 E0= -.98845766E+02  d E =-.930028E-11
       N       E                     dE             d eps       ncg     rms          rms(c)
DAV:   1    -0.988432290002E+02    0.25361E-02   -0.33704E-01    96   0.182E+00    0.221E-01
DAV:   2    -0.988453871406E+02   -0.21581E-02   -0.21712E-02   132   0.502E-01    0.153E-01
DAV:   3    -0.988453464117E+02    0.40729E-04   -0.46922E-04   108   0.859E-02    0.790E-02
DAV:   4    -0.988453466063E+02   -0.19456E-06   -0.23737E-04   120   0.575E-02    0.144E-02
DAV:   5    -0.988453341903E+02    0.12416E-04   -0.41622E-05   132   0.244E-02    0.961E-03
DAV:   6    -0.988453295843E+02    0.46060E-05   -0.94691E-06   132   0.101E-02    0.586E-03
DAV:   7    -0.988453348533E+02   -0.52690E-05   -0.24027E-06   108   0.640E-03    0.223E-03
DAV:   8    -0.988453454056E+02   -0.10552E-04   -0.15630E-06   120   0.538E-03    0.140E-03
DAV:   9    -0.988453591800E+02   -0.13774E-04   -0.11873E-06    96   0.327E-03    0.128E-03
DAV:  10    -0.988453718597E+02   -0.12680E-04   -0.63517E-07    96   0.182E-03    0.427E-04
DAV:  11    -0.988453792093E+02   -0.73496E-05   -0.28108E-07    84   0.109E-03    0.300E-04
DAV:  12    -0.988453865625E+02   -0.73532E-05   -0.20427E-07    96   0.936E-04    0.148E-04
DAV:  13    -0.988453894394E+02   -0.28769E-05   -0.75217E-08   108   0.543E-04    0.124E-04
DAV:  14    -0.988453913997E+02   -0.19603E-05   -0.19295E-08    84   0.352E-04    0.645E-05
DAV:  15    -0.988453922930E+02   -0.89325E-06   -0.69718E-09    96   0.228E-04
  17 F= -.98845392E+02 E0= -.98845392E+02  d E =-.698451E-11
       N       E                     dE             d eps       ncg     rms          rms(c)
DAV:   1    -0.988438120225E+02    0.15794E-02   -0.17524E-01    96   0.126E+00    0.169E-01
DAV:   2    -0.988450401235E+02   -0.12281E-02   -0.12467E-02   108   0.377E-01    0.123E-01
DAV:   3    -0.988449764117E+02    0.63712E-04   -0.27685E-04   132   0.696E-02    0.651E-02
DAV:   4    -0.988449774930E+02   -0.10813E-05   -0.21653E-04   108   0.556E-02    0.124E-02
DAV:   5    -0.988449729425E+02    0.45505E-05   -0.49728E-05   132   0.254E-02    0.896E-03
DAV:   6    -0.988449737726E+02   -0.83005E-06   -0.96988E-06   132   0.856E-03
  18 F= -.98844974E+02 E0= -.98844974E+02  d E =-.873236E-11
       N       E                     dE             d eps       ncg     rms          rms(c)
DAV:   1    -0.988421399336E+02    0.28330E-02   -0.35135E-01    96   0.180E+00    0.242E-01
DAV:   2    -0.988448784506E+02   -0.27385E-02   -0.27443E-02   132   0.576E-01    0.181E-01
DAV:   3    -0.988447779345E+02    0.10052E-03   -0.57365E-04   156   0.990E-02    0.104E-01
DAV:   4    -0.988447827557E+02   -0.48211E-05   -0.44249E-04   108   0.810E-02    0.166E-02
DAV:   5    -0.988447780336E+02    0.47220E-05   -0.11689E-04   132   0.385E-02    0.127E-02
DAV:   6    -0.988447782223E+02   -0.18865E-06   -0.20095E-05   108   0.133E-02    0.801E-03
DAV:   7    -0.988447954022E+02   -0.17180E-04   -0.49465E-06   132   0.725E-03    0.318E-03
DAV:   8    -0.988448206871E+02   -0.25285E-04   -0.28908E-06   120   0.467E-03    0.117E-03
DAV:   9    -0.988448437955E+02   -0.23108E-04   -0.26480E-06   132   0.364E-03    0.151E-03
DAV:  10    -0.988448594671E+02   -0.15672E-04   -0.11962E-06    96   0.249E-03    0.638E-04
DAV:  11    -0.988448679023E+02   -0.84352E-05   -0.56848E-07    96   0.160E-03    0.329E-04
DAV:  12    -0.988448724880E+02   -0.45857E-05   -0.26290E-07    84   0.104E-03    0.220E-04
DAV:  13    -0.988448744614E+02   -0.19735E-05   -0.62124E-08    96   0.542E-04    0.124E-04
DAV:  14    -0.988448756088E+02   -0.11474E-05   -0.18685E-08    96   0.349E-04    0.494E-05
DAV:  15    -0.988448761463E+02   -0.53742E-06   -0.47753E-09    96   0.213E-04
  19 F= -.98844876E+02 E0= -.98844876E+02  d E =-.775389E-11
       N       E                     dE             d eps       ncg     rms          rms(c)
DAV:   1    -0.988447548966E+02    0.12071E-03   -0.18639E-01    96   0.136E+00    0.167E-01
DAV:   2    -0.988460376944E+02   -0.12828E-02   -0.13875E-02   120   0.401E-01    0.109E-01
DAV:   3    -0.988459784431E+02    0.59251E-04   -0.26892E-04   144   0.662E-02    0.631E-02
DAV:   4    -0.988459546320E+02    0.23811E-04   -0.15946E-04   108   0.504E-02    0.112E-02
DAV:   5    -0.988459497172E+02    0.49148E-05   -0.42584E-05   132   0.238E-02    0.761E-03
DAV:   6    -0.988459476855E+02    0.20317E-05   -0.57308E-06   120   0.823E-03    0.479E-03
DAV:   7    -0.988459567219E+02   -0.90365E-05   -0.24294E-06   132   0.530E-03    0.195E-03
DAV:   8    -0.988459731860E+02   -0.16464E-04   -0.10250E-06    96   0.338E-03    0.857E-04
DAV:   9    -0.988459889872E+02   -0.15801E-04   -0.11904E-06   108   0.281E-03    0.117E-03
DAV:  10    -0.988460032062E+02   -0.14219E-04   -0.76070E-07    84   0.212E-03    0.299E-04
DAV:  11    -0.988460075888E+02   -0.43826E-05   -0.22725E-07    96   0.979E-04    0.241E-04
DAV:  12    -0.988460114259E+02   -0.38372E-05   -0.92290E-08    84   0.700E-04    0.112E-04
DAV:  13    -0.988460140780E+02   -0.26521E-05   -0.80807E-08    96   0.576E-04    0.950E-05
DAV:  14    -0.988460155264E+02   -0.14484E-05   -0.21489E-08    84   0.328E-04    0.419E-05
DAV:  15    -0.988460161042E+02   -0.57782E-06   -0.19084E-09    96   0.199E-04
  20 F= -.98846016E+02 E0= -.98846016E+02  d E =-.872198E-11
       N       E                     dE             d eps       ncg     rms          rms(c)
DAV:   1    -0.988445726708E+02    0.14429E-02   -0.40036E-01    96   0.184E+00    0.217E-01
DAV:   2    -0.988460703626E+02   -0.14977E-02   -0.18352E-02   108   0.444E-01    0.111E-01
DAV:   3    -0.988459835778E+02    0.86785E-04   -0.29954E-04   132   0.588E-02    0.579E-02
DAV:   4    -0.988459272541E+02    0.56324E-04   -0.84881E-05   132   0.347E-02    0.113E-02
DAV:   5    -0.988459146614E+02    0.12593E-04   -0.15945E-05   132   0.164E-02    0.618E-03
DAV:   6    -0.988459187019E+02   -0.40405E-05   -0.68450E-06   108   0.993E-03    0.332E-03
DAV:   7    -0.988459355073E+02   -0.16805E-04   -0.31650E-06   120   0.664E-03    0.189E-03
DAV:   8    -0.988459565175E+02   -0.21010E-04   -0.12025E-06    96   0.373E-03    0.113E-03
DAV:   9    -0.988459788632E+02   -0.22346E-04   -0.13072E-06    96   0.285E-03    0.696E-04
DAV:  10    -0.988459961858E+02   -0.17323E-04   -0.75724E-07    84   0.195E-03    0.371E-04
DAV:  11    -0.988460061004E+02   -0.99146E-05   -0.36501E-07   108   0.127E-03    0.221E-04
DAV:  12    -0.988460120102E+02   -0.59098E-05   -0.14386E-07    84   0.787E-04    0.141E-04
DAV:  13    -0.988460142803E+02   -0.22701E-05   -0.29688E-08    96   0.443E-04    0.747E-05
DAV:  14    -0.988460157937E+02   -0.15134E-05   -0.17107E-08    84   0.311E-04    0.415E-05
DAV:  15    -0.988460162620E+02   -0.46833E-06    0.21383E-09   108   0.153E-04
  21 F= -.98846016E+02 E0= -.98846016E+02  d E =-.715556E-11
       N       E                     dE             d eps       ncg     rms          rms(c)
DAV:   1    -0.988445202838E+02    0.14955E-02   -0.20368E-01    96   0.133E+00    0.151E-01
DAV:   2    -0.988453277631E+02   -0.80748E-03   -0.97743E-03   108   0.322E-01    0.848E-02
DAV:   3    -0.988452742688E+02    0.53494E-04   -0.14822E-04   132   0.425E-02    0.464E-02
DAV:   4    -0.988452405978E+02    0.33671E-04   -0.62145E-05   108   0.304E-02    0.786E-03
DAV:   5    -0.988452371534E+02    0.34444E-05   -0.14608E-05   132   0.141E-02    0.489E-03
DAV:   6    -0.988452429629E+02   -0.58096E-05   -0.47334E-06   108   0.659E-03    0.271E-03
DAV:   7    -0.988452553624E+02   -0.12399E-04   -0.12678E-06   108   0.370E-03    0.147E-03
DAV:   8    -0.988452749685E+02   -0.19606E-04   -0.19225E-06    96   0.347E-03    0.811E-04
DAV:   9    -0.988452865790E+02   -0.11610E-04   -0.89129E-07   108   0.227E-03    0.670E-04
DAV:  10    -0.988452979487E+02   -0.11370E-04   -0.81867E-07    96   0.185E-03    0.253E-04
DAV:  11    -0.988453028343E+02   -0.48856E-05   -0.21110E-07    96   0.979E-04    0.237E-04
DAV:  12    -0.988453068087E+02   -0.39744E-05   -0.19513E-07    84   0.858E-04    0.917E-05
DAV:  13    -0.988453079752E+02   -0.11664E-05   -0.31702E-08   108   0.389E-04    0.627E-05
DAV:  14    -0.988453087707E+02   -0.79559E-06   -0.57998E-09    84   0.246E-04
  22 F= -.98845309E+02 E0= -.98845309E+02  d E =-.118719E-10
       N       E                     dE             d eps       ncg     rms          rms(c)
DAV:   1    -0.988436395230E+02    0.16685E-02   -0.40593E-01   108   0.187E+00    0.213E-01
DAV:   2    -0.988452989412E+02   -0.16594E-02   -0.20204E-02   108   0.460E-01    0.132E-01
DAV:   3    -0.988451733285E+02    0.12561E-03   -0.27775E-04   132   0.600E-02    0.699E-02
DAV:   4    -0.988451108888E+02    0.62440E-04   -0.15536E-04   120   0.464E-02    0.110E-02
DAV:   5    -0.988451022704E+02    0.86184E-05   -0.38747E-05   132   0.222E-02    0.711E-03
DAV:   6    -0.988451128808E+02   -0.10610E-04   -0.11545E-05   108   0.907E-03    0.400E-03
DAV:   7    -0.988451356963E+02   -0.22816E-04   -0.12280E-06   108   0.324E-03    0.209E-03
DAV:   8    -0.988451732108E+02   -0.37514E-04   -0.43104E-06   108   0.452E-03    0.122E-03
DAV:   9    -0.988451979315E+02   -0.24721E-04   -0.16572E-06   108   0.282E-03    0.775E-04
DAV:  10    -0.988452179367E+02   -0.20005E-04   -0.15094E-06    96   0.245E-03    0.395E-04
DAV:  11    -0.988452266660E+02   -0.87294E-05   -0.24840E-07   108   0.118E-03    0.243E-04
DAV:  12    -0.988452328622E+02   -0.61962E-05   -0.25469E-07    84   0.961E-04    0.158E-04
DAV:  13    -0.988452349147E+02   -0.20524E-05   -0.30166E-08   108   0.413E-04    0.843E-05
DAV:  14    -0.988452365624E+02   -0.16477E-05   -0.21293E-08    84   0.349E-04    0.648E-05
DAV:  15    -0.988452372345E+02   -0.67213E-06   -0.18559E-09    96   0.203E-04
  23 F= -.98845237E+02 E0= -.98845237E+02  d E =-.602690E-11
       N       E                     dE             d eps       ncg     rms          rms(c)
DAV:   1    -0.988457464646E+02   -0.50990E-03   -0.20191E-01   108   0.131E+00    0.148E-01
DAV:   2    -0.988466288992E+02   -0.88243E-03   -0.10722E-02   108   0.337E-01    0.876E-02
DAV:   3    -0.988465756851E+02    0.53214E-04   -0.16872E-04   132   0.452E-02    0.475E-02
DAV:   4    -0.988465451020E+02    0.30583E-04   -0.69349E-05   108   0.319E-02    0.769E-03
DAV:   5    -0.988465413409E+02    0.37610E-05   -0.16180E-05   132   0.145E-02    0.540E-03
DAV:   6    -0.988465461302E+02   -0.47893E-05   -0.51203E-06   108   0.641E-03    0.318E-03
DAV:   7    -0.988465577346E+02   -0.11604E-04   -0.80679E-07    84   0.294E-03    0.156E-03
DAV:   8    -0.988465769568E+02   -0.19222E-04   -0.21922E-06    96   0.337E-03    0.962E-04
DAV:   9    -0.988465899444E+02   -0.12988E-04   -0.83971E-07    96   0.225E-03    0.695E-04
DAV:  10    -0.988466022523E+02   -0.12308E-04   -0.11494E-06    96   0.205E-03    0.297E-04
DAV:  11    -0.988466070595E+02   -0.48072E-05   -0.17118E-07    96   0.102E-03    0.252E-04
DAV:  12    -0.988466101185E+02   -0.30590E-05   -0.98046E-08    84   0.684E-04    0.151E-04
DAV:  13    -0.988466118324E+02   -0.17138E-05   -0.47843E-08    96   0.459E-04    0.814E-05
DAV:  14    -0.988466127438E+02   -0.91145E-06   -0.59958E-09    96   0.257E-04
  24 F= -.98846613E+02 E0= -.98846613E+02  d E =-.724151E-11
       N       E                     dE             d eps       ncg     rms          rms(c)
DAV:   1    -0.988452711674E+02    0.13407E-02   -0.40600E-01    96   0.189E+00    0.190E-01
DAV:   2    -0.988468064103E+02   -0.15352E-02   -0.18377E-02   144   0.407E-01    0.931E-02
DAV:   3    -0.988467660441E+02    0.40366E-04   -0.31981E-04   132   0.608E-02    0.502E-02
DAV:   4    -0.988467406664E+02    0.25378E-04   -0.79108E-05   132   0.400E-02    0.102E-02
DAV:   5    -0.988467347109E+02    0.59555E-05   -0.29455E-05   132   0.205E-02    0.730E-03
DAV:   6    -0.988467357674E+02   -0.10565E-05   -0.45562E-06   132   0.699E-03    0.494E-03
DAV:   7    -0.988467420999E+02   -0.63325E-05   -0.82178E-07    96   0.392E-03    0.204E-03
DAV:   8    -0.988467527101E+02   -0.10610E-04   -0.14542E-06   120   0.415E-03    0.132E-03
DAV:   9    -0.988467692878E+02   -0.16578E-04   -0.11733E-06    84   0.347E-03    0.696E-04
DAV:  10    -0.988467765978E+02   -0.73101E-05   -0.53274E-07    96   0.201E-03    0.733E-04
DAV:  11    -0.988467810757E+02   -0.44779E-05   -0.84236E-08    96   0.942E-04    0.408E-04
DAV:  12    -0.988467870543E+02   -0.59786E-05   -0.21589E-07    84   0.101E-03    0.294E-04
DAV:  13    -0.988467889779E+02   -0.19237E-05   -0.37282E-08    96   0.471E-04    0.247E-04
DAV:  14    -0.988467908749E+02   -0.18970E-05   -0.33546E-08    84   0.422E-04    0.671E-05
DAV:  15    -0.988467915925E+02   -0.71759E-06   -0.47832E-09   108   0.228E-04
  25 F= -.98846792E+02 E0= -.98846792E+02  d E =-.113389E-10
       N       E                     dE             d eps       ncg     rms          rms(c)
DAV:   1    -0.988443171542E+02    0.24737E-02   -0.19878E-01    96   0.136E+00    0.152E-01
DAV:   2    -0.988454296113E+02   -0.11125E-02   -0.13424E-02   120   0.354E-01    0.829E-02
DAV:   3    -0.988453822882E+02    0.47323E-04   -0.24305E-04   132   0.550E-02    0.475E-02
DAV:   4    -0.988453520794E+02    0.30209E-04   -0.78996E-05   120   0.376E-02    0.952E-03
DAV:   5    -0.988453445172E+02    0.75622E-05   -0.24946E-05   132   0.183E-02    0.697E-03
DAV:   6    -0.988453452130E+02   -0.69579E-06   -0.36642E-06   108   0.627E-03
  26 F= -.98845345E+02 E0= -.98845345E+02  d E =-.104266E-10
       N       E                     dE             d eps       ncg     rms          rms(c)
DAV:   1    -0.988442252818E+02    0.11192E-02   -0.40315E-01   108   0.172E+00    0.214E-01
DAV:   2    -0.988457245933E+02   -0.14993E-02   -0.17945E-02   108   0.407E-01    0.124E-01
DAV:   3    -0.988456485036E+02    0.76090E-04   -0.30408E-04   132   0.600E-02    0.647E-02
DAV:   4    -0.988456030689E+02    0.45435E-04   -0.12678E-04   108   0.418E-02    0.111E-02
DAV:   5    -0.988455943563E+02    0.87126E-05   -0.24982E-05   132   0.188E-02    0.718E-03
DAV:   6    -0.988456011591E+02   -0.68028E-05   -0.92896E-06   132   0.839E-03    0.398E-03
DAV:   7    -0.988456172339E+02   -0.16075E-04   -0.13428E-06    96   0.380E-03    0.198E-03
DAV:   8    -0.988456419920E+02   -0.24758E-04   -0.26590E-06    96   0.381E-03    0.106E-03
DAV:   9    -0.988456582127E+02   -0.16221E-04   -0.12441E-06   108   0.255E-03    0.812E-04
DAV:  10    -0.988456737594E+02   -0.15547E-04   -0.13413E-06    96   0.231E-03    0.295E-04
DAV:  11    -0.988456793959E+02   -0.56365E-05   -0.22373E-07    96   0.109E-03    0.283E-04
DAV:  12    -0.988456840467E+02   -0.46509E-05   -0.26005E-07    84   0.100E-03    0.112E-04
DAV:  13    -0.988456851655E+02   -0.11187E-05   -0.34980E-08   108   0.420E-04    0.786E-05
DAV:  14    -0.988456862244E+02   -0.10590E-05   -0.13974E-08    84   0.317E-04    0.494E-05
DAV:  15    -0.988456865884E+02   -0.36400E-06   -0.96884E-10    96   0.181E-04
  27 F= -.98845687E+02 E0= -.98845687E+02  d E =-.639614E-11
       N       E                     dE             d eps       ncg     rms          rms(c)
DAV:   1    -0.988454920480E+02    0.19418E-03   -0.20211E-01    96   0.120E+00    0.148E-01
DAV:   2    -0.988461663038E+02   -0.67426E-03   -0.84746E-03   108   0.275E-01    0.908E-02
DAV:   3    -0.988461007904E+02    0.65513E-04   -0.14428E-04   132   0.430E-02    0.441E-02
DAV:   4    -0.988460673348E+02    0.33456E-04   -0.64386E-05   108   0.294E-02    0.786E-03
DAV:   5    -0.988460630721E+02    0.42627E-05   -0.11749E-05   132   0.127E-02    0.507E-03
DAV:   6    -0.988460705139E+02   -0.74417E-05   -0.57931E-06   108   0.629E-03    0.227E-03
DAV:   7    -0.988460831799E+02   -0.12666E-04   -0.59346E-07    96   0.239E-03    0.135E-03
DAV:   8    -0.988461068492E+02   -0.23669E-04   -0.26025E-06    96   0.318E-03    0.863E-04
DAV:   9    -0.988461203546E+02   -0.13505E-04   -0.68130E-07    96   0.185E-03    0.387E-04
DAV:  10    -0.988461316188E+02   -0.11264E-04   -0.93379E-07    96   0.167E-03    0.321E-04
DAV:  11    -0.988461375891E+02   -0.59703E-05   -0.23507E-07    96   0.103E-03    0.137E-04
DAV:  12    -0.988461394276E+02   -0.18385E-05   -0.53872E-08   108   0.504E-04    0.115E-04
DAV:  13    -0.988461405289E+02   -0.11012E-05   -0.87094E-09    84   0.301E-04    0.512E-05
DAV:  14    -0.988461412811E+02   -0.75224E-06   -0.57473E-09    96   0.236E-04
  28 F= -.98846141E+02 E0= -.98846141E+02  d E =-.575939E-11
       N       E                     dE             d eps       ncg     rms          rms(c)
DAV:   1    -0.988444313606E+02    0.17092E-02   -0.39933E-01    96   0.174E+00    0.211E-01
DAV:   2    -0.988459230462E+02   -0.14917E-02   -0.18158E-02   120   0.404E-01    0.113E-01
DAV:   3    -0.988458390520E+02    0.83994E-04   -0.31096E-04   132   0.602E-02    0.590E-02
DAV:   4    -0.988457962241E+02    0.42828E-04   -0.10617E-04   108   0.396E-02    0.114E-02
DAV:   5    -0.988457859535E+02    0.10271E-04   -0.22110E-05   132   0.181E-02    0.721E-03
DAV:   6    -0.988457879327E+02   -0.19792E-05   -0.71013E-06   108   0.842E-03    0.380E-03
DAV:   7    -0.988457988637E+02   -0.10931E-04   -0.15625E-06   132   0.457E-03    0.191E-03
DAV:   8    -0.988458184976E+02   -0.19634E-04   -0.14795E-06    96   0.382E-03    0.115E-03
DAV:   9    -0.988458343433E+02   -0.15846E-04   -0.96228E-07   108   0.254E-03    0.850E-04
DAV:  10    -0.988458504476E+02   -0.16104E-04   -0.70575E-07    96   0.190E-03    0.343E-04
DAV:  11    -0.988458572848E+02   -0.68372E-05   -0.24627E-07   108   0.104E-03    0.314E-04
DAV:  12    -0.988458646861E+02   -0.74014E-05   -0.22285E-07    96   0.959E-04    0.121E-04
DAV:  13    -0.988458666439E+02   -0.19578E-05   -0.39069E-08   108   0.450E-04    0.947E-05
DAV:  14    -0.988458683751E+02   -0.17311E-05   -0.19030E-08    96   0.316E-04    0.477E-05
DAV:  15    -0.988458690607E+02   -0.68559E-06   -0.18994E-09   108   0.195E-04
  29 F= -.98845869E+02 E0= -.98845869E+02  d E =-.100367E-10
       N       E                     dE             d eps       ncg     rms          rms(c)
DAV:   1    -0.988456269234E+02    0.24145E-03   -0.20209E-01    96   0.123E+00    0.146E-01
DAV:   2    -0.988463397840E+02   -0.71286E-03   -0.89689E-03   108   0.280E-01    0.833E-02
DAV:   3    -0.988462837979E+02    0.55986E-04   -0.14501E-04   132   0.386E-02    0.432E-02
DAV:   4    -0.988462398504E+02    0.43948E-04   -0.43285E-05   120   0.232E-02    0.772E-03
DAV:   5    -0.988462367821E+02    0.30683E-05   -0.64532E-06   132   0.105E-02    0.426E-03
DAV:   6    -0.988462491284E+02   -0.12346E-04   -0.49009E-06   108   0.737E-03    0.229E-03
DAV:   7    -0.988462673961E+02   -0.18268E-04   -0.22695E-06   108   0.465E-03    0.157E-03
DAV:   8    -0.988462873605E+02   -0.19964E-04   -0.13118E-06   108   0.267E-03    0.777E-04
DAV:   9    -0.988463048473E+02   -0.17487E-04   -0.15628E-06    96   0.256E-03    0.590E-04
DAV:  10    -0.988463177210E+02   -0.12874E-04   -0.11601E-06   108   0.206E-03    0.224E-04
DAV:  11    -0.988463216593E+02   -0.39382E-05   -0.14818E-07    96   0.869E-04    0.187E-04
DAV:  12    -0.988463244154E+02   -0.27562E-05   -0.10909E-07    84   0.634E-04    0.856E-05
DAV:  13    -0.988463255613E+02   -0.11458E-05   -0.32918E-08    96   0.359E-04    0.507E-05
DAV:  14    -0.988463262185E+02   -0.65721E-06   -0.47018E-09    84   0.232E-04
  30 F= -.98846326E+02 E0= -.98846326E+02  d E =-.724988E-11
       N       E                     dE             d eps       ncg     rms          rms(c)
DAV:   1    -0.988450985744E+02    0.12270E-02   -0.40343E-01    96   0.167E+00    0.181E-01
DAV:   2    -0.988465470533E+02   -0.14485E-02   -0.17750E-02   108   0.377E-01    0.102E-01
DAV:   3    -0.988464883006E+02    0.58753E-04   -0.30190E-04   132   0.565E-02    0.532E-02
DAV:   4    -0.988464446653E+02    0.43635E-04   -0.74865E-05   132   0.355E-02    0.103E-02
DAV:   5    -0.988464341963E+02    0.10469E-04   -0.20472E-05   132   0.178E-02    0.650E-03
DAV:   6    -0.988464369382E+02   -0.27419E-05   -0.56054E-06   108   0.794E-03    0.387E-03
DAV:   7    -0.988464483453E+02   -0.11407E-04   -0.14962E-06   108   0.505E-03    0.180E-03
DAV:   8    -0.988464660792E+02   -0.17734E-04   -0.12720E-06   108   0.404E-03    0.119E-03
DAV:   9    -0.988464892885E+02   -0.23209E-04   -0.17184E-06    96   0.346E-03    0.696E-04
DAV:  10    -0.988465033937E+02   -0.14105E-04   -0.65660E-07    96   0.208E-03    0.479E-04
DAV:  11    -0.988465117692E+02   -0.83755E-05   -0.27742E-07    84   0.115E-03    0.254E-04
DAV:  12    -0.988465161162E+02   -0.43469E-05   -0.10460E-07    96   0.675E-04    0.160E-04
DAV:  13    -0.988465187269E+02   -0.26107E-05   -0.38142E-08    84   0.450E-04    0.645E-05
DAV:  14    -0.988465201053E+02   -0.13784E-05   -0.16762E-08    96   0.288E-04    0.544E-05
DAV:  15    -0.988465209289E+02   -0.82369E-06   -0.28118E-09    84   0.210E-04
  31 F= -.98846521E+02 E0= -.98846521E+02  d E =-.895285E-11
       N       E                     dE             d eps       ncg     rms          rms(c)
DAV:   1    -0.988442395150E+02    0.22806E-02   -0.19980E-01   108   0.136E+00    0.146E-01
DAV:   2    -0.988453635208E+02   -0.11240E-02   -0.13564E-02   120   0.361E-01    0.852E-02
DAV:   3    -0.988453275895E+02    0.35931E-04   -0.22585E-04   144   0.486E-02    0.498E-02
DAV:   4    -0.988452933052E+02    0.34284E-04   -0.59965E-05   132   0.304E-02    0.912E-03
DAV:   5    -0.988452862826E+02    0.70226E-05   -0.15172E-05   132   0.145E-02    0.522E-03
DAV:   6    -0.988452903632E+02   -0.40807E-05   -0.40756E-06    96   0.740E-03    0.276E-03
DAV:   7    -0.988453031955E+02   -0.12832E-04   -0.19875E-06   108   0.508E-03    0.138E-03
DAV:   8    -0.988453225106E+02   -0.19315E-04   -0.12933E-06    96   0.346E-03    0.800E-04
DAV:   9    -0.988453380881E+02   -0.15578E-04   -0.10454E-06   108   0.256E-03    0.555E-04
DAV:  10    -0.988453513815E+02   -0.13293E-04   -0.88621E-07    96   0.197E-03    0.308E-04
DAV:  11    -0.988453554637E+02   -0.40822E-05   -0.10695E-07    96   0.817E-04    0.239E-04
DAV:  12    -0.988453593097E+02   -0.38460E-05   -0.13852E-07    84   0.777E-04    0.949E-05
DAV:  13    -0.988453604875E+02   -0.11778E-05   -0.23719E-08   108   0.372E-04    0.793E-05
DAV:  14    -0.988453612895E+02   -0.80200E-06   -0.46488E-09    84   0.254E-04
  32 F= -.98845361E+02 E0= -.98845361E+02  d E =-.593309E-11
       N       E                     dE             d eps       ncg     rms          rms(c)
DAV:   1    -0.988439300292E+02    0.14305E-02   -0.40716E-01   108   0.184E+00    0.214E-01
DAV:   2    -0.988456277749E+02   -0.16977E-02   -0.20531E-02   108   0.470E-01    0.129E-01
DAV:   3    -0.988455115664E+02    0.11621E-03   -0.28767E-04   132   0.600E-02    0.706E-02
DAV:   4    -0.988454502427E+02    0.61324E-04   -0.14581E-04   108   0.459E-02    0.111E-02
DAV:   5    -0.988454434387E+02    0.68040E-05   -0.36154E-05   132   0.214E-02    0.704E-03
DAV:   6    -0.988454547908E+02   -0.11352E-04   -0.11231E-05   108   0.923E-03    0.418E-03
DAV:   7    -0.988454786651E+02   -0.23874E-04   -0.18296E-06   108   0.419E-03    0.218E-03
DAV:   8    -0.988455169506E+02   -0.38286E-04   -0.44529E-06   108   0.474E-03    0.120E-03
DAV:   9    -0.988455382874E+02   -0.21337E-04   -0.15448E-06   108   0.283E-03    0.965E-04
DAV:  10    -0.988455599955E+02   -0.21708E-04   -0.18414E-06    96   0.273E-03    0.338E-04
DAV:  11    -0.988455671576E+02   -0.71621E-05   -0.26163E-07   108   0.120E-03    0.329E-04
DAV:  12    -0.988455736085E+02   -0.64509E-05   -0.29757E-07    84   0.110E-03    0.135E-04
DAV:  13    -0.988455751976E+02   -0.15891E-05   -0.45321E-08    96   0.472E-04    0.992E-05
DAV:  14    -0.988455768602E+02   -0.16626E-05   -0.21031E-08    84   0.370E-04    0.476E-05
DAV:  15    -0.988455773368E+02   -0.47658E-06   -0.26540E-09   108   0.204E-04
  33 F= -.98845577E+02 E0= -.98845577E+02  d E =-.124085E-10
       N       E                     dE             d eps       ncg     rms          rms(c)
DAV:   1    -0.988450197466E+02    0.55711E-03   -0.20225E-01    96   0.133E+00    0.153E-01
DAV:   2    -0.988458013439E+02   -0.78160E-03   -0.94740E-03   108   0.319E-01    0.793E-02
DAV:   3    -0.988457580443E+02    0.43300E-04   -0.15188E-04   132   0.418E-02    0.424E-02
DAV:   4    -0.988457299017E+02    0.28143E-04   -0.48553E-05   132   0.265E-02    0.785E-03
DAV:   5    -0.988457227637E+02    0.71381E-05   -0.10198E-05   132   0.125E-02    0.452E-03
DAV:   6    -0.988457237453E+02   -0.98162E-06   -0.37673E-06   108   0.683E-03
  34 F= -.98845724E+02 E0= -.98845724E+02  d E =-.796713E-11
       N       E                     dE             d eps       ncg     rms          rms(c)
DAV:   1    -0.988443249533E+02    0.13978E-02   -0.40543E-01   108   0.192E+00    0.218E-01
DAV:   2    -0.988458771076E+02   -0.15522E-02   -0.18643E-02   108   0.444E-01    0.117E-01
DAV:   3    -0.988457990458E+02    0.78062E-04   -0.29637E-04   120   0.594E-02    0.618E-02
DAV:   4    -0.988457387869E+02    0.60259E-04   -0.99017E-05   120   0.369E-02    0.111E-02
DAV:   5    -0.988457316870E+02    0.70999E-05   -0.17772E-05   132   0.166E-02    0.659E-03
DAV:   6    -0.988457432774E+02   -0.11590E-04   -0.79400E-06   108   0.953E-03    0.351E-03
DAV:   7    -0.988457660665E+02   -0.22789E-04   -0.30309E-06   120   0.596E-03    0.197E-03
DAV:   8    -0.988457942704E+02   -0.28204E-04   -0.24660E-06    96   0.420E-03    0.103E-03
DAV:   9    -0.988458142318E+02   -0.19961E-04   -0.17928E-06   108   0.314E-03    0.787E-04
DAV:  10    -0.988458312365E+02   -0.17005E-04   -0.14531E-06    96   0.244E-03    0.351E-04
DAV:  11    -0.988458375157E+02   -0.62792E-05   -0.26568E-07    96   0.113E-03    0.241E-04
DAV:  12    -0.988458427960E+02   -0.52803E-05   -0.32059E-07    84   0.107E-03    0.137E-04
DAV:  13    -0.988458442248E+02   -0.14289E-05   -0.43367E-08   108   0.468E-04    0.671E-05
DAV:  14    -0.988458450770E+02   -0.85220E-06   -0.10015E-08    84   0.291E-04
  35 F= -.98845845E+02 E0= -.98845845E+02  d E =-.777438E-11
       N       E                     dE             d eps       ncg     rms          rms(c)
DAV:   1    -0.988458888082E+02   -0.44583E-04   -0.19981E-01   108   0.129E+00    0.146E-01
DAV:   2    -0.988466279405E+02   -0.73913E-03   -0.88885E-03   108   0.294E-01    0.701E-02
DAV:   3    -0.988466022732E+02    0.25667E-04   -0.17506E-04   132   0.459E-02    0.363E-02
DAV:   4    -0.988465899914E+02    0.12282E-04   -0.43667E-05   120   0.288E-02    0.770E-03
DAV:   5    -0.988465872880E+02    0.27034E-05   -0.14526E-05   132   0.143E-02    0.535E-03
DAV:   6    -0.988465880504E+02   -0.76239E-06   -0.23418E-06   132   0.498E-03
  36 F= -.98846588E+02 E0= -.98846588E+02  d E =-.724638E-11
       N       E                     dE             d eps       ncg     rms          rms(c)
DAV:   1    -0.988452625986E+02    0.13247E-02   -0.40641E-01    96   0.188E+00    0.190E-01
DAV:   2    -0.988468013119E+02   -0.15387E-02   -0.18296E-02   144   0.405E-01    0.928E-02
DAV:   3    -0.988467683970E+02    0.32915E-04   -0.31990E-04   108   0.606E-02    0.500E-02
DAV:   4    -0.988467515546E+02    0.16842E-04   -0.79056E-05   120   0.396E-02    0.102E-02
DAV:   5    -0.988467484177E+02    0.31369E-05   -0.28280E-05   132   0.201E-02    0.724E-03
DAV:   6    -0.988467506222E+02   -0.22045E-05   -0.44106E-06   132   0.687E-03    0.488E-03
DAV:   7    -0.988467577506E+02   -0.71284E-05   -0.79589E-07   108   0.384E-03    0.199E-03
DAV:   8    -0.988467680937E+02   -0.10343E-04   -0.13557E-06   120   0.400E-03    0.127E-03
DAV:   9    -0.988467836831E+02   -0.15589E-04   -0.10859E-06    84   0.337E-03    0.666E-04
DAV:  10    -0.988467905167E+02   -0.68336E-05   -0.50108E-07   108   0.196E-03    0.719E-04
DAV:  11    -0.988467943846E+02   -0.38679E-05   -0.70982E-08    84   0.887E-04    0.418E-04
DAV:  12    -0.988468001966E+02   -0.58120E-05   -0.20687E-07    84   0.996E-04    0.277E-04
DAV:  13    -0.988468020702E+02   -0.18735E-05   -0.38689E-08   108   0.472E-04    0.263E-04
DAV:  14    -0.988468038860E+02   -0.18159E-05   -0.30545E-08    84   0.421E-04    0.638E-05
DAV:  15    -0.988468045284E+02   -0.64237E-06   -0.37242E-09    96   0.223E-04
  37 F= -.98846805E+02 E0= -.98846805E+02  d E =-.115788E-10
       N       E                     dE             d eps       ncg     rms          rms(c)
DAV:   1    -0.988449894989E+02    0.18144E-02   -0.19723E-01    96   0.135E+00    0.143E-01
DAV:   2    -0.988459882111E+02   -0.99871E-03   -0.11994E-02   120   0.329E-01    0.779E-02
DAV:   3    -0.988459454388E+02    0.42772E-04   -0.22091E-04   144   0.504E-02    0.428E-02
DAV:   4    -0.988459148043E+02    0.30634E-04   -0.53924E-05   132   0.307E-02    0.909E-03
DAV:   5    -0.988459073731E+02    0.74313E-05   -0.16390E-05   132   0.154E-02    0.548E-03
DAV:   6    -0.988459103334E+02   -0.29604E-05   -0.33895E-06   132   0.643E-03    0.327E-03
DAV:   7    -0.988459209483E+02   -0.10615E-04   -0.12059E-06    96   0.385E-03    0.129E-03
DAV:   8    -0.988459330711E+02   -0.12123E-04   -0.75672E-07    96   0.277E-03    0.850E-04
DAV:   9    -0.988459490464E+02   -0.15975E-04   -0.14590E-06   108   0.280E-03    0.548E-04
DAV:  10    -0.988459582275E+02   -0.91811E-05   -0.62540E-07    96   0.192E-03    0.323E-04
DAV:  11    -0.988459614595E+02   -0.32319E-05   -0.13983E-07   108   0.893E-04    0.269E-04
DAV:  12    -0.988459653491E+02   -0.38896E-05   -0.17583E-07    84   0.898E-04    0.112E-04
DAV:  13    -0.988459661858E+02   -0.83674E-06   -0.26238E-08    96   0.393E-04
  38 F= -.98845966E+02 E0= -.98845966E+02  d E =-.922801E-11
       N       E                     dE             d eps       ncg     rms          rms(c)
DAV:   1    -0.988441949006E+02    0.17704E-02   -0.39172E-01    96   0.182E+00    0.203E-01
DAV:   2    -0.988457429736E+02   -0.15481E-02   -0.18982E-02   132   0.424E-01    0.120E-01
DAV:   3    -0.988456119247E+02    0.13105E-03   -0.29164E-04   132   0.645E-02    0.621E-02
DAV:   4    -0.988455635190E+02    0.48406E-04   -0.14571E-04   132   0.460E-02    0.118E-02
DAV:   5    -0.988455532999E+02    0.10219E-04   -0.27258E-05   132   0.199E-02    0.736E-03
DAV:   6    -0.988455562748E+02   -0.29750E-05   -0.72897E-06   120   0.809E-03    0.410E-03
DAV:   7    -0.988455703389E+02   -0.14064E-04   -0.16129E-06   120   0.411E-03    0.186E-03
DAV:   8    -0.988455924623E+02   -0.22123E-04   -0.13531E-06    96   0.305E-03    0.109E-03
DAV:   9    -0.988456130984E+02   -0.20636E-04   -0.11570E-06   108   0.231E-03    0.848E-04
DAV:  10    -0.988456319304E+02   -0.18832E-04   -0.10531E-06    96   0.200E-03    0.354E-04
DAV:  11    -0.988456377419E+02   -0.58116E-05   -0.99424E-08   108   0.843E-04    0.259E-04
DAV:  12    -0.988456448104E+02   -0.70685E-05   -0.22023E-07    84   0.965E-04    0.139E-04
DAV:  13    -0.988456464172E+02   -0.16068E-05   -0.22856E-08   108   0.415E-04    0.888E-05
DAV:  14    -0.988456478853E+02   -0.14680E-05   -0.10200E-08    84   0.308E-04    0.500E-05
DAV:  15    -0.988456484699E+02   -0.58470E-06   -0.36508E-10   108   0.179E-04
  39 F= -.98845648E+02 E0= -.98845648E+02  d E =-.881569E-11
       N       E                     dE             d eps       ncg     rms          rms(c)
DAV:   1    -0.988461687443E+02   -0.52086E-03   -0.20007E-01    96   0.126E+00    0.135E-01
DAV:   2    -0.988469248712E+02   -0.75613E-03   -0.91990E-03   120   0.289E-01    0.768E-02
DAV:   3    -0.988468734089E+02    0.51462E-04   -0.15036E-04   132   0.445E-02    0.405E-02
DAV:   4    -0.988468492175E+02    0.24191E-04   -0.58554E-05   120   0.301E-02    0.772E-03
DAV:   5    -0.988468452717E+02    0.39458E-05   -0.12500E-05   132   0.133E-02    0.475E-03
DAV:   6    -0.988468490714E+02   -0.37997E-05   -0.34078E-06   120   0.575E-03    0.249E-03
DAV:   7    -0.988468575522E+02   -0.84808E-05   -0.73658E-07   120   0.278E-03    0.124E-03
DAV:   8    -0.988468692778E+02   -0.11726E-04   -0.81489E-07    96   0.224E-03    0.658E-04
DAV:   9    -0.988468790510E+02   -0.97732E-05   -0.61826E-07   108   0.177E-03    0.512E-04
DAV:  10    -0.988468893172E+02   -0.10266E-04   -0.89764E-07    96   0.180E-03    0.224E-04
DAV:  11    -0.988468913675E+02   -0.20503E-05   -0.46672E-08   108   0.645E-04    0.177E-04
DAV:  12    -0.988468942415E+02   -0.28740E-05   -0.93425E-08    84   0.680E-04    0.946E-05
DAV:  13    -0.988468953497E+02   -0.11082E-05   -0.36012E-08    96   0.399E-04    0.711E-05
DAV:  14    -0.988468959820E+02   -0.63234E-06   -0.95413E-10    96   0.219E-04
  40 F= -.98846896E+02 E0= -.98846896E+02  d E =-.418857E-11
       N       E                     dE             d eps       ncg     rms          rms(c)
DAV:   1    -0.988456090860E+02    0.12863E-02   -0.41339E-01   120   0.182E+00    0.200E-01
DAV:   2    -0.988469203176E+02   -0.13112E-02   -0.15621E-02   120   0.372E-01    0.824E-02
DAV:   3    -0.988468701941E+02    0.50123E-04   -0.33863E-04   144   0.639E-02    0.432E-02
DAV:   4    -0.988468503979E+02    0.19796E-04   -0.72839E-05   132   0.358E-02    0.115E-02
DAV:   5    -0.988468468861E+02    0.35119E-05   -0.20696E-05   132   0.176E-02    0.663E-03
DAV:   6    -0.988468478141E+02   -0.92806E-06   -0.37775E-06   132   0.700E-03
  41 F= -.98846848E+02 E0= -.98846848E+02  d E =-.243136E-10
       N       E                     dE             d eps       ncg     rms          rms(c)
DAV:   1    -0.988461007309E+02    0.74616E-03   -0.20550E-01   120   0.126E+00    0.127E-01
DAV:   2    -0.988467637219E+02   -0.66299E-03   -0.77679E-03   132   0.260E-01    0.585E-02
DAV:   3    -0.988467475308E+02    0.16191E-04   -0.15732E-04   108   0.440E-02    0.297E-02
DAV:   4    -0.988467488055E+02   -0.12747E-05   -0.39712E-05   108   0.266E-02    0.774E-03
DAV:   5    -0.988467496303E+02   -0.82475E-06   -0.99051E-06   132   0.122E-02
  42 F= -.98846750E+02 E0= -.98846750E+02  d E =-.644267E-11
       N       E                     dE             d eps       ncg     rms          rms(c)
DAV:   1    -0.988455309587E+02    0.12178E-02   -0.40692E-01    96   0.178E+00    0.175E-01
DAV:   2    -0.988468381851E+02   -0.13072E-02   -0.15482E-02   132   0.378E-01    0.886E-02
DAV:   3    -0.988467920438E+02    0.46141E-04   -0.28628E-04   120   0.615E-02    0.454E-02
DAV:   4    -0.988467739613E+02    0.18082E-04   -0.87772E-05   132   0.395E-02    0.992E-03
DAV:   5    -0.988467681292E+02    0.58321E-05   -0.21972E-05   132   0.180E-02    0.663E-03
DAV:   6    -0.988467685496E+02   -0.42041E-06   -0.40282E-06   132   0.690E-03
  43 F= -.98846769E+02 E0= -.98846769E+02  d E =-.182429E-10
       N       E                     dE             d eps       ncg     rms          rms(c)
DAV:   1    -0.988454351910E+02    0.13329E-02   -0.19896E-01    96   0.131E+00    0.152E-01
DAV:   2    -0.988464363333E+02   -0.10011E-02   -0.11847E-02   144   0.315E-01    0.688E-02
DAV:   3    -0.988464065630E+02    0.29770E-04   -0.23534E-04   120   0.538E-02    0.379E-02
DAV:   4    -0.988464015091E+02    0.50539E-05   -0.56798E-05   120   0.304E-02    0.966E-03
DAV:   5    -0.988463998838E+02    0.16252E-05   -0.14723E-05   132   0.150E-02    0.572E-03
DAV:   6    -0.988464001846E+02   -0.30078E-06   -0.26693E-06   120   0.595E-03
  44 F= -.98846400E+02 E0= -.98846400E+02  d E =-.802051E-11
       N       E                     dE             d eps       ncg     rms          rms(c)
DAV:   1    -0.988452292472E+02    0.11706E-02   -0.40406E-01    96   0.177E+00    0.226E-01
DAV:   2    -0.988465582745E+02   -0.13290E-02   -0.16036E-02   144   0.384E-01    0.101E-01
DAV:   3    -0.988464836435E+02    0.74631E-04   -0.31032E-04   108   0.636E-02    0.526E-02
DAV:   4    -0.988464551581E+02    0.28485E-04   -0.10497E-04   132   0.399E-02    0.122E-02
DAV:   5    -0.988464478877E+02    0.72704E-05   -0.22129E-05   132   0.181E-02    0.741E-03
DAV:   6    -0.988464481948E+02   -0.30708E-06   -0.44352E-06   132   0.733E-03
  45 F= -.98846448E+02 E0= -.98846448E+02  d E =-.816834E-11
       N       E                     dE             d eps       ncg     rms          rms(c)
DAV:   1    -0.988455611982E+02    0.88669E-03   -0.20475E-01    96   0.124E+00    0.160E-01
DAV:   2    -0.988460997633E+02   -0.53857E-03   -0.66786E-03   144   0.247E-01    0.623E-02
DAV:   3    -0.988460732110E+02    0.26552E-04   -0.15591E-04   120   0.439E-02    0.318E-02
DAV:   4    -0.988460723980E+02    0.81299E-06   -0.38292E-05   108   0.250E-02    0.887E-03
DAV:   5    -0.988460747982E+02   -0.24002E-05   -0.94842E-06   132   0.120E-02    0.505E-03
DAV:   6    -0.988460777623E+02   -0.29641E-05   -0.18004E-06   120   0.471E-03    0.274E-03
DAV:   7    -0.988460819124E+02   -0.41501E-05   -0.26802E-07    96   0.190E-03    0.111E-03
DAV:   8    -0.988460867671E+02   -0.48547E-05   -0.31301E-07    84   0.174E-03    0.504E-04
DAV:   9    -0.988460919866E+02   -0.52194E-05   -0.32603E-07    96   0.167E-03    0.322E-04
DAV:  10    -0.988460958476E+02   -0.38611E-05   -0.28492E-07    84   0.132E-03    0.215E-04
DAV:  11    -0.988460975712E+02   -0.17235E-05   -0.51629E-08   108   0.729E-04    0.136E-04
DAV:  12    -0.988460988343E+02   -0.12632E-05   -0.29382E-08    84   0.431E-04    0.926E-05
DAV:  13    -0.988460994637E+02   -0.62938E-06   -0.62368E-09    96   0.237E-04
  46 F= -.98846099E+02 E0= -.98846099E+02  d E =-.897667E-11
       N       E                     dE             d eps       ncg     rms          rms(c)
DAV:   1    -0.988445026502E+02    0.15962E-02   -0.39359E-01    96   0.173E+00    0.215E-01
DAV:   2    -0.988459650332E+02   -0.14624E-02   -0.17888E-02   132   0.396E-01    0.117E-01
DAV:   3    -0.988458404280E+02    0.12461E-03   -0.30778E-04   132   0.660E-02    0.596E-02
DAV:   4    -0.988457966729E+02    0.43755E-04   -0.14162E-04   132   0.441E-02    0.122E-02
DAV:   5    -0.988457870672E+02    0.96057E-05   -0.23949E-05   132   0.186E-02    0.754E-03
DAV:   6    -0.988457894228E+02   -0.23556E-05   -0.64158E-06   132   0.783E-03    0.384E-03
DAV:   7    -0.988458015717E+02   -0.12149E-04   -0.14946E-06   132   0.399E-03    0.173E-03
DAV:   8    -0.988458194181E+02   -0.17846E-04   -0.98367E-07    96   0.268E-03    0.100E-03
DAV:   9    -0.988458370653E+02   -0.17647E-04   -0.92660E-07   108   0.211E-03    0.691E-04
DAV:  10    -0.988458540469E+02   -0.16982E-04   -0.10067E-06    96   0.192E-03    0.349E-04
DAV:  11    -0.988458596247E+02   -0.55777E-05   -0.99359E-08   108   0.837E-04    0.217E-04
DAV:  12    -0.988458658711E+02   -0.62464E-05   -0.18636E-07    84   0.877E-04    0.125E-04
DAV:  13    -0.988458677153E+02   -0.18442E-05   -0.26055E-08   108   0.391E-04    0.858E-05
DAV:  14    -0.988458690854E+02   -0.13700E-05   -0.73246E-09    84   0.272E-04    0.393E-05
DAV:  15    -0.988458696596E+02   -0.57427E-06    0.67129E-11    96   0.166E-04
  47 F= -.98845870E+02 E0= -.98845870E+02  d E =-.713975E-11
       N       E                     dE             d eps       ncg     rms          rms(c)
DAV:   1    -0.988465321724E+02   -0.66309E-03   -0.20004E-01    96   0.125E+00    0.151E-01
DAV:   2    -0.988472290038E+02   -0.69683E-03   -0.83865E-03   120   0.274E-01    0.704E-02
DAV:   3    -0.988471884913E+02    0.40512E-04   -0.15819E-04   132   0.454E-02    0.369E-02
DAV:   4    -0.988471720125E+02    0.16479E-04   -0.50193E-05   108   0.276E-02    0.838E-03
DAV:   5    -0.988471686500E+02    0.33625E-05   -0.99156E-06   132   0.121E-02    0.511E-03
DAV:   6    -0.988471698973E+02   -0.12473E-05   -0.22615E-06   120   0.531E-03    0.258E-03
DAV:   7    -0.988471747636E+02   -0.48663E-05   -0.54516E-07   108   0.273E-03    0.105E-03
DAV:   8    -0.988471813683E+02   -0.66048E-05   -0.48031E-07    96   0.200E-03    0.615E-04
DAV:   9    -0.988471891424E+02   -0.77741E-05   -0.50042E-07   108   0.176E-03    0.354E-04
DAV:  10    -0.988471945699E+02   -0.54275E-05   -0.31940E-07    84   0.129E-03    0.198E-04
DAV:  11    -0.988471970375E+02   -0.24675E-05   -0.95816E-08   108   0.727E-04    0.137E-04
DAV:  12    -0.988471991295E+02   -0.20920E-05   -0.70942E-08    84   0.556E-04    0.744E-05
DAV:  13    -0.988471999071E+02   -0.77762E-06   -0.14488E-08    96   0.293E-04
  48 F= -.98847200E+02 E0= -.98847200E+02  d E =-.867685E-11
       N       E                     dE             d eps       ncg     rms          rms(c)
DAV:   1    -0.988456459986E+02    0.15531E-02   -0.40552E-01   108   0.170E+00    0.182E-01
DAV:   2    -0.988468399524E+02   -0.11940E-02   -0.14353E-02   108   0.330E-01    0.823E-02
DAV:   3    -0.988467885132E+02    0.51439E-04   -0.30076E-04   132   0.607E-02    0.414E-02
DAV:   4    -0.988467755000E+02    0.13013E-04   -0.79456E-05   108   0.364E-02    0.108E-02
DAV:   5    -0.988467735005E+02    0.19995E-05   -0.18598E-05   132   0.169E-02    0.663E-03
DAV:   6    -0.988467752408E+02   -0.17403E-05   -0.34527E-06   120   0.624E-03    0.376E-03
DAV:   7    -0.988467795048E+02   -0.42640E-05   -0.37769E-07    96   0.269E-03    0.131E-03
DAV:   8    -0.988467846649E+02   -0.51601E-05   -0.36835E-07    84   0.246E-03    0.776E-04
DAV:   9    -0.988467940873E+02   -0.94224E-05   -0.72049E-07    84   0.284E-03    0.349E-04
DAV:  10    -0.988467980957E+02   -0.40084E-05   -0.36315E-07    96   0.172E-03    0.420E-04
DAV:  11    -0.988467992052E+02   -0.11095E-05   -0.27152E-08   120   0.659E-04    0.327E-04
DAV:  12    -0.988468019066E+02   -0.27014E-05   -0.68411E-08    84   0.718E-04    0.117E-04
DAV:  13    -0.988468033862E+02   -0.14796E-05   -0.52970E-08    96   0.520E-04    0.220E-04
DAV:  14    -0.988468040025E+02   -0.61637E-06   -0.19005E-09    96   0.289E-04
  49 F= -.98846804E+02 E0= -.98846804E+02  d E =-.790139E-11
       N       E                     dE             d eps       ncg     rms          rms(c)
DAV:   1    -0.988456371220E+02    0.11663E-02   -0.19927E-01    96   0.129E+00    0.145E-01
DAV:   2    -0.988466550790E+02   -0.10180E-02   -0.11895E-02   108   0.299E-01    0.640E-02
DAV:   3    -0.988466367786E+02    0.18300E-04   -0.21457E-04   144   0.468E-02    0.356E-02
DAV:   4    -0.988466263982E+02    0.10380E-04   -0.41892E-05   108   0.238E-02    0.894E-03
DAV:   5    -0.988466226657E+02    0.37326E-05   -0.74152E-06   132   0.108E-02    0.455E-03
DAV:   6    -0.988466228951E+02   -0.22940E-06   -0.21259E-06   120   0.567E-03
  50 F= -.98846623E+02 E0= -.98846623E+02  d E =-.234281E-10
       N       E                     dE             d eps       ncg     rms          rms(c)
DAV:   1    -0.988453166600E+02    0.13060E-02   -0.40901E-01    96   0.179E+00    0.189E-01
DAV:   2    -0.988467264335E+02   -0.14098E-02   -0.16630E-02   132   0.391E-01    0.932E-02
DAV:   3    -0.988466706269E+02    0.55807E-04   -0.29168E-04   120   0.605E-02    0.495E-02
DAV:   4    -0.988466451994E+02    0.25428E-04   -0.92977E-05   120   0.397E-02    0.112E-02
DAV:   5    -0.988466386095E+02    0.65899E-05   -0.24379E-05   132   0.188E-02    0.663E-03
DAV:   6    -0.988466399782E+02   -0.13687E-05   -0.47866E-06   120   0.742E-03    0.364E-03
DAV:   7    -0.988466458858E+02   -0.59076E-05   -0.70067E-07   108   0.315E-03    0.156E-03
DAV:   8    -0.988466537551E+02   -0.78693E-05   -0.59621E-07    84   0.255E-03    0.766E-04
DAV:   9    -0.988466642170E+02   -0.10462E-04   -0.77732E-07   108   0.239E-03    0.480E-04
DAV:  10    -0.988466723344E+02   -0.81174E-05   -0.60019E-07    96   0.190E-03    0.273E-04
DAV:  11    -0.988466746900E+02   -0.23556E-05   -0.10782E-07   108   0.938E-04    0.225E-04
DAV:  12    -0.988466775621E+02   -0.28721E-05   -0.94650E-08    84   0.712E-04    0.119E-04
DAV:  13    -0.988466792629E+02   -0.17008E-05   -0.66988E-08    96   0.506E-04    0.926E-05
DAV:  14    -0.988466802470E+02   -0.98408E-06   -0.18522E-08    84   0.294E-04
  51 F= -.98846680E+02 E0= -.98846680E+02  d E =-.455751E-11
       N       E                     dE             d eps       ncg     rms          rms(c)
DAV:   1    -0.988452054389E+02    0.14738E-02   -0.19676E-01    96   0.128E+00    0.138E-01
DAV:   2    -0.988459814020E+02   -0.77596E-03   -0.95444E-03   132   0.296E-01    0.835E-02
DAV:   3    -0.988459202478E+02    0.61154E-04   -0.15018E-04   132   0.455E-02    0.426E-02
DAV:   4    -0.988458941261E+02    0.26122E-04   -0.66386E-05   108   0.311E-02    0.792E-03
DAV:   5    -0.988458877262E+02    0.63999E-05   -0.12355E-05   132   0.133E-02    0.485E-03
DAV:   6    -0.988458891380E+02   -0.14118E-05   -0.37380E-06   108   0.580E-03    0.260E-03
DAV:   7    -0.988458964928E+02   -0.73548E-05   -0.67659E-07    96   0.278E-03    0.124E-03
DAV:   8    -0.988459084619E+02   -0.11969E-04   -0.83377E-07    96   0.231E-03    0.766E-04
DAV:   9    -0.988459197383E+02   -0.11276E-04   -0.52061E-07    96   0.168E-03    0.535E-04
DAV:  10    -0.988459297476E+02   -0.10009E-04   -0.58860E-07    96   0.141E-03    0.241E-04
DAV:  11    -0.988459335577E+02   -0.38101E-05   -0.70404E-08   108   0.659E-04    0.182E-04
DAV:  12    -0.988459370728E+02   -0.35151E-05   -0.68341E-08    84   0.566E-04    0.881E-05
DAV:  13    -0.988459387852E+02   -0.17125E-05   -0.28483E-08    96   0.369E-04    0.578E-05
DAV:  14    -0.988459399323E+02   -0.11471E-05   -0.71894E-09    84   0.246E-04    0.320E-05
DAV:  15    -0.988459402829E+02   -0.35053E-06    0.27529E-09   108   0.123E-04
  52 F= -.98845940E+02 E0= -.98845940E+02  d E =-.604244E-11
       N       E                     dE             d eps       ncg     rms          rms(c)
DAV:   1    -0.988447706928E+02    0.11692E-02   -0.39586E-01    96   0.184E+00    0.217E-01
DAV:   2    -0.988462174289E+02   -0.14467E-02   -0.17727E-02   108   0.420E-01    0.112E-01
DAV:   3    -0.988461091725E+02    0.10826E-03   -0.31753E-04   144   0.663E-02    0.579E-02
DAV:   4    -0.988460641492E+02    0.45023E-04   -0.12841E-04   120   0.436E-02    0.120E-02
DAV:   5    -0.988460578406E+02    0.63087E-05   -0.23787E-05   132   0.184E-02    0.726E-03
DAV:   6    -0.988460647968E+02   -0.69563E-05   -0.63131E-06   108   0.788E-03    0.363E-03
DAV:   7    -0.988460815628E+02   -0.16766E-04   -0.19599E-06   120   0.433E-03    0.173E-03
DAV:   8    -0.988461021417E+02   -0.20579E-04   -0.14851E-06   108   0.285E-03    0.936E-04
DAV:   9    -0.988461198038E+02   -0.17662E-04   -0.13257E-06   108   0.241E-03    0.712E-04
DAV:  10    -0.988461363497E+02   -0.16546E-04   -0.15727E-06   108   0.235E-03    0.313E-04
DAV:  11    -0.988461418167E+02   -0.54670E-05   -0.18266E-07   108   0.989E-04    0.209E-04
DAV:  12    -0.988461455819E+02   -0.37652E-05   -0.14035E-07    84   0.750E-04    0.129E-04
DAV:  13    -0.988461474350E+02   -0.18531E-05   -0.51721E-08    96   0.459E-04    0.692E-05
DAV:  14    -0.988461483161E+02   -0.88115E-06   -0.59731E-09    96   0.242E-04
  53 F= -.98846148E+02 E0= -.98846148E+02  d E =-.121225E-10
       N       E                     dE             d eps       ncg     rms          rms(c)
DAV:   1    -0.988460364093E+02    0.11103E-03   -0.19809E-01    96   0.128E+00    0.142E-01
DAV:   2    -0.988467990343E+02   -0.76262E-03   -0.93044E-03   108   0.298E-01    0.819E-02
DAV:   3    -0.988467391073E+02    0.59927E-04   -0.15228E-04   132   0.458E-02    0.426E-02
DAV:   4    -0.988467135858E+02    0.25522E-04   -0.70452E-05   120   0.326E-02    0.812E-03
DAV:   5    -0.988467079111E+02    0.56747E-05   -0.14948E-05   132   0.146E-02    0.528E-03
DAV:   6    -0.988467088550E+02   -0.94391E-06   -0.34479E-06   108   0.559E-03
  54 F= -.98846709E+02 E0= -.98846709E+02  d E =-.634306E-11
       N       E                     dE             d eps       ncg     rms          rms(c)
DAV:   1    -0.988454932131E+02    0.12147E-02   -0.40737E-01    96   0.178E+00    0.175E-01
DAV:   2    -0.988468111956E+02   -0.13180E-02   -0.15537E-02   144   0.379E-01    0.893E-02
DAV:   3    -0.988467726837E+02    0.38512E-04   -0.28797E-04   108   0.618E-02    0.457E-02
DAV:   4    -0.988467682509E+02    0.44328E-05   -0.89047E-05   120   0.400E-02    0.999E-03
DAV:   5    -0.988467636326E+02    0.46183E-05   -0.22829E-05   132   0.183E-02    0.669E-03
DAV:   6    -0.988467629990E+02    0.63369E-06   -0.42012E-06   132   0.706E-03
  55 F= -.98846763E+02 E0= -.98846763E+02  d E =-.175348E-10
       N       E                     dE             d eps       ncg     rms          rms(c)
DAV:   1    -0.988454831398E+02    0.12805E-02   -0.22041E-01    96   0.133E+00    0.139E-01
DAV:   2    -0.988465056875E+02   -0.10225E-02   -0.11443E-02   144   0.309E-01    0.680E-02
DAV:   3    -0.988464940843E+02    0.11603E-04   -0.17757E-04   132   0.442E-02    0.362E-02
DAV:   4    -0.988464964274E+02   -0.23431E-05   -0.55980E-05   120   0.269E-02    0.800E-03
DAV:   5    -0.988464952122E+02    0.12152E-05   -0.79898E-06   132   0.108E-02    0.423E-03
DAV:   6    -0.988464976115E+02   -0.23994E-05   -0.28725E-06   108   0.570E-03    0.180E-03
DAV:   7    -0.988465024188E+02   -0.48073E-05   -0.70397E-07   108   0.302E-03    0.916E-04
DAV:   8    -0.988465084456E+02   -0.60268E-05   -0.39006E-07    84   0.180E-03    0.499E-04
DAV:   9    -0.988465142706E+02   -0.58250E-05   -0.38500E-07    96   0.156E-03    0.338E-04
DAV:  10    -0.988465194899E+02   -0.52192E-05   -0.36143E-07    84   0.131E-03    0.179E-04
DAV:  11    -0.988465216284E+02   -0.21386E-05   -0.87818E-08   108   0.691E-04    0.142E-04
DAV:  12    -0.988465229128E+02   -0.12843E-05   -0.27471E-08    84   0.421E-04    0.810E-05
DAV:  13    -0.988465236139E+02   -0.70117E-06   -0.13953E-08    96   0.288E-04
  56 F= -.98846524E+02 E0= -.98846524E+02  d E =-.806399E-11
       N       E                     dE             d eps       ncg     rms          rms(c)
DAV:   1    -0.988451858440E+02    0.13371E-02   -0.40957E-01   120   0.167E+00    0.178E-01
DAV:   2    -0.988465744115E+02   -0.13886E-02   -0.16773E-02   120   0.374E-01    0.969E-02
DAV:   3    -0.988465289892E+02    0.45422E-04   -0.31453E-04   144   0.616E-02    0.528E-02
DAV:   4    -0.988464989204E+02    0.30069E-04   -0.83168E-05   132   0.432E-02    0.935E-03
DAV:   5    -0.988464942985E+02    0.46219E-05   -0.34344E-05   132   0.219E-02    0.787E-03
DAV:   6    -0.988464949076E+02   -0.60908E-06   -0.51440E-06   132   0.713E-03
  57 F= -.98846495E+02 E0= -.98846495E+02  d E =-.208948E-10
       N       E                     dE             d eps       ncg     rms          rms(c)
DAV:   1    -0.988452208331E+02    0.12735E-02   -0.20790E-01   120   0.117E+00    0.119E-01
DAV:   2    -0.988458506392E+02   -0.62981E-03   -0.74159E-03   132   0.235E-01    0.574E-02
DAV:   3    -0.988458515667E+02   -0.92754E-06   -0.13921E-04   108   0.427E-02    0.304E-02
DAV:   4    -0.988458578684E+02   -0.63017E-05   -0.31299E-05   108   0.290E-02    0.612E-03
DAV:   5    -0.988458627995E+02   -0.49312E-05   -0.14925E-05   132   0.144E-02    0.529E-03
DAV:   6    -0.988458654610E+02   -0.26615E-05   -0.13750E-06   108   0.380E-03    0.410E-03
DAV:   7    -0.988458717009E+02   -0.62398E-05   -0.47873E-07    84   0.241E-03    0.153E-03
DAV:   8    -0.988458781363E+02   -0.64354E-05   -0.56735E-07   108   0.254E-03    0.102E-03
DAV:   9    -0.988458880756E+02   -0.99393E-05   -0.70341E-07    84   0.295E-03    0.736E-04
DAV:  10    -0.988458906202E+02   -0.25446E-05   -0.23402E-07   108   0.151E-03    0.698E-04
DAV:  11    -0.988458924318E+02   -0.18116E-05   -0.32596E-08   108   0.611E-04    0.430E-04
DAV:  12    -0.988458952217E+02   -0.27899E-05   -0.68933E-08    84   0.645E-04    0.181E-04
DAV:  13    -0.988458972683E+02   -0.20467E-05   -0.50047E-08    96   0.535E-04    0.265E-04
DAV:  14    -0.988458979222E+02   -0.65389E-06   -0.46389E-09   108   0.266E-04
  58 F= -.98845898E+02 E0= -.98845898E+02  d E =-.165778E-10
       N       E                     dE             d eps       ncg     rms          rms(c)
DAV:   1    -0.988444122974E+02    0.14850E-02   -0.40166E-01   120   0.165E+00    0.192E-01
DAV:   2    -0.988460084490E+02   -0.15962E-02   -0.19595E-02   132   0.401E-01    0.115E-01
DAV:   3    -0.988459236651E+02    0.84784E-04   -0.28930E-04   132   0.583E-02    0.637E-02
DAV:   4    -0.988458634482E+02    0.60217E-04   -0.10886E-04   132   0.427E-02    0.104E-02
DAV:   5    -0.988458607529E+02    0.26953E-05   -0.29248E-05   132   0.204E-02    0.767E-03
DAV:   6    -0.988458715924E+02   -0.10840E-04   -0.87915E-06   132   0.875E-03    0.422E-03
DAV:   7    -0.988458929068E+02   -0.21314E-04   -0.24295E-06   132   0.500E-03    0.224E-03
DAV:   8    -0.988459282180E+02   -0.35311E-04   -0.38084E-06   120   0.470E-03    0.119E-03
DAV:   9    -0.988459494653E+02   -0.21247E-04   -0.19019E-06   120   0.319E-03    0.948E-04
DAV:  10    -0.988459673691E+02   -0.17904E-04   -0.14421E-06   108   0.248E-03    0.375E-04
DAV:  11    -0.988459752353E+02   -0.78662E-05   -0.38022E-07   108   0.130E-03    0.335E-04
DAV:  12    -0.988459801757E+02   -0.49404E-05   -0.25294E-07    84   0.957E-04    0.150E-04
DAV:  13    -0.988459821637E+02   -0.19880E-05   -0.58782E-08   108   0.492E-04    0.777E-05
DAV:  14    -0.988459831305E+02   -0.96677E-06   -0.87013E-09    84   0.277E-04
  59 F= -.98845983E+02 E0= -.98845983E+02  d E =-.579709E-11
       N       E                     dE             d eps       ncg     rms          rms(c)
DAV:   1    -0.988448130272E+02    0.11691E-02   -0.20242E-01   120   0.119E+00    0.132E-01
DAV:   2    -0.988455461099E+02   -0.73308E-03   -0.91328E-03   120   0.278E-01    0.771E-02
DAV:   3    -0.988455049446E+02    0.41165E-04   -0.13223E-04   132   0.370E-02    0.409E-02
DAV:   4    -0.988454705007E+02    0.34444E-04   -0.37618E-05   132   0.233E-02    0.720E-03
DAV:   5    -0.988454628251E+02    0.76757E-05   -0.79407E-06   132   0.112E-02    0.409E-03
DAV:   6    -0.988454652112E+02   -0.23861E-05   -0.39517E-06   108   0.665E-03    0.225E-03
DAV:   7    -0.988454744744E+02   -0.92632E-05   -0.12667E-06   120   0.408E-03    0.142E-03
DAV:   8    -0.988454887180E+02   -0.14244E-04   -0.78839E-07    84   0.261E-03    0.746E-04
DAV:   9    -0.988455018819E+02   -0.13164E-04   -0.91499E-07   108   0.218E-03    0.600E-04
DAV:  10    -0.988455139385E+02   -0.12057E-04   -0.50472E-07    96   0.159E-03    0.251E-04
DAV:  11    -0.988455189706E+02   -0.50321E-05   -0.15346E-07   108   0.798E-04    0.229E-04
DAV:  12    -0.988455237714E+02   -0.48008E-05   -0.10257E-07    84   0.649E-04    0.990E-05
DAV:  13    -0.988455255011E+02   -0.17298E-05   -0.22317E-08   108   0.348E-04    0.554E-05
DAV:  14    -0.988455267926E+02   -0.12914E-05   -0.11844E-08    84   0.265E-04    0.406E-05
DAV:  15    -0.988455272123E+02   -0.41969E-06    0.25550E-09   108   0.142E-04
  60 F= -.98845527E+02 E0= -.98845527E+02  d E =-.124283E-10
       N       E                     dE             d eps       ncg     rms          rms(c)
DAV:   1    -0.988439397364E+02    0.15871E-02   -0.40340E-01   108   0.165E+00    0.193E-01
DAV:   2    -0.988456048119E+02   -0.16651E-02   -0.20593E-02   144   0.403E-01    0.127E-01
DAV:   3    -0.988454888458E+02    0.11597E-03   -0.24749E-04   132   0.526E-02    0.728E-02
DAV:   4    -0.988454080735E+02    0.80772E-04   -0.13624E-04   132   0.412E-02    0.110E-02
DAV:   5    -0.988454061023E+02    0.19712E-05   -0.26086E-05   132   0.185E-02    0.684E-03
DAV:   6    -0.988454268109E+02   -0.20709E-04   -0.13675E-05   132   0.995E-03    0.366E-03
DAV:   7    -0.988454581791E+02   -0.31368E-04   -0.41397E-06   120   0.566E-03    0.231E-03
DAV:   8    -0.988455038658E+02   -0.45687E-04   -0.48141E-06   132   0.474E-03    0.111E-03
DAV:   9    -0.988455319978E+02   -0.28132E-04   -0.27423E-06   120   0.339E-03    0.914E-04
DAV:  10    -0.988455567867E+02   -0.24789E-04   -0.26965E-06   120   0.304E-03    0.441E-04
DAV:  11    -0.988455626924E+02   -0.59057E-05   -0.22529E-07   108   0.102E-03    0.273E-04
DAV:  12    -0.988455672711E+02   -0.45787E-05   -0.19652E-07    84   0.851E-04    0.163E-04
DAV:  13    -0.988455693471E+02   -0.20759E-05   -0.55024E-08   108   0.482E-04    0.719E-05
DAV:  14    -0.988455704680E+02   -0.11210E-05   -0.11139E-08    84   0.297E-04    0.562E-05
DAV:  15    -0.988455708983E+02   -0.43023E-06    0.12821E-09   108   0.167E-04
  61 F= -.98845571E+02 E0= -.98845571E+02  d E =-.630151E-11
       N       E                     dE             d eps       ncg     rms          rms(c)
DAV:   1    -0.988485067223E+02   -0.29363E-02   -0.23846E-01   108   0.170E+00    0.150E-01
DAV:   2    -0.988488911090E+02   -0.38439E-03   -0.65003E-03   120   0.260E-01    0.882E-02
DAV:   3    -0.988488084790E+02    0.82630E-04   -0.18588E-04   132   0.483E-02    0.394E-02
DAV:   4    -0.988487885334E+02    0.19946E-04   -0.75629E-05   132   0.299E-02    0.866E-03
DAV:   5    -0.988487836928E+02    0.48406E-05   -0.98919E-06   132   0.120E-02    0.537E-03
DAV:   6    -0.988487851797E+02   -0.14869E-05   -0.37413E-06   120   0.597E-03    0.231E-03
DAV:   7    -0.988487904541E+02   -0.52745E-05   -0.55853E-07   108   0.293E-03    0.121E-03
DAV:   8    -0.988487990047E+02   -0.85505E-05   -0.56511E-07    84   0.217E-03    0.796E-04
DAV:   9    -0.988488077588E+02   -0.87541E-05   -0.46457E-07    96   0.169E-03    0.423E-04
DAV:  10    -0.988488158397E+02   -0.80809E-05   -0.42381E-07    96   0.141E-03    0.297E-04
DAV:  11    -0.988488194526E+02   -0.36129E-05   -0.84288E-08   108   0.732E-04    0.181E-04
DAV:  12    -0.988488226175E+02   -0.31649E-05   -0.67758E-08    84   0.594E-04    0.152E-04
DAV:  13    -0.988488235647E+02   -0.94718E-06   -0.10263E-08   108   0.296E-04
  62 F= -.98848824E+02 E0= -.98848824E+02  d E =-.694157E-11
       N       E                     dE             d eps       ncg     rms          rms(c)
DAV:   1    -0.988492830242E+02   -0.46041E-03   -0.54981E-01    96   0.257E+00    0.230E-01
DAV:   2    -0.988489295233E+02    0.35350E-03   -0.33809E-03   108   0.202E-01    0.121E-01
DAV:   3    -0.988487177862E+02    0.21174E-03   -0.52271E-04   132   0.700E-02    0.354E-02
DAV:   4    -0.988487184456E+02   -0.65939E-06   -0.98014E-05   132   0.313E-02    0.123E-02
DAV:   5    -0.988487202641E+02   -0.18185E-05   -0.60409E-06   120   0.998E-03    0.573E-03
DAV:   6    -0.988487237940E+02   -0.35298E-05   -0.30299E-06   132   0.579E-03    0.151E-03
DAV:   7    -0.988487260248E+02   -0.22309E-05   -0.34607E-07    84   0.234E-03    0.867E-04
DAV:   8    -0.988487297629E+02   -0.37381E-05   -0.18496E-07    96   0.143E-03    0.326E-04
DAV:   9    -0.988487314243E+02   -0.16613E-05   -0.68237E-08   108   0.878E-04    0.321E-04
DAV:  10    -0.988487343447E+02   -0.29204E-05   -0.10905E-07    84   0.897E-04    0.126E-04
DAV:  11    -0.988487357359E+02   -0.13912E-05   -0.68657E-08    96   0.654E-04    0.120E-04
DAV:  12    -0.988487364738E+02   -0.73787E-06   -0.10769E-08    96   0.363E-04
  63 F= -.98848736E+02 E0= -.98848736E+02  d E =-.904702E-11
       N       E                     dE             d eps       ncg     rms          rms(c)
DAV:   1    -0.988478529700E+02    0.88277E-03   -0.29013E-01    96   0.186E+00    0.212E-01
DAV:   2    -0.988476010341E+02    0.25194E-03   -0.23460E-03   108   0.168E-01    0.102E-01
DAV:   3    -0.988474506903E+02    0.15034E-03   -0.36884E-04   132   0.585E-02    0.360E-02
DAV:   4    -0.988474421907E+02    0.84996E-05   -0.10244E-04   120   0.300E-02    0.133E-02
DAV:   5    -0.988474402954E+02    0.18953E-05   -0.50528E-06   120   0.984E-03    0.486E-03
DAV:   6    -0.988474414466E+02   -0.11512E-05   -0.27920E-06   120   0.580E-03    0.193E-03
DAV:   7    -0.988474428592E+02   -0.14126E-05   -0.47106E-07   108   0.259E-03    0.997E-04
DAV:   8    -0.988474454512E+02   -0.25920E-05   -0.16593E-07    84   0.141E-03    0.384E-04
DAV:   9    -0.988474473788E+02   -0.19276E-05   -0.11685E-07    96   0.115E-03    0.469E-04
DAV:  10    -0.988474507704E+02   -0.33916E-05   -0.19149E-07    84   0.123E-03    0.355E-04
DAV:  11    -0.988474516528E+02   -0.88244E-06   -0.41981E-08   108   0.647E-04
  64 F= -.98847452E+02 E0= -.98847452E+02  d E =-.846715E-11
       N       E                     dE             d eps       ncg     rms          rms(c)
DAV:   1    -0.988484575197E+02   -0.10067E-02   -0.56758E-01    96   0.258E+00    0.279E-01
DAV:   2    -0.988480079142E+02    0.44961E-03   -0.43207E-03   108   0.229E-01    0.136E-01
DAV:   3    -0.988477201087E+02    0.28781E-03   -0.65325E-04   120   0.760E-02    0.480E-02
DAV:   4    -0.988477024893E+02    0.17619E-04   -0.16175E-04   132   0.382E-02    0.176E-02
DAV:   5    -0.988477045436E+02   -0.20543E-05   -0.94972E-06   120   0.133E-02    0.686E-03
[...]
DAV:   2    -0.988493476774E+02    0.46675E-04   -0.17861E-03   108   0.141E-01    0.734E-02
DAV:   3    -0.988492669160E+02    0.80761E-04   -0.22575E-04   132   0.421E-02    0.177E-02
DAV:   4    -0.988492640140E+02    0.29021E-05   -0.32844E-05   108   0.173E-02    0.665E-03
DAV:   5    -0.988492634143E+02    0.59965E-06   -0.31312E-06   120   0.646E-03
 130 F= -.98849263E+02 E0= -.98849263E+02  d E =-.117396E-10
       N       E                     dE             d eps       ncg     rms          rms(c)
DAV:   1    -0.988496634524E+02   -0.39944E-03   -0.52334E-01    96   0.240E+00    0.156E-01
DAV:   2    -0.988495684894E+02    0.94963E-04   -0.21134E-03   108   0.156E-01    0.909E-02
DAV:   3    -0.988494775217E+02    0.90968E-04   -0.33931E-04   120   0.589E-02    0.118E-02
DAV:   4    -0.988494837178E+02   -0.61962E-05   -0.52139E-05   132   0.236E-02    0.746E-03
DAV:   5    -0.988494843365E+02   -0.61866E-06   -0.14078E-06   108   0.428E-03
 131 F= -.98849484E+02 E0= -.98849484E+02  d E =-.559377E-11
       N       E                     dE             d eps       ncg     rms          rms(c)
DAV:   1    -0.988489980236E+02    0.48569E-03   -0.26212E-01    96   0.166E+00    0.111E-01
DAV:   2    -0.988489504365E+02    0.47587E-04   -0.11206E-03   108   0.111E-01    0.639E-02
DAV:   3    -0.988489042084E+02    0.46228E-04   -0.17855E-04   108   0.406E-02    0.885E-03
DAV:   4    -0.988489070983E+02   -0.28899E-05   -0.26705E-05   132   0.168E-02    0.526E-03
DAV:   5    -0.988489075199E+02   -0.42168E-06   -0.88310E-07   108   0.339E-03
 132 F= -.98848908E+02 E0= -.98848908E+02  d E =-.106479E-10
       N       E                     dE             d eps       ncg     rms          rms(c)
DAV:   1    -0.988491987106E+02   -0.29161E-03   -0.52946E-01    96   0.237E+00    0.169E-01
DAV:   2    -0.988491171500E+02    0.81561E-04   -0.26587E-03   108   0.174E-01    0.954E-02
DAV:   3    -0.988490019661E+02    0.11518E-03   -0.38053E-04   120   0.580E-02    0.191E-02
DAV:   4    -0.988490047521E+02   -0.27860E-05   -0.63626E-05   132   0.253E-02    0.825E-03
DAV:   5    -0.988490043812E+02    0.37089E-06   -0.31717E-06   108   0.649E-03
 133 F= -.98849004E+02 E0= -.98849004E+02  d E =-.657795E-11
       N       E                     dE             d eps       ncg     rms          rms(c)
DAV:   1    -0.988488970068E+02    0.10775E-03   -0.26552E-01    96   0.198E+00    0.122E-01
DAV:   2    -0.988488996231E+02   -0.26163E-05   -0.17333E-03   120   0.154E-01    0.689E-02
DAV:   3    -0.988488441537E+02    0.55469E-04   -0.14950E-04   108   0.384E-02    0.163E-02
DAV:   4    -0.988488449289E+02   -0.77518E-06   -0.30196E-05   132   0.175E-02    0.543E-03
DAV:   5    -0.988488446696E+02    0.25933E-06   -0.20007E-06    96   0.484E-03
 134 F= -.98848845E+02 E0= -.98848845E+02  d E =-.840276E-11
       N       E                     dE             d eps       ncg     rms          rms(c)
DAV:   1    -0.988488959145E+02   -0.50986E-04   -0.53240E-01    96   0.262E+00    0.177E-01
DAV:   2    -0.988487790107E+02    0.11690E-03   -0.27167E-03   120   0.180E-01    0.975E-02
DAV:   3    -0.988486448848E+02    0.13413E-03   -0.36595E-04   108   0.536E-02    0.226E-02
DAV:   4    -0.988486406065E+02    0.42783E-05   -0.49901E-05   120   0.223E-02    0.917E-03
DAV:   5    -0.988486407190E+02   -0.11252E-06   -0.43031E-06   108   0.715E-03
 135 F= -.98848641E+02 E0= -.98848641E+02  d E =-.750472E-11
       N       E                     dE             d eps       ncg     rms          rms(c)
DAV:   1    -0.988478751601E+02    0.76545E-03   -0.27237E-01   108   0.185E+00    0.148E-01
DAV:   2    -0.988478274695E+02    0.47691E-04   -0.21676E-03   108   0.164E-01    0.798E-02
DAV:   3    -0.988477409383E+02    0.86531E-04   -0.27728E-04   120   0.495E-02    0.221E-02
DAV:   4    -0.988477406792E+02    0.25909E-06   -0.59886E-05   108   0.231E-02    0.864E-03
DAV:   5    -0.988477393172E+02    0.13620E-05   -0.27917E-06   120   0.647E-03    0.451E-03
DAV:   6    -0.988477395747E+02   -0.25748E-06   -0.25373E-06   108   0.562E-03
 136 F= -.98847740E+02 E0= -.98847740E+02  d E =-.747770E-11
       N       E                     dE             d eps       ncg     rms          rms(c)
DAV:   1    -0.988481640981E+02   -0.42478E-03   -0.54124E-01   108   0.262E+00    0.196E-01
DAV:   2    -0.988480455087E+02    0.11859E-03   -0.43540E-03   108   0.225E-01    0.108E-01
DAV:   3    -0.988478535936E+02    0.19192E-03   -0.55734E-04   120   0.737E-02    0.280E-02
DAV:   4    -0.988478518021E+02    0.17914E-05   -0.12661E-04   120   0.354E-02    0.123E-02
DAV:   5    -0.988478504587E+02    0.13434E-05   -0.41210E-06   132   0.760E-03    0.710E-03
DAV:   6    -0.988478527210E+02   -0.22623E-05   -0.43284E-06   108   0.734E-03    0.146E-03
DAV:   7    -0.988478557146E+02   -0.29935E-05   -0.13127E-06   132   0.385E-03    0.114E-03
DAV:   8    -0.988478597083E+02   -0.39938E-05   -0.19704E-07    84   0.114E-03    0.389E-04
DAV:   9    -0.988478627223E+02   -0.30140E-05   -0.16174E-07    96   0.873E-04    0.303E-04
DAV:  10    -0.988478660501E+02   -0.33278E-05   -0.18901E-07    84   0.942E-04    0.154E-04
DAV:  11    -0.988478675886E+02   -0.15386E-05   -0.68927E-08    96   0.574E-04    0.142E-04
DAV:  12    -0.988478684728E+02   -0.88412E-06   -0.17772E-08    84   0.361E-04
 137 F= -.98847868E+02 E0= -.98847868E+02  d E =-.871099E-11
       N       E                     dE             d eps       ncg     rms          rms(c)
DAV:   1    -0.988489337204E+02   -0.10661E-02   -0.27228E-01   108   0.186E+00    0.144E-01
DAV:   2    -0.988488959753E+02    0.37745E-04   -0.23363E-03   108   0.168E-01    0.789E-02
DAV:   3    -0.988487939524E+02    0.10202E-03   -0.26725E-04   120   0.512E-02    0.217E-02
DAV:   4    -0.988487925927E+02    0.13596E-05   -0.72845E-05   108   0.257E-02    0.891E-03
DAV:   5    -0.988487918099E+02    0.78279E-06   -0.25068E-06   120   0.632E-03
 138 F= -.98848792E+02 E0= -.98848792E+02  d E =-.101708E-10
       N       E                     dE             d eps       ncg     rms          rms(c)
DAV:   1    -0.988491490515E+02   -0.35646E-03   -0.52928E-01    96   0.260E+00    0.173E-01
DAV:   2    -0.988490529905E+02    0.96061E-04   -0.27578E-03   108   0.184E-01    0.974E-02
DAV:   3    -0.988489307848E+02    0.12221E-03   -0.39131E-04   108   0.590E-02    0.188E-02
DAV:   4    -0.988489342705E+02   -0.34857E-05   -0.63535E-05   132   0.248E-02    0.894E-03
DAV:   5    -0.988489341139E+02    0.15661E-06   -0.31694E-06   132   0.639E-03
 139 F= -.98848934E+02 E0= -.98848934E+02  d E =-.643801E-11
       N       E                     dE             d eps       ncg     rms          rms(c)
DAV:   1    -0.988486250457E+02    0.30922E-03   -0.26639E-01    96   0.195E+00    0.125E-01
DAV:   2    -0.988486000271E+02    0.25019E-04   -0.15597E-03   120   0.143E-01    0.708E-02
DAV:   3    -0.988485323097E+02    0.67717E-04   -0.23040E-04   120   0.419E-02    0.140E-02
DAV:   4    -0.988485313506E+02    0.95912E-06   -0.28854E-05   132   0.164E-02    0.753E-03
DAV:   5    -0.988485301548E+02    0.11959E-05   -0.20120E-06    96   0.590E-03    0.392E-03
DAV:   6    -0.988485302732E+02   -0.11848E-06   -0.20770E-06   120   0.531E-03
 140 F= -.98848530E+02 E0= -.98848530E+02  d E =-.826068E-11
       N       E                     dE             d eps       ncg     rms          rms(c)
DAV:   1    -0.988486993399E+02   -0.16919E-03   -0.53275E-01    96   0.271E+00    0.183E-01
DAV:   2    -0.988485998007E+02    0.99539E-04   -0.31658E-03   108   0.197E-01    0.100E-01
DAV:   3    -0.988484508690E+02    0.14893E-03   -0.38662E-04   120   0.561E-02    0.259E-02
DAV:   4    -0.988484433693E+02    0.74997E-05   -0.60348E-05   108   0.240E-02    0.101E-02
DAV:   5    -0.988484436771E+02   -0.30780E-06   -0.51205E-06   132   0.821E-03
 141 F= -.98848444E+02 E0= -.98848444E+02  d E =-.766182E-11
       N       E                     dE             d eps       ncg     rms          rms(c)
DAV:   1    -0.988477118238E+02    0.73155E-03   -0.26445E-01    96   0.186E+00    0.111E-01
DAV:   2    -0.988476558954E+02    0.55928E-04   -0.11051E-03   120   0.118E-01    0.642E-02
DAV:   3    -0.988476062432E+02    0.49652E-04   -0.20303E-04   108   0.459E-02    0.859E-03
DAV:   4    -0.988476114823E+02   -0.52391E-05   -0.37883E-05   132   0.203E-02    0.614E-03
DAV:   5    -0.988476124474E+02   -0.96507E-06   -0.73821E-07    96   0.330E-03
 142 F= -.98847612E+02 E0= -.98847612E+02  d E =-.724984E-11
       N       E                     dE             d eps       ncg     rms          rms(c)
DAV:   1    -0.988477230566E+02   -0.11157E-03   -0.54625E-01    96   0.271E+00    0.201E-01
DAV:   2    -0.988476323487E+02    0.90708E-04   -0.45084E-03   108   0.248E-01    0.111E-01
DAV:   3    -0.988474330923E+02    0.19926E-03   -0.54175E-04   120   0.775E-02    0.290E-02
DAV:   4    -0.988474342435E+02   -0.11511E-05   -0.15389E-04   132   0.386E-02    0.121E-02
DAV:   5    -0.988474322986E+02    0.19449E-05   -0.46918E-06   108   0.863E-03    0.730E-03
DAV:   6    -0.988474325660E+02   -0.26744E-06   -0.50642E-06   120   0.861E-03
 143 F= -.98847433E+02 E0= -.98847433E+02  d E =-.872478E-11
       N       E                     dE             d eps       ncg     rms          rms(c)
DAV:   1    -0.988495689352E+02   -0.21366E-02   -0.26936E-01    96   0.191E+00    0.127E-01
DAV:   2    -0.988495014222E+02    0.67513E-04   -0.16206E-03   108   0.149E-01    0.717E-02
DAV:   3    -0.988494316450E+02    0.69777E-04   -0.24189E-04   108   0.507E-02    0.147E-02
DAV:   4    -0.988494363428E+02   -0.46978E-05   -0.52743E-05   132   0.239E-02    0.771E-03
DAV:   5    -0.988494363008E+02    0.42003E-07   -0.14074E-06    96   0.453E-03
 144 F= -.98849436E+02 E0= -.98849436E+02  d E =-.909699E-11
       N       E                     dE             d eps       ncg     rms          rms(c)
DAV:   1    -0.988495607267E+02   -0.12438E-03   -0.52595E-01    96   0.267E+00    0.159E-01
DAV:   2    -0.988494434594E+02    0.11727E-03   -0.21273E-03   108   0.165E-01    0.923E-02
DAV:   3    -0.988493356887E+02    0.10777E-03   -0.37362E-04   120   0.627E-02    0.118E-02
DAV:   4    -0.988493411937E+02   -0.55050E-05   -0.56625E-05   132   0.251E-02    0.751E-03
DAV:   5    -0.988493415228E+02   -0.32913E-06   -0.16061E-06   108   0.461E-03
 145 F= -.98849342E+02 E0= -.98849342E+02  d E =-.712035E-11
       N       E                     dE             d eps       ncg     rms          rms(c)
DAV:   1    -0.988485800638E+02    0.76113E-03   -0.26659E-01    96   0.190E+00    0.120E-01
DAV:   2    -0.988485584811E+02    0.21583E-04   -0.16980E-03   120   0.150E-01    0.689E-02
DAV:   3    -0.988484982254E+02    0.60256E-04   -0.20507E-04   120   0.479E-02    0.142E-02
DAV:   4    -0.988485026911E+02   -0.44657E-05   -0.53012E-05   120   0.234E-02    0.743E-03
DAV:   5    -0.988485025903E+02    0.10076E-06   -0.12210E-06   108   0.438E-03
 146 F= -.98848503E+02 E0= -.98848503E+02  d E =-.823937E-11
       N       E                     dE             d eps       ncg     rms          rms(c)
DAV:   1    -0.988489069927E+02   -0.40430E-03   -0.53650E-01    96   0.268E+00    0.178E-01
DAV:   2    -0.988487758411E+02    0.13115E-03   -0.32885E-03   108   0.210E-01    0.100E-01
DAV:   3    -0.988486196220E+02    0.15622E-03   -0.47268E-04   120   0.707E-02    0.209E-02
DAV:   4    -0.988486238859E+02   -0.42639E-05   -0.10610E-04   132   0.337E-02    0.108E-02
DAV:   5    -0.988486229218E+02    0.96411E-06   -0.27207E-06   132   0.619E-03
 147 F= -.98848623E+02 E0= -.98848623E+02  d E =-.759880E-11
       N       E                     dE             d eps       ncg     rms          rms(c)
DAV:   1    -0.988475758620E+02    0.10480E-02   -0.26385E-01    96   0.188E+00    0.112E-01
DAV:   2    -0.988475167268E+02    0.59135E-04   -0.10864E-03   108   0.113E-01    0.641E-02
DAV:   3    -0.988474589625E+02    0.57764E-04   -0.17084E-04   120   0.400E-02    0.106E-02
DAV:   4    -0.988474615873E+02   -0.26248E-05   -0.24473E-05   120   0.164E-02    0.566E-03
DAV:   5    -0.988474630629E+02   -0.14756E-05   -0.99380E-07    96   0.358E-03    0.343E-03
DAV:   6    -0.988474661934E+02   -0.31305E-05   -0.78311E-07    84   0.310E-03    0.690E-04
DAV:   7    -0.988474683907E+02   -0.21973E-05   -0.26371E-07    96   0.177E-03    0.575E-04
DAV:   8    -0.988474718566E+02   -0.34659E-05   -0.22179E-07    84   0.158E-03    0.282E-04
DAV:   9    -0.988474737705E+02   -0.19139E-05   -0.13124E-07    96   0.992E-04    0.212E-04
DAV:  10    -0.988474756460E+02   -0.18754E-05   -0.62590E-08    96   0.628E-04    0.112E-04
DAV:  11    -0.988474765894E+02   -0.94342E-06   -0.29311E-08    96   0.376E-04
 148 F= -.98847477E+02 E0= -.98847477E+02  d E =-.757853E-11
       N       E                     dE             d eps       ncg     rms          rms(c)
DAV:   1    -0.988476801141E+02   -0.20447E-03   -0.54311E-01    96   0.268E+00    0.204E-01
DAV:   2    -0.988476061528E+02    0.73961E-04   -0.43065E-03   108   0.233E-01    0.111E-01
DAV:   3    -0.988474113119E+02    0.19484E-03   -0.47305E-04   132   0.659E-02    0.327E-02
DAV:   4    -0.988474014545E+02    0.98574E-05   -0.11645E-04   132   0.315E-02    0.114E-02
DAV:   5    -0.988473991320E+02    0.23226E-05   -0.58438E-06   132   0.998E-03    0.605E-03
DAV:   6    -0.988474014696E+02   -0.23377E-05   -0.45131E-06   108   0.828E-03    0.189E-03
DAV:   7    -0.988474056857E+02   -0.42161E-05   -0.17315E-06   132   0.443E-03    0.154E-03
DAV:   8    -0.988474113230E+02   -0.56372E-05   -0.27599E-07    84   0.162E-03    0.600E-04
DAV:   9    -0.988474164220E+02   -0.50990E-05   -0.28202E-07    96   0.140E-03    0.406E-04
DAV:  10    -0.988474229023E+02   -0.64803E-05   -0.36755E-07    84   0.146E-03    0.178E-04
DAV:  11    -0.988474259471E+02   -0.30448E-05   -0.10171E-07    96   0.832E-04    0.169E-04
DAV:  12    -0.988474276473E+02   -0.17001E-05   -0.17721E-08    84   0.418E-04    0.914E-05
DAV:  13    -0.988474291544E+02   -0.15071E-05   -0.23457E-08    84   0.358E-04    0.499E-05
DAV:  14    -0.988474298480E+02   -0.69365E-06   -0.28238E-09   108   0.207E-04
 149 F= -.98847430E+02 E0= -.98847430E+02  d E =-.812177E-11
       N       E                     dE             d eps       ncg     rms          rms(c)
DAV:   1    -0.988495624773E+02   -0.21333E-02   -0.26588E-01    96   0.193E+00    0.129E-01
DAV:   2    -0.988494920094E+02    0.70468E-04   -0.15642E-03   108   0.146E-01    0.717E-02
DAV:   3    -0.988494170969E+02    0.74912E-04   -0.21369E-04   120   0.460E-02    0.168E-02
DAV:   4    -0.988494176645E+02   -0.56755E-06   -0.42609E-05   132   0.208E-02    0.771E-03
DAV:   5    -0.988494180059E+02   -0.34144E-06   -0.17470E-06    96   0.507E-03
 150 F= -.98849418E+02 E0= -.98849418E+02  d E =-.847649E-11
       N       E                     dE             d eps       ncg     rms          rms(c)
DAV:   1    -0.988495531236E+02   -0.13546E-03   -0.52584E-01    96   0.267E+00    0.159E-01
DAV:   2    -0.988494335518E+02    0.11957E-03   -0.21277E-03   108   0.166E-01    0.922E-02
DAV:   3    -0.988493238311E+02    0.10972E-03   -0.37335E-04   120   0.627E-02    0.118E-02
DAV:   4    -0.988493306101E+02   -0.67790E-05   -0.56686E-05   132   0.252E-02    0.755E-03
DAV:   5    -0.988493317856E+02   -0.11755E-05   -0.16167E-06   108   0.463E-03    0.527E-03
DAV:   6    -0.988493357913E+02   -0.40057E-05   -0.19252E-06    96   0.466E-03    0.912E-04
DAV:   7    -0.988493380742E+02   -0.22829E-05   -0.48399E-07   108   0.235E-03    0.849E-04
DAV:   8    -0.988493412547E+02   -0.31805E-05   -0.17276E-07    84   0.161E-03    0.436E-04
DAV:   9    -0.988493446203E+02   -0.33655E-05   -0.20581E-07    96   0.152E-03    0.260E-04
DAV:  10    -0.988493472341E+02   -0.26139E-05   -0.13161E-07    96   0.968E-04    0.140E-04
DAV:  11    -0.988493482889E+02   -0.10548E-05   -0.29697E-08    96   0.437E-04    0.900E-05
DAV:  12    -0.988493490144E+02   -0.72554E-06   -0.12653E-08    96   0.294E-04
 151 F= -.98849349E+02 E0= -.98849349E+02  d E =-.732136E-11
       N       E                     dE             d eps       ncg     rms          rms(c)
DAV:   1    -0.988473919954E+02    0.19563E-02   -0.26681E-01    96   0.196E+00    0.131E-01
DAV:   2    -0.988473486149E+02    0.43381E-04   -0.20058E-03   108   0.160E-01    0.713E-02
DAV:   3    -0.988472668534E+02    0.81762E-04   -0.22306E-04   132   0.494E-02    0.203E-02
DAV:   4    -0.988472680079E+02   -0.11545E-05   -0.62728E-05   120   0.245E-02    0.749E-03
DAV:   5    -0.988472681696E+02   -0.16173E-06   -0.27187E-06   132   0.588E-03
 152 F= -.98847268E+02 E0= -.98847268E+02  d E =-.841127E-11
       N       E                     dE             d eps       ncg     rms          rms(c)
DAV:   1    -0.988474568143E+02   -0.18881E-03   -0.54576E-01   108   0.263E+00    0.208E-01
DAV:   2    -0.988473681531E+02    0.88661E-04   -0.47722E-03   120   0.242E-01    0.114E-01
DAV:   3    -0.988471620302E+02    0.20612E-03   -0.56967E-04   108   0.745E-02    0.320E-02
DAV:   4    -0.988471607584E+02    0.12718E-05   -0.14889E-04   132   0.367E-02    0.124E-02
DAV:   5    -0.988471582226E+02    0.25358E-05   -0.53457E-06   108   0.906E-03    0.705E-03
DAV:   6    -0.988471588148E+02   -0.59222E-06   -0.54889E-06   120   0.870E-03
 153 F= -.98847159E+02 E0= -.98847159E+02  d E =-.788240E-11
       N       E                     dE             d eps       ncg     rms          rms(c)
DAV:   1    -0.988493482210E+02   -0.21900E-02   -0.26956E-01   108   0.186E+00    0.141E-01
DAV:   2    -0.988492802336E+02    0.67987E-04   -0.18525E-03   108   0.151E-01    0.760E-02
DAV:   3    -0.988492043034E+02    0.75930E-04   -0.24257E-04   108   0.430E-02    0.204E-02
DAV:   4    -0.988492023184E+02    0.19850E-05   -0.36799E-05   120   0.184E-02    0.795E-03
DAV:   5    -0.988492012321E+02    0.10863E-05   -0.32191E-06   108   0.660E-03    0.357E-03
DAV:   6    -0.988492021473E+02   -0.91526E-06   -0.17490E-06   120   0.432E-03
 154 F= -.98849202E+02 E0= -.98849202E+02  d E =-.724019E-11
       N       E                     dE             d eps       ncg     rms          rms(c)
DAV:   1    -0.988496386304E+02   -0.43740E-03   -0.53271E-01    96   0.256E+00    0.162E-01
DAV:   2    -0.988495143819E+02    0.12425E-03   -0.20142E-03   120   0.155E-01    0.920E-02
DAV:   3    -0.988494077045E+02    0.10668E-03   -0.34528E-04   120   0.563E-02    0.148E-02
DAV:   4    -0.988494100057E+02   -0.23012E-05   -0.49313E-05   132   0.234E-02    0.747E-03
DAV:   5    -0.988494095238E+02    0.48182E-06   -0.21312E-06   108   0.511E-03
 155 F= -.98849410E+02 E0= -.98849410E+02  d E =-.838351E-11
       N       E                     dE             d eps       ncg     rms          rms(c)
DAV:   1    -0.988489374052E+02    0.47260E-03   -0.26478E-01    96   0.185E+00    0.115E-01
DAV:   2    -0.988488708313E+02    0.66574E-04   -0.11059E-03   120   0.117E-01    0.667E-02
DAV:   3    -0.988488191949E+02    0.51636E-04   -0.19707E-04   120   0.452E-02    0.845E-03
DAV:   4    -0.988488231332E+02   -0.39383E-05   -0.34245E-05   120   0.192E-02    0.575E-03
DAV:   5    -0.988488235522E+02   -0.41902E-06   -0.72886E-07   108   0.327E-03
 156 F= -.98848824E+02 E0= -.98848824E+02  d E =-.100568E-10
       N       E                     dE             d eps       ncg     rms          rms(c)
DAV:   1    -0.988491787801E+02   -0.35565E-03   -0.52952E-01    96   0.260E+00    0.172E-01
DAV:   2    -0.988490807211E+02    0.98059E-04   -0.27499E-03   108   0.184E-01    0.972E-02
DAV:   3    -0.988489477725E+02    0.13295E-03   -0.39434E-04   120   0.591E-02    0.185E-02
DAV:   4    -0.988489486533E+02   -0.88080E-06   -0.63325E-05   132   0.248E-02    0.900E-03
DAV:   5    -0.988489486212E+02    0.32059E-07   -0.31487E-06   132   0.641E-03
 157 F= -.98848949E+02 E0= -.98848949E+02  d E =-.649432E-11
