       N       E                     dE             d eps       ncg     rms          rms(c)
DAV:   1     0.210037416121E+03    0.21004E+03   -0.10460E+04   116   0.546E+02
DAV:   2    -0.230326479186E+02   -0.23307E+03   -0.21864E+03   144   0.103E+02
DAV:   3    -0.989882260500E+02   -0.75956E+02   -0.75775E+02   112   0.554E+01
DAV:   4    -0.103401635329E+03   -0.44134E+01   -0.43978E+01   104   0.183E+01
DAV:   5    -0.103466025459E+03   -0.64390E-01   -0.64324E-01   128   0.241E+00    0.143E+01
DAV:   6    -0.100327090474E+03    0.31389E+01   -0.15909E+00   112   0.454E+00    0.824E+00
DAV:   7    -0.986920132415E+02    0.16351E+01   -0.39501E+00   112   0.661E+00    0.121E+00
DAV:   8    -0.986364327453E+02    0.55580E-01   -0.26419E-01   112   0.214E+00    0.592E-01
DAV:   9    -0.986005981160E+02    0.35835E-01   -0.69766E-02   112   0.740E-01    0.310E-01
DAV:  10    -0.986006946414E+02   -0.96525E-04   -0.24775E-03   112   0.203E-01    0.137E-01
DAV:  11    -0.986004784659E+02    0.21618E-03   -0.66804E-03   104   0.240E-01    0.822E-02
DAV:  12    -0.986054887122E+02   -0.50102E-02   -0.14663E-03   102   0.108E-01    0.502E-02
DAV:  13    -0.986097103366E+02   -0.42216E-02   -0.14685E-03   112   0.981E-02    0.344E-02
DAV:  14    -0.986146153012E+02   -0.49050E-02   -0.43643E-04   112   0.627E-02    0.156E-02
DAV:  15    -0.986182058754E+02   -0.35906E-02   -0.39025E-04   112   0.511E-02    0.115E-02
DAV:  16    -0.986192219036E+02   -0.10160E-02   -0.59335E-05   112   0.206E-02    0.610E-03
DAV:  17    -0.986202379071E+02   -0.10160E-02   -0.85683E-05   112   0.217E-02    0.279E-03
DAV:  18    -0.986204858707E+02   -0.24796E-03   -0.84967E-06   104   0.778E-03    0.174E-03
DAV:  19    -0.986205955873E+02   -0.10972E-03   -0.29338E-06    96   0.424E-03    0.959E-04
DAV:  20    -0.986206486482E+02   -0.53061E-04   -0.11503E-06    88   0.316E-03    0.681E-04
DAV:  21    -0.986206658881E+02   -0.17240E-04   -0.51189E-07    88   0.179E-03    0.355E-04
DAV:  22    -0.986206732102E+02   -0.73221E-05   -0.18679E-07    88   0.128E-03    0.264E-04
DAV:  23    -0.986206757799E+02   -0.25697E-05   -0.52681E-08    88   0.694E-04    0.142E-04
DAV:  24    -0.986206779393E+02   -0.21594E-05   -0.34623E-08    88   0.493E-04    0.764E-05
DAV:  25    -0.986206782776E+02   -0.33830E-06   -0.69677E-09    88   0.243E-04
   1 F= -.98620678E+02 E0= -.98620678E+02  d E =-.986207E+02
       N       E                     dE             d eps       ncg     rms          rms(c)
DAV:   1    -0.987547304903E+02   -0.13405E+00   -0.46276E+00    84   0.874E+00    0.971E-01
DAV:   2    -0.987738146368E+02   -0.19084E-01   -0.23683E-01   120   0.187E+00    0.468E-01
DAV:   3    -0.987708837509E+02    0.29309E-02   -0.81522E-03   120   0.363E-01    0.237E-01
DAV:   4    -0.987702316463E+02    0.65210E-03   -0.42116E-03   112   0.228E-01    0.572E-02
DAV:   5    -0.987700879022E+02    0.14374E-03   -0.35866E-04   112   0.861E-02    0.356E-02
DAV:   6    -0.987700813858E+02    0.65164E-05   -0.10242E-04   120   0.420E-02    0.199E-02
DAV:   7    -0.987701648221E+02   -0.83436E-04   -0.48059E-05   120   0.345E-02    0.653E-03
DAV:   8    -0.987702208803E+02   -0.56058E-04   -0.22145E-05   112   0.197E-02    0.999E-03
DAV:   9    -0.987702577024E+02   -0.36822E-04   -0.14774E-06    96   0.461E-03    0.679E-03
DAV:  10    -0.987703772701E+02   -0.11957E-03   -0.12045E-05   112   0.837E-03    0.436E-03
DAV:  11    -0.987703955296E+02   -0.18259E-04   -0.51017E-07    96   0.305E-03    0.258E-03
DAV:  12    -0.987704521908E+02   -0.56661E-04   -0.32244E-06   104   0.526E-03    0.102E-03
DAV:  13    -0.987704695753E+02   -0.17385E-04   -0.64198E-07    96   0.285E-03    0.639E-04
DAV:  14    -0.987704853376E+02   -0.15762E-04   -0.34458E-07    88   0.169E-03    0.410E-04
DAV:  15    -0.987704958883E+02   -0.10551E-04   -0.23167E-07    88   0.112E-03    0.543E-04
DAV:  16    -0.987705012662E+02   -0.53778E-05   -0.81841E-08    88   0.716E-04    0.184E-04
DAV:  17    -0.987705022714E+02   -0.10053E-05   -0.17685E-08    96   0.342E-04    0.187E-04
DAV:  18    -0.987705039194E+02   -0.16479E-05   -0.25435E-08    80   0.419E-04    0.635E-05
DAV:  19    -0.987705041782E+02   -0.25885E-06   -0.47928E-09    88   0.194E-04
   2 F= -.98770504E+02 E0= -.98770504E+02  d E =-.149826E+00
       N       E                     dE             d eps       ncg     rms          rms(c)
DAV:   1    -0.987706403058E+02   -0.13639E-03   -0.48146E-03    84   0.283E-01    0.305E-02
DAV:   2    -0.987706598686E+02   -0.19563E-04   -0.25000E-04   120   0.609E-02    0.156E-02
DAV:   3    -0.987706570621E+02    0.28065E-05   -0.90688E-06   120   0.121E-02    0.765E-03
DAV:   4    -0.987706564773E+02    0.58473E-06   -0.45189E-06   112   0.748E-03
   3 F= -.98770656E+02 E0= -.98770656E+02  d E =-.149978E+00
       N       E                     dE             d eps       ncg     rms          rms(c)
DAV:   1    -0.988165337212E+02   -0.45877E-01   -0.13811E+00    84   0.517E+00    0.467E-01
DAV:   2    -0.988202411764E+02   -0.37075E-02   -0.51601E-02   120   0.815E-01    0.209E-01
DAV:   3    -0.988196009822E+02    0.64019E-03   -0.22338E-03   120   0.179E-01    0.109E-01
DAV:   4    -0.988194389173E+02    0.16206E-03   -0.72862E-04   112   0.939E-02    0.333E-02
DAV:   5    -0.988194389999E+02   -0.82587E-07   -0.65815E-05   120   0.380E-02    0.194E-02
DAV:   6    -0.988194597193E+02   -0.20719E-04   -0.23607E-05   112   0.210E-02    0.810E-03
DAV:   7    -0.988194951252E+02   -0.35406E-04   -0.91331E-06   112   0.120E-02    0.345E-03
DAV:   8    -0.988195158033E+02   -0.20678E-04   -0.11327E-06    88   0.472E-03    0.241E-03
DAV:   9    -0.988195461177E+02   -0.30314E-04   -0.21200E-06    96   0.449E-03    0.849E-04
DAV:  10    -0.988195655525E+02   -0.19435E-04   -0.13902E-06    96   0.365E-03    0.897E-04
DAV:  11    -0.988195802983E+02   -0.14746E-04   -0.84014E-07    88   0.271E-03    0.392E-04
DAV:  12    -0.988195868673E+02   -0.65690E-05   -0.37242E-07    88   0.159E-03    0.341E-04
DAV:  13    -0.988195893327E+02   -0.24655E-05   -0.63199E-08    96   0.759E-04    0.171E-04
DAV:  14    -0.988195926268E+02   -0.32940E-05   -0.14370E-07    80   0.890E-04    0.910E-05
DAV:  15    -0.988195929727E+02   -0.34587E-06   -0.16066E-08    96   0.350E-04
   4 F= -.98819593E+02 E0= -.98819593E+02  d E =-.489365E-01
       N       E                     dE             d eps       ncg     rms          rms(c)
DAV:   1    -0.988223957980E+02   -0.28032E-02   -0.14803E-01    84   0.170E+00    0.150E-01
DAV:   2    -0.988228044351E+02   -0.40864E-03   -0.56999E-03   120   0.270E-01    0.689E-02
DAV:   3    -0.988227325853E+02    0.71850E-04   -0.25120E-04   120   0.599E-02    0.355E-02
DAV:   4    -0.988227105161E+02    0.22069E-04   -0.78554E-05   112   0.308E-02    0.114E-02
DAV:   5    -0.988227081483E+02    0.23679E-05   -0.69351E-06   120   0.124E-02    0.649E-03
DAV:   6    -0.988227102164E+02   -0.20682E-05   -0.25099E-06    96   0.691E-03    0.260E-03
DAV:   7    -0.988227150325E+02   -0.48161E-05   -0.91528E-07    88   0.402E-03    0.952E-04
DAV:   8    -0.988227187307E+02   -0.36982E-05   -0.24252E-07    88   0.203E-03    0.768E-04
DAV:   9    -0.988227249280E+02   -0.61973E-05   -0.36417E-07    88   0.190E-03    0.322E-04
DAV:  10    -0.988227276195E+02   -0.26915E-05   -0.15205E-07    88   0.122E-03    0.258E-04
DAV:  11    -0.988227298516E+02   -0.22321E-05   -0.85072E-08    88   0.833E-04    0.136E-04
DAV:  12    -0.988227310191E+02   -0.11675E-05   -0.40281E-08    88   0.546E-04    0.103E-04
DAV:  13    -0.988227317510E+02   -0.73190E-06   -0.18531E-08    88   0.364E-04
   5 F= -.98822732E+02 E0= -.98822732E+02  d E =-.520753E-01
       N       E                     dE             d eps       ncg     rms          rms(c)
DAV:   1    -0.988384833767E+02   -0.15752E-01   -0.47833E-01    84   0.306E+00    0.214E-01
DAV:   2    -0.988398728406E+02   -0.13895E-02   -0.19159E-02   112   0.510E-01    0.121E-01
DAV:   3    -0.988396811306E+02    0.19171E-03   -0.62602E-04   128   0.961E-02    0.662E-02
DAV:   4    -0.988396382352E+02    0.42895E-04   -0.26329E-04   112   0.569E-02    0.159E-02
DAV:   5    -0.988396343596E+02    0.38756E-05   -0.26519E-05   112   0.206E-02    0.865E-03
DAV:   6    -0.988396408708E+02   -0.65112E-05   -0.63891E-06   112   0.912E-03    0.398E-03
DAV:   7    -0.988396578925E+02   -0.17022E-04   -0.18230E-06    96   0.486E-03    0.137E-03
DAV:   8    -0.988396701958E+02   -0.12303E-04   -0.52149E-07    88   0.240E-03    0.111E-03
DAV:   9    -0.988396904778E+02   -0.20282E-04   -0.12914E-06    96   0.269E-03    0.614E-04
DAV:  10    -0.988396995966E+02   -0.91188E-05   -0.48329E-07    88   0.169E-03    0.461E-04
DAV:  11    -0.988397052232E+02   -0.56265E-05   -0.20100E-07    88   0.119E-03    0.268E-04
DAV:  12    -0.988397088638E+02   -0.36406E-05   -0.12875E-07    88   0.838E-04    0.141E-04
DAV:  13    -0.988397110348E+02   -0.21709E-05   -0.54007E-08    88   0.536E-04    0.643E-05
DAV:  14    -0.988397123879E+02   -0.13531E-05   -0.44251E-08    88   0.427E-04    0.421E-05
DAV:  15    -0.988397128571E+02   -0.46923E-06   -0.67143E-09    88   0.215E-04
   6 F= -.98839713E+02 E0= -.98839713E+02  d E =-.169811E-01
       N       E                     dE             d eps       ncg     rms          rms(c)
DAV:   1    -0.988438861371E+02   -0.41737E-02   -0.43679E-01    84   0.292E+00    0.204E-01
DAV:   2    -0.988451633942E+02   -0.12773E-02   -0.17583E-02   112   0.490E-01    0.117E-01
DAV:   3    -0.988449877359E+02    0.17566E-03   -0.57146E-04   128   0.919E-02    0.636E-02
DAV:   4    -0.988449480725E+02    0.39663E-04   -0.24225E-04   112   0.546E-02    0.151E-02
DAV:   5    -0.988449441646E+02    0.39079E-05   -0.24403E-05   112   0.198E-02    0.829E-03
DAV:   6    -0.988449499253E+02   -0.57607E-05   -0.58570E-06   112   0.876E-03    0.382E-03
DAV:   7    -0.988449654844E+02   -0.15559E-04   -0.16944E-06    96   0.470E-03    0.131E-03
DAV:   8    -0.988449768269E+02   -0.11342E-04   -0.47908E-07    88   0.231E-03    0.107E-03
DAV:   9    -0.988449953616E+02   -0.18535E-04   -0.11509E-06    96   0.254E-03    0.578E-04
DAV:  10    -0.988450039476E+02   -0.85861E-05   -0.44931E-07    88   0.163E-03    0.445E-04
DAV:  11    -0.988450093125E+02   -0.53648E-05   -0.19338E-07    88   0.116E-03    0.256E-04
DAV:  12    -0.988450126778E+02   -0.33653E-05   -0.11727E-07    88   0.804E-04    0.135E-04
DAV:  13    -0.988450147143E+02   -0.20365E-05   -0.49460E-08    88   0.515E-04    0.610E-05
DAV:  14    -0.988450159855E+02   -0.12712E-05   -0.41132E-08    88   0.413E-04    0.407E-05
DAV:  15    -0.988450164235E+02   -0.43803E-06   -0.60824E-09    88   0.207E-04
   7 F= -.98845016E+02 E0= -.98845016E+02  d E =-.222847E-01
       N       E                     dE             d eps       ncg     rms          rms(c)
DAV:   1    -0.988567121389E+02   -0.11696E-01   -0.27955E-01    84   0.243E+00    0.143E-01
DAV:   2    -0.988569270493E+02   -0.21491E-03   -0.51292E-03   120   0.286E-01    0.800E-02
DAV:   3    -0.988568066628E+02    0.12039E-03   -0.34707E-04   128   0.760E-02    0.341E-02
DAV:   4    -0.988568081509E+02   -0.14881E-05   -0.14295E-04   120   0.430E-02    0.113E-02
DAV:   5    -0.988568096955E+02   -0.15447E-05   -0.11864E-05   112   0.140E-02    0.605E-03
DAV:   6    -0.988568114466E+02   -0.17510E-05   -0.18968E-06    96   0.508E-03    0.209E-03
DAV:   7    -0.988568145570E+02   -0.31104E-05   -0.46763E-07    88   0.266E-03    0.701E-04
DAV:   8    -0.988568177832E+02   -0.32261E-05   -0.19706E-07    88   0.196E-03    0.594E-04
DAV:   9    -0.988568213404E+02   -0.35572E-05   -0.18203E-07    88   0.164E-03    0.274E-04
DAV:  10    -0.988568238701E+02   -0.25297E-05   -0.13363E-07    88   0.108E-03    0.186E-04
DAV:  11    -0.988568249908E+02   -0.11207E-05   -0.35770E-08    88   0.613E-04    0.104E-04
DAV:  12    -0.988568258658E+02   -0.87503E-06   -0.24121E-08    88   0.378E-04
   8 F= -.98856826E+02 E0= -.98856826E+02  d E =-.118094E-01
       N       E                     dE             d eps       ncg     rms          rms(c)
DAV:   1    -0.988713094186E+02   -0.14484E-01   -0.25105E+00    84   0.727E+00    0.426E-01
DAV:   2    -0.988733283600E+02   -0.20189E-02   -0.46517E-02   120   0.862E-01    0.241E-01
DAV:   3    -0.988722823156E+02    0.10460E-02   -0.30959E-03   128   0.227E-01    0.103E-01
DAV:   4    -0.988723093512E+02   -0.27036E-04   -0.12919E-03   120   0.129E-01    0.341E-02
DAV:   5    -0.988723186043E+02   -0.92531E-05   -0.10864E-04   112   0.426E-02    0.181E-02
DAV:   6    -0.988723301361E+02   -0.11532E-04   -0.18442E-05   112   0.155E-02    0.633E-03
DAV:   7    -0.988723484904E+02   -0.18354E-04   -0.31274E-06   104   0.670E-03    0.217E-03
DAV:   8    -0.988723674232E+02   -0.18933E-04   -0.13001E-06    96   0.514E-03    0.170E-03
DAV:   9    -0.988723874352E+02   -0.20012E-04   -0.13669E-06    96   0.430E-03    0.674E-04
DAV:  10    -0.988724031561E+02   -0.15721E-04   -0.10422E-06    96   0.317E-03    0.599E-04
DAV:  11    -0.988724095072E+02   -0.63511E-05   -0.24537E-07    88   0.172E-03    0.319E-04
DAV:  12    -0.988724138034E+02   -0.42962E-05   -0.14143E-07    88   0.986E-04    0.241E-04
DAV:  13    -0.988724171657E+02   -0.33623E-05   -0.90103E-08    88   0.735E-04    0.104E-04
DAV:  14    -0.988724190975E+02   -0.19318E-05   -0.55757E-08    88   0.529E-04    0.712E-05
DAV:  15    -0.988724200430E+02   -0.94552E-06   -0.17422E-08    88   0.323E-04
   9 F= -.98872420E+02 E0= -.98872420E+02  d E =-.274036E-01
       N       E                     dE             d eps       ncg     rms          rms(c)
DAV:   1    -0.988786321370E+02   -0.62130E-02   -0.21174E-01    84   0.205E+00    0.129E-01
DAV:   2    -0.988790475157E+02   -0.41538E-03   -0.61238E-03   120   0.291E-01    0.685E-02
DAV:   3    -0.988789754168E+02    0.72099E-04   -0.23011E-04   128   0.576E-02    0.353E-02
DAV:   4    -0.988789590510E+02    0.16366E-04   -0.81728E-05   112   0.323E-02    0.846E-03
DAV:   5    -0.988789562979E+02    0.27531E-05   -0.94067E-06   120   0.131E-02    0.488E-03
DAV:   6    -0.988789568497E+02   -0.55187E-06   -0.23981E-06   112   0.626E-03
  10 F= -.98878957E+02 E0= -.98878957E+02  d E =-.653681E-02
       N       E                     dE             d eps       ncg     rms          rms(c)
DAV:   1    -0.988807879850E+02   -0.18317E-02   -0.31854E-01    84   0.252E+00    0.158E-01
DAV:   2    -0.988814145461E+02   -0.62656E-03   -0.92819E-03   120   0.358E-01    0.840E-02
DAV:   3    -0.988813015413E+02    0.11300E-03   -0.34606E-04   128   0.707E-02    0.436E-02
DAV:   4    -0.988812765796E+02    0.24962E-04   -0.12228E-04   112   0.397E-02    0.104E-02
DAV:   5    -0.988812769775E+02   -0.39787E-06   -0.14696E-05   120   0.166E-02    0.611E-03
DAV:   6    -0.988812818141E+02   -0.48366E-05   -0.40378E-06   112   0.811E-03    0.382E-03
DAV:   7    -0.988812927057E+02   -0.10892E-04   -0.54576E-07    88   0.401E-03    0.120E-03
DAV:   8    -0.988813029330E+02   -0.10227E-04   -0.75429E-07    88   0.386E-03    0.992E-04
DAV:   9    -0.988813198534E+02   -0.16920E-04   -0.15075E-06    88   0.429E-03    0.487E-04
DAV:  10    -0.988813246532E+02   -0.47998E-05   -0.40846E-07    88   0.239E-03    0.585E-04
DAV:  11    -0.988813261766E+02   -0.15234E-05   -0.51549E-08    96   0.864E-04    0.462E-04
DAV:  12    -0.988813307386E+02   -0.45620E-05   -0.15338E-07    88   0.112E-03    0.126E-04
DAV:  13    -0.988813329778E+02   -0.22392E-05   -0.97526E-08    88   0.769E-04    0.273E-04
DAV:  14    -0.988813337693E+02   -0.79153E-06   -0.13724E-08    96   0.410E-04
  11 F= -.98881334E+02 E0= -.98881334E+02  d E =-.891373E-02
       N       E                     dE             d eps       ncg     rms          rms(c)
DAV:   1    -0.988813718234E+02   -0.38846E-04   -0.45363E-03    84   0.300E-01    0.189E-02
DAV:   2    -0.988813815285E+02   -0.97051E-05   -0.13215E-04   120   0.428E-02    0.100E-02
DAV:   3    -0.988813805409E+02    0.98761E-06   -0.48385E-06   120   0.842E-03
  12 F= -.98881381E+02 E0= -.98881381E+02  d E =-.896050E-02
       N       E                     dE             d eps       ncg     rms          rms(c)
DAV:   1    -0.988832807718E+02   -0.18992E-02   -0.78731E-02    84   0.128E+00    0.791E-02
DAV:   2    -0.988834198572E+02   -0.13909E-03   -0.21076E-03   120   0.182E-01    0.455E-02
DAV:   3    -0.988833956203E+02    0.24237E-04   -0.87107E-05   120   0.377E-02    0.235E-02
DAV:   4    -0.988833902023E+02    0.54180E-05   -0.32133E-05   112   0.207E-02    0.512E-03
DAV:   5    -0.988833887911E+02    0.14112E-05   -0.23253E-06    88   0.677E-03    0.262E-03
DAV:   6    -0.988833887162E+02    0.74867E-07   -0.90721E-07    88   0.405E-03
  13 F= -.98883389E+02 E0= -.98883389E+02  d E =-.200818E-02
       N       E                     dE             d eps       ncg     rms          rms(c)
DAV:   1    -0.988835592982E+02   -0.17051E-03   -0.14401E-02    84   0.549E-01    0.339E-02
DAV:   2    -0.988835835457E+02   -0.24248E-04   -0.38644E-04   120   0.780E-02    0.197E-02
DAV:   3    -0.988835785839E+02    0.49618E-05   -0.15977E-05   128   0.162E-02    0.102E-02
DAV:   4    -0.988835783013E+02    0.28265E-06   -0.59646E-06   112   0.898E-03
  14 F= -.98883578E+02 E0= -.98883578E+02  d E =-.219776E-02
       N       E                     dE             d eps       ncg     rms          rms(c)
DAV:   1    -0.988851580241E+02   -0.15794E-02   -0.69932E-02    84   0.120E+00    0.745E-02
DAV:   2    -0.988852470921E+02   -0.89068E-04   -0.17505E-03   120   0.162E-01    0.423E-02
DAV:   3    -0.988852271430E+02    0.19949E-04   -0.82032E-05   120   0.361E-02    0.218E-02
DAV:   4    -0.988852259545E+02    0.11885E-05   -0.25701E-05   112   0.201E-02    0.526E-03
DAV:   5    -0.988852267649E+02   -0.81039E-06   -0.31840E-06   112   0.763E-03
  15 F= -.98885227E+02 E0= -.98885227E+02  d E =-.164846E-02
       N       E                     dE             d eps       ncg     rms          rms(c)
DAV:   1    -0.988856877552E+02   -0.46180E-03   -0.66570E-02    84   0.117E+00    0.729E-02
DAV:   2    -0.988857727930E+02   -0.85038E-04   -0.16868E-03   120   0.159E-01    0.412E-02
DAV:   3    -0.988857523552E+02    0.20438E-04   -0.77050E-05   120   0.349E-02    0.214E-02
DAV:   4    -0.988857499650E+02    0.23902E-05   -0.24314E-05   112   0.196E-02    0.513E-03
DAV:   5    -0.988857513345E+02   -0.13696E-05   -0.32083E-06   112   0.768E-03    0.312E-03
DAV:   6    -0.988857534127E+02   -0.20782E-05   -0.38156E-07    88   0.248E-03    0.158E-03
DAV:   7    -0.988857572994E+02   -0.38867E-05   -0.24301E-07    88   0.179E-03    0.435E-04
DAV:   8    -0.988857607851E+02   -0.34857E-05   -0.13611E-07    88   0.123E-03    0.394E-04
DAV:   9    -0.988857660487E+02   -0.52636E-05   -0.31098E-07    88   0.150E-03    0.190E-04
DAV:  10    -0.988857675162E+02   -0.14676E-05   -0.76930E-08    88   0.789E-04    0.126E-04
DAV:  11    -0.988857684808E+02   -0.96459E-06   -0.27449E-08    88   0.467E-04
  16 F= -.98885768E+02 E0= -.98885768E+02  d E =-.219018E-02
       N       E                     dE             d eps       ncg     rms          rms(c)
DAV:   1    -0.988862472808E+02   -0.47976E-03   -0.41725E-02    84   0.913E-01    0.695E-02
DAV:   2    -0.988863330205E+02   -0.85740E-04   -0.13068E-03   120   0.137E-01    0.356E-02
DAV:   3    -0.988863177218E+02    0.15299E-04   -0.49125E-05   120   0.284E-02    0.185E-02
DAV:   4    -0.988863163032E+02    0.14186E-05   -0.23029E-05   112   0.177E-02    0.428E-03
DAV:   5    -0.988863157561E+02    0.54709E-06   -0.25025E-06   120   0.699E-03
  17 F= -.98886316E+02 E0= -.98886316E+02  d E =-.547275E-03
       N       E                     dE             d eps       ncg     rms          rms(c)
DAV:   1    -0.988863168071E+02   -0.50392E-06   -0.94949E-05   104   0.435E-02    0.309E-03
DAV:   2    -0.988863170455E+02   -0.23835E-06   -0.23557E-06    96   0.600E-03
  18 F= -.98886317E+02 E0= -.98886317E+02  d E =-.548565E-03
       N       E                     dE             d eps       ncg     rms          rms(c)
DAV:   1    -0.988864739551E+02   -0.15715E-03   -0.11067E-02    84   0.472E-01    0.342E-02
DAV:   2    -0.988865103227E+02   -0.36368E-04   -0.46632E-04   120   0.804E-02    0.184E-02
DAV:   3    -0.988865074019E+02    0.29207E-05   -0.12781E-05   120   0.140E-02    0.102E-02
DAV:   4    -0.988865071955E+02    0.20644E-06   -0.55919E-06   112   0.829E-03
  19 F= -.98886507E+02 E0= -.98886507E+02  d E =-.190150E-03
