 vasp.5.4.4.18Apr17-6-g9f103f2a35 (build Nov 06 2017 19:16:10) complex          
  
 executed on           IFC91_ompi date 2018.07.09  00:28:27
 running on   12 total cores
 distrk:  each k-point on   12 cores,    1 groups
 distr:  one band on NCORES_PER_BAND=   6 cores,    2 groups


--------------------------------------------------------------------------------------------------------


 INCAR:
 POTCAR:    PAW_PBE Si 05Jan2001                  
 POTCAR:    PAW_PBE Ge 05Jan2001                  
 POTCAR:    PAW_PBE H 15Jun2001                   
 POTCAR:    PAW_PBE Si 05Jan2001                  
   VRHFIN =Si: s2p2                                                             
   LEXCH  = PE                                                                  
   EATOM  =   103.0669 eV,    7.5752 Ry                                         
                                                                                
   TITEL  = PAW_PBE Si 05Jan2001                                                
   LULTRA =        F    use ultrasoft PP ?                                      
   IUNSCR =        1    unscreen: 0-lin 1-nonlin 2-no                           
   RPACOR =    1.500    partial core radius                                     
   POMASS =   28.085; ZVAL   =    4.000    mass and valenz                      
   RCORE  =    1.900    outmost cutoff radius                                   
   RWIGS  =    2.480; RWIGS  =    1.312    wigner-seitz radius (au A)           
   ENMAX  =  245.345; ENMIN  =  184.009 eV                                      
   ICORE  =        2    local potential                                         
   LCOR   =        T    correct aug charges                                     
   LPAW   =        T    paw PP                                                  
   EAUG   =  322.069                                                            
   DEXC   =    0.000                                                            
   RMAX   =    1.950    core radius for proj-oper                               
   RAUG   =    1.300    factor for augmentation sphere                          
   RDEP   =    1.993    radius for radial grids                                 
   RDEPT  =    1.837    core radius for aug-charge                              
                                                                                
   Atomic configuration                                                         
    6 entries                                                                   
     n  l   j            E        occ.                                          
     1  0  0.50     -1785.8828   2.0000                                         
     2  0  0.50      -139.4969   2.0000                                         
     2  1  1.50       -95.5546   6.0000                                         
     3  0  0.50       -10.8127   2.0000                                         
     3  1  0.50        -4.0811   2.0000                                         
     3  2  1.50        -4.0817   0.0000                                         
   Description                                                                  
     l       E           TYP  RCUT    TYP  RCUT                                 
     0    -10.8127223     23  1.900                                             
     0     -7.6451159     23  1.900                                             
     1     -4.0811372     23  1.900                                             
     1      2.4879257     23  1.900                                             
     2     -4.0817478      7  1.900                                             
  local pseudopotential read in
  partial core-charges read in
  partial kinetic energy density read in
  atomic valenz-charges read in
  non local Contribution for L=           0  read in
    real space projection operators read in
  non local Contribution for L=           0  read in
    real space projection operators read in
  non local Contribution for L=           1  read in
    real space projection operators read in
  non local Contribution for L=           1  read in
    real space projection operators read in
    PAW grid and wavefunctions read in
 
   number of l-projection  operators is LMAX  =           4
   number of lm-projection operators is LMMAX =           8
 
 POTCAR:    PAW_PBE Ge 05Jan2001                  
   VRHFIN =Ge: s2p2                                                             
   LEXCH  = PE                                                                  
   EATOM  =   104.9960 eV,    7.7170 Ry                                         
                                                                                
   TITEL  = PAW_PBE Ge 05Jan2001                                                
   LULTRA =        F    use ultrasoft PP ?                                      
   IUNSCR =        1    unscreen: 0-lin 1-nonlin 2-no                           
   RPACOR =    2.170    partial core radius                                     
   POMASS =   72.610; ZVAL   =    4.000    mass and valenz                      
   RCORE  =    2.300    outmost cutoff radius                                   
   RWIGS  =    2.300; RWIGS  =    1.217    wigner-seitz radius (au A)           
   ENMAX  =  173.807; ENMIN  =  130.355 eV                                      
   ICORE  =        3    local potential                                         
   LCOR   =        T    correct aug charges                                     
   LPAW   =        T    paw PP                                                  
   EAUG   =  385.843                                                            
   DEXC   =    0.000                                                            
   RMAX   =    2.342    core radius for proj-oper                               
   RAUG   =    1.300    factor for augmentation sphere                          
   RDEP   =    2.318    radius for radial grids                                 
   RDEPT  =    2.103    core radius for aug-charge                              
                                                                                
   Atomic configuration                                                         
   10 entries                                                                   
     n  l   j            E        occ.                                          
     1  0  0.50    -10959.8463   2.0000                                         
     2  0  0.50     -1371.6056   2.0000                                         
     2  1  1.50     -1198.4791   6.0000                                         
     3  0  0.50      -168.4733   2.0000                                         
     3  1  1.50      -115.6019   6.0000                                         
     3  2  2.50       -29.3106  10.0000                                         
     4  0  0.50       -11.7309   2.0000                                         
     4  1  0.50        -3.8952   2.0000                                         
     4  2  1.50        -4.0817   0.0000                                         
     4  3  2.50        -4.0817   0.0000                                         
   Description                                                                  
     l       E           TYP  RCUT    TYP  RCUT                                 
     0    -11.7309493     23  2.300                                             
     0     -7.4578696     23  2.300                                             
     1     -3.8952261     23  2.300                                             
     1      6.1178114     23  2.300                                             
     2     -4.0817478     23  2.300                                             
     3     -1.3605826      7  2.300                                             
  local pseudopotential read in
  partial core-charges read in
  partial kinetic energy density read in
  atomic valenz-charges read in
  non local Contribution for L=           0  read in
    real space projection operators read in
  non local Contribution for L=           0  read in
    real space projection operators read in
  non local Contribution for L=           1  read in
    real space projection operators read in
  non local Contribution for L=           1  read in
    real space projection operators read in
  non local Contribution for L=           2  read in
    real space projection operators read in
    PAW grid and wavefunctions read in
 
   number of l-projection  operators is LMAX  =           5
   number of lm-projection operators is LMMAX =          13
 
 POTCAR:    PAW_PBE H 15Jun2001                   
   VRHFIN =H: ultrasoft test                                                    
   LEXCH  = PE                                                                  
   EATOM  =    12.4884 eV,    0.9179 Ry                                         
                                                                                
   TITEL  = PAW_PBE H 15Jun2001                                                 
   LULTRA =        F    use ultrasoft PP ?                                      
   IUNSCR =        0    unscreen: 0-lin 1-nonlin 2-no                           
   RPACOR =    0.000    partial core radius                                     
   POMASS =    1.000; ZVAL   =    1.000    mass and valenz                      
   RCORE  =    1.100    outmost cutoff radius                                   
   RWIGS  =    0.700; RWIGS  =    0.370    wigner-seitz radius (au A)           
   ENMAX  =  250.000; ENMIN  =  200.000 eV                                      
   RCLOC  =    0.701    cutoff for local pot                                    
   LCOR   =        T    correct aug charges                                     
   LPAW   =        T    paw PP                                                  
   EAUG   =  400.000                                                            
   RMAX   =    1.123    core radius for proj-oper                               
   RAUG   =    1.200    factor for augmentation sphere                          
   RDEP   =    1.112    radius for radial grids                                 
   RDEPT  =    0.926    core radius for aug-charge                              
                                                                                
   Atomic configuration                                                         
    2 entries                                                                   
     n  l   j            E        occ.                                          
     1  0  0.50        -6.4927   1.0000                                         
     2  1  0.50        -3.4015   0.0000                                         
   Description                                                                  
     l       E           TYP  RCUT    TYP  RCUT                                 
     0     -6.4927494     23  1.100                                             
     0      6.8029130     23  1.100                                             
     1     -4.0817478     23  1.100                                             
  local pseudopotential read in
  atomic valenz-charges read in
  non local Contribution for L=           0  read in
    real space projection operators read in
  non local Contribution for L=           0  read in
    real space projection operators read in
  non local Contribution for L=           1  read in
    real space projection operators read in
    PAW grid and wavefunctions read in
 
   number of l-projection  operators is LMAX  =           3
   number of lm-projection operators is LMMAX =           5
 

 ----------------------------------------------------------------------------- 
|                                                                             |
|  ADVICE TO THIS USER RUNNING 'VASP/VAMP'   (HEAR YOUR MASTER'S VOICE ...):  |
|                                                                             |
|      You have a (more or less) 'large supercell' and for larger cells       |
|      it might be more efficient to use real space projection opertators     |
|      So try LREAL= Auto  in the INCAR   file.                               |
|      Mind:          For very  accurate calculation you might also keep the  |
|      reciprocal projection scheme          (i.e. LREAL=.FALSE.)             |
|                                                                             |
 ----------------------------------------------------------------------------- 

  PAW_PBE Si 05Jan2001                  :
 energy of atom  1       EATOM= -103.0669
 kinetic energy error for atom=    0.0012 (will be added to EATOM!!)
  PAW_PBE Ge 05Jan2001                  :
 energy of atom  2       EATOM= -104.9960
 kinetic energy error for atom=    0.0003 (will be added to EATOM!!)
  PAW_PBE H 15Jun2001                   :
 energy of atom  3       EATOM=  -12.4884
 kinetic energy error for atom=    0.0098 (will be added to EATOM!!)
 
 
 POSCAR: SiGeH16                                 
  positions in direct lattice
  No initial velocities read in
 exchange correlation table for  LEXCH =        8
   RHO(1)=    0.500       N(1)  =     2000
   RHO(2)=  100.500       N(2)  =     4000
 


--------------------------------------------------------------------------------------------------------


 ion  position               nearest neighbor table
   1  0.369  0.539  0.436-  23 1.55  24 1.55   5 2.39   3 2.39
   2  0.542  0.457  0.396-  17 1.55  16 1.55   6 2.39   3 2.39
   3  0.475  0.556  0.385-  18 1.55   4 2.39   1 2.39   2 2.39
   4  0.531  0.648  0.437-  25 1.55  26 1.55   7 2.39   3 2.39
   5  0.385  0.515  0.552-  22 1.55  10 2.39   9 2.39   1 2.39
   6  0.557  0.433  0.512-  13 1.55   2 2.39   8 2.39   9 2.39
   7  0.547  0.624  0.554-  19 1.55   4 2.39   8 2.39  10 2.39
   8  0.613  0.525  0.565-  15 1.55  14 1.55   7 2.39   6 2.39
   9  0.451  0.416  0.564-  12 1.55  11 1.55   5 2.39   6 2.39
  10  0.440  0.606  0.605-  20 1.55  21 1.55   5 2.39   7 2.39
  11  0.415  0.357  0.529-   9 1.55
  12  0.461  0.400  0.639-   9 1.55
  13  0.600  0.369  0.520-   6 1.55
  14  0.682  0.536  0.531-   8 1.55
  15  0.623  0.509  0.640-   8 1.55
  16  0.611  0.469  0.363-   2 1.55
  17  0.506  0.398  0.362-   2 1.55
  18  0.465  0.572  0.309-   3 1.55
  19  0.583  0.683  0.588-   7 1.55
  20  0.451  0.590  0.680-  10 1.55
  21  0.397  0.670  0.598-  10 1.55
  22  0.316  0.504  0.586-   5 1.55
  23  0.333  0.479  0.402-   1 1.55
  24  0.326  0.603  0.429-   1 1.55
  25  0.488  0.712  0.430-   4 1.55
  26  0.600  0.659  0.404-   4 1.55
 
  LATTYP: Found a simple cubic cell.
 ALAT       =    20.0000000000
  
  Lattice vectors:
  
 A1 = (  20.0000000000,   0.0000000000,   0.0000000000)
 A2 = (   0.0000000000,  20.0000000000,   0.0000000000)
 A3 = (   0.0000000000,   0.0000000000,  20.0000000000)


Analysis of symmetry for initial positions (statically):
=====================================================================
 Subroutine PRICEL returns:
 Original cell was already a primitive cell.
 

 Routine SETGRP: Setting up the symmetry group for a 
 simple cubic supercell.


 Subroutine GETGRP returns: Found  1 space group operations
 (whereof  1 operations were pure point group operations)
 out of a pool of 48 trial point group operations.


The static configuration has the point symmetry C_1 .


Analysis of symmetry for dynamics (positions and initial velocities):
=====================================================================
 Subroutine PRICEL returns:
 Original cell was already a primitive cell.
 

 Routine SETGRP: Setting up the symmetry group for a 
 simple cubic supercell.


 Subroutine GETGRP returns: Found  1 space group operations
 (whereof  1 operations were pure point group operations)
 out of a pool of 48 trial point group operations.


The dynamic configuration has the point symmetry C_1 .


 Subroutine INISYM returns: Found  1 space group operations
 (whereof  1 operations are pure point group operations),
 and found     1 'primitive' translations

 
 
 KPOINTS: Automatic mesh                          

Automatic generation of k-mesh.
Space group operators:
 irot       det(A)        alpha          n_x          n_y          n_z        tau_x        tau_y        tau_z
    1     1.000000     0.000000     1.000000     0.000000     0.000000     0.000000     0.000000     0.000000
 
 Subroutine IBZKPT returns following result:
 ===========================================
 
 Found      1 irreducible k-points:
 
 Following reciprocal coordinates:
            Coordinates               Weight
  0.000000  0.000000  0.000000      1.000000
 
 Following cartesian coordinates:
            Coordinates               Weight
  0.000000  0.000000  0.000000      1.000000
 


--------------------------------------------------------------------------------------------------------




 Dimension of arrays:
   k-points           NKPTS =      1   k-points in BZ     NKDIM =      1   number of bands    NBANDS=     42
   number of dos      NEDOS =    301   number of ions     NIONS =     26
   non local maximal  LDIM  =      5   non local SUM 2l+1 LMDIM =     13
   total plane-waves  NPLWV = 941192
   max r-space proj   IRMAX =      1   max aug-charges    IRDMAX=   6593
   dimension x,y,z NGX =    98 NGY =   98 NGZ =   98
   dimension x,y,z NGXF=   196 NGYF=  196 NGZF=  196
   support grid    NGXF=   196 NGYF=  196 NGZF=  196
   ions per type =               2   8  16
   NGX,Y,Z   is equivalent  to a cutoff of   8.15,  8.15,  8.15 a.u.
   NGXF,Y,Z  is equivalent  to a cutoff of  16.29, 16.29, 16.29 a.u.

 SYSTEM =  SiGe                                    
 POSCAR =  SiGeH16                                 

 Startparameter for this run:
   NWRITE =      2    write-flag & timer
   PREC   = normal    normal or accurate (medium, high low for compatibility)
   ISTART =      0    job   : 0-new  1-cont  2-samecut
   ICHARG =      2    charge: 1-file 2-atom 10-const
   ISPIN  =      1    spin polarized calculation?
   LNONCOLLINEAR =      F non collinear calculations
   LSORBIT =      F    spin-orbit coupling
   INIWAV =      1    electr: 0-lowe 1-rand  2-diag
   LASPH  =      F    aspherical Exc in radial PAW
   METAGGA=      F    non-selfconsistent MetaGGA calc.

 Electronic Relaxation 1
   ENCUT  =  400.0 eV  29.40 Ry    5.42 a.u.  32.61 32.61 32.61*2*pi/ulx,y,z
   ENINI  =  400.0     initial cutoff
   ENAUG  =  400.0 eV  augmentation charge cutoff
   NELM   =     60;   NELMIN=  2; NELMDL= -5     # of ELM steps 
   EDIFF  = 0.1E-05   stopping-criterion for ELM
   LREAL  =      F    real-space projection
   NLSPLINE    = F    spline interpolate recip. space projectors
   LCOMPAT=      F    compatible to vasp.4.4
   GGA_COMPAT  = T    GGA compatible to vasp.4.4-vasp.4.6
   LMAXPAW     = -100 max onsite density
   LMAXMIX     =    2 max onsite mixed and CHGCAR
   VOSKOWN=      0    Vosko Wilk Nusair interpolation
   ROPT   =    0.00000   0.00000   0.00000
 Ionic relaxation
   EDIFFG = -.2E-01   stopping-criterion for IOM
   NSW    =    200    number of steps for IOM
   NBLOCK =      1;   KBLOCK =    200    inner block; outer block 
   IBRION =      2    ionic relax: 0-MD 1-quasi-New 2-CG
   NFREE  =      1    steps in history (QN), initial steepest desc. (CG)
   ISIF   =      2    stress and relaxation
   IWAVPR =     11    prediction:  0-non 1-charg 2-wave 3-comb
   ISYM   =      2    0-nonsym 1-usesym 2-fastsym
   LCORR  =      T    Harris-Foulkes like correction to forces

   POTIM  = 0.5000    time-step for ionic-motion
   TEIN   =    0.0    initial temperature
   TEBEG  =    0.0;   TEEND  =   0.0 temperature during run
   SMASS  =  -3.00    Nose mass-parameter (am)
   estimated Nose-frequenzy (Omega)   =  0.10E-29 period in steps =****** mass=  -0.914E-26a.u.
   SCALEE = 1.0000    scale energy and forces
   NPACO  =    256;   APACO  = 16.0  distance and # of slots for P.C.
   PSTRESS=    0.0 pullay stress

  Mass of Ions in am
   POMASS =  28.09 72.61  1.00
  Ionic Valenz
   ZVAL   =   4.00  4.00  1.00
  Atomic Wigner-Seitz radii
   RWIGS  =  -1.00 -1.00 -1.00
  virtual crystal weights 
   VCA    =   1.00  1.00  1.00
   NELECT =      56.0000    total number of electrons
   NUPDOWN=      -1.0000    fix difference up-down

 DOS related values:
   EMIN   =  10.00;   EMAX   =-10.00  energy-range for DOS
   EFERMI =   0.00
   ISMEAR =     0;   SIGMA  =   0.20  broadening in eV -4-tet -1-fermi 0-gaus

 Electronic relaxation 2 (details)
   IALGO  =     38    algorithm
   LDIAG  =      T    sub-space diagonalisation (order eigenvalues)
   LSUBROT=      F    optimize rotation matrix (better conditioning)
   TURBO    =      0    0=normal 1=particle mesh
   IRESTART =      0    0=no restart 2=restart with 2 vectors
   NREBOOT  =      0    no. of reboots
   NMIN     =      0    reboot dimension
   EREF     =   0.00    reference energy to select bands
   IMIX   =      4    mixing-type and parameters
     AMIX     =   0.40;   BMIX     =  1.00
     AMIX_MAG =   1.60;   BMIX_MAG =  1.00
     AMIN     =   0.10
     WC   =   100.;   INIMIX=   1;  MIXPRE=   1;  MAXMIX= -45

 Intra band minimization:
   WEIMIN = 0.0010     energy-eigenvalue tresh-hold
   EBREAK =  0.60E-08  absolut break condition
   DEPER  =   0.30     relativ break condition  

   TIME   =   0.40     timestep for ELM

  volume/ion in A,a.u.               =     307.69      2076.41
  Fermi-wavevector in a.u.,A,eV,Ry     =   0.313166  0.591797  1.334361  0.098073
  Thomas-Fermi vector in A             =   1.193276
 
 Write flags
   LWAVE        =      T    write WAVECAR
   LDOWNSAMPLE  =      F    k-point downsampling of WAVECAR
   LCHARG       =      T    write CHGCAR
   LVTOT        =      F    write LOCPOT, total local potential
   LVHAR        =      F    write LOCPOT, Hartree potential only
   LELF         =      F    write electronic localiz. function (ELF)
   LORBIT       =      0    0 simple, 1 ext, 2 COOP (PROOUT), +10 PAW based schemes


 Dipole corrections
   LMONO  =      F    monopole corrections only (constant potential shift)
   LDIPOL =      F    correct potential (dipole corrections)
   IDIPOL =      0    1-x, 2-y, 3-z, 4-all directions 
   EPSILON=  1.0000000 bulk dielectric constant

 Exchange correlation treatment:
   GGA     =    --    GGA type
   LEXCH   =     8    internal setting for exchange type
   VOSKOWN=      0    Vosko Wilk Nusair interpolation
   LHFCALC =     F    Hartree Fock is set to
   LHFONE  =     F    Hartree Fock one center treatment
   AEXX    =    0.0000 exact exchange contribution

 Linear response parameters
   LEPSILON=     F    determine dielectric tensor
   LRPA    =     F    only Hartree local field effects (RPA)
   LNABLA  =     F    use nabla operator in PAW spheres
   LVEL    =     F    velocity operator in full k-point grid
   LINTERFAST=   F  fast interpolation
   KINTER  =     0    interpolate to denser k-point grid
   CSHIFT  =0.1000    complex shift for real part using Kramers Kronig
   OMEGAMAX=  -1.0    maximum frequency
   DEG_THRESHOLD= 0.2000000E-02 threshold for treating states as degnerate
   RTIME   =   -0.100 relaxation time in fs
  (WPLASMAI=    0.000 imaginary part of plasma frequency in eV, 0.658/RTIME)
   DFIELD  = 0.0000000 0.0000000 0.0000000 field for delta impulse in time
 
 Orbital magnetization related:
   ORBITALMAG=     F  switch on orbital magnetization
   LCHIMAG   =     F  perturbation theory with respect to B field
   DQ        =  0.001000  dq finite difference perturbation B field
   LLRAUG    =     F  two centre corrections for induced B field



--------------------------------------------------------------------------------------------------------


 conjugate gradient relaxation of ions
 charge density and potential will be updated during run
 non-spin polarized calculation
 Variant of blocked Davidson
 Davidson routine will perform the subspace rotation
 perform sub-space diagonalisation
    after iterative eigenvector-optimisation
 modified Broyden-mixing scheme, WC =      100.0
 initial mixing is a Kerker type mixing with AMIX =  0.4000 and BMIX =      1.0000
 Hartree-type preconditioning will be used
 using additional bands           14
 reciprocal scheme for non local part
 use partial core corrections
 calculate Harris-corrections to forces 
   (improved forces if not selfconsistent)
 use gradient corrections 
 use of overlap-Matrix (Vanderbilt PP)
 Gauss-broadening in eV      SIGMA  =   0.20


--------------------------------------------------------------------------------------------------------


  energy-cutoff  :      400.00
  volume of cell :     8000.00
      direct lattice vectors                 reciprocal lattice vectors
    20.000000000  0.000000000  0.000000000     0.050000000  0.000000000  0.000000000
     0.000000000 20.000000000  0.000000000     0.000000000  0.050000000  0.000000000
     0.000000000  0.000000000 20.000000000     0.000000000  0.000000000  0.050000000

  length of vectors
    20.000000000 20.000000000 20.000000000     0.050000000  0.050000000  0.050000000


 
 k-points in units of 2pi/SCALE and weight: Automatic mesh                          
   0.00000000  0.00000000  0.00000000       1.000
 
 k-points in reciprocal lattice and weights: Automatic mesh                          
   0.00000000  0.00000000  0.00000000       1.000
 
 position of ions in fractional coordinates (direct lattice) 
   0.36907800  0.53906000  0.43641200
   0.54179100  0.45744600  0.39613600
   0.47547100  0.55626000  0.38465300
   0.53111600  0.64794100  0.43749600
   0.38461900  0.51474100  0.55243500
   0.55736800  0.43311000  0.51215000
   0.54669200  0.62364400  0.55351800
   0.61299700  0.52481700  0.56496600
   0.45095700  0.41593600  0.56388300
   0.44028400  0.60643000  0.60524300
   0.41490100  0.35665000  0.52940300
   0.46117000  0.40042600  0.63910800
   0.60034800  0.36907000  0.51957800
   0.68182700  0.53600700  0.53118700
   0.62280400  0.50903400  0.64018900
   0.61080000  0.46880600  0.36278200
   0.50550800  0.39805500  0.36207700
   0.46538400  0.57201900  0.30946400
   0.58275500  0.68306700  0.58775000
   0.45052500  0.59044300  0.68036400
   0.39732000  0.67044900  0.59753500
   0.31566200  0.50359800  0.58596500
   0.33322800  0.47946500  0.40225200
   0.32629100  0.60324700  0.42912600
   0.48792300  0.71185500  0.43020800
   0.60015100  0.65882400  0.40403700
 
 position of ions in cartesian coordinates  (Angst):
   7.38156000 10.78120000  8.72824000
  10.83582000  9.14892000  7.92272000
   9.50942000 11.12520000  7.69306000
  10.62232000 12.95882000  8.74992000
   7.69238000 10.29482000 11.04870000
  11.14736000  8.66220000 10.24300000
  10.93384000 12.47288000 11.07036000
  12.25994000 10.49634000 11.29932000
   9.01914000  8.31872000 11.27766000
   8.80568000 12.12860000 12.10486000
   8.29802000  7.13300000 10.58806000
   9.22340000  8.00852000 12.78216000
  12.00696000  7.38140000 10.39156000
  13.63654000 10.72014000 10.62374000
  12.45608000 10.18068000 12.80378000
  12.21600000  9.37612000  7.25564000
  10.11016000  7.96110000  7.24154000
   9.30768000 11.44038000  6.18928000
  11.65510000 13.66134000 11.75500000
   9.01050000 11.80886000 13.60728000
   7.94640000 13.40898000 11.95070000
   6.31324000 10.07196000 11.71930000
   6.66456000  9.58930000  8.04504000
   6.52582000 12.06494000  8.58252000
   9.75846000 14.23710000  8.60416000
  12.00302000 13.17648000  8.08074000
 


--------------------------------------------------------------------------------------------------------


 k-point  1 :   0.0000 0.0000 0.0000  plane waves:  145165

 maximum and minimum number of plane-waves per node :     24209    24180

 maximum number of plane-waves:    145165
 maximum index in each direction: 
   IXMAX=   32   IYMAX=   32   IZMAX=   32
   IXMIN=  -32   IYMIN=  -32   IZMIN=  -32


 parallel 3D FFT for wavefunctions:
    minimum data exchange during FFTs selected (reduces bandwidth)
 parallel 3D FFT for charge:
    minimum data exchange during FFTs selected (reduces bandwidth)


 total amount of memory used by VASP MPI-rank0   131440. kBytes
=======================================================================

   base      :      30000. kBytes
   nonl-proj :      17624. kBytes
   fftplans  :      26957. kBytes
   grid      :      48673. kBytes
   one-center:         40. kBytes
   wavefun   :       8146. kBytes
 
     INWAV:  cpu time    0.0000: real time    0.0000
 Broyden mixing: mesh for mixing (old mesh)
   NGX = 65   NGY = 65   NGZ = 65
  (NGX  =196   NGY  =196   NGZ  =196)
  gives a total of 274625 points

 initial charge density was supplied:
 charge density of overlapping atoms calculated
 number of electron      56.0000000 magnetization 
 keeping initial charge density in first step


--------------------------------------------------------------------------------------------------------


 Maximum index for augmentation-charges          565 (set IRDMAX)


--------------------------------------------------------------------------------------------------------


 First call to EWALD:  gamma=   0.089
 Maximum number of real-space cells 3x 3x 3
 Maximum number of reciprocal cells 3x 3x 3

    FEWALD:  cpu time    0.0030: real time    0.0025


--------------------------------------- Iteration      1(   1)  ---------------------------------------


    POTLOK:  cpu time    0.9938: real time    0.9950
    SETDIJ:  cpu time    0.0060: real time    0.0063
     EDDAV:  cpu time    4.5063: real time    4.5035
       DOS:  cpu time    0.0000: real time    0.0003
    --------------------------------------------
      LOOP:  cpu time    5.5062: real time    5.5050

 eigenvalue-minimisations  :   116
 total energy-change (2. order) : 0.2130470E+03  (-0.1044922E+04)
 number of electron      56.0000000 magnetization 
 augmentation part       56.0000000 magnetization 

 Free energy of the ion-electron system (eV)
  ---------------------------------------------------
  alpha Z        PSCENC =         3.06652414
  Ewald energy   TEWEN  =      2629.98113996
  -Hartree energ DENC   =     -3438.23403964
  -exchange      EXHF   =         0.00000000
  -V(xc)+E(xc)   XCENC  =       -45.31639026
  PAW double counting   =       915.55359980     -764.60851948
  entropy T*S    EENTRO =        -0.43226314
  eigenvalues    EBANDS =      -332.71802557
  atomic energy  EATOM  =      1245.75497486
  Solvation  Ediel_sol  =         0.00000000
  ---------------------------------------------------
  free energy    TOTEN  =       213.04700068 eV

  energy without entropy =      213.47926382  energy(sigma->0) =      213.26313225


--------------------------------------------------------------------------------------------------------




--------------------------------------- Iteration      1(   2)  ---------------------------------------


     EDDAV:  cpu time    5.3702: real time    5.3681
       DOS:  cpu time    0.0000: real time    0.0002
    --------------------------------------------
      LOOP:  cpu time    5.3702: real time    5.3683

 eigenvalue-minimisations  :   144
 total energy-change (2. order) :-0.2346235E+03  (-0.2199440E+03)
 number of electron      56.0000000 magnetization 
 augmentation part       56.0000000 magnetization 

 Free energy of the ion-electron system (eV)
  ---------------------------------------------------
  alpha Z        PSCENC =         3.06652414
  Ewald energy   TEWEN  =      2629.98113996
  -Hartree energ DENC   =     -3438.23403964
  -exchange      EXHF   =         0.00000000
  -V(xc)+E(xc)   XCENC  =       -45.31639026
  PAW double counting   =       915.55359980     -764.60851948
  entropy T*S    EENTRO =        -0.00000000
  eigenvalues    EBANDS =      -567.77381098
  atomic energy  EATOM  =      1245.75497486
  Solvation  Ediel_sol  =         0.00000000
  ---------------------------------------------------
  free energy    TOTEN  =       -21.57652160 eV

  energy without entropy =      -21.57652160  energy(sigma->0) =      -21.57652160


--------------------------------------------------------------------------------------------------------




--------------------------------------- Iteration      1(   3)  ---------------------------------------


     EDDAV:  cpu time    4.3933: real time    4.3910
       DOS:  cpu time    0.0010: real time    0.0002
    --------------------------------------------
      LOOP:  cpu time    4.3943: real time    4.3912

 eigenvalue-minimisations  :   112
 total energy-change (2. order) :-0.7627808E+02  (-0.7610798E+02)
 number of electron      56.0000000 magnetization 
 augmentation part       56.0000000 magnetization 

 Free energy of the ion-electron system (eV)
  ---------------------------------------------------
  alpha Z        PSCENC =         3.06652414
  Ewald energy   TEWEN  =      2629.98113996
  -Hartree energ DENC   =     -3438.23403964
  -exchange      EXHF   =         0.00000000
  -V(xc)+E(xc)   XCENC  =       -45.31639026
  PAW double counting   =       915.55359980     -764.60851948
  entropy T*S    EENTRO =        -0.00000000
  eigenvalues    EBANDS =      -644.05189475
  atomic energy  EATOM  =      1245.75497486
  Solvation  Ediel_sol  =         0.00000000
  ---------------------------------------------------
  free energy    TOTEN  =       -97.85460536 eV

  energy without entropy =      -97.85460536  energy(sigma->0) =      -97.85460536


--------------------------------------------------------------------------------------------------------




--------------------------------------- Iteration      1(   4)  ---------------------------------------


     EDDAV:  cpu time    4.1474: real time    4.1466
       DOS:  cpu time    0.0000: real time    0.0002
    --------------------------------------------
      LOOP:  cpu time    4.1474: real time    4.1468

 eigenvalue-minimisations  :   104
 total energy-change (2. order) :-0.4402056E+01  (-0.4386929E+01)
 number of electron      56.0000000 magnetization 
 augmentation part       56.0000000 magnetization 

 Free energy of the ion-electron system (eV)
  ---------------------------------------------------
  alpha Z        PSCENC =         3.06652414
  Ewald energy   TEWEN  =      2629.98113996
  -Hartree energ DENC   =     -3438.23403964
  -exchange      EXHF   =         0.00000000
  -V(xc)+E(xc)   XCENC  =       -45.31639026
  PAW double counting   =       915.55359980     -764.60851948
  entropy T*S    EENTRO =        -0.00000000
  eigenvalues    EBANDS =      -648.45395121
  atomic energy  EATOM  =      1245.75497486
  Solvation  Ediel_sol  =         0.00000000
  ---------------------------------------------------
  free energy    TOTEN  =      -102.25666183 eV

  energy without entropy =     -102.25666183  energy(sigma->0) =     -102.25666183


--------------------------------------------------------------------------------------------------------




--------------------------------------- Iteration      1(   5)  ---------------------------------------


     EDDAV:  cpu time    4.8833: real time    5.0946
       DOS:  cpu time    0.0000: real time    0.0003
    CHARGE:  cpu time    0.2300: real time    0.2284
    MIXING:  cpu time    0.0240: real time    0.0241
    --------------------------------------------
      LOOP:  cpu time    5.1372: real time    5.3473

 eigenvalue-minimisations  :   128
 total energy-change (2. order) :-0.6054338E-01  (-0.6048826E-01)
 number of electron      56.0000016 magnetization 
 augmentation part       -5.1690320 magnetization 

 Broyden mixing:
  rms(total) = 0.14067E+01    rms(broyden)= 0.14066E+01
  rms(prec ) = 0.15029E+01
  weight for this iteration     100.00

 Free energy of the ion-electron system (eV)
  ---------------------------------------------------
  alpha Z        PSCENC =         3.06652414
  Ewald energy   TEWEN  =      2629.98113996
  -Hartree energ DENC   =     -3438.23403964
  -exchange      EXHF   =         0.00000000
  -V(xc)+E(xc)   XCENC  =       -45.31639026
  PAW double counting   =       915.55359980     -764.60851948
  entropy T*S    EENTRO =        -0.00000000
  eigenvalues    EBANDS =      -648.51449459
  atomic energy  EATOM  =      1245.75497486
  Solvation  Ediel_sol  =         0.00000000
  ---------------------------------------------------
  free energy    TOTEN  =      -102.31720521 eV

  energy without entropy =     -102.31720521  energy(sigma->0) =     -102.31720521


--------------------------------------------------------------------------------------------------------




--------------------------------------- Iteration      1(   6)  ---------------------------------------


    POTLOK:  cpu time    0.9399: real time    0.9428
    SETDIJ:  cpu time    0.0070: real time    0.0062
     EDDAV:  cpu time    4.4693: real time    4.4765
       DOS:  cpu time    0.0000: real time    0.0004
    CHARGE:  cpu time    0.2320: real time    0.2312
    MIXING:  cpu time    0.0240: real time    0.0243
    --------------------------------------------
      LOOP:  cpu time    5.6721: real time    5.6813

 eigenvalue-minimisations  :   112
 total energy-change (2. order) : 0.3117712E+01  (-0.1594267E+00)
 number of electron      56.0000015 magnetization 
 augmentation part       -5.1663701 magnetization 

 Broyden mixing:
  rms(total) = 0.80814E+00    rms(broyden)= 0.80814E+00
  rms(prec ) = 0.86735E+00
  weight for this iteration     100.00

 eigenvalues of (default mixing * dielectric matrix)
  average eigenvalue GAMMA=   2.2818
  2.2818

 Free energy of the ion-electron system (eV)
  ---------------------------------------------------
  alpha Z        PSCENC =         3.06652414
  Ewald energy   TEWEN  =      2629.98113996
  -Hartree energ DENC   =     -3468.65327083
  -exchange      EXHF   =         0.00000000
  -V(xc)+E(xc)   XCENC  =       -41.69920714
  PAW double counting   =      1670.67650899    -1520.69922723
  entropy T*S    EENTRO =        -0.00000000
  eigenvalues    EBANDS =      -617.62693614
  atomic energy  EATOM  =      1245.75497486
  Solvation  Ediel_sol  =         0.00000000
  ---------------------------------------------------
  free energy    TOTEN  =       -99.19949340 eV

  energy without entropy =      -99.19949340  energy(sigma->0) =      -99.19949340


--------------------------------------------------------------------------------------------------------




--------------------------------------- Iteration      1(   7)  ---------------------------------------


    POTLOK:  cpu time    0.9419: real time    0.9435
    SETDIJ:  cpu time    0.0070: real time    0.0062
     EDDAV:  cpu time    4.1324: real time    4.1401
       DOS:  cpu time    0.0000: real time    0.0004
    CHARGE:  cpu time    0.2300: real time    0.2302
    MIXING:  cpu time    0.0250: real time    0.0250
    --------------------------------------------
      LOOP:  cpu time    5.3362: real time    5.3454

 eigenvalue-minimisations  :   104
 total energy-change (2. order) : 0.1617125E+01  (-0.3891232E+00)
 number of electron      56.0000013 magnetization 
 augmentation part       -5.1615166 magnetization 

 Broyden mixing:
  rms(total) = 0.12013E+00    rms(broyden)= 0.11997E+00
  rms(prec ) = 0.15178E+00
  weight for this iteration     100.00

 eigenvalues of (default mixing * dielectric matrix)
  average eigenvalue GAMMA=   1.8733
  1.8733  1.8733

 Free energy of the ion-electron system (eV)
  ---------------------------------------------------
  alpha Z        PSCENC =         3.06652414
  Ewald energy   TEWEN  =      2629.98113996
  -Hartree energ DENC   =     -3522.29836324
  -exchange      EXHF   =         0.00000000
  -V(xc)+E(xc)   XCENC  =       -36.03172156
  PAW double counting   =      3226.11330828    -3077.41674833
  entropy T*S    EENTRO =        -0.00000000
  eigenvalues    EBANDS =      -566.75148300
  atomic energy  EATOM  =      1245.75497486
  Solvation  Ediel_sol  =         0.00000000
  ---------------------------------------------------
  free energy    TOTEN  =       -97.58236889 eV

  energy without entropy =      -97.58236889  energy(sigma->0) =      -97.58236889


--------------------------------------------------------------------------------------------------------




--------------------------------------- Iteration      1(   8)  ---------------------------------------


    POTLOK:  cpu time    0.9439: real time    0.9483
    SETDIJ:  cpu time    0.0060: real time    0.0063
     EDDAV:  cpu time    4.3793: real time    4.3870
       DOS:  cpu time    0.0000: real time    0.0004
    CHARGE:  cpu time    0.2300: real time    0.2299
    MIXING:  cpu time    0.0260: real time    0.0259
    --------------------------------------------
      LOOP:  cpu time    5.5852: real time    5.5977

 eigenvalue-minimisations  :   112
 total energy-change (2. order) : 0.5870158E-01  (-0.2720134E-01)
 number of electron      56.0000013 magnetization 
 augmentation part       -5.1519395 magnetization 

 Broyden mixing:
  rms(total) = 0.57931E-01    rms(broyden)= 0.57917E-01
  rms(prec ) = 0.77126E-01
  weight for this iteration     100.00

 eigenvalues of (default mixing * dielectric matrix)
  average eigenvalue GAMMA=   1.9573
  2.6391  1.6163  1.6163

 Free energy of the ion-electron system (eV)
  ---------------------------------------------------
  alpha Z        PSCENC =         3.06652414
  Ewald energy   TEWEN  =      2629.98113996
  -Hartree energ DENC   =     -3531.27424006
  -exchange      EXHF   =         0.00000000
  -V(xc)+E(xc)   XCENC  =       -35.98087991
  PAW double counting   =      3264.31254513    -3115.55115605
  entropy T*S    EENTRO =        -0.00000000
  eigenvalues    EBANDS =      -557.83257538
  atomic energy  EATOM  =      1245.75497486
  Solvation  Ediel_sol  =         0.00000000
  ---------------------------------------------------
  free energy    TOTEN  =       -97.52366731 eV

  energy without entropy =      -97.52366731  energy(sigma->0) =      -97.52366731


--------------------------------------------------------------------------------------------------------




--------------------------------------- Iteration      1(   9)  ---------------------------------------


    POTLOK:  cpu time    0.9519: real time    0.9547
    SETDIJ:  cpu time    0.0060: real time    0.0062
     EDDAV:  cpu time    4.3833: real time    4.3906
       DOS:  cpu time    0.0010: real time    0.0004
    CHARGE:  cpu time    0.2270: real time    0.2296
    MIXING:  cpu time    0.0270: real time    0.0270
    --------------------------------------------
      LOOP:  cpu time    5.5961: real time    5.6085

 eigenvalue-minimisations  :   112
 total energy-change (2. order) : 0.3473884E-01  (-0.6621245E-02)
 number of electron      56.0000013 magnetization 
 augmentation part       -5.1351662 magnetization 

 Broyden mixing:
  rms(total) = 0.30267E-01    rms(broyden)= 0.30266E-01
  rms(prec ) = 0.42593E-01
  weight for this iteration     100.00

 eigenvalues of (default mixing * dielectric matrix)
  average eigenvalue GAMMA=   1.7651
  2.5135  1.8366  1.8366  0.8737

 Free energy of the ion-electron system (eV)
  ---------------------------------------------------
  alpha Z        PSCENC =         3.06652414
  Ewald energy   TEWEN  =      2629.98113996
  -Hartree energ DENC   =     -3542.56278188
  -exchange      EXHF   =         0.00000000
  -V(xc)+E(xc)   XCENC  =       -35.27878427
  PAW double counting   =      3391.89420352    -3243.19569462
  entropy T*S    EENTRO =        -0.00000000
  eigenvalues    EBANDS =      -547.14851018
  atomic energy  EATOM  =      1245.75497486
  Solvation  Ediel_sol  =         0.00000000
  ---------------------------------------------------
  free energy    TOTEN  =       -97.48892847 eV

  energy without entropy =      -97.48892847  energy(sigma->0) =      -97.48892847


--------------------------------------------------------------------------------------------------------




--------------------------------------- Iteration      1(  10)  ---------------------------------------


    POTLOK:  cpu time    0.9589: real time    0.9598
    SETDIJ:  cpu time    0.0060: real time    0.0062
     EDDAV:  cpu time    4.3733: real time    4.3800
       DOS:  cpu time    0.0010: real time    0.0004
    CHARGE:  cpu time    0.2310: real time    0.2310
    MIXING:  cpu time    0.0290: real time    0.0290
    --------------------------------------------
      LOOP:  cpu time    5.5991: real time    5.6063

 eigenvalue-minimisations  :   112
 total energy-change (2. order) : 0.2818124E-03  (-0.2232046E-03)
 number of electron      56.0000013 magnetization 
 augmentation part       -5.1347959 magnetization 

 Broyden mixing:
  rms(total) = 0.13194E-01    rms(broyden)= 0.13194E-01
  rms(prec ) = 0.26859E-01
  weight for this iteration     100.00

 eigenvalues of (default mixing * dielectric matrix)
  average eigenvalue GAMMA=   1.9083
  2.9262  2.4414  1.0273  1.5732  1.5732

 Free energy of the ion-electron system (eV)
  ---------------------------------------------------
  alpha Z        PSCENC =         3.06652414
  Ewald energy   TEWEN  =      2629.98113996
  -Hartree energ DENC   =     -3545.08457754
  -exchange      EXHF   =         0.00000000
  -V(xc)+E(xc)   XCENC  =       -35.25186237
  PAW double counting   =      3335.52401868    -3186.77424530
  entropy T*S    EENTRO =        -0.00000000
  eigenvalues    EBANDS =      -544.70461908
  atomic energy  EATOM  =      1245.75497486
  Solvation  Ediel_sol  =         0.00000000
  ---------------------------------------------------
  free energy    TOTEN  =       -97.48864665 eV

  energy without entropy =      -97.48864665  energy(sigma->0) =      -97.48864665


--------------------------------------------------------------------------------------------------------




--------------------------------------- Iteration      1(  11)  ---------------------------------------


    POTLOK:  cpu time    0.9619: real time    0.9657
    SETDIJ:  cpu time    0.0070: real time    0.0062
     EDDAV:  cpu time    4.1454: real time    4.1500
       DOS:  cpu time    0.0000: real time    0.0002
    CHARGE:  cpu time    0.2310: real time    0.2320
    MIXING:  cpu time    0.0390: real time    0.0392
    --------------------------------------------
      LOOP:  cpu time    5.3842: real time    5.3932

 eigenvalue-minimisations  :   104
 total energy-change (2. order) : 0.1310944E-03  (-0.6378537E-03)
 number of electron      56.0000013 magnetization 
 augmentation part       -5.1329736 magnetization 

 Broyden mixing:
  rms(total) = 0.85582E-02    rms(broyden)= 0.85579E-02
  rms(prec ) = 0.14634E-01
  weight for this iteration     100.00

 eigenvalues of (default mixing * dielectric matrix)
  average eigenvalue GAMMA=   1.9235
  3.3502  2.6430  1.7533  1.7533  0.9464  1.0947

 Free energy of the ion-electron system (eV)
  ---------------------------------------------------
  alpha Z        PSCENC =         3.06652414
  Ewald energy   TEWEN  =      2629.98113996
  -Hartree energ DENC   =     -3551.68183047
  -exchange      EXHF   =         0.00000000
  -V(xc)+E(xc)   XCENC  =       -35.06339395
  PAW double counting   =      3309.24021061    -3160.45297324
  entropy T*S    EENTRO =        -0.00000000
  eigenvalues    EBANDS =      -538.33316747
  atomic energy  EATOM  =      1245.75497486
  Solvation  Ediel_sol  =         0.00000000
  ---------------------------------------------------
  free energy    TOTEN  =       -97.48851556 eV

  energy without entropy =      -97.48851556  energy(sigma->0) =      -97.48851556


--------------------------------------------------------------------------------------------------------




--------------------------------------- Iteration      1(  12)  ---------------------------------------


    POTLOK:  cpu time    0.9779: real time    0.9789
    SETDIJ:  cpu time    0.0060: real time    0.0063
     EDDAV:  cpu time    4.0704: real time    4.0769
       DOS:  cpu time    0.0000: real time    0.0004
    CHARGE:  cpu time    0.2290: real time    0.2281
    MIXING:  cpu time    0.0300: real time    0.0306
    --------------------------------------------
      LOOP:  cpu time    5.3132: real time    5.3210

 eigenvalue-minimisations  :   102
 total energy-change (2. order) :-0.5456671E-02  (-0.1925527E-03)
 number of electron      56.0000013 magnetization 
 augmentation part       -5.1318540 magnetization 

 Broyden mixing:
  rms(total) = 0.46849E-02    rms(broyden)= 0.46848E-02
  rms(prec ) = 0.82218E-02
  weight for this iteration     100.00

 eigenvalues of (default mixing * dielectric matrix)
  average eigenvalue GAMMA=   2.1499
  4.9068  2.5525  2.5525  1.5454  1.5454  0.9733  0.9733

 Free energy of the ion-electron system (eV)
  ---------------------------------------------------
  alpha Z        PSCENC =         3.06652414
  Ewald energy   TEWEN  =      2629.98113996
  -Hartree energ DENC   =     -3554.69368242
  -exchange      EXHF   =         0.00000000
  -V(xc)+E(xc)   XCENC  =       -35.01225777
  PAW double counting   =      3303.54748294    -3154.76056331
  entropy T*S    EENTRO =        -0.00000000
  eigenvalues    EBANDS =      -535.37759064
  atomic energy  EATOM  =      1245.75497486
  Solvation  Ediel_sol  =         0.00000000
  ---------------------------------------------------
  free energy    TOTEN  =       -97.49397223 eV

  energy without entropy =      -97.49397223  energy(sigma->0) =      -97.49397223


--------------------------------------------------------------------------------------------------------




--------------------------------------- Iteration      1(  13)  ---------------------------------------


    POTLOK:  cpu time    0.9659: real time    0.9687
    SETDIJ:  cpu time    0.0060: real time    0.0064
     EDDAV:  cpu time    4.3753: real time    4.3815
       DOS:  cpu time    0.0000: real time    0.0002
    CHARGE:  cpu time    0.2300: real time    0.2296
    MIXING:  cpu time    0.0320: real time    0.0331
    --------------------------------------------
      LOOP:  cpu time    5.6091: real time    5.6196

 eigenvalue-minimisations  :   112
 total energy-change (2. order) :-0.3893965E-02  (-0.1174962E-03)
 number of electron      56.0000013 magnetization 
 augmentation part       -5.1315604 magnetization 

 Broyden mixing:
  rms(total) = 0.35029E-02    rms(broyden)= 0.35028E-02
  rms(prec ) = 0.50741E-02
  weight for this iteration     100.00

 eigenvalues of (default mixing * dielectric matrix)
  average eigenvalue GAMMA=   2.2407
  5.7186  2.9607  2.1588  2.1588  1.6433  1.3329  0.9760  0.9760

 Free energy of the ion-electron system (eV)
  ---------------------------------------------------
  alpha Z        PSCENC =         3.06652414
  Ewald energy   TEWEN  =      2629.98113996
  -Hartree energ DENC   =     -3556.86820324
  -exchange      EXHF   =         0.00000000
  -V(xc)+E(xc)   XCENC  =       -34.96800020
  PAW double counting   =      3309.05863466    -3160.28072191
  entropy T*S    EENTRO =        -0.00000000
  eigenvalues    EBANDS =      -533.24221447
  atomic energy  EATOM  =      1245.75497486
  Solvation  Ediel_sol  =         0.00000000
  ---------------------------------------------------
  free energy    TOTEN  =       -97.49786619 eV

  energy without entropy =      -97.49786619  energy(sigma->0) =      -97.49786619


--------------------------------------------------------------------------------------------------------




--------------------------------------- Iteration      1(  14)  ---------------------------------------


    POTLOK:  cpu time    0.9609: real time    0.9617
    SETDIJ:  cpu time    0.0070: real time    0.0063
     EDDAV:  cpu time    4.3803: real time    4.3878
       DOS:  cpu time    0.0000: real time    0.0002
    CHARGE:  cpu time    0.2300: real time    0.2290
    MIXING:  cpu time    0.0330: real time    0.0336
    --------------------------------------------
      LOOP:  cpu time    5.6111: real time    5.6187

 eigenvalue-minimisations  :   112
 total energy-change (2. order) :-0.5150088E-02  (-0.4746417E-04)
 number of electron      56.0000013 magnetization 
 augmentation part       -5.1310722 magnetization 

 Broyden mixing:
  rms(total) = 0.15941E-02    rms(broyden)= 0.15940E-02
  rms(prec ) = 0.25584E-02
  weight for this iteration     100.00

 eigenvalues of (default mixing * dielectric matrix)
  average eigenvalue GAMMA=   2.3134
  6.6480  3.1152  2.6067  2.1487  1.6160  1.6160  0.9696  0.9696  1.1309

 Free energy of the ion-electron system (eV)
  ---------------------------------------------------
  alpha Z        PSCENC =         3.06652414
  Ewald energy   TEWEN  =      2629.98113996
  -Hartree energ DENC   =     -3557.39036876
  -exchange      EXHF   =         0.00000000
  -V(xc)+E(xc)   XCENC  =       -34.99390457
  PAW double counting   =      3306.98728256    -3158.20703796
  entropy T*S    EENTRO =        -0.00000000
  eigenvalues    EBANDS =      -532.70162652
  atomic energy  EATOM  =      1245.75497486
  Solvation  Ediel_sol  =         0.00000000
  ---------------------------------------------------
  free energy    TOTEN  =       -97.50301628 eV

  energy without entropy =      -97.50301628  energy(sigma->0) =      -97.50301628


--------------------------------------------------------------------------------------------------------




--------------------------------------- Iteration      1(  15)  ---------------------------------------


    POTLOK:  cpu time    0.9609: real time    0.9619
    SETDIJ:  cpu time    0.0060: real time    0.0062
     EDDAV:  cpu time    4.3763: real time    4.3832
       DOS:  cpu time    0.0000: real time    0.0002
    CHARGE:  cpu time    0.2280: real time    0.2299
    MIXING:  cpu time    0.0360: real time    0.0362
    --------------------------------------------
      LOOP:  cpu time    5.6071: real time    5.6175

 eigenvalue-minimisations  :   112
 total energy-change (2. order) :-0.2993696E-02  (-0.2739730E-04)
 number of electron      56.0000013 magnetization 
 augmentation part       -5.1309294 magnetization 

 Broyden mixing:
  rms(total) = 0.99883E-03    rms(broyden)= 0.99878E-03
  rms(prec ) = 0.15353E-02
  weight for this iteration     100.00

 eigenvalues of (default mixing * dielectric matrix)
  average eigenvalue GAMMA=   2.3536
  6.7104  4.0841  2.5888  2.0565  2.0565  1.7257  1.2942  0.9618  1.0289  1.0289

 Free energy of the ion-electron system (eV)
  ---------------------------------------------------
  alpha Z        PSCENC =         3.06652414
  Ewald energy   TEWEN  =      2629.98113996
  -Hartree energ DENC   =     -3557.60946424
  -exchange      EXHF   =         0.00000000
  -V(xc)+E(xc)   XCENC  =       -34.99339171
  PAW double counting   =      3310.21213836    -3161.43277303
  entropy T*S    EENTRO =        -0.00000000
  eigenvalues    EBANDS =      -532.48515833
  atomic energy  EATOM  =      1245.75497486
  Solvation  Ediel_sol  =         0.00000000
  ---------------------------------------------------
  free energy    TOTEN  =       -97.50600998 eV

  energy without entropy =      -97.50600998  energy(sigma->0) =      -97.50600998


--------------------------------------------------------------------------------------------------------




--------------------------------------- Iteration      1(  16)  ---------------------------------------


    POTLOK:  cpu time    0.9629: real time    0.9627
    SETDIJ:  cpu time    0.0060: real time    0.0063
     EDDAV:  cpu time    4.3803: real time    4.3782
       DOS:  cpu time    0.0000: real time    0.0003
    CHARGE:  cpu time    0.2300: real time    0.2296
    MIXING:  cpu time    0.0380: real time    0.0384
    --------------------------------------------
      LOOP:  cpu time    5.6181: real time    5.6154

 eigenvalue-minimisations  :   112
 total energy-change (2. order) :-0.1432602E-02  (-0.1091994E-04)
 number of electron      56.0000013 magnetization 
 augmentation part       -5.1312426 magnetization 

 Broyden mixing:
  rms(total) = 0.56526E-03    rms(broyden)= 0.56523E-03
  rms(prec ) = 0.83674E-03
  weight for this iteration     100.00

 eigenvalues of (default mixing * dielectric matrix)
  average eigenvalue GAMMA=   2.4559
  7.4260  4.8481  2.6707  2.6707  1.8230  1.8230  1.4554  1.3035  0.9992  0.9992
  0.9967

 Free energy of the ion-electron system (eV)
  ---------------------------------------------------
  alpha Z        PSCENC =         3.06652414
  Ewald energy   TEWEN  =      2629.98113996
  -Hartree energ DENC   =     -3557.70574277
  -exchange      EXHF   =         0.00000000
  -V(xc)+E(xc)   XCENC  =       -34.99220823
  PAW double counting   =      3310.23922103    -3161.45916892
  entropy T*S    EENTRO =        -0.00000000
  eigenvalues    EBANDS =      -532.39218264
  atomic energy  EATOM  =      1245.75497486
  Solvation  Ediel_sol  =         0.00000000
  ---------------------------------------------------
  free energy    TOTEN  =       -97.50744258 eV

  energy without entropy =      -97.50744258  energy(sigma->0) =      -97.50744258


--------------------------------------------------------------------------------------------------------




--------------------------------------- Iteration      1(  17)  ---------------------------------------


    POTLOK:  cpu time    0.9579: real time    0.9579
    SETDIJ:  cpu time    0.0070: real time    0.0064
     EDDAV:  cpu time    4.3463: real time    4.3836
       DOS:  cpu time    0.0010: real time    0.0002
    CHARGE:  cpu time    0.2310: real time    0.2310
    MIXING:  cpu time    0.0420: real time    0.0422
    --------------------------------------------
      LOOP:  cpu time    5.5841: real time    5.6214

 eigenvalue-minimisations  :   112
 total energy-change (2. order) :-0.8870840E-03  (-0.7103360E-05)
 number of electron      56.0000013 magnetization 
 augmentation part       -5.1313935 magnetization 

 Broyden mixing:
  rms(total) = 0.27743E-03    rms(broyden)= 0.27739E-03
  rms(prec ) = 0.40310E-03
  weight for this iteration     100.00

 eigenvalues of (default mixing * dielectric matrix)
  average eigenvalue GAMMA=   2.5163
  7.7839  5.4410  2.8827  2.6610  2.3420  1.7690  1.7690  1.2906  1.2906  0.9900
  0.9900  0.9862

 Free energy of the ion-electron system (eV)
  ---------------------------------------------------
  alpha Z        PSCENC =         3.06652414
  Ewald energy   TEWEN  =      2629.98113996
  -Hartree energ DENC   =     -3557.70174570
  -exchange      EXHF   =         0.00000000
  -V(xc)+E(xc)   XCENC  =       -34.99546558
  PAW double counting   =      3308.85758479    -3160.07648948
  entropy T*S    EENTRO =        -0.00000000
  eigenvalues    EBANDS =      -532.39485266
  atomic energy  EATOM  =      1245.75497486
  Solvation  Ediel_sol  =         0.00000000
  ---------------------------------------------------
  free energy    TOTEN  =       -97.50832966 eV

  energy without entropy =      -97.50832966  energy(sigma->0) =      -97.50832966


--------------------------------------------------------------------------------------------------------




--------------------------------------- Iteration      1(  18)  ---------------------------------------


    POTLOK:  cpu time    0.9439: real time    0.9599
    SETDIJ:  cpu time    0.0060: real time    0.0062
     EDDAV:  cpu time    4.1434: real time    4.1420
       DOS:  cpu time    0.0000: real time    0.0003
    CHARGE:  cpu time    0.2310: real time    0.2308
    MIXING:  cpu time    0.0470: real time    0.0473
    --------------------------------------------
      LOOP:  cpu time    5.3712: real time    5.3864

 eigenvalue-minimisations  :   104
 total energy-change (2. order) :-0.2617772E-03  (-0.9159143E-06)
 number of electron      56.0000013 magnetization 
 augmentation part       -5.1313486 magnetization 

 Broyden mixing:
  rms(total) = 0.15988E-03    rms(broyden)= 0.15986E-03
  rms(prec ) = 0.21724E-03
  weight for this iteration     100.00

 eigenvalues of (default mixing * dielectric matrix)
  average eigenvalue GAMMA=   2.5225
  8.2562  5.8617  3.2358  2.6268  2.2946  1.8391  1.8391  1.3842  1.3842  0.9851
  0.9851  1.0175  1.0835

 Free energy of the ion-electron system (eV)
  ---------------------------------------------------
  alpha Z        PSCENC =         3.06652414
  Ewald energy   TEWEN  =      2629.98113996
  -Hartree energ DENC   =     -3557.75885211
  -exchange      EXHF   =         0.00000000
  -V(xc)+E(xc)   XCENC  =       -34.99372729
  PAW double counting   =      3308.97579591    -3160.19541040
  entropy T*S    EENTRO =        -0.00000000
  eigenvalues    EBANDS =      -532.33903651
  atomic energy  EATOM  =      1245.75497486
  Solvation  Ediel_sol  =         0.00000000
  ---------------------------------------------------
  free energy    TOTEN  =       -97.50859144 eV

  energy without entropy =      -97.50859144  energy(sigma->0) =      -97.50859144


--------------------------------------------------------------------------------------------------------




--------------------------------------- Iteration      1(  19)  ---------------------------------------


    POTLOK:  cpu time    0.9689: real time    0.9675
    SETDIJ:  cpu time    0.0060: real time    0.0062
     EDDAV:  cpu time    3.8934: real time    3.8917
       DOS:  cpu time    0.0000: real time    0.0002
    CHARGE:  cpu time    0.2310: real time    0.2307
    MIXING:  cpu time    0.0540: real time    0.0531
    --------------------------------------------
      LOOP:  cpu time    5.1532: real time    5.1494

 eigenvalue-minimisations  :    96
 total energy-change (2. order) :-0.8767698E-04  (-0.2109641E-06)
 number of electron      56.0000013 magnetization 
 augmentation part       -5.1313520 magnetization 

 Broyden mixing:
  rms(total) = 0.77242E-04    rms(broyden)= 0.77240E-04
  rms(prec ) = 0.11917E-03
  weight for this iteration     100.00

 eigenvalues of (default mixing * dielectric matrix)
  average eigenvalue GAMMA=   2.5488
  8.4620  6.1567  3.5828  2.6506  2.3497  2.3497  1.7738  1.7738  1.2857  1.2857
  0.9707  0.9707  1.0358  1.0358

 Free energy of the ion-electron system (eV)
  ---------------------------------------------------
  alpha Z        PSCENC =         3.06652414
  Ewald energy   TEWEN  =      2629.98113996
  -Hartree energ DENC   =     -3557.75199250
  -exchange      EXHF   =         0.00000000
  -V(xc)+E(xc)   XCENC  =       -34.99435407
  PAW double counting   =      3308.89467264    -3160.11426865
  entropy T*S    EENTRO =        -0.00000000
  eigenvalues    EBANDS =      -532.34537551
  atomic energy  EATOM  =      1245.75497486
  Solvation  Ediel_sol  =         0.00000000
  ---------------------------------------------------
  free energy    TOTEN  =       -97.50867912 eV

  energy without entropy =      -97.50867912  energy(sigma->0) =      -97.50867912


--------------------------------------------------------------------------------------------------------




--------------------------------------- Iteration      1(  20)  ---------------------------------------


    POTLOK:  cpu time    0.9649: real time    0.9657
    SETDIJ:  cpu time    0.0070: real time    0.0062
     EDDAV:  cpu time    3.6524: real time    3.6504
       DOS:  cpu time    0.0000: real time    0.0002
    CHARGE:  cpu time    0.2300: real time    0.2293
    MIXING:  cpu time    0.0590: real time    0.0599
    --------------------------------------------
      LOOP:  cpu time    4.9133: real time    4.9118

 eigenvalue-minimisations  :    88
 total energy-change (2. order) :-0.4734779E-04  (-0.9719656E-07)
 number of electron      56.0000013 magnetization 
 augmentation part       -5.1313367 magnetization 

 Broyden mixing:
  rms(total) = 0.56594E-04    rms(broyden)= 0.56593E-04
  rms(prec ) = 0.75126E-04
  weight for this iteration     100.00

 eigenvalues of (default mixing * dielectric matrix)
  average eigenvalue GAMMA=   2.5604
  8.5550  6.5359  4.1047  2.9883  2.5570  1.8850  1.8850  1.9390  1.4011  1.4011
  1.2280  1.0013  1.0013  1.0094  0.9141

 Free energy of the ion-electron system (eV)
  ---------------------------------------------------
  alpha Z        PSCENC =         3.06652414
  Ewald energy   TEWEN  =      2629.98113996
  -Hartree energ DENC   =     -3557.75965364
  -exchange      EXHF   =         0.00000000
  -V(xc)+E(xc)   XCENC  =       -34.99476880
  PAW double counting   =      3308.91080738    -3160.13034788
  entropy T*S    EENTRO =        -0.00000000
  eigenvalues    EBANDS =      -532.33740250
  atomic energy  EATOM  =      1245.75497486
  Solvation  Ediel_sol  =         0.00000000
  ---------------------------------------------------
  free energy    TOTEN  =       -97.50872647 eV

  energy without entropy =      -97.50872647  energy(sigma->0) =      -97.50872647


--------------------------------------------------------------------------------------------------------




--------------------------------------- Iteration      1(  21)  ---------------------------------------


    POTLOK:  cpu time    0.9599: real time    0.9590
    SETDIJ:  cpu time    0.0070: real time    0.0062
     EDDAV:  cpu time    3.6464: real time    3.6454
       DOS:  cpu time    0.0010: real time    0.0005
    CHARGE:  cpu time    0.2280: real time    0.2288
    MIXING:  cpu time    0.0670: real time    0.0668
    --------------------------------------------
      LOOP:  cpu time    4.9093: real time    4.9068

 eigenvalue-minimisations  :    88
 total energy-change (2. order) :-0.1522728E-04  (-0.4381905E-07)
 number of electron      56.0000013 magnetization 
 augmentation part       -5.1313333 magnetization 

 Broyden mixing:
  rms(total) = 0.28496E-04    rms(broyden)= 0.28494E-04
  rms(prec ) = 0.40888E-04
  weight for this iteration     100.00

 eigenvalues of (default mixing * dielectric matrix)
  average eigenvalue GAMMA=   2.5688
  8.6158  6.7465  4.3126  3.0932  2.4152  2.4152  2.0418  1.8135  1.8135  1.4451
  1.2299  1.2299  0.9816  0.9816  0.9828  0.9828

 Free energy of the ion-electron system (eV)
  ---------------------------------------------------
  alpha Z        PSCENC =         3.06652414
  Ewald energy   TEWEN  =      2629.98113996
  -Hartree energ DENC   =     -3557.76234809
  -exchange      EXHF   =         0.00000000
  -V(xc)+E(xc)   XCENC  =       -34.99469207
  PAW double counting   =      3308.98097371    -3160.20056229
  entropy T*S    EENTRO =        -0.00000000
  eigenvalues    EBANDS =      -532.33475192
  atomic energy  EATOM  =      1245.75497486
  Solvation  Ediel_sol  =         0.00000000
  ---------------------------------------------------
  free energy    TOTEN  =       -97.50874169 eV

  energy without entropy =      -97.50874169  energy(sigma->0) =      -97.50874169


--------------------------------------------------------------------------------------------------------




--------------------------------------- Iteration      1(  22)  ---------------------------------------


    POTLOK:  cpu time    0.9579: real time    0.9564
    SETDIJ:  cpu time    0.0060: real time    0.0062
     EDDAV:  cpu time    3.6424: real time    3.6412
       DOS:  cpu time    0.0010: real time    0.0006
    CHARGE:  cpu time    0.2300: real time    0.2289
    MIXING:  cpu time    0.0720: real time    0.0729
    --------------------------------------------
      LOOP:  cpu time    4.9093: real time    4.9062

 eigenvalue-minimisations  :    88
 total energy-change (2. order) :-0.7241104E-05  (-0.1794121E-07)
 number of electron      56.0000013 magnetization 
 augmentation part       -5.1313470 magnetization 

 Broyden mixing:
  rms(total) = 0.20140E-04    rms(broyden)= 0.20139E-04
  rms(prec ) = 0.27102E-04
  weight for this iteration     100.00

 eigenvalues of (default mixing * dielectric matrix)
  average eigenvalue GAMMA=   2.5667
  8.8067  6.8023  4.7754  3.2558  2.5947  2.5947  1.9428  1.9428  1.7118  1.7118
  1.2568  1.1614  1.1614  0.9939  0.9939  0.9635  0.9635

 Free energy of the ion-electron system (eV)
  ---------------------------------------------------
  alpha Z        PSCENC =         3.06652414
  Ewald energy   TEWEN  =      2629.98113996
  -Hartree energ DENC   =     -3557.76046129
  -exchange      EXHF   =         0.00000000
  -V(xc)+E(xc)   XCENC  =       -34.99461023
  PAW double counting   =      3308.97084911    -3160.19037662
  entropy T*S    EENTRO =        -0.00000000
  eigenvalues    EBANDS =      -532.33678887
  atomic energy  EATOM  =      1245.75497486
  Solvation  Ediel_sol  =         0.00000000
  ---------------------------------------------------
  free energy    TOTEN  =       -97.50874893 eV

  energy without entropy =      -97.50874893  energy(sigma->0) =      -97.50874893


--------------------------------------------------------------------------------------------------------




--------------------------------------- Iteration      1(  23)  ---------------------------------------


    POTLOK:  cpu time    0.9609: real time    0.9607
    SETDIJ:  cpu time    0.0070: real time    0.0064
     EDDAV:  cpu time    3.6055: real time    3.6421
       DOS:  cpu time    0.0000: real time    0.0004
    CHARGE:  cpu time    0.2280: real time    0.2281
    MIXING:  cpu time    0.0800: real time    0.0802
    --------------------------------------------
      LOOP:  cpu time    4.8813: real time    4.9180

 eigenvalue-minimisations  :    88
 total energy-change (2. order) :-0.2252222E-05  (-0.4201459E-08)
 number of electron      56.0000013 magnetization 
 augmentation part       -5.1313488 magnetization 

 Broyden mixing:
  rms(total) = 0.11127E-04    rms(broyden)= 0.11126E-04
  rms(prec ) = 0.14921E-04
  weight for this iteration     100.00

 eigenvalues of (default mixing * dielectric matrix)
  average eigenvalue GAMMA=   2.6161
  8.9257  6.8681  5.2176  3.3359  2.9495  2.9495  2.3227  1.9037  1.9037  1.6581
  1.6581  1.2160  1.2160  1.0341  1.0341  0.9733  0.9733  0.9503

 Free energy of the ion-electron system (eV)
  ---------------------------------------------------
  alpha Z        PSCENC =         3.06652414
  Ewald energy   TEWEN  =      2629.98113996
  -Hartree energ DENC   =     -3557.76188849
  -exchange      EXHF   =         0.00000000
  -V(xc)+E(xc)   XCENC  =       -34.99465295
  PAW double counting   =      3308.96708064    -3160.18661630
  entropy T*S    EENTRO =        -0.00000000
  eigenvalues    EBANDS =      -532.33531305
  atomic energy  EATOM  =      1245.75497486
  Solvation  Ediel_sol  =         0.00000000
  ---------------------------------------------------
  free energy    TOTEN  =       -97.50875119 eV

  energy without entropy =      -97.50875119  energy(sigma->0) =      -97.50875119


--------------------------------------------------------------------------------------------------------




--------------------------------------- Iteration      1(  24)  ---------------------------------------


    POTLOK:  cpu time    0.9699: real time    0.9697
    SETDIJ:  cpu time    0.0060: real time    0.0062
     EDDAV:  cpu time    3.5775: real time    3.5746
       DOS:  cpu time    0.0000: real time    0.0006
    CHARGE:  cpu time    0.2300: real time    0.2294
    MIXING:  cpu time    0.0860: real time    0.0860
    --------------------------------------------
      LOOP:  cpu time    4.8693: real time    4.8664

 eigenvalue-minimisations  :    86
 total energy-change (2. order) :-0.1892703E-05  (-0.3019210E-08)
 number of electron      56.0000013 magnetization 
 augmentation part       -5.1313448 magnetization 

 Broyden mixing:
  rms(total) = 0.61849E-05    rms(broyden)= 0.61847E-05
  rms(prec ) = 0.74782E-05
  weight for this iteration     100.00

 eigenvalues of (default mixing * dielectric matrix)
  average eigenvalue GAMMA=   2.5907
  8.8933  7.1407  5.6239  3.9515  2.9714  2.5046  1.9890  1.9890  2.0521  1.7679
  1.7679  1.3285  1.1718  1.1718  0.9946  0.9946  0.9703  0.9703  0.9703

 Free energy of the ion-electron system (eV)
  ---------------------------------------------------
  alpha Z        PSCENC =         3.06652414
  Ewald energy   TEWEN  =      2629.98113996
  -Hartree energ DENC   =     -3557.76286489
  -exchange      EXHF   =         0.00000000
  -V(xc)+E(xc)   XCENC  =       -34.99468336
  PAW double counting   =      3308.94298175    -3160.16254198
  entropy T*S    EENTRO =        -0.00000000
  eigenvalues    EBANDS =      -532.33428357
  atomic energy  EATOM  =      1245.75497486
  Solvation  Ediel_sol  =         0.00000000
  ---------------------------------------------------
  free energy    TOTEN  =       -97.50875308 eV

  energy without entropy =      -97.50875308  energy(sigma->0) =      -97.50875308


--------------------------------------------------------------------------------------------------------




--------------------------------------- Iteration      1(  25)  ---------------------------------------


    POTLOK:  cpu time    0.9719: real time    0.9732
    SETDIJ:  cpu time    0.0060: real time    0.0062
     EDDAV:  cpu time    3.6544: real time    3.6514
       DOS:  cpu time    0.0000: real time    0.0006
    --------------------------------------------
      LOOP:  cpu time    4.6323: real time    4.6314

 eigenvalue-minimisations  :    88
 total energy-change (2. order) :-0.2311945E-06  (-0.4183178E-09)
 number of electron      56.0000013 magnetization 
 augmentation part       -5.1313448 magnetization 

 Free energy of the ion-electron system (eV)
  ---------------------------------------------------
  alpha Z        PSCENC =         3.06652414
  Ewald energy   TEWEN  =      2629.98113996
  -Hartree energ DENC   =     -3557.76295360
  -exchange      EXHF   =         0.00000000
  -V(xc)+E(xc)   XCENC  =       -34.99467365
  PAW double counting   =      3308.95245235    -3160.17200509
  entropy T*S    EENTRO =        -0.00000000
  eigenvalues    EBANDS =      -532.33421229
  atomic energy  EATOM  =      1245.75497486
  Solvation  Ediel_sol  =         0.00000000
  ---------------------------------------------------
  free energy    TOTEN  =       -97.50875331 eV

  energy without entropy =      -97.50875331  energy(sigma->0) =      -97.50875331


--------------------------------------------------------------------------------------------------------




 average (electrostatic) potential at core
  the test charge radii are     0.9892  1.1631  0.5201
  (the norm of the test charge is              1.0000)
       1 -93.4975       2 -93.4975       3 -40.3751       4 -40.4783       5 -40.4153
       6 -40.4153       7 -40.4565       8 -40.4718       9 -40.4777      10 -40.4718
      11 -41.0498      12 -41.0585      13 -41.0471      14 -41.0502      15 -41.0544
      16 -40.6919      17 -40.6882      18 -41.0598      19 -41.0361      20 -41.0544
      21 -41.0500      22 -41.0473      23 -40.6874      24 -40.6919      25 -41.0546
      26 -41.0547
 
 
 
 E-fermi :  -5.3591     XC(G=0):  -0.6119     alpha+bet : -0.3225


 k-point     1 :       0.0000    0.0000    0.0000
  band No.  band energies     occupation 
      1     -15.5871      2.00000
      2     -14.6363      2.00000
      3     -14.4540      2.00000
      4     -14.3906      2.00000
      5     -13.2678      2.00000
      6     -12.9884      2.00000
      7     -11.9526      2.00000
      8     -11.7806      2.00000
      9     -11.7226      2.00000
     10     -10.6789      2.00000
     11      -9.0045      2.00000
     12      -8.6446      2.00000
     13      -8.6381      2.00000
     14      -8.6280      2.00000
     15      -8.2005      2.00000
     16      -8.1876      2.00000
     17      -8.1806      2.00000
     18      -7.8581      2.00000
     19      -7.8511      2.00000
     20      -7.8508      2.00000
     21      -6.7433      2.00000
     22      -6.7291      2.00000
     23      -6.4408      2.00000
     24      -6.4260      2.00000
     25      -6.4171      2.00000
     26      -6.3064      2.00000
     27      -6.3028      2.00000
     28      -6.2990      2.00000
     29      -1.5305      0.00000
     30      -1.2432      0.00000
     31      -1.2074      0.00000
     32      -1.1464      0.00000
     33      -1.0892      0.00000
     34      -1.0507      0.00000
     35      -1.0058      0.00000
     36      -0.9616      0.00000
     37      -0.8274      0.00000
     38      -0.7483      0.00000
     39      -0.1918      0.00000
     40      -0.1605      0.00000
     41      -0.1472      0.00000
     42      -0.0745      0.00000


--------------------------------------------------------------------------------------------------------


 soft charge-density along one line, spin component           1
         0         1         2         3         4         5         6         7         8         9
 total charge-density along one line
 
 pseudopotential strength for first ion, spin component:           1
 19.624  27.386  -0.000   0.002   0.004  -0.000   0.004   0.007
 27.386  38.224  -0.000   0.003   0.005  -0.000   0.005   0.010
 -0.000  -0.000   4.359  -0.000   0.000   8.132  -0.000   0.000
  0.002   0.003  -0.000   4.360  -0.000  -0.000   8.134  -0.000
  0.004   0.005   0.000  -0.000   4.360   0.000  -0.000   8.133
 -0.000  -0.000   8.132  -0.000   0.000  15.180  -0.001   0.000
  0.004   0.005  -0.000   8.134  -0.000  -0.001  15.183  -0.001
  0.007   0.010   0.000  -0.000   8.133   0.000  -0.001  15.182
 total augmentation occupancy for first ion, spin component:           1
  5.693  -2.106   0.023  -0.197  -0.375  -0.007   0.057   0.109
 -2.106   0.833  -0.014   0.119   0.224   0.003  -0.024  -0.046
  0.023  -0.014   3.393   0.146  -0.055  -0.809  -0.050   0.019
 -0.197   0.119   0.146   2.791   0.138  -0.050  -0.602  -0.047
 -0.375   0.224  -0.055   0.138   2.954   0.019  -0.047  -0.659
 -0.007   0.003  -0.809  -0.050   0.019   0.194   0.014  -0.005
  0.057  -0.024  -0.050  -0.602  -0.047   0.014   0.137   0.013
  0.109  -0.046   0.019  -0.047  -0.659  -0.005   0.013   0.153


------------------------ aborting loop because EDIFF is reached ----------------------------------------


    CHARGE:  cpu time    0.2290: real time    0.2286
    FORLOC:  cpu time    0.1260: real time    0.1259
    FORNL :  cpu time    0.8729: real time    0.8718
    STRESS:  cpu time    2.9106: real time    2.9093
    FORCOR:  cpu time    1.0008: real time    1.0004
    FORHAR:  cpu time    0.3509: real time    0.3505
    MIXING:  cpu time    0.0930: real time    0.0929
    OFIELD:  cpu time    0.0000: real time    0.0000

  FORCE on cell =-STRESS in cart. coord.  units (eV):
  Direction    XX          YY          ZZ          XY          YZ          ZX
  --------------------------------------------------------------------------------------
  Alpha Z     3.06652     3.06652     3.06652
  Ewald     876.64706   876.62235   876.71007    -0.21850     0.02563    -0.50464
  Hartree  1186.12806  1185.51632  1186.11813    -0.43494     0.29079    -0.39811
  E(xc)    -183.33408  -183.29250  -183.43503     0.04341     0.05609     0.00821
  Local   -2525.23581 -2524.59939 -2525.32054     0.65819    -0.29827     0.90495
  n-local   204.13358   203.97654   204.65592    -0.19363    -0.30435    -0.04575
  augment    -0.00550    -0.00410    -0.01624     0.00316     0.00464    -0.00022
  Kinetic   441.26397   441.32559   440.95641     0.10186     0.19637     0.03399
  Fock        0.00000     0.00000     0.00000     0.00000     0.00000     0.00000
  -------------------------------------------------------------------------------------
  Total       2.66380     2.61134     2.73522    -0.04045    -0.02910    -0.00157
  in kB       0.53349     0.52298     0.54779    -0.00810    -0.00583    -0.00031
  external pressure =        0.53 kB  Pullay stress =        0.00 kB


 VOLUME and BASIS-vectors are now :
 -----------------------------------------------------------------------------
  energy-cutoff  :      400.00
[...]
    SETDIJ:  cpu time    0.0070: real time    0.0062
     EDDAV:  cpu time    4.6173: real time    4.6235
       DOS:  cpu time    0.0010: real time    0.0004
    CHARGE:  cpu time    0.2290: real time    0.2299
    MIXING:  cpu time    0.0250: real time    0.0249
    --------------------------------------------
      LOOP:  cpu time    5.8451: real time    5.8530

 eigenvalue-minimisations  :   120
 total energy-change (2. order) : 0.3739073E-05  (-0.1404699E-05)
 number of electron      55.9999994 magnetization 
 augmentation part       -5.1100930 magnetization 

 Broyden mixing:
  rms(total) = 0.10562E-02    rms(broyden)= 0.10561E-02
  rms(prec ) = 0.11313E-02
  weight for this iteration     100.00

 eigenvalues of (default mixing * dielectric matrix)
  average eigenvalue GAMMA=   1.5809
  1.0549  2.1069

 Free energy of the ion-electron system (eV)
  ---------------------------------------------------
  alpha Z        PSCENC =         3.06652414
  Ewald energy   TEWEN  =      2546.46226230
  -Hartree energ DENC   =     -3476.63732548
  -exchange      EXHF   =         0.00000000
  -V(xc)+E(xc)   XCENC  =       -35.38814110
  PAW double counting   =      3230.14691874    -3081.24050998
  entropy T*S    EENTRO =        -0.00000000
  eigenvalues    EBANDS =      -529.93176647
  atomic energy  EATOM  =      1245.75497486
  Solvation  Ediel_sol  =         0.00000000
  ---------------------------------------------------
  free energy    TOTEN  =       -97.76706298 eV

  energy without entropy =      -97.76706298  energy(sigma->0) =      -97.76706298


--------------------------------------------------------------------------------------------------------




--------------------------------------- Iteration     18(   4)  ---------------------------------------


    POTLOK:  cpu time    0.9649: real time    0.9649
    SETDIJ:  cpu time    0.0060: real time    0.0062
     EDDAV:  cpu time    4.3853: real time    4.3829
       DOS:  cpu time    0.0010: real time    0.0004
    CHARGE:  cpu time    0.2300: real time    0.2307
    MIXING:  cpu time    0.0260: real time    0.0259
    --------------------------------------------
      LOOP:  cpu time    5.6131: real time    5.6110

 eigenvalue-minimisations  :   112
 total energy-change (2. order) : 0.1077373E-05  (-0.5655908E-06)
 number of electron      55.9999994 magnetization 
 augmentation part       -5.1101172 magnetization 

 Broyden mixing:
  rms(total) = 0.20505E-03    rms(broyden)= 0.20503E-03
  rms(prec ) = 0.25211E-03
  weight for this iteration     100.00

 eigenvalues of (default mixing * dielectric matrix)
  average eigenvalue GAMMA=   1.4847
  2.3503  1.0520  1.0520

 Free energy of the ion-electron system (eV)
  ---------------------------------------------------
  alpha Z        PSCENC =         3.06652414
  Ewald energy   TEWEN  =      2546.46226230
  -Hartree energ DENC   =     -3476.63873486
  -exchange      EXHF   =         0.00000000
  -V(xc)+E(xc)   XCENC  =       -35.38781586
  PAW double counting   =      3230.18177735    -3081.27534943
  entropy T*S    EENTRO =        -0.00000000
  eigenvalues    EBANDS =      -529.93070041
  atomic energy  EATOM  =      1245.75497486
  Solvation  Ediel_sol  =         0.00000000
  ---------------------------------------------------
  free energy    TOTEN  =       -97.76706190 eV

  energy without entropy =      -97.76706190  energy(sigma->0) =      -97.76706190


--------------------------------------------------------------------------------------------------------




--------------------------------------- Iteration     18(   5)  ---------------------------------------


    POTLOK:  cpu time    0.9649: real time    0.9635
    SETDIJ:  cpu time    0.0060: real time    0.0062
     EDDAV:  cpu time    3.6654: real time    3.6630
       DOS:  cpu time    0.0000: real time    0.0005
    --------------------------------------------
      LOOP:  cpu time    4.6363: real time    4.6332

 eigenvalue-minimisations  :    88
 total energy-change (2. order) :-0.2015784E-06  (-0.7091464E-07)
 number of electron      55.9999994 magnetization 
 augmentation part       -5.1101172 magnetization 

 Free energy of the ion-electron system (eV)
  ---------------------------------------------------
  alpha Z        PSCENC =         3.06652414
  Ewald energy   TEWEN  =      2546.46226230
  -Hartree energ DENC   =     -3476.63960006
  -exchange      EXHF   =         0.00000000
  -V(xc)+E(xc)   XCENC  =       -35.38779156
  PAW double counting   =      3230.18351568    -3081.27709832
  entropy T*S    EENTRO =        -0.00000000
  eigenvalues    EBANDS =      -529.92984915
  atomic energy  EATOM  =      1245.75497486
  Solvation  Ediel_sol  =         0.00000000
  ---------------------------------------------------
  free energy    TOTEN  =       -97.76706211 eV

  energy without entropy =      -97.76706211  energy(sigma->0) =      -97.76706211


--------------------------------------------------------------------------------------------------------




 average (electrostatic) potential at core
  the test charge radii are     0.9892  1.1631  0.5201
  (the norm of the test charge is              1.0000)
       1 -93.4426       2 -93.4427       3 -40.4238       4 -40.4987       5 -40.4760
       6 -40.4761       7 -40.5297       8 -40.4980       9 -40.4983      10 -40.4981
      11 -40.9928      12 -40.9956      13 -41.0252      14 -40.9894      15 -40.9899
      16 -40.8779      17 -40.8742      18 -41.0202      19 -41.0303      20 -40.9905
      21 -40.9900      22 -41.0250      23 -40.8739      24 -40.8784      25 -40.9957
      26 -40.9953
 
 
 
 E-fermi :  -5.3220     XC(G=0):  -0.6203     alpha+bet : -0.3225


 k-point     1 :       0.0000    0.0000    0.0000
  band No.  band energies     occupation 
      1     -15.3194      2.00000
      2     -14.4158      2.00000
      3     -14.2994      2.00000
      4     -14.2761      2.00000
      5     -13.2193      2.00000
      6     -13.0344      2.00000
      7     -11.9659      2.00000
      8     -11.8213      2.00000
      9     -11.7896      2.00000
     10     -10.8152      2.00000
     11      -8.8899      2.00000
     12      -8.6636      2.00000
     13      -8.5782      2.00000
     14      -8.4876      2.00000
     15      -8.2353      2.00000
     16      -8.1146      2.00000
     17      -8.0682      2.00000
     18      -7.8384      2.00000
     19      -7.8282      2.00000
     20      -7.7763      2.00000
     21      -6.7876      2.00000
     22      -6.7332      2.00000
     23      -6.4486      2.00000
     24      -6.3953      2.00000
     25      -6.3084      2.00000
     26      -6.3002      2.00000
     27      -6.2785      2.00000
     28      -6.2763      2.00000
     29      -1.5055      0.00000
     30      -1.4322      0.00000
     31      -1.3768      0.00000
     32      -1.3111      0.00000
     33      -1.2437      0.00000
     34      -1.1672      0.00000
     35      -1.1454      0.00000
     36      -1.1018      0.00000
     37      -0.8488      0.00000
     38      -0.7941      0.00000
     39      -0.1978      0.00000
     40      -0.1547      0.00000
     41      -0.1268      0.00000
     42      -0.0723      0.00000


--------------------------------------------------------------------------------------------------------


 soft charge-density along one line, spin component           1
         0         1         2         3         4         5         6         7         8         9
 total charge-density along one line
 
 pseudopotential strength for first ion, spin component:           1
 19.626  27.388  -0.000   0.003   0.005  -0.001   0.005   0.009
 27.388  38.226  -0.000   0.003   0.007  -0.001   0.007   0.013
 -0.000  -0.000   4.363  -0.000   0.000   8.138  -0.000   0.000
  0.003   0.003  -0.000   4.363  -0.000  -0.000   8.138  -0.000
  0.005   0.007   0.000  -0.000   4.363   0.000  -0.000   8.138
 -0.001  -0.001   8.138  -0.000   0.000  15.190  -0.000   0.000
  0.005   0.007  -0.000   8.138  -0.000  -0.000  15.191  -0.000
  0.009   0.013   0.000  -0.000   8.138   0.000  -0.000  15.191
 total augmentation occupancy for first ion, spin component:           1
  6.038  -2.290   0.040  -0.319  -0.602  -0.012   0.099   0.188
 -2.290   0.920  -0.022   0.178   0.334   0.005  -0.043  -0.082
  0.040  -0.022   3.655   0.192  -0.078  -0.884  -0.062   0.025
 -0.319   0.178   0.192   2.829   0.221  -0.062  -0.618  -0.071
 -0.602   0.334  -0.078   0.221   3.086   0.025  -0.071  -0.700
 -0.012   0.005  -0.884  -0.062   0.025   0.215   0.017  -0.007
  0.099  -0.043  -0.062  -0.618  -0.071   0.017   0.142   0.020
  0.188  -0.082   0.025  -0.071  -0.700  -0.007   0.020   0.165


------------------------ aborting loop because EDIFF is reached ----------------------------------------


    CHARGE:  cpu time    0.2300: real time    0.2297
    FORLOC:  cpu time    0.1350: real time    0.1349
    FORNL :  cpu time    0.8729: real time    0.8723
    STRESS:  cpu time    3.0805: real time    3.0790
    FORCOR:  cpu time    1.0028: real time    1.0023
    FORHAR:  cpu time    0.3509: real time    0.3514
    MIXING:  cpu time    0.0270: real time    0.0268
    OFIELD:  cpu time    0.0000: real time    0.0000

  FORCE on cell =-STRESS in cart. coord.  units (eV):
  Direction    XX          YY          ZZ          XY          YZ          ZX
  --------------------------------------------------------------------------------------
  Alpha Z     3.06652     3.06652     3.06652
  Ewald     850.91873   847.34189   848.19998    -1.57903     2.33656     0.05731
  Hartree  1161.05282  1158.28436  1157.30518    -0.90918     2.88951     0.16370
  E(xc)    -182.42447  -182.38650  -182.54572     0.04829     0.07653     0.01404
  Local   -2473.03569 -2466.65297 -2466.41804     2.46545    -5.35986    -0.25326
  n-local   200.96890   200.93711   201.31207    -0.11034    -0.26355    -0.06209
  augment    -0.27361    -0.29110    -0.22196    -0.02110    -0.03075    -0.00520
  Kinetic   438.87334   438.78035   438.48840     0.05638     0.32562     0.07911
  Fock        0.00000     0.00000     0.00000     0.00000     0.00000     0.00000
  -------------------------------------------------------------------------------------
  Total      -0.85346    -0.92033    -0.81356    -0.04953    -0.02595    -0.00639
  in kB      -0.17092    -0.18432    -0.16293    -0.00992    -0.00520    -0.00128
  external pressure =       -0.17 kB  Pullay stress =        0.00 kB


 VOLUME and BASIS-vectors are now :
 -----------------------------------------------------------------------------
  energy-cutoff  :      400.00
  volume of cell :     8000.00
      direct lattice vectors                 reciprocal lattice vectors
    20.000000000  0.000000000  0.000000000     0.050000000  0.000000000  0.000000000
     0.000000000 20.000000000  0.000000000     0.000000000  0.050000000  0.000000000
     0.000000000  0.000000000 20.000000000     0.000000000  0.000000000  0.050000000

  length of vectors
    20.000000000 20.000000000 20.000000000     0.050000000  0.050000000  0.050000000


 FORCES acting on ions
    electron-ion (+dipol)            ewald-force                    non-local-force                 convergence-correction
 -----------------------------------------------------------------------------------------------
   0.831E+02 -.513E+01 0.439E+02   -.854E+02 0.527E+01 -.450E+02   0.230E+01 -.154E+00 0.117E+01   -.440E-03 0.104E-02 -.319E-03
   -.349E+02 0.508E+02 0.713E+02   0.359E+02 -.522E+02 -.732E+02   -.988E+00 0.140E+01 0.194E+01   0.845E-03 0.369E-03 -.635E-03
   0.110E+02 -.195E+02 0.864E+02   -.113E+02 0.193E+02 -.871E+02   0.243E+00 0.208E+00 0.622E+00   0.106E-03 0.368E-03 -.230E-03
   -.280E+02 -.807E+02 0.440E+02   0.284E+02 0.816E+02 -.445E+02   -.326E+00 -.920E+00 0.463E+00   -.310E-03 -.795E-04 -.109E-02
   0.790E+02 0.128E+02 -.405E+02   -.797E+02 -.128E+02 0.404E+02   0.753E+00 0.529E-01 0.698E-01   -.216E-03 -.516E-03 -.713E-03
   -.501E+02 0.737E+02 -.104E+02   0.504E+02 -.743E+02 0.100E+02   -.361E+00 0.579E+00 0.329E+00   -.538E-03 -.376E-03 -.638E-03
   -.419E+02 -.687E+02 -.402E+02   0.422E+02 0.692E+02 0.405E+02   -.330E+00 -.555E+00 -.289E+00   -.292E-03 0.312E-04 -.127E-02
   -.842E+02 0.495E+01 -.449E+02   0.852E+02 -.499E+01 0.454E+02   -.953E+00 0.402E-01 -.514E+00   -.351E-03 -.516E-03 -.884E-03
   0.278E+02 0.805E+02 -.445E+02   -.281E+02 -.814E+02 0.450E+02   0.306E+00 0.899E+00 -.508E+00   -.247E-03 -.508E-03 -.193E-04
   0.351E+02 -.516E+02 -.726E+02   -.355E+02 0.522E+02 0.734E+02   0.381E+00 -.590E+00 -.825E+00   -.520E-03 -.433E-03 -.858E-03
   0.199E+02 0.391E+02 0.547E+01   -.211E+02 -.411E+02 -.651E+01   0.117E+01 0.196E+01 0.104E+01   0.137E-04 -.403E-05 0.648E-04
   0.956E+00 0.211E+02 -.389E+02   -.637E+00 -.217E+02 0.413E+02   -.317E+00 0.534E+00 -.244E+01   -.912E-04 -.168E-03 -.446E-04
   -.256E+02 0.380E+02 -.446E+01   0.270E+02 -.400E+02 0.470E+01   -.137E+01 0.204E+01 -.246E+00   -.145E-03 -.166E-04 -.119E-03
   -.435E+02 -.366E+01 0.522E+01   0.458E+02 0.401E+01 -.625E+01   -.226E+01 -.355E+00 0.103E+01   0.127E-03 -.291E-04 -.350E-03
   -.196E+02 0.774E+01 -.388E+02   0.200E+02 -.828E+01 0.413E+02   -.366E+00 0.537E+00 -.243E+01   -.545E-04 -.217E-03 0.133E-03
   -.364E+02 0.460E+01 0.284E+02   0.390E+02 -.417E+01 -.297E+02   -.262E+01 -.427E+00 0.133E+01   0.325E-04 0.314E-04 -.132E-03
   0.874E+01 0.355E+02 0.286E+02   -.101E+02 -.378E+02 -.299E+02   0.133E+01 0.228E+01 0.134E+01   0.126E-03 -.181E-04 -.976E-04
   0.607E+01 -.946E+01 0.448E+02   -.639E+01 0.997E+01 -.472E+02   0.317E+00 -.507E+00 0.239E+01   0.555E-04 0.575E-04 0.136E-03
   -.214E+02 -.351E+02 -.203E+02   0.225E+02 0.369E+02 0.214E+02   -.115E+01 -.189E+01 -.109E+01   -.405E-04 0.323E-04 -.230E-03
   0.267E+01 -.286E+01 -.439E+02   -.239E+01 0.236E+01 0.463E+02   -.282E+00 0.498E+00 -.245E+01   -.837E-04 -.203E-03 0.138E-03
   0.240E+02 -.357E+02 -.106E+02   -.254E+02 0.377E+02 0.104E+02   0.139E+01 -.208E+01 0.179E+00   -.223E-03 0.137E-03 -.272E-03
   0.409E+02 0.663E+01 -.200E+02   -.430E+02 -.699E+01 0.211E+02   0.219E+01 0.356E+00 -.107E+01   0.287E-04 -.943E-04 -.158E-03
   0.317E+02 0.247E+02 0.233E+02   -.331E+02 -.269E+02 -.246E+02   0.143E+01 0.224E+01 0.132E+01   -.121E-03 0.103E-03 -.405E-04
   0.342E+02 -.289E+02 0.120E+02   -.359E+02 0.314E+02 -.123E+02   0.165E+01 -.245E+01 0.333E+00   -.377E-04 0.708E-04 -.111E-03
   0.125E+02 -.408E+02 0.115E+02   -.138E+02 0.429E+02 -.118E+02   0.137E+01 -.209E+01 0.287E+00   -.502E-04 -.109E-03 -.190E-03
   -.332E+02 -.194E+02 0.221E+02   0.354E+02 0.198E+02 -.233E+02   -.222E+01 -.399E+00 0.112E+01   -.127E-03 -.706E-04 -.171E-03
 -----------------------------------------------------------------------------------------------
   -.129E+01 -.120E+01 -.309E+01   -.213E-13 -.888E-13 -.604E-13   0.129E+01 0.120E+01 0.310E+01   -.255E-02 -.112E-02 -.811E-02
 
 
 POSITION                                       TOTAL-FORCE (eV/Angst)
 -----------------------------------------------------------------------------------
      7.34473     10.77799      8.70475         0.009414     -0.011418     -0.000493
     10.84554      9.12357      7.88838        -0.013369     -0.000115      0.004812
      9.49146     11.09862      7.66995        -0.003697     -0.010199      0.004596
     10.63550     13.00017      8.72180         0.003470      0.005735      0.002252
      7.63407     10.29433     11.03985         0.005176      0.009726      0.001152
     11.17660      8.62029     10.21375         0.004553      0.010122      0.001312
     10.96924     12.53086     11.10472        -0.003096     -0.009126      0.005110
     12.31752     10.49213     11.32126         0.006184      0.000174      0.005563
      8.99895      8.27056     11.28883        -0.002747     -0.006000      0.000859
      8.77801     12.16477     12.14677        -0.001375      0.003665      0.007192
      8.27288      7.05393     10.63996        -0.000260      0.001234     -0.003869
      9.19520      7.94138     12.79834         0.002528      0.002873      0.005565
     12.04371      7.32946     10.36749         0.002737     -0.002020     -0.004918
     13.72081     10.71260     10.68037        -0.000327      0.000169     -0.002097
     12.54326     10.15885     12.82644        -0.002168     -0.004898      0.000226
     12.16743      9.34101      7.21955         0.009221      0.006816     -0.005169
     10.17174      7.96909      7.21116        -0.000911      0.003233      0.003049
      9.28947     11.41900      6.15407        -0.003544     -0.003024     -0.008736
     11.69668     13.72946     11.79594        -0.002478     -0.004399     -0.001415
      8.95333     11.85508     13.66368        -0.002055     -0.005070     -0.000134
      7.91408     13.45693     12.03483        -0.000452      0.000409     -0.002033
      6.24503     10.06948     11.71939        -0.005192      0.001659     -0.003171
      6.62473      9.64526      8.03836         0.004235      0.001173      0.002046
      6.51400     12.01249      8.53800        -0.002172      0.012528     -0.002456
      9.78787     14.29486      8.54419        -0.008280      0.001434     -0.003091
     12.00757     13.24584      8.02649         0.004604     -0.004681     -0.006151
 -----------------------------------------------------------------------------------
    total drift:                                0.000427      0.000651      0.001085


--------------------------------------------------------------------------------------------------------



  FREE ENERGIE OF THE ION-ELECTRON SYSTEM (eV)
  ---------------------------------------------------
  free  energy   TOTEN  =       -97.76706211 eV

  energy  without entropy=      -97.76706211  energy(sigma->0) =      -97.76706211
 
 d Force = 0.1615448E-03[-0.713E-04, 0.394E-03]  d Energy = 0.1610089E-03 0.536E-06
 d Force = 0.4925022E-01[ 0.493E-01, 0.492E-01]  d Ewald  = 0.4925039E-01-0.170E-06


--------------------------------------------------------------------------------------------------------


    POTLOK:  cpu time    0.9709: real time    0.9700


--------------------------------------------------------------------------------------------------------


 Conjugate gradient step on ions:
 trial-energy change:   -0.000161  1 .order   -0.000162   -0.000394    0.000071
  (g-gl).g = 0.321E-03      g.g   = 0.324E-03  gl.gl    = 0.821E-03
 g(Force)  = 0.324E-03   g(Stress)= 0.000E+00 ortho     = 0.284E-05
 gamma     =   0.39135
 trial     =   1.21136
 opt step  =   1.02593  (harmonic =   1.02593) maximal distance =0.00150562
 next E    =   -97.767068   (d E  =  -0.00017)


--------------------------------------------------------------------------------------------------------


  
 reached required accuracy - stopping structural energy minimisation
 writing wavefunctions
     LOOP+:  cpu time   33.7859: real time   34.2703
    4ORBIT:  cpu time    0.0000: real time    0.0000

 total amount of memory used by VASP MPI-rank0   131440. kBytes
=======================================================================

   base      :      30000. kBytes
   nonl-proj :      17624. kBytes
   fftplans  :      26957. kBytes
   grid      :      48673. kBytes
   one-center:         40. kBytes
   wavefun   :       8146. kBytes
 
  
  
 General timing and accounting informations for this job:
 ========================================================
  
                  Total CPU time used (sec):     1156.849
                            User time (sec):     1134.744
                          System time (sec):       22.105
                         Elapsed time (sec):     1161.491
  
                   Maximum memory used (kb):      184576.
                   Average memory used (kb):           0.
  
                          Minor page faults:      6078468
                          Major page faults:           10
                 Voluntary context switches:         7129
