 vasp.5.4.4.18Apr17-6-g9f103f2a35 (build Nov 06 2017 19:16:10) complex          
  
 executed on           IFC91_ompi date 2018.07.12  21:06:24
 running on   12 total cores
 distrk:  each k-point on   12 cores,    1 groups
 distr:  one band on NCORES_PER_BAND=   6 cores,    2 groups


--------------------------------------------------------------------------------------------------------


 INCAR:
 POTCAR:    PAW_PBE Si 05Jan2001                  
 POTCAR:    PAW_PBE Ge 05Jan2001                  
 POTCAR:    PAW_PBE H 15Jun2001                   
 POTCAR:    PAW_PBE Si 05Jan2001                  
   VRHFIN =Si: s2p2                                                             
   LEXCH  = PE                                                                  
   EATOM  =   103.0669 eV,    7.5752 Ry                                         
                                                                                
   TITEL  = PAW_PBE Si 05Jan2001                                                
   LULTRA =        F    use ultrasoft PP ?                                      
   IUNSCR =        1    unscreen: 0-lin 1-nonlin 2-no                           
   RPACOR =    1.500    partial core radius                                     
   POMASS =   28.085; ZVAL   =    4.000    mass and valenz                      
   RCORE  =    1.900    outmost cutoff radius                                   
   RWIGS  =    2.480; RWIGS  =    1.312    wigner-seitz radius (au A)           
   ENMAX  =  245.345; ENMIN  =  184.009 eV                                      
   ICORE  =        2    local potential                                         
   LCOR   =        T    correct aug charges                                     
   LPAW   =        T    paw PP                                                  
   EAUG   =  322.069                                                            
   DEXC   =    0.000                                                            
   RMAX   =    1.950    core radius for proj-oper                               
   RAUG   =    1.300    factor for augmentation sphere                          
   RDEP   =    1.993    radius for radial grids                                 
   RDEPT  =    1.837    core radius for aug-charge                              
                                                                                
   Atomic configuration                                                         
    6 entries                                                                   
     n  l   j            E        occ.                                          
     1  0  0.50     -1785.8828   2.0000                                         
     2  0  0.50      -139.4969   2.0000                                         
     2  1  1.50       -95.5546   6.0000                                         
     3  0  0.50       -10.8127   2.0000                                         
     3  1  0.50        -4.0811   2.0000                                         
     3  2  1.50        -4.0817   0.0000                                         
   Description                                                                  
     l       E           TYP  RCUT    TYP  RCUT                                 
     0    -10.8127223     23  1.900                                             
     0     -7.6451159     23  1.900                                             
     1     -4.0811372     23  1.900                                             
     1      2.4879257     23  1.900                                             
     2     -4.0817478      7  1.900                                             
  local pseudopotential read in
  partial core-charges read in
  partial kinetic energy density read in
  atomic valenz-charges read in
  non local Contribution for L=           0  read in
    real space projection operators read in
  non local Contribution for L=           0  read in
    real space projection operators read in
  non local Contribution for L=           1  read in
    real space projection operators read in
  non local Contribution for L=           1  read in
    real space projection operators read in
    PAW grid and wavefunctions read in
 
   number of l-projection  operators is LMAX  =           4
   number of lm-projection operators is LMMAX =           8
 
 POTCAR:    PAW_PBE Ge 05Jan2001                  
   VRHFIN =Ge: s2p2                                                             
   LEXCH  = PE                                                                  
   EATOM  =   104.9960 eV,    7.7170 Ry                                         
                                                                                
   TITEL  = PAW_PBE Ge 05Jan2001                                                
   LULTRA =        F    use ultrasoft PP ?                                      
   IUNSCR =        1    unscreen: 0-lin 1-nonlin 2-no                           
   RPACOR =    2.170    partial core radius                                     
   POMASS =   72.610; ZVAL   =    4.000    mass and valenz                      
   RCORE  =    2.300    outmost cutoff radius                                   
   RWIGS  =    2.300; RWIGS  =    1.217    wigner-seitz radius (au A)           
   ENMAX  =  173.807; ENMIN  =  130.355 eV                                      
   ICORE  =        3    local potential                                         
   LCOR   =        T    correct aug charges                                     
   LPAW   =        T    paw PP                                                  
   EAUG   =  385.843                                                            
   DEXC   =    0.000                                                            
   RMAX   =    2.342    core radius for proj-oper                               
   RAUG   =    1.300    factor for augmentation sphere                          
   RDEP   =    2.318    radius for radial grids                                 
   RDEPT  =    2.103    core radius for aug-charge                              
                                                                                
   Atomic configuration                                                         
   10 entries                                                                   
     n  l   j            E        occ.                                          
     1  0  0.50    -10959.8463   2.0000                                         
     2  0  0.50     -1371.6056   2.0000                                         
     2  1  1.50     -1198.4791   6.0000                                         
     3  0  0.50      -168.4733   2.0000                                         
     3  1  1.50      -115.6019   6.0000                                         
     3  2  2.50       -29.3106  10.0000                                         
     4  0  0.50       -11.7309   2.0000                                         
     4  1  0.50        -3.8952   2.0000                                         
     4  2  1.50        -4.0817   0.0000                                         
     4  3  2.50        -4.0817   0.0000                                         
   Description                                                                  
     l       E           TYP  RCUT    TYP  RCUT                                 
     0    -11.7309493     23  2.300                                             
     0     -7.4578696     23  2.300                                             
     1     -3.8952261     23  2.300                                             
     1      6.1178114     23  2.300                                             
     2     -4.0817478     23  2.300                                             
     3     -1.3605826      7  2.300                                             
  local pseudopotential read in
  partial core-charges read in
  partial kinetic energy density read in
  atomic valenz-charges read in
  non local Contribution for L=           0  read in
    real space projection operators read in
  non local Contribution for L=           0  read in
    real space projection operators read in
  non local Contribution for L=           1  read in
    real space projection operators read in
  non local Contribution for L=           1  read in
    real space projection operators read in
  non local Contribution for L=           2  read in
    real space projection operators read in
    PAW grid and wavefunctions read in
 
   number of l-projection  operators is LMAX  =           5
   number of lm-projection operators is LMMAX =          13
 
 POTCAR:    PAW_PBE H 15Jun2001                   
   VRHFIN =H: ultrasoft test                                                    
   LEXCH  = PE                                                                  
   EATOM  =    12.4884 eV,    0.9179 Ry                                         
                                                                                
   TITEL  = PAW_PBE H 15Jun2001                                                 
   LULTRA =        F    use ultrasoft PP ?                                      
   IUNSCR =        0    unscreen: 0-lin 1-nonlin 2-no                           
   RPACOR =    0.000    partial core radius                                     
   POMASS =    1.000; ZVAL   =    1.000    mass and valenz                      
   RCORE  =    1.100    outmost cutoff radius                                   
   RWIGS  =    0.700; RWIGS  =    0.370    wigner-seitz radius (au A)           
   ENMAX  =  250.000; ENMIN  =  200.000 eV                                      
   RCLOC  =    0.701    cutoff for local pot                                    
   LCOR   =        T    correct aug charges                                     
   LPAW   =        T    paw PP                                                  
   EAUG   =  400.000                                                            
   RMAX   =    1.123    core radius for proj-oper                               
   RAUG   =    1.200    factor for augmentation sphere                          
   RDEP   =    1.112    radius for radial grids                                 
   RDEPT  =    0.926    core radius for aug-charge                              
                                                                                
   Atomic configuration                                                         
    2 entries                                                                   
     n  l   j            E        occ.                                          
     1  0  0.50        -6.4927   1.0000                                         
     2  1  0.50        -3.4015   0.0000                                         
   Description                                                                  
     l       E           TYP  RCUT    TYP  RCUT                                 
     0     -6.4927494     23  1.100                                             
     0      6.8029130     23  1.100                                             
     1     -4.0817478     23  1.100                                             
  local pseudopotential read in
  atomic valenz-charges read in
  non local Contribution for L=           0  read in
    real space projection operators read in
  non local Contribution for L=           0  read in
    real space projection operators read in
  non local Contribution for L=           1  read in
    real space projection operators read in
    PAW grid and wavefunctions read in
 
   number of l-projection  operators is LMAX  =           3
   number of lm-projection operators is LMMAX =           5
 

 ----------------------------------------------------------------------------- 
|                                                                             |
|  ADVICE TO THIS USER RUNNING 'VASP/VAMP'   (HEAR YOUR MASTER'S VOICE ...):  |
|                                                                             |
|      You have a (more or less) 'large supercell' and for larger cells       |
|      it might be more efficient to use real space projection opertators     |
|      So try LREAL= Auto  in the INCAR   file.                               |
|      Mind:          For very  accurate calculation you might also keep the  |
|      reciprocal projection scheme          (i.e. LREAL=.FALSE.)             |
|                                                                             |
 ----------------------------------------------------------------------------- 

  PAW_PBE Si 05Jan2001                  :
 energy of atom  1       EATOM= -103.0669
 kinetic energy error for atom=    0.0012 (will be added to EATOM!!)
  PAW_PBE Ge 05Jan2001                  :
 energy of atom  2       EATOM= -104.9960
 kinetic energy error for atom=    0.0003 (will be added to EATOM!!)
  PAW_PBE H 15Jun2001                   :
 energy of atom  3       EATOM=  -12.4884
 kinetic energy error for atom=    0.0098 (will be added to EATOM!!)
 
 
 POSCAR: SiGeH16                                 
  positions in direct lattice
  No initial velocities read in
 exchange correlation table for  LEXCH =        8
   RHO(1)=    0.500       N(1)  =     2000
   RHO(2)=  100.500       N(2)  =     4000
 


--------------------------------------------------------------------------------------------------------


 ion  position               nearest neighbor table
   1  0.475  0.556  0.385-  18 1.55   6 2.39   2 2.39   5 2.39
   2  0.369  0.539  0.436-  23 1.55  24 1.55   3 2.39   1 2.39
   3  0.385  0.515  0.552-  22 1.55  10 2.39   9 2.39   2 2.39
   4  0.613  0.525  0.565-  15 1.55  14 1.55   8 2.39   7 2.39
   5  0.542  0.457  0.396-  17 1.55  16 1.55   7 2.39   1 2.39
   6  0.531  0.648  0.437-  25 1.55  26 1.55   8 2.39   1 2.39
   7  0.557  0.433  0.512-  13 1.55   5 2.39   4 2.39   9 2.39
   8  0.547  0.624  0.554-  19 1.55   6 2.39   4 2.39  10 2.39
   9  0.451  0.416  0.564-  12 1.55  11 1.55   3 2.39   7 2.39
  10  0.440  0.606  0.605-  20 1.55  21 1.55   3 2.39   8 2.39
  11  0.415  0.357  0.529-   9 1.55
  12  0.461  0.400  0.639-   9 1.55
  13  0.600  0.369  0.520-   7 1.55
  14  0.682  0.536  0.531-   4 1.55
  15  0.623  0.509  0.640-   4 1.55
  16  0.611  0.469  0.363-   5 1.55
  17  0.506  0.398  0.362-   5 1.55
  18  0.465  0.572  0.309-   1 1.55
  19  0.583  0.683  0.588-   8 1.55
  20  0.451  0.590  0.680-  10 1.55
  21  0.397  0.670  0.598-  10 1.55
  22  0.316  0.504  0.586-   3 1.55
  23  0.333  0.479  0.402-   2 1.55
  24  0.326  0.603  0.429-   2 1.55
  25  0.488  0.712  0.430-   6 1.55
  26  0.600  0.659  0.404-   6 1.55
 
  LATTYP: Found a simple cubic cell.
 ALAT       =    20.0000000000
  
  Lattice vectors:
  
 A1 = (  20.0000000000,   0.0000000000,   0.0000000000)
 A2 = (   0.0000000000,  20.0000000000,   0.0000000000)
 A3 = (   0.0000000000,   0.0000000000,  20.0000000000)


Analysis of symmetry for initial positions (statically):
=====================================================================
 Subroutine PRICEL returns:
 Original cell was already a primitive cell.
 

 Routine SETGRP: Setting up the symmetry group for a 
 simple cubic supercell.


 Subroutine GETGRP returns: Found  1 space group operations
 (whereof  1 operations were pure point group operations)
 out of a pool of 48 trial point group operations.


The static configuration has the point symmetry C_1 .


Analysis of symmetry for dynamics (positions and initial velocities):
=====================================================================
 Subroutine PRICEL returns:
 Original cell was already a primitive cell.
 

 Routine SETGRP: Setting up the symmetry group for a 
 simple cubic supercell.


 Subroutine GETGRP returns: Found  1 space group operations
 (whereof  1 operations were pure point group operations)
 out of a pool of 48 trial point group operations.


The dynamic configuration has the point symmetry C_1 .


 Subroutine INISYM returns: Found  1 space group operations
 (whereof  1 operations are pure point group operations),
 and found     1 'primitive' translations

 
 
 KPOINTS: Automatic mesh                          

Automatic generation of k-mesh.
Space group operators:
 irot       det(A)        alpha          n_x          n_y          n_z        tau_x        tau_y        tau_z
    1     1.000000     0.000000     1.000000     0.000000     0.000000     0.000000     0.000000     0.000000
 
 Subroutine IBZKPT returns following result:
 ===========================================
 
 Found      1 irreducible k-points:
 
 Following reciprocal coordinates:
            Coordinates               Weight
  0.000000  0.000000  0.000000      1.000000
 
 Following cartesian coordinates:
            Coordinates               Weight
  0.000000  0.000000  0.000000      1.000000
 


--------------------------------------------------------------------------------------------------------




 Dimension of arrays:
   k-points           NKPTS =      1   k-points in BZ     NKDIM =      1   number of bands    NBANDS=     42
   number of dos      NEDOS =    301   number of ions     NIONS =     26
   non local maximal  LDIM  =      5   non local SUM 2l+1 LMDIM =     13
   total plane-waves  NPLWV = 941192
   max r-space proj   IRMAX =      1   max aug-charges    IRDMAX=   6593
   dimension x,y,z NGX =    98 NGY =   98 NGZ =   98
   dimension x,y,z NGXF=   196 NGYF=  196 NGZF=  196
   support grid    NGXF=   196 NGYF=  196 NGZF=  196
   ions per type =               4   6  16
   NGX,Y,Z   is equivalent  to a cutoff of   8.15,  8.15,  8.15 a.u.
   NGXF,Y,Z  is equivalent  to a cutoff of  16.29, 16.29, 16.29 a.u.

 SYSTEM =  SiGe                                    
 POSCAR =  SiGeH16                                 

 Startparameter for this run:
   NWRITE =      2    write-flag & timer
   PREC   = normal    normal or accurate (medium, high low for compatibility)
   ISTART =      0    job   : 0-new  1-cont  2-samecut
   ICHARG =      2    charge: 1-file 2-atom 10-const
   ISPIN  =      1    spin polarized calculation?
   LNONCOLLINEAR =      F non collinear calculations
   LSORBIT =      F    spin-orbit coupling
   INIWAV =      1    electr: 0-lowe 1-rand  2-diag
   LASPH  =      F    aspherical Exc in radial PAW
   METAGGA=      F    non-selfconsistent MetaGGA calc.

 Electronic Relaxation 1
   ENCUT  =  400.0 eV  29.40 Ry    5.42 a.u.  32.61 32.61 32.61*2*pi/ulx,y,z
   ENINI  =  400.0     initial cutoff
   ENAUG  =  400.0 eV  augmentation charge cutoff
   NELM   =     60;   NELMIN=  2; NELMDL= -5     # of ELM steps 
   EDIFF  = 0.1E-05   stopping-criterion for ELM
   LREAL  =      F    real-space projection
   NLSPLINE    = F    spline interpolate recip. space projectors
   LCOMPAT=      F    compatible to vasp.4.4
   GGA_COMPAT  = T    GGA compatible to vasp.4.4-vasp.4.6
   LMAXPAW     = -100 max onsite density
   LMAXMIX     =    2 max onsite mixed and CHGCAR
   VOSKOWN=      0    Vosko Wilk Nusair interpolation
   ROPT   =    0.00000   0.00000   0.00000
 Ionic relaxation
   EDIFFG = -.2E-01   stopping-criterion for IOM
   NSW    =    200    number of steps for IOM
   NBLOCK =      1;   KBLOCK =    200    inner block; outer block 
   IBRION =      2    ionic relax: 0-MD 1-quasi-New 2-CG
   NFREE  =      1    steps in history (QN), initial steepest desc. (CG)
   ISIF   =      2    stress and relaxation
   IWAVPR =     11    prediction:  0-non 1-charg 2-wave 3-comb
   ISYM   =      2    0-nonsym 1-usesym 2-fastsym
   LCORR  =      T    Harris-Foulkes like correction to forces

   POTIM  = 0.5000    time-step for ionic-motion
   TEIN   =    0.0    initial temperature
   TEBEG  =    0.0;   TEEND  =   0.0 temperature during run
   SMASS  =  -3.00    Nose mass-parameter (am)
   estimated Nose-frequenzy (Omega)   =  0.10E-29 period in steps =****** mass=  -0.914E-26a.u.
   SCALEE = 1.0000    scale energy and forces
   NPACO  =    256;   APACO  = 16.0  distance and # of slots for P.C.
   PSTRESS=    0.0 pullay stress

  Mass of Ions in am
   POMASS =  28.09 72.61  1.00
  Ionic Valenz
   ZVAL   =   4.00  4.00  1.00
  Atomic Wigner-Seitz radii
   RWIGS  =  -1.00 -1.00 -1.00
  virtual crystal weights 
   VCA    =   1.00  1.00  1.00
   NELECT =      56.0000    total number of electrons
   NUPDOWN=      -1.0000    fix difference up-down

 DOS related values:
   EMIN   =  10.00;   EMAX   =-10.00  energy-range for DOS
   EFERMI =   0.00
   ISMEAR =     0;   SIGMA  =   0.20  broadening in eV -4-tet -1-fermi 0-gaus

 Electronic relaxation 2 (details)
   IALGO  =     38    algorithm
   LDIAG  =      T    sub-space diagonalisation (order eigenvalues)
   LSUBROT=      F    optimize rotation matrix (better conditioning)
   TURBO    =      0    0=normal 1=particle mesh
   IRESTART =      0    0=no restart 2=restart with 2 vectors
   NREBOOT  =      0    no. of reboots
   NMIN     =      0    reboot dimension
   EREF     =   0.00    reference energy to select bands
   IMIX   =      4    mixing-type and parameters
     AMIX     =   0.40;   BMIX     =  1.00
     AMIX_MAG =   1.60;   BMIX_MAG =  1.00
     AMIN     =   0.10
     WC   =   100.;   INIMIX=   1;  MIXPRE=   1;  MAXMIX= -45

 Intra band minimization:
   WEIMIN = 0.0010     energy-eigenvalue tresh-hold
   EBREAK =  0.60E-08  absolut break condition
   DEPER  =   0.30     relativ break condition  

   TIME   =   0.40     timestep for ELM

  volume/ion in A,a.u.               =     307.69      2076.41
  Fermi-wavevector in a.u.,A,eV,Ry     =   0.313166  0.591797  1.334361  0.098073
  Thomas-Fermi vector in A             =   1.193276
 
 Write flags
   LWAVE        =      T    write WAVECAR
   LDOWNSAMPLE  =      F    k-point downsampling of WAVECAR
   LCHARG       =      T    write CHGCAR
   LVTOT        =      F    write LOCPOT, total local potential
   LVHAR        =      F    write LOCPOT, Hartree potential only
   LELF         =      F    write electronic localiz. function (ELF)
   LORBIT       =      0    0 simple, 1 ext, 2 COOP (PROOUT), +10 PAW based schemes


 Dipole corrections
   LMONO  =      F    monopole corrections only (constant potential shift)
   LDIPOL =      F    correct potential (dipole corrections)
   IDIPOL =      0    1-x, 2-y, 3-z, 4-all directions 
   EPSILON=  1.0000000 bulk dielectric constant

 Exchange correlation treatment:
   GGA     =    --    GGA type
   LEXCH   =     8    internal setting for exchange type
   VOSKOWN=      0    Vosko Wilk Nusair interpolation
   LHFCALC =     F    Hartree Fock is set to
   LHFONE  =     F    Hartree Fock one center treatment
   AEXX    =    0.0000 exact exchange contribution

 Linear response parameters
   LEPSILON=     F    determine dielectric tensor
   LRPA    =     F    only Hartree local field effects (RPA)
   LNABLA  =     F    use nabla operator in PAW spheres
   LVEL    =     F    velocity operator in full k-point grid
   LINTERFAST=   F  fast interpolation
   KINTER  =     0    interpolate to denser k-point grid
   CSHIFT  =0.1000    complex shift for real part using Kramers Kronig
   OMEGAMAX=  -1.0    maximum frequency
   DEG_THRESHOLD= 0.2000000E-02 threshold for treating states as degnerate
   RTIME   =   -0.100 relaxation time in fs
  (WPLASMAI=    0.000 imaginary part of plasma frequency in eV, 0.658/RTIME)
   DFIELD  = 0.0000000 0.0000000 0.0000000 field for delta impulse in time
 
 Orbital magnetization related:
   ORBITALMAG=     F  switch on orbital magnetization
   LCHIMAG   =     F  perturbation theory with respect to B field
   DQ        =  0.001000  dq finite difference perturbation B field
   LLRAUG    =     F  two centre corrections for induced B field



--------------------------------------------------------------------------------------------------------


 conjugate gradient relaxation of ions
 charge density and potential will be updated during run
 non-spin polarized calculation
 Variant of blocked Davidson
 Davidson routine will perform the subspace rotation
 perform sub-space diagonalisation
    after iterative eigenvector-optimisation
 modified Broyden-mixing scheme, WC =      100.0
 initial mixing is a Kerker type mixing with AMIX =  0.4000 and BMIX =      1.0000
 Hartree-type preconditioning will be used
 using additional bands           14
 reciprocal scheme for non local part
 use partial core corrections
 calculate Harris-corrections to forces 
   (improved forces if not selfconsistent)
 use gradient corrections 
 use of overlap-Matrix (Vanderbilt PP)
 Gauss-broadening in eV      SIGMA  =   0.20


--------------------------------------------------------------------------------------------------------


  energy-cutoff  :      400.00
  volume of cell :     8000.00
      direct lattice vectors                 reciprocal lattice vectors
    20.000000000  0.000000000  0.000000000     0.050000000  0.000000000  0.000000000
     0.000000000 20.000000000  0.000000000     0.000000000  0.050000000  0.000000000
     0.000000000  0.000000000 20.000000000     0.000000000  0.000000000  0.050000000

  length of vectors
    20.000000000 20.000000000 20.000000000     0.050000000  0.050000000  0.050000000


 
 k-points in units of 2pi/SCALE and weight: Automatic mesh                          
   0.00000000  0.00000000  0.00000000       1.000
 
 k-points in reciprocal lattice and weights: Automatic mesh                          
   0.00000000  0.00000000  0.00000000       1.000
 
 position of ions in fractional coordinates (direct lattice) 
   0.47547100  0.55626000  0.38465300
   0.36907800  0.53906000  0.43641200
   0.38461900  0.51474100  0.55243500
   0.61299700  0.52481700  0.56496600
   0.54179100  0.45744600  0.39613600
   0.53111600  0.64794100  0.43749600
   0.55736800  0.43311000  0.51215000
   0.54669200  0.62364400  0.55351800
   0.45095700  0.41593600  0.56388300
   0.44028400  0.60643000  0.60524300
   0.41490100  0.35665000  0.52940300
   0.46117000  0.40042600  0.63910800
   0.60034800  0.36907000  0.51957800
   0.68182700  0.53600700  0.53118700
   0.62280400  0.50903400  0.64018900
   0.61080000  0.46880600  0.36278200
   0.50550800  0.39805500  0.36207700
   0.46538400  0.57201900  0.30946400
   0.58275500  0.68306700  0.58775000
   0.45052500  0.59044300  0.68036400
   0.39732000  0.67044900  0.59753500
   0.31566200  0.50359800  0.58596500
   0.33322800  0.47946500  0.40225200
   0.32629100  0.60324700  0.42912600
   0.48792300  0.71185500  0.43020800
   0.60015100  0.65882400  0.40403700
 
 position of ions in cartesian coordinates  (Angst):
   9.50942000 11.12520000  7.69306000
   7.38156000 10.78120000  8.72824000
   7.69238000 10.29482000 11.04870000
  12.25994000 10.49634000 11.29932000
  10.83582000  9.14892000  7.92272000
  10.62232000 12.95882000  8.74992000
  11.14736000  8.66220000 10.24300000
  10.93384000 12.47288000 11.07036000
   9.01914000  8.31872000 11.27766000
   8.80568000 12.12860000 12.10486000
   8.29802000  7.13300000 10.58806000
   9.22340000  8.00852000 12.78216000
  12.00696000  7.38140000 10.39156000
  13.63654000 10.72014000 10.62374000
  12.45608000 10.18068000 12.80378000
  12.21600000  9.37612000  7.25564000
  10.11016000  7.96110000  7.24154000
   9.30768000 11.44038000  6.18928000
  11.65510000 13.66134000 11.75500000
   9.01050000 11.80886000 13.60728000
   7.94640000 13.40898000 11.95070000
   6.31324000 10.07196000 11.71930000
   6.66456000  9.58930000  8.04504000
   6.52582000 12.06494000  8.58252000
   9.75846000 14.23710000  8.60416000
  12.00302000 13.17648000  8.08074000
 


--------------------------------------------------------------------------------------------------------


 k-point  1 :   0.0000 0.0000 0.0000  plane waves:  145165

 maximum and minimum number of plane-waves per node :     24209    24180

 maximum number of plane-waves:    145165
 maximum index in each direction: 
   IXMAX=   32   IYMAX=   32   IZMAX=   32
   IXMIN=  -32   IYMIN=  -32   IZMIN=  -32


 parallel 3D FFT for wavefunctions:
    minimum data exchange during FFTs selected (reduces bandwidth)
 parallel 3D FFT for charge:
    minimum data exchange during FFTs selected (reduces bandwidth)


 total amount of memory used by VASP MPI-rank0   131440. kBytes
=======================================================================

   base      :      30000. kBytes
   nonl-proj :      17624. kBytes
   fftplans  :      26957. kBytes
   grid      :      48673. kBytes
   one-center:         40. kBytes
   wavefun   :       8146. kBytes
 
     INWAV:  cpu time    0.0000: real time    0.0000
 Broyden mixing: mesh for mixing (old mesh)
   NGX = 65   NGY = 65   NGZ = 65
  (NGX  =196   NGY  =196   NGZ  =196)
  gives a total of 274625 points

 initial charge density was supplied:
 charge density of overlapping atoms calculated
 number of electron      56.0000000 magnetization 
 keeping initial charge density in first step


--------------------------------------------------------------------------------------------------------


 Maximum index for augmentation-charges          565 (set IRDMAX)


--------------------------------------------------------------------------------------------------------


 First call to EWALD:  gamma=   0.089
 Maximum number of real-space cells 3x 3x 3
 Maximum number of reciprocal cells 3x 3x 3

    FEWALD:  cpu time    0.0020: real time    0.0025


--------------------------------------- Iteration      1(   1)  ---------------------------------------


    POTLOK:  cpu time    0.9938: real time    0.9942
    SETDIJ:  cpu time    0.0060: real time    0.0061
     EDDAV:  cpu time    4.2174: real time    4.2165
       DOS:  cpu time    0.0010: real time    0.0006
    --------------------------------------------
      LOOP:  cpu time    5.2182: real time    5.2174

 eigenvalue-minimisations  :   116
 total energy-change (2. order) : 0.2072895E+03  (-0.1046975E+04)
 number of electron      56.0000000 magnetization 
 augmentation part       56.0000000 magnetization 

 Free energy of the ion-electron system (eV)
  ---------------------------------------------------
  alpha Z        PSCENC =         2.51538199
  Ewald energy   TEWEN  =      2629.98113996
  -Hartree energ DENC   =     -3440.36219834
  -exchange      EXHF   =         0.00000000
  -V(xc)+E(xc)   XCENC  =       -49.26081078
  PAW double counting   =       915.51080863     -758.35430496
  entropy T*S    EENTRO =        -0.44184142
  eigenvalues    EBANDS =      -334.19379651
  atomic energy  EATOM  =      1241.89512738
  Solvation  Ediel_sol  =         0.00000000
  ---------------------------------------------------
  free energy    TOTEN  =       207.28950595 eV

  energy without entropy =      207.73134737  energy(sigma->0) =      207.51042666


--------------------------------------------------------------------------------------------------------




--------------------------------------- Iteration      1(   2)  ---------------------------------------


     EDDAV:  cpu time    4.9972: real time    5.0229
       DOS:  cpu time    0.0010: real time    0.0006
    --------------------------------------------
      LOOP:  cpu time    4.9982: real time    5.0236

 eigenvalue-minimisations  :   144
 total energy-change (2. order) :-0.2324985E+03  (-0.2177323E+03)
 number of electron      56.0000000 magnetization 
 augmentation part       56.0000000 magnetization 

 Free energy of the ion-electron system (eV)
  ---------------------------------------------------
  alpha Z        PSCENC =         2.51538199
  Ewald energy   TEWEN  =      2629.98113996
  -Hartree energ DENC   =     -3440.36219834
  -exchange      EXHF   =         0.00000000
  -V(xc)+E(xc)   XCENC  =       -49.26081078
  PAW double counting   =       915.51080863     -758.35430496
  entropy T*S    EENTRO =        -0.00000000
  eigenvalues    EBANDS =      -567.13412725
  atomic energy  EATOM  =      1241.89512738
  Solvation  Ediel_sol  =         0.00000000
  ---------------------------------------------------
  free energy    TOTEN  =       -25.20898338 eV

  energy without entropy =      -25.20898338  energy(sigma->0) =      -25.20898338


--------------------------------------------------------------------------------------------------------




--------------------------------------- Iteration      1(   3)  ---------------------------------------


     EDDAV:  cpu time    4.1064: real time    4.1050
       DOS:  cpu time    0.0000: real time    0.0006
    --------------------------------------------
      LOOP:  cpu time    4.1064: real time    4.1056

 eigenvalue-minimisations  :   112
 total energy-change (2. order) :-0.7506649E+02  (-0.7488344E+02)
 number of electron      56.0000000 magnetization 
 augmentation part       56.0000000 magnetization 

 Free energy of the ion-electron system (eV)
  ---------------------------------------------------
  alpha Z        PSCENC =         2.51538199
  Ewald energy   TEWEN  =      2629.98113996
  -Hartree energ DENC   =     -3440.36219834
  -exchange      EXHF   =         0.00000000
  -V(xc)+E(xc)   XCENC  =       -49.26081078
  PAW double counting   =       915.51080863     -758.35430496
  entropy T*S    EENTRO =        -0.00000000
  eigenvalues    EBANDS =      -642.20061675
  atomic energy  EATOM  =      1241.89512738
  Solvation  Ediel_sol  =         0.00000000
  ---------------------------------------------------
  free energy    TOTEN  =      -100.27547287 eV

  energy without entropy =     -100.27547287  energy(sigma->0) =     -100.27547287


--------------------------------------------------------------------------------------------------------




--------------------------------------- Iteration      1(   4)  ---------------------------------------


     EDDAV:  cpu time    3.8844: real time    3.8828
       DOS:  cpu time    0.0000: real time    0.0005
    --------------------------------------------
      LOOP:  cpu time    3.8844: real time    3.8833

 eigenvalue-minimisations  :   104
 total energy-change (2. order) :-0.4275212E+01  (-0.4258672E+01)
 number of electron      56.0000000 magnetization 
 augmentation part       56.0000000 magnetization 

 Free energy of the ion-electron system (eV)
  ---------------------------------------------------
  alpha Z        PSCENC =         2.51538199
  Ewald energy   TEWEN  =      2629.98113996
  -Hartree energ DENC   =     -3440.36219834
  -exchange      EXHF   =         0.00000000
  -V(xc)+E(xc)   XCENC  =       -49.26081078
  PAW double counting   =       915.51080863     -758.35430496
  entropy T*S    EENTRO =        -0.00000000
  eigenvalues    EBANDS =      -646.47582866
  atomic energy  EATOM  =      1241.89512738
  Solvation  Ediel_sol  =         0.00000000
  ---------------------------------------------------
  free energy    TOTEN  =      -104.55068479 eV

  energy without entropy =     -104.55068479  energy(sigma->0) =     -104.55068479


--------------------------------------------------------------------------------------------------------




--------------------------------------- Iteration      1(   5)  ---------------------------------------


     EDDAV:  cpu time    4.7963: real time    4.7949
       DOS:  cpu time    0.0010: real time    0.0006
    CHARGE:  cpu time    0.2310: real time    0.2301
    MIXING:  cpu time    0.0230: real time    0.0232
    --------------------------------------------
      LOOP:  cpu time    5.0512: real time    5.0489

 eigenvalue-minimisations  :   136
 total energy-change (2. order) :-0.7005016E-01  (-0.6998700E-01)
 number of electron      56.0000025 magnetization 
 augmentation part       -4.3476010 magnetization 

 Broyden mixing:
  rms(total) = 0.14513E+01    rms(broyden)= 0.14512E+01
  rms(prec ) = 0.15474E+01
  weight for this iteration     100.00

 Free energy of the ion-electron system (eV)
  ---------------------------------------------------
  alpha Z        PSCENC =         2.51538199
  Ewald energy   TEWEN  =      2629.98113996
  -Hartree energ DENC   =     -3440.36219834
  -exchange      EXHF   =         0.00000000
  -V(xc)+E(xc)   XCENC  =       -49.26081078
  PAW double counting   =       915.51080863     -758.35430496
  entropy T*S    EENTRO =        -0.00000000
  eigenvalues    EBANDS =      -646.54587883
  atomic energy  EATOM  =      1241.89512738
  Solvation  Ediel_sol  =         0.00000000
  ---------------------------------------------------
  free energy    TOTEN  =      -104.62073495 eV

  energy without entropy =     -104.62073495  energy(sigma->0) =     -104.62073495


--------------------------------------------------------------------------------------------------------




--------------------------------------- Iteration      1(   6)  ---------------------------------------


    POTLOK:  cpu time    0.9409: real time    0.9406
    SETDIJ:  cpu time    0.0060: real time    0.0061
     EDDAV:  cpu time    3.9184: real time    3.9168
       DOS:  cpu time    0.0000: real time    0.0002
    CHARGE:  cpu time    0.2310: real time    0.2305
    MIXING:  cpu time    0.0240: real time    0.0244
    --------------------------------------------
      LOOP:  cpu time    5.1202: real time    5.1186

 eigenvalue-minimisations  :   104
 total energy-change (2. order) : 0.3159164E+01  (-0.1555348E+00)
 number of electron      56.0000024 magnetization 
 augmentation part       -4.3483159 magnetization 

 Broyden mixing:
  rms(total) = 0.83928E+00    rms(broyden)= 0.83928E+00
  rms(prec ) = 0.89814E+00
  weight for this iteration     100.00

 eigenvalues of (default mixing * dielectric matrix)
  average eigenvalue GAMMA=   2.3010
  2.3010

 Free energy of the ion-electron system (eV)
  ---------------------------------------------------
  alpha Z        PSCENC =         2.51538199
  Ewald energy   TEWEN  =      2629.98113996
  -Hartree energ DENC   =     -3471.28986885
  -exchange      EXHF   =         0.00000000
  -V(xc)+E(xc)   XCENC  =       -45.63601821
  PAW double counting   =      1754.04391437    -1597.76657940
  entropy T*S    EENTRO =        -0.00000000
  eigenvalues    EBANDS =      -615.20466861
  atomic energy  EATOM  =      1241.89512738
  Solvation  Ediel_sol  =         0.00000000
  ---------------------------------------------------
  free energy    TOTEN  =      -101.46157138 eV

  energy without entropy =     -101.46157138  energy(sigma->0) =     -101.46157138


--------------------------------------------------------------------------------------------------------




--------------------------------------- Iteration      1(   7)  ---------------------------------------


    POTLOK:  cpu time    0.9459: real time    0.9456
    SETDIJ:  cpu time    0.0060: real time    0.0061
     EDDAV:  cpu time    3.9994: real time    3.9970
       DOS:  cpu time    0.0000: real time    0.0002
    CHARGE:  cpu time    0.2290: real time    0.2294
    MIXING:  cpu time    0.0250: real time    0.0252
    --------------------------------------------
      LOOP:  cpu time    5.2052: real time    5.2035

 eigenvalue-minimisations  :   104
 total energy-change (2. order) : 0.1652974E+01  (-0.4004773E+00)
 number of electron      56.0000022 magnetization 
 augmentation part       -4.3473255 magnetization 

 Broyden mixing:
  rms(total) = 0.12153E+00    rms(broyden)= 0.12138E+00
  rms(prec ) = 0.15278E+00
  weight for this iteration     100.00

 eigenvalues of (default mixing * dielectric matrix)
  average eigenvalue GAMMA=   1.8472
  1.7689  1.9254

 Free energy of the ion-electron system (eV)
  ---------------------------------------------------
  alpha Z        PSCENC =         2.51538199
  Ewald energy   TEWEN  =      2629.98113996
  -Hartree energ DENC   =     -3526.26950967
  -exchange      EXHF   =         0.00000000
  -V(xc)+E(xc)   XCENC  =       -39.90283004
  PAW double counting   =      3556.77938091    -3401.67215968
  entropy T*S    EENTRO =        -0.00000000
  eigenvalues    EBANDS =      -563.13512867
  atomic energy  EATOM  =      1241.89512738
  Solvation  Ediel_sol  =         0.00000000
  ---------------------------------------------------
  free energy    TOTEN  =       -99.80859782 eV

  energy without entropy =      -99.80859782  energy(sigma->0) =      -99.80859782


--------------------------------------------------------------------------------------------------------




--------------------------------------- Iteration      1(   8)  ---------------------------------------


    POTLOK:  cpu time    0.9489: real time    0.9485
    SETDIJ:  cpu time    0.0060: real time    0.0062
     EDDAV:  cpu time    4.1004: real time    4.1240
       DOS:  cpu time    0.0000: real time    0.0003
    CHARGE:  cpu time    0.2310: real time    0.2302
    MIXING:  cpu time    0.0260: real time    0.0265
    --------------------------------------------
      LOOP:  cpu time    5.3122: real time    5.3355

 eigenvalue-minimisations  :   112
 total energy-change (2. order) : 0.5387272E-01  (-0.2709518E-01)
 number of electron      56.0000022 magnetization 
 augmentation part       -4.3404916 magnetization 

 Broyden mixing:
  rms(total) = 0.60240E-01    rms(broyden)= 0.60226E-01
  rms(prec ) = 0.79424E-01
  weight for this iteration     100.00

 eigenvalues of (default mixing * dielectric matrix)
  average eigenvalue GAMMA=   1.9706
  2.6476  1.6321  1.6321

 Free energy of the ion-electron system (eV)
  ---------------------------------------------------
  alpha Z        PSCENC =         2.51538199
  Ewald energy   TEWEN  =      2629.98113996
  -Hartree energ DENC   =     -3534.45636237
  -exchange      EXHF   =         0.00000000
  -V(xc)+E(xc)   XCENC  =       -39.91510331
  PAW double counting   =      3583.63372535    -3428.44283387
  entropy T*S    EENTRO =        -0.00000000
  eigenvalues    EBANDS =      -554.96580023
  atomic energy  EATOM  =      1241.89512738
  Solvation  Ediel_sol  =         0.00000000
  ---------------------------------------------------
  free energy    TOTEN  =       -99.75472510 eV

  energy without entropy =      -99.75472510  energy(sigma->0) =      -99.75472510


--------------------------------------------------------------------------------------------------------




--------------------------------------- Iteration      1(   9)  ---------------------------------------


    POTLOK:  cpu time    0.9549: real time    0.9551
    SETDIJ:  cpu time    0.0060: real time    0.0061
     EDDAV:  cpu time    4.1094: real time    4.1081
       DOS:  cpu time    0.0010: real time    0.0003
    CHARGE:  cpu time    0.2270: real time    0.2277
    MIXING:  cpu time    0.0270: real time    0.0270
    --------------------------------------------
      LOOP:  cpu time    5.3252: real time    5.3244

 eigenvalue-minimisations  :   112
 total energy-change (2. order) : 0.3549434E-01  (-0.6854102E-02)
 number of electron      56.0000022 magnetization 
 augmentation part       -4.3258684 magnetization 

 Broyden mixing:
  rms(total) = 0.32806E-01    rms(broyden)= 0.32805E-01
  rms(prec ) = 0.44511E-01
  weight for this iteration     100.00

 eigenvalues of (default mixing * dielectric matrix)
  average eigenvalue GAMMA=   1.7541
  2.4975  1.8377  1.8377  0.8433

 Free energy of the ion-electron system (eV)
  ---------------------------------------------------
  alpha Z        PSCENC =         2.51538199
  Ewald energy   TEWEN  =      2629.98113996
  -Hartree energ DENC   =     -3546.08025721
  -exchange      EXHF   =         0.00000000
  -V(xc)+E(xc)   XCENC  =       -39.21445056
  PAW double counting   =      3718.89862426    -3563.75352541
  entropy T*S    EENTRO =        -0.00000000
  eigenvalues    EBANDS =      -543.96127117
  atomic energy  EATOM  =      1241.89512738
  Solvation  Ediel_sol  =         0.00000000
  ---------------------------------------------------
  free energy    TOTEN  =       -99.71923076 eV

  energy without entropy =      -99.71923076  energy(sigma->0) =      -99.71923076


--------------------------------------------------------------------------------------------------------




--------------------------------------- Iteration      1(  10)  ---------------------------------------


    POTLOK:  cpu time    0.9589: real time    0.9576
    SETDIJ:  cpu time    0.0060: real time    0.0063
     EDDAV:  cpu time    4.1104: real time    4.1091
       DOS:  cpu time    0.0010: real time    0.0002
    CHARGE:  cpu time    0.2280: real time    0.2284
    MIXING:  cpu time    0.0280: real time    0.0284
    --------------------------------------------
      LOOP:  cpu time    5.3322: real time    5.3300

 eigenvalue-minimisations  :   112
 total energy-change (2. order) :-0.1748229E-03  (-0.2600723E-03)
 number of electron      56.0000022 magnetization 
 augmentation part       -4.3251842 magnetization 

 Broyden mixing:
  rms(total) = 0.14631E-01    rms(broyden)= 0.14631E-01
  rms(prec ) = 0.27973E-01
  weight for this iteration     100.00

 eigenvalues of (default mixing * dielectric matrix)
  average eigenvalue GAMMA=   1.9093
  2.8157  2.4634  1.0324  1.6176  1.6176

 Free energy of the ion-electron system (eV)
  ---------------------------------------------------
  alpha Z        PSCENC =         2.51538199
  Ewald energy   TEWEN  =      2629.98113996
  -Hartree energ DENC   =     -3548.30674239
  -exchange      EXHF   =         0.00000000
  -V(xc)+E(xc)   XCENC  =       -39.21239064
  PAW double counting   =      3646.51138594    -3491.31574588
  entropy T*S    EENTRO =        -0.00000000
  eigenvalues    EBANDS =      -541.78756194
  atomic energy  EATOM  =      1241.89512738
  Solvation  Ediel_sol  =         0.00000000
  ---------------------------------------------------
  free energy    TOTEN  =       -99.71940558 eV

  energy without entropy =      -99.71940558  energy(sigma->0) =      -99.71940558


--------------------------------------------------------------------------------------------------------




--------------------------------------- Iteration      1(  11)  ---------------------------------------


    POTLOK:  cpu time    0.9659: real time    0.9660
    SETDIJ:  cpu time    0.0060: real time    0.0061
     EDDAV:  cpu time    3.8854: real time    3.8834
       DOS:  cpu time    0.0000: real time    0.0002
    CHARGE:  cpu time    0.2300: real time    0.2289
    MIXING:  cpu time    0.0290: real time    0.0294
    --------------------------------------------
      LOOP:  cpu time    5.1162: real time    5.1140

 eigenvalue-minimisations  :   104
 total energy-change (2. order) : 0.1848539E-03  (-0.6851740E-03)
 number of electron      56.0000022 magnetization 
 augmentation part       -4.3237287 magnetization 

 Broyden mixing:
  rms(total) = 0.84588E-02    rms(broyden)= 0.84585E-02
  rms(prec ) = 0.14452E-01
  weight for this iteration     100.00

 eigenvalues of (default mixing * dielectric matrix)
  average eigenvalue GAMMA=   1.8697
  3.2664  2.5607  1.7333  1.7333  1.0483  0.8762

 Free energy of the ion-electron system (eV)
  ---------------------------------------------------
  alpha Z        PSCENC =         2.51538199
  Ewald energy   TEWEN  =      2629.98113996
  -Hartree energ DENC   =     -3555.24121593
  -exchange      EXHF   =         0.00000000
  -V(xc)+E(xc)   XCENC  =       -39.01357803
  PAW double counting   =      3607.72805268    -3452.49229682
  entropy T*S    EENTRO =        -0.00000000
  eigenvalues    EBANDS =      -535.09183196
  atomic energy  EATOM  =      1241.89512738
  Solvation  Ediel_sol  =         0.00000000
  ---------------------------------------------------
  free energy    TOTEN  =       -99.71922073 eV

  energy without entropy =      -99.71922073  energy(sigma->0) =      -99.71922073


--------------------------------------------------------------------------------------------------------




--------------------------------------- Iteration      1(  12)  ---------------------------------------


    POTLOK:  cpu time    0.9699: real time    0.9700
    SETDIJ:  cpu time    0.0060: real time    0.0061
     EDDAV:  cpu time    3.8784: real time    3.8763
       DOS:  cpu time    0.0000: real time    0.0002
    CHARGE:  cpu time    0.2310: real time    0.2305
    MIXING:  cpu time    0.0300: real time    0.0306
    --------------------------------------------
      LOOP:  cpu time    5.1152: real time    5.1137

 eigenvalue-minimisations  :   104
 total energy-change (2. order) :-0.4253865E-02  (-0.1020870E-03)
 number of electron      56.0000022 magnetization 
 augmentation part       -4.3229489 magnetization 

 Broyden mixing:
  rms(total) = 0.57193E-02    rms(broyden)= 0.57193E-02
  rms(prec ) = 0.98871E-02
  weight for this iteration     100.00

 eigenvalues of (default mixing * dielectric matrix)
  average eigenvalue GAMMA=   2.0785
  4.5704  2.5337  2.4096  1.5443  1.5443  0.9736  0.9736

 Free energy of the ion-electron system (eV)
  ---------------------------------------------------
  alpha Z        PSCENC =         2.51538199
  Ewald energy   TEWEN  =      2629.98113996
  -Hartree energ DENC   =     -3557.37455219
  -exchange      EXHF   =         0.00000000
  -V(xc)+E(xc)   XCENC  =       -38.97486018
  PAW double counting   =      3604.40175593    -3449.16634075
  entropy T*S    EENTRO =        -0.00000000
  eigenvalues    EBANDS =      -533.00112674
  atomic energy  EATOM  =      1241.89512738
  Solvation  Ediel_sol  =         0.00000000
  ---------------------------------------------------
  free energy    TOTEN  =       -99.72347459 eV

  energy without entropy =      -99.72347459  energy(sigma->0) =      -99.72347459


--------------------------------------------------------------------------------------------------------




--------------------------------------- Iteration      1(  13)  ---------------------------------------


    POTLOK:  cpu time    0.9699: real time    0.9696
    SETDIJ:  cpu time    0.0060: real time    0.0061
     EDDAV:  cpu time    4.1064: real time    4.1057
       DOS:  cpu time    0.0010: real time    0.0002
    CHARGE:  cpu time    0.2300: real time    0.2307
    MIXING:  cpu time    0.0330: real time    0.0323
    --------------------------------------------
      LOOP:  cpu time    5.3462: real time    5.3446

 eigenvalue-minimisations  :   112
 total energy-change (2. order) :-0.4881294E-02  (-0.1772424E-03)
 number of electron      56.0000022 magnetization 
 augmentation part       -4.3228337 magnetization 

 Broyden mixing:
  rms(total) = 0.34992E-02    rms(broyden)= 0.34990E-02
  rms(prec ) = 0.52170E-02
  weight for this iteration     100.00

 eigenvalues of (default mixing * dielectric matrix)
  average eigenvalue GAMMA=   2.1857
  5.6452  2.9310  2.2939  1.7918  1.7918  1.1116  0.9601  0.9601

 Free energy of the ion-electron system (eV)
  ---------------------------------------------------
  alpha Z        PSCENC =         2.51538199
  Ewald energy   TEWEN  =      2629.98113996
  -Hartree energ DENC   =     -3560.12453536
  -exchange      EXHF   =         0.00000000
  -V(xc)+E(xc)   XCENC  =       -38.92505574
  PAW double counting   =      3609.22939093    -3454.00172723
  entropy T*S    EENTRO =        -0.00000000
  eigenvalues    EBANDS =      -530.29807781
  atomic energy  EATOM  =      1241.89512738
  Solvation  Ediel_sol  =         0.00000000
  ---------------------------------------------------
  free energy    TOTEN  =       -99.72835589 eV

  energy without entropy =      -99.72835589  energy(sigma->0) =      -99.72835589


--------------------------------------------------------------------------------------------------------




--------------------------------------- Iteration      1(  14)  ---------------------------------------


    POTLOK:  cpu time    1.1268: real time    1.1295
    SETDIJ:  cpu time    0.0060: real time    0.0061
     EDDAV:  cpu time    4.0944: real time    4.0915
       DOS:  cpu time    0.0000: real time    0.0002
    CHARGE:  cpu time    0.2300: real time    0.2302
    MIXING:  cpu time    0.0340: real time    0.0337
    --------------------------------------------
      LOOP:  cpu time    5.4912: real time    5.4912

 eigenvalue-minimisations  :   112
 total energy-change (2. order) :-0.3837245E-02  (-0.2939030E-04)
 number of electron      56.0000022 magnetization 
 augmentation part       -4.3223744 magnetization 

 Broyden mixing:
  rms(total) = 0.15966E-02    rms(broyden)= 0.15966E-02
  rms(prec ) = 0.27669E-02
  weight for this iteration     100.00

 eigenvalues of (default mixing * dielectric matrix)
  average eigenvalue GAMMA=   2.2819
  6.5405  2.9349  2.7102  2.1683  1.5900  1.5900  1.0834  0.9600  0.9600

 Free energy of the ion-electron system (eV)
  ---------------------------------------------------
  alpha Z        PSCENC =         2.51538199
  Ewald energy   TEWEN  =      2629.98113996
  -Hartree energ DENC   =     -3560.83201145
  -exchange      EXHF   =         0.00000000
  -V(xc)+E(xc)   XCENC  =       -38.93763016
  PAW double counting   =      3608.42938549    -3453.20159080
  entropy T*S    EENTRO =        -0.00000000
  eigenvalues    EBANDS =      -529.58199556
  atomic energy  EATOM  =      1241.89512738
  Solvation  Ediel_sol  =         0.00000000
  ---------------------------------------------------
  free energy    TOTEN  =       -99.73219313 eV

  energy without entropy =      -99.73219313  energy(sigma->0) =      -99.73219313


--------------------------------------------------------------------------------------------------------




--------------------------------------- Iteration      1(  15)  ---------------------------------------


    POTLOK:  cpu time    0.9629: real time    0.9618
    SETDIJ:  cpu time    0.0060: real time    0.0061
     EDDAV:  cpu time    4.1024: real time    4.1001
       DOS:  cpu time    0.0000: real time    0.0002
    CHARGE:  cpu time    0.2290: real time    0.2289
    MIXING:  cpu time    0.0360: real time    0.0358
    --------------------------------------------
      LOOP:  cpu time    5.3362: real time    5.3329

 eigenvalue-minimisations  :   112
 total energy-change (2. order) :-0.4400861E-02  (-0.5277171E-04)
 number of electron      56.0000022 magnetization 
 augmentation part       -4.3220235 magnetization 

 Broyden mixing:
  rms(total) = 0.15135E-02    rms(broyden)= 0.15134E-02
  rms(prec ) = 0.19674E-02
  weight for this iteration     100.00

 eigenvalues of (default mixing * dielectric matrix)
  average eigenvalue GAMMA=   2.3170
  6.7830  3.8439  2.6351  1.9537  1.9537  1.8822  1.2131  0.9352  0.9851  0.9851

 Free energy of the ion-electron system (eV)
  ---------------------------------------------------
  alpha Z        PSCENC =         2.51538199
  Ewald energy   TEWEN  =      2629.98113996
  -Hartree energ DENC   =     -3561.08482934
  -exchange      EXHF   =         0.00000000
  -V(xc)+E(xc)   XCENC  =       -38.94686643
  PAW double counting   =      3611.80166912    -3456.57415724
  entropy T*S    EENTRO =        -0.00000000
  eigenvalues    EBANDS =      -529.32405943
  atomic energy  EATOM  =      1241.89512738
  Solvation  Ediel_sol  =         0.00000000
  ---------------------------------------------------
  free energy    TOTEN  =       -99.73659399 eV

  energy without entropy =      -99.73659399  energy(sigma->0) =      -99.73659399


--------------------------------------------------------------------------------------------------------




--------------------------------------- Iteration      1(  16)  ---------------------------------------


    POTLOK:  cpu time    0.9619: real time    0.9610
    SETDIJ:  cpu time    0.0060: real time    0.0061
     EDDAV:  cpu time    4.0994: real time    4.0974
       DOS:  cpu time    0.0000: real time    0.0003
    CHARGE:  cpu time    0.2300: real time    0.2297
    MIXING:  cpu time    0.0380: real time    0.0380
    --------------------------------------------
      LOOP:  cpu time    5.3352: real time    5.3325

 eigenvalue-minimisations  :   112
 total energy-change (2. order) :-0.1240014E-02  (-0.7703393E-05)
 number of electron      56.0000022 magnetization 
 augmentation part       -4.3222260 magnetization 

 Broyden mixing:
  rms(total) = 0.64369E-03    rms(broyden)= 0.64368E-03
  rms(prec ) = 0.95346E-03
  weight for this iteration     100.00

 eigenvalues of (default mixing * dielectric matrix)
  average eigenvalue GAMMA=   2.4475
  7.4451  4.8007  2.6744  2.6744  1.8406  1.8406  1.3661  1.3661  0.9712  0.9712
  0.9720

 Free energy of the ion-electron system (eV)
  ---------------------------------------------------
  alpha Z        PSCENC =         2.51538199
  Ewald energy   TEWEN  =      2629.98113996
  -Hartree energ DENC   =     -3561.18765678
  -exchange      EXHF   =         0.00000000
  -V(xc)+E(xc)   XCENC  =       -38.94467766
  PAW double counting   =      3611.68435827    -3456.45619495
  entropy T*S    EENTRO =        -0.00000000
  eigenvalues    EBANDS =      -529.22531221
  atomic energy  EATOM  =      1241.89512738
  Solvation  Ediel_sol  =         0.00000000
  ---------------------------------------------------
  free energy    TOTEN  =       -99.73783401 eV

  energy without entropy =      -99.73783401  energy(sigma->0) =      -99.73783401


--------------------------------------------------------------------------------------------------------




--------------------------------------- Iteration      1(  17)  ---------------------------------------


    POTLOK:  cpu time    0.9579: real time    0.9581
    SETDIJ:  cpu time    0.0070: real time    0.0064
     EDDAV:  cpu time    4.0934: real time    4.0986
       DOS:  cpu time    0.0010: real time    0.0002
    CHARGE:  cpu time    0.2300: real time    0.2308
    MIXING:  cpu time    0.0430: real time    0.0426
    --------------------------------------------
      LOOP:  cpu time    5.3322: real time    5.3368

 eigenvalue-minimisations  :   112
 total energy-change (2. order) :-0.9948221E-03  (-0.8609966E-05)
 number of electron      56.0000022 magnetization 
 augmentation part       -4.3224468 magnetization 

 Broyden mixing:
  rms(total) = 0.33197E-03    rms(broyden)= 0.33194E-03
  rms(prec ) = 0.45567E-03
  weight for this iteration     100.00

 eigenvalues of (default mixing * dielectric matrix)
  average eigenvalue GAMMA=   2.4340
  7.6150  5.1823  2.6848  2.6848  2.0061  2.0061  1.4709  1.4709  1.1627  0.9722
  0.9722  0.9799

 Free energy of the ion-electron system (eV)
  ---------------------------------------------------
  alpha Z        PSCENC =         2.51538199
  Ewald energy   TEWEN  =      2629.98113996
  -Hartree energ DENC   =     -3561.20103399
  -exchange      EXHF   =         0.00000000
  -V(xc)+E(xc)   XCENC  =       -38.94688241
  PAW double counting   =      3609.97882529    -3454.74921213
  entropy T*S    EENTRO =        -0.00000000
  eigenvalues    EBANDS =      -529.21217492
  atomic energy  EATOM  =      1241.89512738
  Solvation  Ediel_sol  =         0.00000000
  ---------------------------------------------------
  free energy    TOTEN  =       -99.73882883 eV

  energy without entropy =      -99.73882883  energy(sigma->0) =      -99.73882883


--------------------------------------------------------------------------------------------------------




--------------------------------------- Iteration      1(  18)  ---------------------------------------


    POTLOK:  cpu time    0.9629: real time    0.9615
    SETDIJ:  cpu time    0.0060: real time    0.0061
     EDDAV:  cpu time    3.8594: real time    3.8683
       DOS:  cpu time    0.0000: real time    0.0003
    CHARGE:  cpu time    0.2300: real time    0.2300
    MIXING:  cpu time    0.0470: real time    0.0469
    --------------------------------------------
      LOOP:  cpu time    5.1052: real time    5.1131

 eigenvalue-minimisations  :   104
 total energy-change (2. order) :-0.2671978E-03  (-0.9154060E-06)
 number of electron      56.0000022 magnetization 
 augmentation part       -4.3224402 magnetization 

 Broyden mixing:
  rms(total) = 0.19909E-03    rms(broyden)= 0.19906E-03
  rms(prec ) = 0.26383E-03
  weight for this iteration     100.00

 eigenvalues of (default mixing * dielectric matrix)
  average eigenvalue GAMMA=   2.5015
  8.1903  5.8169  3.2211  2.6102  2.4016  1.8171  1.8171  1.3700  1.3700  0.9975
  0.9975  0.9553  0.9553

 Free energy of the ion-electron system (eV)
  ---------------------------------------------------
  alpha Z        PSCENC =         2.51538199
  Ewald energy   TEWEN  =      2629.98113996
  -Hartree energ DENC   =     -3561.22862551
  -exchange      EXHF   =         0.00000000
  -V(xc)+E(xc)   XCENC  =       -38.94649742
  PAW double counting   =      3610.15914575    -3454.93022470
  entropy T*S    EENTRO =        -0.00000000
  eigenvalues    EBANDS =      -529.18454348
  atomic energy  EATOM  =      1241.89512738
  Solvation  Ediel_sol  =         0.00000000
  ---------------------------------------------------
  free energy    TOTEN  =       -99.73909603 eV

  energy without entropy =      -99.73909603  energy(sigma->0) =      -99.73909603


--------------------------------------------------------------------------------------------------------




--------------------------------------- Iteration      1(  19)  ---------------------------------------


    POTLOK:  cpu time    0.9649: real time    0.9664
    SETDIJ:  cpu time    0.0070: real time    0.0061
     EDDAV:  cpu time    3.8744: real time    3.8798
       DOS:  cpu time    0.0010: real time    0.0002
    CHARGE:  cpu time    0.2300: real time    0.2300
    MIXING:  cpu time    0.0530: real time    0.0533
    --------------------------------------------
      LOOP:  cpu time    5.1302: real time    5.1358

 eigenvalue-minimisations  :   104
 total energy-change (2. order) :-0.1317426E-03  (-0.4423190E-06)
 number of electron      56.0000022 magnetization 
 augmentation part       -4.3224636 magnetization 

 Broyden mixing:
  rms(total) = 0.17688E-03    rms(broyden)= 0.17687E-03
  rms(prec ) = 0.21105E-03
  weight for this iteration     100.00

 eigenvalues of (default mixing * dielectric matrix)
  average eigenvalue GAMMA=   2.4803
  8.3606  6.0630  3.3635  2.6668  2.1333  2.1333  1.7444  1.7444  1.3205  1.3205
  1.0023  1.0023  0.9349  0.9349

 Free energy of the ion-electron system (eV)
  ---------------------------------------------------
  alpha Z        PSCENC =         2.51538199
  Ewald energy   TEWEN  =      2629.98113996
  -Hartree energ DENC   =     -3561.24361208
  -exchange      EXHF   =         0.00000000
  -V(xc)+E(xc)   XCENC  =       -38.94557483
  PAW double counting   =      3610.02613487    -3454.79738750
  entropy T*S    EENTRO =        -0.00000000
  eigenvalues    EBANDS =      -529.17043757
  atomic energy  EATOM  =      1241.89512738
  Solvation  Ediel_sol  =         0.00000000
  ---------------------------------------------------
  free energy    TOTEN  =       -99.73922777 eV

  energy without entropy =      -99.73922777  energy(sigma->0) =      -99.73922777


--------------------------------------------------------------------------------------------------------




--------------------------------------- Iteration      1(  20)  ---------------------------------------


    POTLOK:  cpu time    0.9829: real time    0.9816
    SETDIJ:  cpu time    0.0080: real time    0.0085
     EDDAV:  cpu time    3.4205: real time    3.4201
       DOS:  cpu time    0.0000: real time    0.0002
    CHARGE:  cpu time    0.2300: real time    0.2394
    MIXING:  cpu time    0.0590: real time    0.0595
    --------------------------------------------
      LOOP:  cpu time    4.7003: real time    4.7094

 eigenvalue-minimisations  :    88
 total energy-change (2. order) :-0.4197083E-04  (-0.7208068E-07)
 number of electron      56.0000022 magnetization 
 augmentation part       -4.3224429 magnetization 

 Broyden mixing:
  rms(total) = 0.55955E-04    rms(broyden)= 0.55955E-04
  rms(prec ) = 0.80237E-04
  weight for this iteration     100.00

 eigenvalues of (default mixing * dielectric matrix)
  average eigenvalue GAMMA=   2.5106
  8.6219  6.3640  3.9786  2.8516  2.5203  1.8685  1.8685  1.8246  1.4453  1.2265
  1.2265  0.9889  0.9889  0.9896  0.8957

 Free energy of the ion-electron system (eV)
  ---------------------------------------------------
  alpha Z        PSCENC =         2.51538199
  Ewald energy   TEWEN  =      2629.98113996
  -Hartree energ DENC   =     -3561.24594650
  -exchange      EXHF   =         0.00000000
  -V(xc)+E(xc)   XCENC  =       -38.94657381
  PAW double counting   =      3609.88934882    -3454.66053061
  entropy T*S    EENTRO =        -0.00000000
  eigenvalues    EBANDS =      -529.16721698
  atomic energy  EATOM  =      1241.89512738
  Solvation  Ediel_sol  =         0.00000000
  ---------------------------------------------------
  free energy    TOTEN  =       -99.73926974 eV

  energy without entropy =      -99.73926974  energy(sigma->0) =      -99.73926974


--------------------------------------------------------------------------------------------------------




--------------------------------------- Iteration      1(  21)  ---------------------------------------


    POTLOK:  cpu time    0.9609: real time    0.9601
    SETDIJ:  cpu time    0.0070: real time    0.0062
     EDDAV:  cpu time    3.4195: real time    3.4199
       DOS:  cpu time    0.0010: real time    0.0002
    CHARGE:  cpu time    0.2280: real time    0.2288
    MIXING:  cpu time    0.0670: real time    0.0665
    --------------------------------------------
      LOOP:  cpu time    4.6833: real time    4.6817

 eigenvalue-minimisations  :    88
 total energy-change (2. order) :-0.2399495E-04  (-0.6999258E-07)
 number of electron      56.0000022 magnetization 
 augmentation part       -4.3224265 magnetization 

 Broyden mixing:
  rms(total) = 0.52642E-04    rms(broyden)= 0.52639E-04
  rms(prec ) = 0.66144E-04
  weight for this iteration     100.00

 eigenvalues of (default mixing * dielectric matrix)
  average eigenvalue GAMMA=   2.5083
  8.5286  6.6756  4.0952  2.8861  2.5974  2.1126  2.1126  1.7255  1.7255  1.5105
  1.1298  1.1298  0.9492  0.9492  1.0026  1.0026

 Free energy of the ion-electron system (eV)
  ---------------------------------------------------
  alpha Z        PSCENC =         2.51538199
  Ewald energy   TEWEN  =      2629.98113996
  -Hartree energ DENC   =     -3561.25163790
  -exchange      EXHF   =         0.00000000
  -V(xc)+E(xc)   XCENC  =       -38.94659653
  PAW double counting   =      3609.98591440    -3454.75717047
  entropy T*S    EENTRO =        -0.00000000
  eigenvalues    EBANDS =      -529.16145257
  atomic energy  EATOM  =      1241.89512738
  Solvation  Ediel_sol  =         0.00000000
  ---------------------------------------------------
  free energy    TOTEN  =       -99.73929374 eV

  energy without entropy =      -99.73929374  energy(sigma->0) =      -99.73929374


--------------------------------------------------------------------------------------------------------




--------------------------------------- Iteration      1(  22)  ---------------------------------------


    POTLOK:  cpu time    0.9609: real time    0.9596
    SETDIJ:  cpu time    0.0060: real time    0.0063
     EDDAV:  cpu time    3.4195: real time    3.4185
       DOS:  cpu time    0.0010: real time    0.0002
    CHARGE:  cpu time    0.2290: real time    0.2295
    MIXING:  cpu time    0.0740: real time    0.0739
    --------------------------------------------
      LOOP:  cpu time    4.6903: real time    4.6880

 eigenvalue-minimisations  :    88
 total energy-change (2. order) :-0.8171486E-05  (-0.1769765E-07)
 number of electron      56.0000022 magnetization 
 augmentation part       -4.3224389 magnetization 

 Broyden mixing:
  rms(total) = 0.19293E-04    rms(broyden)= 0.19292E-04
  rms(prec ) = 0.26826E-04
  weight for this iteration     100.00

 eigenvalues of (default mixing * dielectric matrix)
  average eigenvalue GAMMA=   2.5242
  8.7945  6.7657  4.6755  3.1898  2.5552  2.5552  1.9129  1.9129  1.6443  1.6443
  1.1896  1.1896  1.0379  0.9772  0.9772  0.9447  0.9447

 Free energy of the ion-electron system (eV)
  ---------------------------------------------------
  alpha Z        PSCENC =         2.51538199
  Ewald energy   TEWEN  =      2629.98113996
  -Hartree energ DENC   =     -3561.25135821
  -exchange      EXHF   =         0.00000000
  -V(xc)+E(xc)   XCENC  =       -38.94638560
  PAW double counting   =      3610.02038304    -3454.79156200
  entropy T*S    EENTRO =        -0.00000000
  eigenvalues    EBANDS =      -529.16202846
  atomic energy  EATOM  =      1241.89512738
  Solvation  Ediel_sol  =         0.00000000
  ---------------------------------------------------
  free energy    TOTEN  =       -99.73930191 eV

  energy without entropy =      -99.73930191  energy(sigma->0) =      -99.73930191


--------------------------------------------------------------------------------------------------------




--------------------------------------- Iteration      1(  23)  ---------------------------------------


    POTLOK:  cpu time    0.9589: real time    0.9586
    SETDIJ:  cpu time    0.0060: real time    0.0061
     EDDAV:  cpu time    3.4225: real time    3.4201
       DOS:  cpu time    0.0000: real time    0.0002
    CHARGE:  cpu time    0.2430: real time    0.2427
    MIXING:  cpu time    0.0800: real time    0.0799
    --------------------------------------------
      LOOP:  cpu time    4.7103: real time    4.7076

 eigenvalue-minimisations  :    88
 total energy-change (2. order) :-0.3473902E-05  (-0.8666396E-08)
 number of electron      56.0000022 magnetization 
 augmentation part       -4.3224449 magnetization 

 Broyden mixing:
  rms(total) = 0.12395E-04    rms(broyden)= 0.12394E-04
  rms(prec ) = 0.16891E-04
  weight for this iteration     100.00

 eigenvalues of (default mixing * dielectric matrix)
  average eigenvalue GAMMA=   2.5071
  8.8787  6.8187  4.8992  3.1514  2.6188  2.6188  2.0297  2.0297  1.6548  1.6548
  1.4946  1.1761  1.1761  1.0342  1.0342  0.9225  0.9679  0.9679

 Free energy of the ion-electron system (eV)
  ---------------------------------------------------
  alpha Z        PSCENC =         2.51538199
  Ewald energy   TEWEN  =      2629.98113996
  -Hartree energ DENC   =     -3561.25105526
  -exchange      EXHF   =         0.00000000
  -V(xc)+E(xc)   XCENC  =       -38.94650151
  PAW double counting   =      3609.99525140    -3454.76641171
  entropy T*S    EENTRO =        -0.00000000
  eigenvalues    EBANDS =      -529.16223763
  atomic energy  EATOM  =      1241.89512738
  Solvation  Ediel_sol  =         0.00000000
  ---------------------------------------------------
  free energy    TOTEN  =       -99.73930538 eV

  energy without entropy =      -99.73930538  energy(sigma->0) =      -99.73930538


--------------------------------------------------------------------------------------------------------




--------------------------------------- Iteration      1(  24)  ---------------------------------------


    POTLOK:  cpu time    0.9649: real time    0.9647
    SETDIJ:  cpu time    0.0060: real time    0.0061
     EDDAV:  cpu time    3.5405: real time    3.5386
       DOS:  cpu time    0.0000: real time    0.0002
    CHARGE:  cpu time    0.2300: real time    0.2301
    MIXING:  cpu time    0.0870: real time    0.0866
    --------------------------------------------
      LOOP:  cpu time    4.8283: real time    4.8263

 eigenvalue-minimisations  :    88
 total energy-change (2. order) :-0.2240068E-05  (-0.3155247E-08)
 number of electron      56.0000022 magnetization 
 augmentation part       -4.3224439 magnetization 

 Broyden mixing:
  rms(total) = 0.52188E-05    rms(broyden)= 0.52187E-05
  rms(prec ) = 0.77035E-05
  weight for this iteration     100.00

 eigenvalues of (default mixing * dielectric matrix)
  average eigenvalue GAMMA=   2.5559
  8.8551  7.1265  5.4574  3.8665  2.9075  2.5495  2.2045  1.9145  1.9145  1.6768
  1.6768  1.2262  1.1641  1.1641  0.9967  0.9967  0.9478  0.9478  0.9688

 Free energy of the ion-electron system (eV)
  ---------------------------------------------------
  alpha Z        PSCENC =         2.51538199
  Ewald energy   TEWEN  =      2629.98113996
  -Hartree energ DENC   =     -3561.25190640
  -exchange      EXHF   =         0.00000000
  -V(xc)+E(xc)   XCENC  =       -38.94650409
  PAW double counting   =      3609.96165833    -3454.73283880
  entropy T*S    EENTRO =        -0.00000000
  eigenvalues    EBANDS =      -529.16136599
  atomic energy  EATOM  =      1241.89512738
  Solvation  Ediel_sol  =         0.00000000
  ---------------------------------------------------
  free energy    TOTEN  =       -99.73930762 eV

  energy without entropy =      -99.73930762  energy(sigma->0) =      -99.73930762


--------------------------------------------------------------------------------------------------------




--------------------------------------- Iteration      1(  25)  ---------------------------------------


    POTLOK:  cpu time    0.9729: real time    0.9732
    SETDIJ:  cpu time    0.0060: real time    0.0062
     EDDAV:  cpu time    3.4335: real time    3.4305
       DOS:  cpu time    0.0000: real time    0.0002
    --------------------------------------------
      LOOP:  cpu time    4.4123: real time    4.4102

 eigenvalue-minimisations  :    88
 total energy-change (2. order) :-0.7251388E-06  (-0.1152605E-08)
 number of electron      56.0000022 magnetization 
 augmentation part       -4.3224439 magnetization 

 Free energy of the ion-electron system (eV)
  ---------------------------------------------------
  alpha Z        PSCENC =         2.51538199
  Ewald energy   TEWEN  =      2629.98113996
  -Hartree energ DENC   =     -3561.25233560
  -exchange      EXHF   =         0.00000000
  -V(xc)+E(xc)   XCENC  =       -38.94648225
  PAW double counting   =      3609.96637079    -3454.73755587
  entropy T*S    EENTRO =        -0.00000000
  eigenvalues    EBANDS =      -529.16095475
  atomic energy  EATOM  =      1241.89512738
  Solvation  Ediel_sol  =         0.00000000
  ---------------------------------------------------
  free energy    TOTEN  =       -99.73930835 eV

  energy without entropy =      -99.73930835  energy(sigma->0) =      -99.73930835


--------------------------------------------------------------------------------------------------------




 average (electrostatic) potential at core
  the test charge radii are     0.9892  1.1631  0.5201
  (the norm of the test charge is              1.0000)
       1 -93.4317       2 -93.4110       3 -93.4317       4 -93.4895       5 -40.4346
       6 -40.4347       7 -40.4230       8 -40.4230       9 -40.4346      10 -40.4346
      11 -41.0607      12 -41.0608      13 -41.0528      14 -40.6856      15 -40.6852
      16 -41.0612      17 -41.0617      18 -40.6853      19 -41.0533      20 -41.0608
      21 -41.0607      22 -40.6853      23 -40.7004      24 -40.7006      25 -41.0606
      26 -41.0609
 
 
 
 E-fermi :  -5.3790     XC(G=0):  -0.6102     alpha+bet : -0.3306


 k-point     1 :       0.0000    0.0000    0.0000
  band No.  band energies     occupation 
      1     -15.3784      2.00000
      2     -14.6280      2.00000
      3     -14.2609      2.00000
      4     -13.8644      2.00000
      5     -13.4172      2.00000
      6     -12.8137      2.00000
      7     -11.9455      2.00000
      8     -11.4708      2.00000
      9     -11.4490      2.00000
     10     -10.4970      2.00000
     11      -8.9731      2.00000
     12      -8.6351      2.00000
     13      -8.6282      2.00000
     14      -8.6280      2.00000
     15      -8.1877      2.00000
     16      -8.1790      2.00000
     17      -8.1695      2.00000
     18      -7.8637      2.00000
     19      -7.8534      2.00000
     20      -7.8440      2.00000
     21      -6.7726      2.00000
     22      -6.7466      2.00000
     23      -6.4694      2.00000
     24      -6.4427      2.00000
     25      -6.4265      2.00000
     26      -6.3549      2.00000
     27      -6.3425      2.00000
     28      -6.3388      2.00000
     29      -1.6742      0.00000
     30      -1.3268      0.00000
     31      -1.2180      0.00000
     32      -1.2121      0.00000
     33      -1.1283      0.00000
     34      -1.1203      0.00000
     35      -1.0428      0.00000
     36      -1.0203      0.00000
     37      -0.7957      0.00000
     38      -0.6587      0.00000
     39      -0.3839      0.00000
     40      -0.2442      0.00000
     41      -0.1788      0.00000
     42      -0.1282      0.00000


--------------------------------------------------------------------------------------------------------


 soft charge-density along one line, spin component           1
         0         1         2         3         4         5         6         7         8         9
 total charge-density along one line
 
 pseudopotential strength for first ion, spin component:           1
 19.618  27.377  -0.001   0.003   0.003  -0.001   0.006   0.005
 27.377  38.211  -0.001   0.004   0.003  -0.001   0.008   0.007
 -0.001  -0.001   4.360   0.000  -0.000   8.133   0.000  -0.000
  0.003   0.004   0.000   4.359   0.000   0.000   8.132   0.000
  0.003   0.003  -0.000   0.000   4.359  -0.000   0.000   8.132
 -0.001  -0.001   8.133   0.000  -0.000  15.181   0.001  -0.000
  0.006   0.008   0.000   8.132   0.000   0.001  15.179   0.001
  0.005   0.007  -0.000   0.000   8.132  -0.000   0.001  15.180
 total augmentation occupancy for first ion, spin component:           1
  5.534  -2.027   0.070  -0.342  -0.067  -0.021   0.102   0.021
 -2.027   0.809  -0.043   0.207   0.037   0.009  -0.045  -0.007
  0.070  -0.043   2.800  -0.107  -0.008  -0.604   0.037   0.003
 -0.342   0.207  -0.107   3.280   0.048   0.037  -0.772  -0.019
 -0.067   0.037  -0.008   0.048   2.822   0.003  -0.019  -0.608
 -0.021   0.009  -0.604   0.037   0.003   0.138  -0.010  -0.001
  0.102  -0.045   0.037  -0.772  -0.019  -0.010   0.185   0.006
  0.021  -0.007   0.003  -0.019  -0.608  -0.001   0.006   0.138


------------------------ aborting loop because EDIFF is reached ----------------------------------------


    CHARGE:  cpu time    0.2280: real time    0.2284
    FORLOC:  cpu time    0.1260: real time    0.1260
    FORNL :  cpu time    0.8269: real time    0.8274
    STRESS:  cpu time    2.7846: real time    2.7831
    FORCOR:  cpu time    1.0168: real time    1.0161
    FORHAR:  cpu time    0.3509: real time    0.3511
    MIXING:  cpu time    0.0930: real time    0.0925
    OFIELD:  cpu time    0.0000: real time    0.0000

  FORCE on cell =-STRESS in cart. coord.  units (eV):
  Direction    XX          YY          ZZ          XY          YZ          ZX
  --------------------------------------------------------------------------------------
  Alpha Z     2.51538     2.51538     2.51538
  Ewald     876.64706   876.62235   876.71007    -0.21850     0.02563    -0.50464
  Hartree  1187.97495  1186.03323  1187.24418    -0.22720    -0.16090    -0.00547
  E(xc)    -180.23653  -180.31267  -180.19508     0.01187    -0.02894    -0.03336
  Local   -2547.65864 -2545.76108 -2546.98576     0.45082     0.11799     0.50675
  n-local   238.86362   239.39875   238.71268    -0.05943     0.16460     0.12740
  augment   -13.81976   -13.83867   -13.80891     0.00274    -0.00697    -0.00781
  Kinetic   435.15205   434.78181   435.19058     0.03006    -0.09549    -0.03900
  Fock        0.00000     0.00000     0.00000     0.00000     0.00000     0.00000
  -------------------------------------------------------------------------------------
  Total      -0.56188    -0.56088    -0.61686    -0.00963     0.01593     0.04387
  in kB      -0.11253    -0.11233    -0.12354    -0.00193     0.00319     0.00879
  external pressure =       -0.12 kB  Pullay stress =        0.00 kB


 VOLUME and BASIS-vectors are now :
 -----------------------------------------------------------------------------
  energy-cutoff  :      400.00
[...]
    SETDIJ:  cpu time    0.0060: real time    0.0061
     EDDAV:  cpu time    4.3293: real time    4.3366
       DOS:  cpu time    0.0010: real time    0.0002
    CHARGE:  cpu time    0.2280: real time    0.2309
    MIXING:  cpu time    0.0250: real time    0.0241
    --------------------------------------------
      LOOP:  cpu time    5.5532: real time    5.5631

 eigenvalue-minimisations  :   120
 total energy-change (2. order) :-0.3960425E-04  (-0.4930046E-04)
 number of electron      56.0000025 magnetization 
 augmentation part       -4.3102665 magnetization 

 Broyden mixing:
  rms(total) = 0.17307E-02    rms(broyden)= 0.17302E-02
  rms(prec ) = 0.18487E-02
  weight for this iteration     100.00

 eigenvalues of (default mixing * dielectric matrix)
  average eigenvalue GAMMA=   1.0304
  1.0304

 Free energy of the ion-electron system (eV)
  ---------------------------------------------------
  alpha Z        PSCENC =         2.51538199
  Ewald energy   TEWEN  =      2596.33724000
  -Hartree energ DENC   =     -3528.21751770
  -exchange      EXHF   =         0.00000000
  -V(xc)+E(xc)   XCENC  =       -38.84744878
  PAW double counting   =      3676.37125905    -3521.12313578
  entropy T*S    EENTRO =        -0.00000000
  eigenvalues    EBANDS =      -528.89971920
  atomic energy  EATOM  =      1241.89512738
  Solvation  Ediel_sol  =         0.00000000
  ---------------------------------------------------
  free energy    TOTEN  =       -99.96881304 eV

  energy without entropy =      -99.96881304  energy(sigma->0) =      -99.96881304


--------------------------------------------------------------------------------------------------------




--------------------------------------- Iteration     20(   3)  ---------------------------------------


    POTLOK:  cpu time    0.9609: real time    0.9627
    SETDIJ:  cpu time    0.0070: real time    0.0062
     EDDAV:  cpu time    4.3393: real time    4.3455
       DOS:  cpu time    0.0000: real time    0.0002
    CHARGE:  cpu time    0.2300: real time    0.2293
    MIXING:  cpu time    0.0250: real time    0.0250
    --------------------------------------------
      LOOP:  cpu time    5.5622: real time    5.5691

 eigenvalue-minimisations  :   120
 total energy-change (2. order) : 0.1329394E-05  (-0.1277008E-05)
 number of electron      56.0000025 magnetization 
 augmentation part       -4.3101969 magnetization 

 Broyden mixing:
  rms(total) = 0.97570E-03    rms(broyden)= 0.97567E-03
  rms(prec ) = 0.10438E-02
  weight for this iteration     100.00

 eigenvalues of (default mixing * dielectric matrix)
  average eigenvalue GAMMA=   1.5386
  1.0832  1.9939

 Free energy of the ion-electron system (eV)
  ---------------------------------------------------
  alpha Z        PSCENC =         2.51538199
  Ewald energy   TEWEN  =      2596.33724000
  -Hartree energ DENC   =     -3528.21833268
  -exchange      EXHF   =         0.00000000
  -V(xc)+E(xc)   XCENC  =       -38.84809015
  PAW double counting   =      3676.48315179    -3521.23518430
  entropy T*S    EENTRO =        -0.00000000
  eigenvalues    EBANDS =      -528.89810574
  atomic energy  EATOM  =      1241.89512738
  Solvation  Ediel_sol  =         0.00000000
  ---------------------------------------------------
  free energy    TOTEN  =       -99.96881171 eV

  energy without entropy =      -99.96881171  energy(sigma->0) =      -99.96881171


--------------------------------------------------------------------------------------------------------




--------------------------------------- Iteration     20(   4)  ---------------------------------------


    POTLOK:  cpu time    0.9579: real time    0.9604
    SETDIJ:  cpu time    0.0060: real time    0.0063
     EDDAV:  cpu time    4.0984: real time    4.1028
       DOS:  cpu time    0.0000: real time    0.0002
    --------------------------------------------
      LOOP:  cpu time    5.0622: real time    5.0697

 eigenvalue-minimisations  :   112
 total energy-change (2. order) : 0.2442307E-06  (-0.2889163E-06)
 number of electron      56.0000025 magnetization 
 augmentation part       -4.3101969 magnetization 

 Free energy of the ion-electron system (eV)
  ---------------------------------------------------
  alpha Z        PSCENC =         2.51538199
  Ewald energy   TEWEN  =      2596.33724000
  -Hartree energ DENC   =     -3528.21578719
  -exchange      EXHF   =         0.00000000
  -V(xc)+E(xc)   XCENC  =       -38.84850585
  PAW double counting   =      3676.43920619    -3521.19130126
  entropy T*S    EENTRO =        -0.00000000
  eigenvalues    EBANDS =      -528.90017273
  atomic energy  EATOM  =      1241.89512738
  Solvation  Ediel_sol  =         0.00000000
  ---------------------------------------------------
  free energy    TOTEN  =       -99.96881147 eV

  energy without entropy =      -99.96881147  energy(sigma->0) =      -99.96881147


--------------------------------------------------------------------------------------------------------




 average (electrostatic) potential at core
  the test charge radii are     0.9892  1.1631  0.5201
  (the norm of the test charge is              1.0000)
       1 -93.4228       2 -93.2899       3 -93.4227       4 -93.4285       5 -40.4403
       6 -40.4402       7 -40.4617       8 -40.4616       9 -40.4403      10 -40.4402
      11 -40.9863      12 -40.9867      13 -41.0168      14 -40.8623      15 -40.8615
      16 -40.9867      17 -40.9860      18 -40.9044      19 -41.0152      20 -40.9868
      21 -40.9861      22 -40.9045      23 -40.8520      24 -40.8529      25 -40.9873
      26 -40.9868
 
 
 
 E-fermi :  -5.3548     XC(G=0):  -0.6134     alpha+bet : -0.3306


 k-point     1 :       0.0000    0.0000    0.0000
  band No.  band energies     occupation 
      1     -15.2225      2.00000
      2     -14.4072      2.00000
      3     -14.2077      2.00000
      4     -13.9700      2.00000
      5     -13.3217      2.00000
      6     -12.9331      2.00000
      7     -11.9628      2.00000
      8     -11.5786      2.00000
      9     -11.5404      2.00000
     10     -10.6262      2.00000
     11      -8.9840      2.00000
     12      -8.6377      2.00000
     13      -8.6122      2.00000
     14      -8.5337      2.00000
     15      -8.1895      2.00000
     16      -8.1319      2.00000
     17      -8.0454      2.00000
     18      -7.9207      2.00000
     19      -7.9051      2.00000
     20      -7.7833      2.00000
     21      -6.8531      2.00000
     22      -6.7601      2.00000
     23      -6.5553      2.00000
     24      -6.4016      2.00000
     25      -6.3929      2.00000
     26      -6.3361      2.00000
     27      -6.3343      2.00000
     28      -6.3030      2.00000
     29      -1.6265      0.00000
     30      -1.4308      0.00000
     31      -1.3485      0.00000
     32      -1.2538      0.00000
     33      -1.2503      0.00000
     34      -1.2422      0.00000
     35      -1.0563      0.00000
     36      -1.0442      0.00000
     37      -0.8060      0.00000
     38      -0.6141      0.00000
     39      -0.3622      0.00000
     40      -0.2096      0.00000
     41      -0.1713      0.00000
     42      -0.0812      0.00000


--------------------------------------------------------------------------------------------------------


 soft charge-density along one line, spin component           1
         0         1         2         3         4         5         6         7         8         9
 total charge-density along one line
 
 pseudopotential strength for first ion, spin component:           1
 19.622  27.383  -0.001   0.003   0.002  -0.001   0.006   0.005
 27.383  38.218  -0.001   0.004   0.003  -0.001   0.008   0.006
 -0.001  -0.001   4.362   0.000  -0.000   8.137   0.000  -0.000
  0.003   0.004   0.000   4.362   0.000   0.000   8.136   0.000
  0.002   0.003  -0.000   0.000   4.361  -0.000   0.000   8.136
 -0.001  -0.001   8.137   0.000  -0.000  15.188   0.000  -0.000
  0.006   0.008   0.000   8.136   0.000   0.000  15.187   0.001
  0.005   0.006  -0.000   0.000   8.136  -0.000   0.001  15.186
 total augmentation occupancy for first ion, spin component:           1
  5.750  -2.142   0.094  -0.478  -0.181  -0.029   0.148   0.058
 -2.142   0.863  -0.054   0.273   0.090   0.013  -0.066  -0.023
  0.094  -0.054   2.779  -0.160   0.000  -0.601   0.052   0.002
 -0.478   0.273  -0.160   3.491   0.041   0.052  -0.833  -0.018
 -0.181   0.090   0.000   0.041   2.907   0.002  -0.019  -0.633
 -0.029   0.013  -0.601   0.052   0.002   0.137  -0.015  -0.001
  0.148  -0.066   0.052  -0.833  -0.019  -0.015   0.202   0.006
  0.058  -0.023   0.002  -0.018  -0.633  -0.001   0.006   0.145


------------------------ aborting loop because EDIFF is reached ----------------------------------------


    CHARGE:  cpu time    0.2260: real time    0.2298
    FORLOC:  cpu time    0.1260: real time    0.1263
    FORNL :  cpu time    0.8259: real time    0.8265
    STRESS:  cpu time    2.6076: real time    2.6116
    FORCOR:  cpu time    0.9978: real time    0.9988
    FORHAR:  cpu time    0.3519: real time    0.3529
    MIXING:  cpu time    0.0250: real time    0.0258
    OFIELD:  cpu time    0.0000: real time    0.0000

  FORCE on cell =-STRESS in cart. coord.  units (eV):
  Direction    XX          YY          ZZ          XY          YZ          ZX
  --------------------------------------------------------------------------------------
  Alpha Z     2.51538     2.51538     2.51538
  Ewald     871.58604   858.58906   866.16048    -0.38755    -1.07706     3.00914
  Hartree  1181.97975  1168.72546  1177.49869    -0.20757    -1.41488     2.35091
  E(xc)    -180.11726  -180.27452  -180.08703     0.01509    -0.04449    -0.02644
  Local   -2536.55375 -2509.50752 -2526.73490     0.52967     2.69894    -5.27586
  n-local   237.78335   238.17137   237.93820     0.00137     0.04676    -0.10843
  augment   -14.02892   -13.92312   -14.05995    -0.01217     0.03308     0.02561
  Kinetic   435.88328   434.60297   435.80469     0.06935    -0.27173     0.03267
  Fock        0.00000     0.00000     0.00000     0.00000     0.00000     0.00000
  -------------------------------------------------------------------------------------
  Total      -0.95213    -1.10091    -0.96443     0.00819    -0.02937     0.00760
  in kB      -0.19069    -0.22048    -0.19315     0.00164    -0.00588     0.00152
  external pressure =       -0.20 kB  Pullay stress =        0.00 kB


 VOLUME and BASIS-vectors are now :
 -----------------------------------------------------------------------------
  energy-cutoff  :      400.00
  volume of cell :     8000.00
      direct lattice vectors                 reciprocal lattice vectors
    20.000000000  0.000000000  0.000000000     0.050000000  0.000000000  0.000000000
     0.000000000 20.000000000  0.000000000     0.000000000  0.050000000  0.000000000
     0.000000000  0.000000000 20.000000000     0.000000000  0.000000000  0.050000000

  length of vectors
    20.000000000 20.000000000 20.000000000     0.050000000  0.050000000  0.050000000


 FORCES acting on ions
    electron-ion (+dipol)            ewald-force                    non-local-force                 convergence-correction
 -----------------------------------------------------------------------------------------------
   0.974E+01 -.184E+02 0.870E+02   -.108E+02 0.187E+02 -.885E+02   0.100E+01 -.270E+00 0.150E+01   -.105E-02 -.173E-03 0.536E-03
   0.863E+02 -.507E+01 0.457E+02   -.879E+02 0.516E+01 -.465E+02   0.162E+01 -.930E-01 0.854E+00   -.653E-03 0.411E-04 -.341E-03
   0.787E+02 0.132E+02 -.405E+02   -.805E+02 -.133E+02 0.405E+02   0.182E+01 0.104E+00 -.111E-01   -.120E-03 0.246E-03 -.115E-02
   -.842E+02 0.495E+01 -.445E+02   0.864E+02 -.507E+01 0.457E+02   -.223E+01 0.130E+00 -.117E+01   -.387E-03 0.387E-04 -.221E-03
   -.375E+02 0.543E+02 0.739E+02   0.377E+02 -.546E+02 -.748E+02   -.190E+00 0.295E+00 0.863E+00   -.119E-02 0.157E-02 -.152E-03
   -.298E+02 -.835E+02 0.442E+02   0.299E+02 0.841E+02 -.448E+02   -.138E+00 -.644E+00 0.659E+00   -.101E-02 -.149E-02 -.811E-03
   -.505E+02 0.762E+02 -.843E+01   0.511E+02 -.765E+02 0.868E+01   -.598E+00 0.340E+00 -.240E+00   -.116E-02 0.943E-03 -.397E-03
   -.422E+02 -.708E+02 -.404E+02   0.428E+02 0.711E+02 0.408E+02   -.564E+00 -.272E+00 -.373E+00   -.104E-02 -.801E-03 -.765E-03
   0.273E+02 0.837E+02 -.454E+02   -.278E+02 -.843E+02 0.459E+02   0.524E+00 0.621E+00 -.456E+00   -.111E-02 0.162E-02 -.307E-03
   0.350E+02 -.541E+02 -.752E+02   -.356E+02 0.545E+02 0.759E+02   0.577E+00 -.318E+00 -.659E+00   -.935E-03 -.145E-02 -.960E-03
   0.197E+02 0.397E+02 0.581E+01   -.208E+02 -.417E+02 -.688E+01   0.113E+01 0.197E+01 0.108E+01   -.252E-03 0.311E-03 -.728E-04
   0.153E+01 0.215E+02 -.392E+02   -.125E+01 -.221E+02 0.416E+02   -.276E+00 0.549E+00 -.244E+01   -.115E-03 0.195E-03 -.712E-04
   -.254E+02 0.384E+02 -.424E+01   0.268E+02 -.405E+02 0.445E+01   -.134E+01 0.206E+01 -.215E+00   -.169E-04 0.153E-04 -.132E-04
   -.456E+02 -.389E+01 0.605E+01   0.483E+02 0.431E+01 -.729E+01   -.266E+01 -.419E+00 0.125E+01   0.704E-04 0.222E-04 -.800E-04
   -.204E+02 0.778E+01 -.410E+02   0.208E+02 -.838E+01 0.438E+02   -.426E+00 0.600E+00 -.287E+01   -.258E-04 -.170E-04 0.892E-04
   -.348E+02 0.502E+01 0.277E+02   0.370E+02 -.468E+01 -.289E+02   -.221E+01 -.337E+00 0.114E+01   -.152E-03 0.173E-03 0.130E-04
   0.788E+01 0.345E+02 0.274E+02   -.899E+01 -.364E+02 -.286E+02   0.111E+01 0.196E+01 0.111E+01   -.264E-03 0.305E-03 -.530E-04
   0.704E+01 -.987E+01 0.469E+02   -.748E+01 0.105E+02 -.497E+02   0.433E+00 -.588E+00 0.282E+01   -.601E-04 -.674E-04 0.300E-03
   -.213E+02 -.357E+02 -.204E+02   0.224E+02 0.376E+02 0.215E+02   -.112E+01 -.192E+01 -.108E+01   -.155E-04 -.127E-04 -.124E-04
   0.291E+01 -.316E+01 -.444E+02   -.265E+01 0.267E+01 0.468E+02   -.272E+00 0.482E+00 -.245E+01   -.977E-04 -.153E-03 -.143E-03
   0.239E+02 -.363E+02 -.108E+02   -.253E+02 0.384E+02 0.106E+02   0.136E+01 -.210E+01 0.192E+00   -.218E-03 -.274E-03 -.200E-03
   0.434E+02 0.691E+01 -.205E+02   -.461E+02 -.732E+01 0.217E+02   0.262E+01 0.410E+00 -.121E+01   0.222E-03 0.600E-04 -.210E-03
   0.321E+02 0.251E+02 0.236E+02   -.335E+02 -.273E+02 -.250E+02   0.141E+01 0.223E+01 0.132E+01   -.250E-03 0.263E-03 -.721E-04
   0.351E+02 -.290E+02 0.119E+02   -.367E+02 0.314E+02 -.123E+02   0.167E+01 -.241E+01 0.311E+00   -.222E-03 -.235E-03 -.178E-03
   0.122E+02 -.415E+02 0.110E+02   -.135E+02 0.436E+02 -.112E+02   0.134E+01 -.211E+01 0.227E+00   -.232E-03 -.284E-03 -.178E-03
   -.334E+02 -.197E+02 0.224E+02   0.356E+02 0.201E+02 -.236E+02   -.221E+01 -.403E+00 0.113E+01   -.135E-03 -.176E-03 -.599E-04
 -----------------------------------------------------------------------------------------------
   -.240E+01 0.139E+00 -.126E+01   0.142E-13 0.249E-13 0.107E-12   0.241E+01 -.138E+00 0.127E+01   -.104E-01 0.681E-03 -.551E-02
 
 
 POSITION                                       TOTAL-FORCE (eV/Angst)
 -----------------------------------------------------------------------------------
      9.47180     11.12591      7.67970        -0.011338      0.000554     -0.005721
      7.39559     10.78046      8.73562         0.016109     -0.000966      0.008466
      7.66012     10.29819     11.02519        -0.011203      0.000736     -0.006112
     12.31240     10.49332     11.32690        -0.010254      0.000669     -0.005128
     10.83359      9.15681      7.88657         0.003963     -0.004631      0.004689
     10.62012     12.96636      8.71345         0.003634      0.002577      0.006200
     11.18856      8.65335     10.26329         0.007000      0.014934      0.007474
     10.97428     12.47688     11.09319         0.008732     -0.015776      0.000825
      8.98716      8.31319     11.29597         0.006895     -0.003164     -0.000683
      8.77381     12.12261     12.12312         0.006554      0.003808      0.000941
      8.28452      7.09374     10.62711         0.002610      0.007726     -0.000281
      9.15755      7.97546     12.80741        -0.005152      0.006669     -0.001420
     12.03756      7.34875     10.40036        -0.002742      0.008121      0.000835
     13.65452     10.70555     10.69519        -0.002925     -0.000891      0.003963
     12.52618     10.19026     12.77873         0.001512      0.001117     -0.004694
     12.20548      9.36838      7.17898        -0.005357      0.006452     -0.001056
     10.14165      7.94230      7.19787        -0.000117      0.006285      0.004847
      9.24768     11.42889      6.22578        -0.005672     -0.000410      0.000178
     11.68191     13.69068     11.77692        -0.001645     -0.007750     -0.002798
      8.94220     11.82124     13.64245        -0.004227     -0.006074     -0.004129
      7.92983     13.42693     12.00228         0.003279     -0.006671     -0.003008
      6.31060     10.08698     11.64975        -0.002853      0.000936     -0.005085
      6.67880      9.64574      8.06688         0.003708     -0.003454      0.001257
      6.54641     12.00643      8.57908         0.003269      0.003115      0.002511
      9.78703     14.27567      8.57271         0.000778     -0.007727      0.001712
     11.99007     13.21391      8.01383        -0.004558     -0.006185     -0.003783
 -----------------------------------------------------------------------------------
    total drift:                                0.002961      0.001968     -0.000847


--------------------------------------------------------------------------------------------------------



  FREE ENERGIE OF THE ION-ELECTRON SYSTEM (eV)
  ---------------------------------------------------
  free  energy   TOTEN  =       -99.96881147 eV

  energy  without entropy=      -99.96881147  energy(sigma->0) =      -99.96881147
 
 d Force = 0.1471215E-03[-0.439E-04, 0.338E-03]  d Energy = 0.1479758E-03-0.854E-06
 d Force =-0.5149331E+00[-0.515E+00,-0.515E+00]  d Ewald  =-0.5149327E+00-0.347E-06


--------------------------------------------------------------------------------------------------------


    POTLOK:  cpu time    0.9709: real time    0.9730


--------------------------------------------------------------------------------------------------------


 Conjugate gradient step on ions:
 trial-energy change:   -0.000148  1 .order   -0.000147   -0.000338    0.000044
  (g-gl).g = 0.284E-03      g.g   = 0.277E-03  gl.gl    = 0.551E-03
 g(Force)  = 0.277E-03   g(Stress)= 0.000E+00 ortho     = 0.177E-05
 gamma     =   0.51504
 trial     =   1.21661
 opt step  =   1.07675  (harmonic =   1.07675) maximal distance =0.00143570
 next E    =   -99.968813   (d E  =  -0.00015)


--------------------------------------------------------------------------------------------------------


  
 reached required accuracy - stopping structural energy minimisation
 writing wavefunctions
     LOOP+:  cpu time   27.2379: real time   27.7205
    4ORBIT:  cpu time    0.0000: real time    0.0000

 total amount of memory used by VASP MPI-rank0   131440. kBytes
=======================================================================

   base      :      30000. kBytes
   nonl-proj :      17624. kBytes
   fftplans  :      26957. kBytes
   grid      :      48673. kBytes
   one-center:         40. kBytes
   wavefun   :       8146. kBytes
 
  
  
 General timing and accounting informations for this job:
 ========================================================
  
                  Total CPU time used (sec):     1078.593
                            User time (sec):     1056.432
                          System time (sec):       22.161
                         Elapsed time (sec):     1083.343
  
                   Maximum memory used (kb):      184800.
                   Average memory used (kb):           0.
  
                          Minor page faults:      5884955
                          Major page faults:           11
                 Voluntary context switches:        10347
