 vasp.5.4.4.18Apr17-6-g9f103f2a35 (build Nov 06 2017 19:16:10) complex          
  
 executed on           IFC91_ompi date 2018.07.09  15:24:10
 running on   12 total cores
 distrk:  each k-point on   12 cores,    1 groups
 distr:  one band on NCORES_PER_BAND=   6 cores,    2 groups


--------------------------------------------------------------------------------------------------------


 INCAR:
 POTCAR:    PAW_PBE Si 05Jan2001                  
 POTCAR:    PAW_PBE Ge 05Jan2001                  
 POTCAR:    PAW_PBE H 15Jun2001                   
 POTCAR:    PAW_PBE Si 05Jan2001                  
   VRHFIN =Si: s2p2                                                             
   LEXCH  = PE                                                                  
   EATOM  =   103.0669 eV,    7.5752 Ry                                         
                                                                                
   TITEL  = PAW_PBE Si 05Jan2001                                                
   LULTRA =        F    use ultrasoft PP ?                                      
   IUNSCR =        1    unscreen: 0-lin 1-nonlin 2-no                           
   RPACOR =    1.500    partial core radius                                     
   POMASS =   28.085; ZVAL   =    4.000    mass and valenz                      
   RCORE  =    1.900    outmost cutoff radius                                   
   RWIGS  =    2.480; RWIGS  =    1.312    wigner-seitz radius (au A)           
   ENMAX  =  245.345; ENMIN  =  184.009 eV                                      
   ICORE  =        2    local potential                                         
   LCOR   =        T    correct aug charges                                     
   LPAW   =        T    paw PP                                                  
   EAUG   =  322.069                                                            
   DEXC   =    0.000                                                            
   RMAX   =    1.950    core radius for proj-oper                               
   RAUG   =    1.300    factor for augmentation sphere                          
   RDEP   =    1.993    radius for radial grids                                 
   RDEPT  =    1.837    core radius for aug-charge                              
                                                                                
   Atomic configuration                                                         
    6 entries                                                                   
     n  l   j            E        occ.                                          
     1  0  0.50     -1785.8828   2.0000                                         
     2  0  0.50      -139.4969   2.0000                                         
     2  1  1.50       -95.5546   6.0000                                         
     3  0  0.50       -10.8127   2.0000                                         
     3  1  0.50        -4.0811   2.0000                                         
     3  2  1.50        -4.0817   0.0000                                         
   Description                                                                  
     l       E           TYP  RCUT    TYP  RCUT                                 
     0    -10.8127223     23  1.900                                             
     0     -7.6451159     23  1.900                                             
     1     -4.0811372     23  1.900                                             
     1      2.4879257     23  1.900                                             
     2     -4.0817478      7  1.900                                             
  local pseudopotential read in
  partial core-charges read in
  partial kinetic energy density read in
  atomic valenz-charges read in
  non local Contribution for L=           0  read in
    real space projection operators read in
  non local Contribution for L=           0  read in
    real space projection operators read in
  non local Contribution for L=           1  read in
    real space projection operators read in
  non local Contribution for L=           1  read in
    real space projection operators read in
    PAW grid and wavefunctions read in
 
   number of l-projection  operators is LMAX  =           4
   number of lm-projection operators is LMMAX =           8
 
 POTCAR:    PAW_PBE Ge 05Jan2001                  
   VRHFIN =Ge: s2p2                                                             
   LEXCH  = PE                                                                  
   EATOM  =   104.9960 eV,    7.7170 Ry                                         
                                                                                
   TITEL  = PAW_PBE Ge 05Jan2001                                                
   LULTRA =        F    use ultrasoft PP ?                                      
   IUNSCR =        1    unscreen: 0-lin 1-nonlin 2-no                           
   RPACOR =    2.170    partial core radius                                     
   POMASS =   72.610; ZVAL   =    4.000    mass and valenz                      
   RCORE  =    2.300    outmost cutoff radius                                   
   RWIGS  =    2.300; RWIGS  =    1.217    wigner-seitz radius (au A)           
   ENMAX  =  173.807; ENMIN  =  130.355 eV                                      
   ICORE  =        3    local potential                                         
   LCOR   =        T    correct aug charges                                     
   LPAW   =        T    paw PP                                                  
   EAUG   =  385.843                                                            
   DEXC   =    0.000                                                            
   RMAX   =    2.342    core radius for proj-oper                               
   RAUG   =    1.300    factor for augmentation sphere                          
   RDEP   =    2.318    radius for radial grids                                 
   RDEPT  =    2.103    core radius for aug-charge                              
                                                                                
   Atomic configuration                                                         
   10 entries                                                                   
     n  l   j            E        occ.                                          
     1  0  0.50    -10959.8463   2.0000                                         
     2  0  0.50     -1371.6056   2.0000                                         
     2  1  1.50     -1198.4791   6.0000                                         
     3  0  0.50      -168.4733   2.0000                                         
     3  1  1.50      -115.6019   6.0000                                         
     3  2  2.50       -29.3106  10.0000                                         
     4  0  0.50       -11.7309   2.0000                                         
     4  1  0.50        -3.8952   2.0000                                         
     4  2  1.50        -4.0817   0.0000                                         
     4  3  2.50        -4.0817   0.0000                                         
   Description                                                                  
     l       E           TYP  RCUT    TYP  RCUT                                 
     0    -11.7309493     23  2.300                                             
     0     -7.4578696     23  2.300                                             
     1     -3.8952261     23  2.300                                             
     1      6.1178114     23  2.300                                             
     2     -4.0817478     23  2.300                                             
     3     -1.3605826      7  2.300                                             
  local pseudopotential read in
  partial core-charges read in
  partial kinetic energy density read in
  atomic valenz-charges read in
  non local Contribution for L=           0  read in
    real space projection operators read in
  non local Contribution for L=           0  read in
    real space projection operators read in
  non local Contribution for L=           1  read in
    real space projection operators read in
  non local Contribution for L=           1  read in
    real space projection operators read in
  non local Contribution for L=           2  read in
    real space projection operators read in
    PAW grid and wavefunctions read in
 
   number of l-projection  operators is LMAX  =           5
   number of lm-projection operators is LMMAX =          13
 
 POTCAR:    PAW_PBE H 15Jun2001                   
   VRHFIN =H: ultrasoft test                                                    
   LEXCH  = PE                                                                  
   EATOM  =    12.4884 eV,    0.9179 Ry                                         
                                                                                
   TITEL  = PAW_PBE H 15Jun2001                                                 
   LULTRA =        F    use ultrasoft PP ?                                      
   IUNSCR =        0    unscreen: 0-lin 1-nonlin 2-no                           
   RPACOR =    0.000    partial core radius                                     
   POMASS =    1.000; ZVAL   =    1.000    mass and valenz                      
   RCORE  =    1.100    outmost cutoff radius                                   
   RWIGS  =    0.700; RWIGS  =    0.370    wigner-seitz radius (au A)           
   ENMAX  =  250.000; ENMIN  =  200.000 eV                                      
   RCLOC  =    0.701    cutoff for local pot                                    
   LCOR   =        T    correct aug charges                                     
   LPAW   =        T    paw PP                                                  
   EAUG   =  400.000                                                            
   RMAX   =    1.123    core radius for proj-oper                               
   RAUG   =    1.200    factor for augmentation sphere                          
   RDEP   =    1.112    radius for radial grids                                 
   RDEPT  =    0.926    core radius for aug-charge                              
                                                                                
   Atomic configuration                                                         
    2 entries                                                                   
     n  l   j            E        occ.                                          
     1  0  0.50        -6.4927   1.0000                                         
     2  1  0.50        -3.4015   0.0000                                         
   Description                                                                  
     l       E           TYP  RCUT    TYP  RCUT                                 
     0     -6.4927494     23  1.100                                             
     0      6.8029130     23  1.100                                             
     1     -4.0817478     23  1.100                                             
  local pseudopotential read in
  atomic valenz-charges read in
  non local Contribution for L=           0  read in
    real space projection operators read in
  non local Contribution for L=           0  read in
    real space projection operators read in
  non local Contribution for L=           1  read in
    real space projection operators read in
    PAW grid and wavefunctions read in
 
   number of l-projection  operators is LMAX  =           3
   number of lm-projection operators is LMMAX =           5
 

 ----------------------------------------------------------------------------- 
|                                                                             |
|  ADVICE TO THIS USER RUNNING 'VASP/VAMP'   (HEAR YOUR MASTER'S VOICE ...):  |
|                                                                             |
|      You have a (more or less) 'large supercell' and for larger cells       |
|      it might be more efficient to use real space projection opertators     |
|      So try LREAL= Auto  in the INCAR   file.                               |
|      Mind:          For very  accurate calculation you might also keep the  |
|      reciprocal projection scheme          (i.e. LREAL=.FALSE.)             |
|                                                                             |
 ----------------------------------------------------------------------------- 

  PAW_PBE Si 05Jan2001                  :
 energy of atom  1       EATOM= -103.0669
 kinetic energy error for atom=    0.0012 (will be added to EATOM!!)
  PAW_PBE Ge 05Jan2001                  :
 energy of atom  2       EATOM= -104.9960
 kinetic energy error for atom=    0.0003 (will be added to EATOM!!)
  PAW_PBE H 15Jun2001                   :
 energy of atom  3       EATOM=  -12.4884
 kinetic energy error for atom=    0.0098 (will be added to EATOM!!)
 
 
 POSCAR: SiGeH16                                 
  positions in direct lattice
  No initial velocities read in
 exchange correlation table for  LEXCH =        8
   RHO(1)=    0.500       N(1)  =     2000
   RHO(2)=  100.500       N(2)  =     4000
 


--------------------------------------------------------------------------------------------------------


 ion  position               nearest neighbor table
   1  0.475  0.556  0.385-  18 1.55   5 2.39   2 2.39   4 2.39
   2  0.369  0.539  0.436-  23 1.55  24 1.55   3 2.39   1 2.39
   3  0.385  0.515  0.552-  22 1.55  10 2.39   9 2.39   2 2.39
   4  0.542  0.457  0.396-  17 1.55  16 1.55   6 2.39   1 2.39
   5  0.531  0.648  0.437-  25 1.55  26 1.55   7 2.39   1 2.39
   6  0.557  0.433  0.512-  13 1.55   4 2.39   8 2.39   9 2.39
   7  0.547  0.624  0.554-  19 1.55   5 2.39   8 2.39  10 2.39
   8  0.613  0.525  0.565-  15 1.55  14 1.55   7 2.39   6 2.39
   9  0.451  0.416  0.564-  12 1.55  11 1.55   3 2.39   6 2.39
  10  0.440  0.606  0.605-  20 1.55  21 1.55   3 2.39   7 2.39
  11  0.415  0.357  0.529-   9 1.55
  12  0.461  0.400  0.639-   9 1.55
  13  0.600  0.369  0.520-   6 1.55
  14  0.682  0.536  0.531-   8 1.55
  15  0.623  0.509  0.640-   8 1.55
  16  0.611  0.469  0.363-   4 1.55
  17  0.506  0.398  0.362-   4 1.55
  18  0.465  0.572  0.309-   1 1.55
  19  0.583  0.683  0.588-   7 1.55
  20  0.451  0.590  0.680-  10 1.55
  21  0.397  0.670  0.598-  10 1.55
  22  0.316  0.504  0.586-   3 1.55
  23  0.333  0.479  0.402-   2 1.55
  24  0.326  0.603  0.429-   2 1.55
  25  0.488  0.712  0.430-   5 1.55
  26  0.600  0.659  0.404-   5 1.55
 
  LATTYP: Found a simple cubic cell.
 ALAT       =    20.0000000000
  
  Lattice vectors:
  
 A1 = (  20.0000000000,   0.0000000000,   0.0000000000)
 A2 = (   0.0000000000,  20.0000000000,   0.0000000000)
 A3 = (   0.0000000000,   0.0000000000,  20.0000000000)


Analysis of symmetry for initial positions (statically):
=====================================================================
 Subroutine PRICEL returns:
 Original cell was already a primitive cell.
 

 Routine SETGRP: Setting up the symmetry group for a 
 simple cubic supercell.


 Subroutine GETGRP returns: Found  1 space group operations
 (whereof  1 operations were pure point group operations)
 out of a pool of 48 trial point group operations.


The static configuration has the point symmetry C_1 .


Analysis of symmetry for dynamics (positions and initial velocities):
=====================================================================
 Subroutine PRICEL returns:
 Original cell was already a primitive cell.
 

 Routine SETGRP: Setting up the symmetry group for a 
 simple cubic supercell.


 Subroutine GETGRP returns: Found  1 space group operations
 (whereof  1 operations were pure point group operations)
 out of a pool of 48 trial point group operations.


The dynamic configuration has the point symmetry C_1 .


 Subroutine INISYM returns: Found  1 space group operations
 (whereof  1 operations are pure point group operations),
 and found     1 'primitive' translations

 
 
 KPOINTS: Automatic mesh                          

Automatic generation of k-mesh.
Space group operators:
 irot       det(A)        alpha          n_x          n_y          n_z        tau_x        tau_y        tau_z
    1     1.000000     0.000000     1.000000     0.000000     0.000000     0.000000     0.000000     0.000000
 
 Subroutine IBZKPT returns following result:
 ===========================================
 
 Found      1 irreducible k-points:
 
 Following reciprocal coordinates:
            Coordinates               Weight
  0.000000  0.000000  0.000000      1.000000
 
 Following cartesian coordinates:
            Coordinates               Weight
  0.000000  0.000000  0.000000      1.000000
 


--------------------------------------------------------------------------------------------------------




 Dimension of arrays:
   k-points           NKPTS =      1   k-points in BZ     NKDIM =      1   number of bands    NBANDS=     42
   number of dos      NEDOS =    301   number of ions     NIONS =     26
   non local maximal  LDIM  =      5   non local SUM 2l+1 LMDIM =     13
   total plane-waves  NPLWV = 941192
   max r-space proj   IRMAX =      1   max aug-charges    IRDMAX=   6593
   dimension x,y,z NGX =    98 NGY =   98 NGZ =   98
   dimension x,y,z NGXF=   196 NGYF=  196 NGZF=  196
   support grid    NGXF=   196 NGYF=  196 NGZF=  196
   ions per type =               3   7  16
   NGX,Y,Z   is equivalent  to a cutoff of   8.15,  8.15,  8.15 a.u.
   NGXF,Y,Z  is equivalent  to a cutoff of  16.29, 16.29, 16.29 a.u.

 SYSTEM =  SiGe                                    
 POSCAR =  SiGeH16                                 

 Startparameter for this run:
   NWRITE =      2    write-flag & timer
   PREC   = normal    normal or accurate (medium, high low for compatibility)
   ISTART =      0    job   : 0-new  1-cont  2-samecut
   ICHARG =      2    charge: 1-file 2-atom 10-const
   ISPIN  =      1    spin polarized calculation?
   LNONCOLLINEAR =      F non collinear calculations
   LSORBIT =      F    spin-orbit coupling
   INIWAV =      1    electr: 0-lowe 1-rand  2-diag
   LASPH  =      F    aspherical Exc in radial PAW
   METAGGA=      F    non-selfconsistent MetaGGA calc.

 Electronic Relaxation 1
   ENCUT  =  400.0 eV  29.40 Ry    5.42 a.u.  32.61 32.61 32.61*2*pi/ulx,y,z
   ENINI  =  400.0     initial cutoff
   ENAUG  =  400.0 eV  augmentation charge cutoff
   NELM   =     60;   NELMIN=  2; NELMDL= -5     # of ELM steps 
   EDIFF  = 0.1E-05   stopping-criterion for ELM
   LREAL  =      F    real-space projection
   NLSPLINE    = F    spline interpolate recip. space projectors
   LCOMPAT=      F    compatible to vasp.4.4
   GGA_COMPAT  = T    GGA compatible to vasp.4.4-vasp.4.6
   LMAXPAW     = -100 max onsite density
   LMAXMIX     =    2 max onsite mixed and CHGCAR
   VOSKOWN=      0    Vosko Wilk Nusair interpolation
   ROPT   =    0.00000   0.00000   0.00000
 Ionic relaxation
   EDIFFG = -.2E-01   stopping-criterion for IOM
   NSW    =    200    number of steps for IOM
   NBLOCK =      1;   KBLOCK =    200    inner block; outer block 
   IBRION =      2    ionic relax: 0-MD 1-quasi-New 2-CG
   NFREE  =      1    steps in history (QN), initial steepest desc. (CG)
   ISIF   =      2    stress and relaxation
   IWAVPR =     11    prediction:  0-non 1-charg 2-wave 3-comb
   ISYM   =      2    0-nonsym 1-usesym 2-fastsym
   LCORR  =      T    Harris-Foulkes like correction to forces

   POTIM  = 0.5000    time-step for ionic-motion
   TEIN   =    0.0    initial temperature
   TEBEG  =    0.0;   TEEND  =   0.0 temperature during run
   SMASS  =  -3.00    Nose mass-parameter (am)
   estimated Nose-frequenzy (Omega)   =  0.10E-29 period in steps =****** mass=  -0.914E-26a.u.
   SCALEE = 1.0000    scale energy and forces
   NPACO  =    256;   APACO  = 16.0  distance and # of slots for P.C.
   PSTRESS=    0.0 pullay stress

  Mass of Ions in am
   POMASS =  28.09 72.61  1.00
  Ionic Valenz
   ZVAL   =   4.00  4.00  1.00
  Atomic Wigner-Seitz radii
   RWIGS  =  -1.00 -1.00 -1.00
  virtual crystal weights 
   VCA    =   1.00  1.00  1.00
   NELECT =      56.0000    total number of electrons
   NUPDOWN=      -1.0000    fix difference up-down

 DOS related values:
   EMIN   =  10.00;   EMAX   =-10.00  energy-range for DOS
   EFERMI =   0.00
   ISMEAR =     0;   SIGMA  =   0.20  broadening in eV -4-tet -1-fermi 0-gaus

 Electronic relaxation 2 (details)
   IALGO  =     38    algorithm
   LDIAG  =      T    sub-space diagonalisation (order eigenvalues)
   LSUBROT=      F    optimize rotation matrix (better conditioning)
   TURBO    =      0    0=normal 1=particle mesh
   IRESTART =      0    0=no restart 2=restart with 2 vectors
   NREBOOT  =      0    no. of reboots
   NMIN     =      0    reboot dimension
   EREF     =   0.00    reference energy to select bands
   IMIX   =      4    mixing-type and parameters
     AMIX     =   0.40;   BMIX     =  1.00
     AMIX_MAG =   1.60;   BMIX_MAG =  1.00
     AMIN     =   0.10
     WC   =   100.;   INIMIX=   1;  MIXPRE=   1;  MAXMIX= -45

 Intra band minimization:
   WEIMIN = 0.0010     energy-eigenvalue tresh-hold
   EBREAK =  0.60E-08  absolut break condition
   DEPER  =   0.30     relativ break condition  

   TIME   =   0.40     timestep for ELM

  volume/ion in A,a.u.               =     307.69      2076.41
  Fermi-wavevector in a.u.,A,eV,Ry     =   0.313166  0.591797  1.334361  0.098073
  Thomas-Fermi vector in A             =   1.193276
 
 Write flags
   LWAVE        =      T    write WAVECAR
   LDOWNSAMPLE  =      F    k-point downsampling of WAVECAR
   LCHARG       =      T    write CHGCAR
   LVTOT        =      F    write LOCPOT, total local potential
   LVHAR        =      F    write LOCPOT, Hartree potential only
   LELF         =      F    write electronic localiz. function (ELF)
   LORBIT       =      0    0 simple, 1 ext, 2 COOP (PROOUT), +10 PAW based schemes


 Dipole corrections
   LMONO  =      F    monopole corrections only (constant potential shift)
   LDIPOL =      F    correct potential (dipole corrections)
   IDIPOL =      0    1-x, 2-y, 3-z, 4-all directions 
   EPSILON=  1.0000000 bulk dielectric constant

 Exchange correlation treatment:
   GGA     =    --    GGA type
   LEXCH   =     8    internal setting for exchange type
   VOSKOWN=      0    Vosko Wilk Nusair interpolation
   LHFCALC =     F    Hartree Fock is set to
   LHFONE  =     F    Hartree Fock one center treatment
   AEXX    =    0.0000 exact exchange contribution

 Linear response parameters
   LEPSILON=     F    determine dielectric tensor
   LRPA    =     F    only Hartree local field effects (RPA)
   LNABLA  =     F    use nabla operator in PAW spheres
   LVEL    =     F    velocity operator in full k-point grid
   LINTERFAST=   F  fast interpolation
   KINTER  =     0    interpolate to denser k-point grid
   CSHIFT  =0.1000    complex shift for real part using Kramers Kronig
   OMEGAMAX=  -1.0    maximum frequency
   DEG_THRESHOLD= 0.2000000E-02 threshold for treating states as degnerate
   RTIME   =   -0.100 relaxation time in fs
  (WPLASMAI=    0.000 imaginary part of plasma frequency in eV, 0.658/RTIME)
   DFIELD  = 0.0000000 0.0000000 0.0000000 field for delta impulse in time
 
 Orbital magnetization related:
   ORBITALMAG=     F  switch on orbital magnetization
   LCHIMAG   =     F  perturbation theory with respect to B field
   DQ        =  0.001000  dq finite difference perturbation B field
   LLRAUG    =     F  two centre corrections for induced B field



--------------------------------------------------------------------------------------------------------


 conjugate gradient relaxation of ions
 charge density and potential will be updated during run
 non-spin polarized calculation
 Variant of blocked Davidson
 Davidson routine will perform the subspace rotation
 perform sub-space diagonalisation
    after iterative eigenvector-optimisation
 modified Broyden-mixing scheme, WC =      100.0
 initial mixing is a Kerker type mixing with AMIX =  0.4000 and BMIX =      1.0000
 Hartree-type preconditioning will be used
 using additional bands           14
 reciprocal scheme for non local part
 use partial core corrections
 calculate Harris-corrections to forces 
   (improved forces if not selfconsistent)
 use gradient corrections 
 use of overlap-Matrix (Vanderbilt PP)
 Gauss-broadening in eV      SIGMA  =   0.20


--------------------------------------------------------------------------------------------------------


  energy-cutoff  :      400.00
  volume of cell :     8000.00
      direct lattice vectors                 reciprocal lattice vectors
    20.000000000  0.000000000  0.000000000     0.050000000  0.000000000  0.000000000
     0.000000000 20.000000000  0.000000000     0.000000000  0.050000000  0.000000000
     0.000000000  0.000000000 20.000000000     0.000000000  0.000000000  0.050000000

  length of vectors
    20.000000000 20.000000000 20.000000000     0.050000000  0.050000000  0.050000000


 
 k-points in units of 2pi/SCALE and weight: Automatic mesh                          
   0.00000000  0.00000000  0.00000000       1.000
 
 k-points in reciprocal lattice and weights: Automatic mesh                          
   0.00000000  0.00000000  0.00000000       1.000
 
 position of ions in fractional coordinates (direct lattice) 
   0.47547100  0.55626000  0.38465300
   0.36907800  0.53906000  0.43641200
   0.38461900  0.51474100  0.55243500
   0.54179100  0.45744600  0.39613600
   0.53111600  0.64794100  0.43749600
   0.55736800  0.43311000  0.51215000
   0.54669200  0.62364400  0.55351800
   0.61299700  0.52481700  0.56496600
   0.45095700  0.41593600  0.56388300
   0.44028400  0.60643000  0.60524300
   0.41490100  0.35665000  0.52940300
   0.46117000  0.40042600  0.63910800
   0.60034800  0.36907000  0.51957800
   0.68182700  0.53600700  0.53118700
   0.62280400  0.50903400  0.64018900
   0.61080000  0.46880600  0.36278200
   0.50550800  0.39805500  0.36207700
   0.46538400  0.57201900  0.30946400
   0.58275500  0.68306700  0.58775000
   0.45052500  0.59044300  0.68036400
   0.39732000  0.67044900  0.59753500
   0.31566200  0.50359800  0.58596500
   0.33322800  0.47946500  0.40225200
   0.32629100  0.60324700  0.42912600
   0.48792300  0.71185500  0.43020800
   0.60015100  0.65882400  0.40403700
 
 position of ions in cartesian coordinates  (Angst):
   9.50942000 11.12520000  7.69306000
   7.38156000 10.78120000  8.72824000
   7.69238000 10.29482000 11.04870000
  10.83582000  9.14892000  7.92272000
  10.62232000 12.95882000  8.74992000
  11.14736000  8.66220000 10.24300000
  10.93384000 12.47288000 11.07036000
  12.25994000 10.49634000 11.29932000
   9.01914000  8.31872000 11.27766000
   8.80568000 12.12860000 12.10486000
   8.29802000  7.13300000 10.58806000
   9.22340000  8.00852000 12.78216000
  12.00696000  7.38140000 10.39156000
  13.63654000 10.72014000 10.62374000
  12.45608000 10.18068000 12.80378000
  12.21600000  9.37612000  7.25564000
  10.11016000  7.96110000  7.24154000
   9.30768000 11.44038000  6.18928000
  11.65510000 13.66134000 11.75500000
   9.01050000 11.80886000 13.60728000
   7.94640000 13.40898000 11.95070000
   6.31324000 10.07196000 11.71930000
   6.66456000  9.58930000  8.04504000
   6.52582000 12.06494000  8.58252000
   9.75846000 14.23710000  8.60416000
  12.00302000 13.17648000  8.08074000
 


--------------------------------------------------------------------------------------------------------


 k-point  1 :   0.0000 0.0000 0.0000  plane waves:  145165

 maximum and minimum number of plane-waves per node :     24209    24180

 maximum number of plane-waves:    145165
 maximum index in each direction: 
   IXMAX=   32   IYMAX=   32   IZMAX=   32
   IXMIN=  -32   IYMIN=  -32   IZMIN=  -32


 parallel 3D FFT for wavefunctions:
    minimum data exchange during FFTs selected (reduces bandwidth)
 parallel 3D FFT for charge:
    minimum data exchange during FFTs selected (reduces bandwidth)


 total amount of memory used by VASP MPI-rank0   131440. kBytes
=======================================================================

   base      :      30000. kBytes
   nonl-proj :      17624. kBytes
   fftplans  :      26957. kBytes
   grid      :      48673. kBytes
   one-center:         40. kBytes
   wavefun   :       8146. kBytes
 
     INWAV:  cpu time    0.0010: real time    0.0000
 Broyden mixing: mesh for mixing (old mesh)
   NGX = 65   NGY = 65   NGZ = 65
  (NGX  =196   NGY  =196   NGZ  =196)
  gives a total of 274625 points

 initial charge density was supplied:
 charge density of overlapping atoms calculated
 number of electron      56.0000000 magnetization 
 keeping initial charge density in first step


--------------------------------------------------------------------------------------------------------


 Maximum index for augmentation-charges          565 (set IRDMAX)


--------------------------------------------------------------------------------------------------------


 First call to EWALD:  gamma=   0.089
 Maximum number of real-space cells 3x 3x 3
 Maximum number of reciprocal cells 3x 3x 3

    FEWALD:  cpu time    0.0030: real time    0.0034


--------------------------------------- Iteration      1(   1)  ---------------------------------------


    POTLOK:  cpu time    1.0178: real time    1.0197
    SETDIJ:  cpu time    0.0070: real time    0.0063
     EDDAV:  cpu time    4.3983: real time    4.3965
       DOS:  cpu time    0.0010: real time    0.0005
    --------------------------------------------
      LOOP:  cpu time    5.4242: real time    5.4230

 eigenvalue-minimisations  :   116
 total energy-change (2. order) : 0.2101717E+03  (-0.1045870E+04)
 number of electron      56.0000000 magnetization 
 augmentation part       56.0000000 magnetization 

 Free energy of the ion-electron system (eV)
  ---------------------------------------------------
  alpha Z        PSCENC =         2.79095307
  Ewald energy   TEWEN  =      2629.98113996
  -Hartree energ DENC   =     -3439.34790165
  -exchange      EXHF   =         0.00000000
  -V(xc)+E(xc)   XCENC  =       -47.30937431
  PAW double counting   =       915.53220421     -761.48141222
  entropy T*S    EENTRO =        -0.43277154
  eigenvalues    EBANDS =      -333.38617072
  atomic energy  EATOM  =      1243.82505112
  Solvation  Ediel_sol  =         0.00000000
  ---------------------------------------------------
  free energy    TOTEN  =       210.17171792 eV

  energy without entropy =      210.60448946  energy(sigma->0) =      210.38810369


--------------------------------------------------------------------------------------------------------




--------------------------------------- Iteration      1(   2)  ---------------------------------------


     EDDAV:  cpu time    5.1812: real time    5.1802
       DOS:  cpu time    0.0000: real time    0.0003
    --------------------------------------------
      LOOP:  cpu time    5.1812: real time    5.1805

 eigenvalue-minimisations  :   144
 total energy-change (2. order) :-0.2337089E+03  (-0.2189241E+03)
 number of electron      56.0000000 magnetization 
 augmentation part       56.0000000 magnetization 

 Free energy of the ion-electron system (eV)
  ---------------------------------------------------
  alpha Z        PSCENC =         2.79095307
  Ewald energy   TEWEN  =      2629.98113996
  -Hartree energ DENC   =     -3439.34790165
  -exchange      EXHF   =         0.00000000
  -V(xc)+E(xc)   XCENC  =       -47.30937431
  PAW double counting   =       915.53220421     -761.48141222
  entropy T*S    EENTRO =        -0.00000000
  eigenvalues    EBANDS =      -567.52782522
  atomic energy  EATOM  =      1243.82505112
  Solvation  Ediel_sol  =         0.00000000
  ---------------------------------------------------
  free energy    TOTEN  =       -23.53716504 eV

  energy without entropy =      -23.53716504  energy(sigma->0) =      -23.53716504


--------------------------------------------------------------------------------------------------------




--------------------------------------- Iteration      1(   3)  ---------------------------------------


     EDDAV:  cpu time    4.0024: real time    3.9994
       DOS:  cpu time    0.0000: real time    0.0003
    --------------------------------------------
      LOOP:  cpu time    4.0024: real time    3.9997

 eigenvalue-minimisations  :   104
 total energy-change (2. order) :-0.7536825E+02  (-0.7519110E+02)
 number of electron      56.0000000 magnetization 
 augmentation part       56.0000000 magnetization 

 Free energy of the ion-electron system (eV)
  ---------------------------------------------------
  alpha Z        PSCENC =         2.79095307
  Ewald energy   TEWEN  =      2629.98113996
  -Hartree energ DENC   =     -3439.34790165
  -exchange      EXHF   =         0.00000000
  -V(xc)+E(xc)   XCENC  =       -47.30937431
  PAW double counting   =       915.53220421     -761.48141222
  entropy T*S    EENTRO =        -0.00000000
  eigenvalues    EBANDS =      -642.89607608
  atomic energy  EATOM  =      1243.82505112
  Solvation  Ediel_sol  =         0.00000000
  ---------------------------------------------------
  free energy    TOTEN  =       -98.90541589 eV

  energy without entropy =      -98.90541589  energy(sigma->0) =      -98.90541589


--------------------------------------------------------------------------------------------------------




--------------------------------------- Iteration      1(   4)  ---------------------------------------


     EDDAV:  cpu time    4.2434: real time    4.2416
       DOS:  cpu time    0.0000: real time    0.0004
    --------------------------------------------
      LOOP:  cpu time    4.2434: real time    4.2420

 eigenvalue-minimisations  :   112
 total energy-change (2. order) :-0.4360814E+01  (-0.4345327E+01)
 number of electron      56.0000000 magnetization 
 augmentation part       56.0000000 magnetization 

 Free energy of the ion-electron system (eV)
  ---------------------------------------------------
  alpha Z        PSCENC =         2.79095307
  Ewald energy   TEWEN  =      2629.98113996
  -Hartree energ DENC   =     -3439.34790165
  -exchange      EXHF   =         0.00000000
  -V(xc)+E(xc)   XCENC  =       -47.30937431
  PAW double counting   =       915.53220421     -761.48141222
  entropy T*S    EENTRO =        -0.00000000
  eigenvalues    EBANDS =      -647.25689008
  atomic energy  EATOM  =      1243.82505112
  Solvation  Ediel_sol  =         0.00000000
  ---------------------------------------------------
  free energy    TOTEN  =      -103.26622989 eV

  energy without entropy =     -103.26622989  energy(sigma->0) =     -103.26622989


--------------------------------------------------------------------------------------------------------




--------------------------------------- Iteration      1(   5)  ---------------------------------------


     EDDAV:  cpu time    4.4733: real time    4.4713
       DOS:  cpu time    0.0010: real time    0.0003
    CHARGE:  cpu time    0.2290: real time    0.2290
    MIXING:  cpu time    0.0230: real time    0.0234
    --------------------------------------------
      LOOP:  cpu time    4.7263: real time    4.7241

 eigenvalue-minimisations  :   120
 total energy-change (2. order) :-0.6160141E-01  (-0.6154202E-01)
 number of electron      56.0000020 magnetization 
 augmentation part       -4.7519225 magnetization 

 Broyden mixing:
  rms(total) = 0.14231E+01    rms(broyden)= 0.14230E+01
  rms(prec ) = 0.15190E+01
  weight for this iteration     100.00

 Free energy of the ion-electron system (eV)
  ---------------------------------------------------
  alpha Z        PSCENC =         2.79095307
  Ewald energy   TEWEN  =      2629.98113996
  -Hartree energ DENC   =     -3439.34790165
  -exchange      EXHF   =         0.00000000
  -V(xc)+E(xc)   XCENC  =       -47.30937431
  PAW double counting   =       915.53220421     -761.48141222
  entropy T*S    EENTRO =        -0.00000000
  eigenvalues    EBANDS =      -647.31849149
  atomic energy  EATOM  =      1243.82505112
  Solvation  Ediel_sol  =         0.00000000
  ---------------------------------------------------
  free energy    TOTEN  =      -103.32783130 eV

  energy without entropy =     -103.32783130  energy(sigma->0) =     -103.32783130


--------------------------------------------------------------------------------------------------------




--------------------------------------- Iteration      1(   6)  ---------------------------------------


    POTLOK:  cpu time    0.9419: real time    0.9422
    SETDIJ:  cpu time    0.0060: real time    0.0063
     EDDAV:  cpu time    4.2364: real time    4.2334
       DOS:  cpu time    0.0000: real time    0.0002
    CHARGE:  cpu time    0.2270: real time    0.2273
    MIXING:  cpu time    0.0250: real time    0.0242
    --------------------------------------------
      LOOP:  cpu time    5.4362: real time    5.4335

 eigenvalue-minimisations  :   112
 total energy-change (2. order) : 0.3119027E+01  (-0.1557988E+00)
 number of electron      56.0000019 magnetization 
 augmentation part       -4.7514981 magnetization 

 Broyden mixing:
  rms(total) = 0.82147E+00    rms(broyden)= 0.82147E+00
  rms(prec ) = 0.88032E+00
  weight for this iteration     100.00

 eigenvalues of (default mixing * dielectric matrix)
  average eigenvalue GAMMA=   2.2946
  2.2946

 Free energy of the ion-electron system (eV)
  ---------------------------------------------------
  alpha Z        PSCENC =         2.79095307
  Ewald energy   TEWEN  =      2629.98113996
  -Hartree energ DENC   =     -3470.00783975
  -exchange      EXHF   =         0.00000000
  -V(xc)+E(xc)   XCENC  =       -43.69329612
  PAW double counting   =      1710.17073833    -1557.05496177
  entropy T*S    EENTRO =        -0.00000000
  eigenvalues    EBANDS =      -616.22058924
  atomic energy  EATOM  =      1243.82505112
  Solvation  Ediel_sol  =         0.00000000
  ---------------------------------------------------
  free energy    TOTEN  =      -100.20880439 eV

  energy without entropy =     -100.20880439  energy(sigma->0) =     -100.20880439


--------------------------------------------------------------------------------------------------------




--------------------------------------- Iteration      1(   7)  ---------------------------------------


    POTLOK:  cpu time    0.9479: real time    0.9482
    SETDIJ:  cpu time    0.0060: real time    0.0062
     EDDAV:  cpu time    4.0984: real time    4.0964
       DOS:  cpu time    0.0010: real time    0.0003
    CHARGE:  cpu time    0.2290: real time    0.2295
    MIXING:  cpu time    0.0250: real time    0.0248
    --------------------------------------------
      LOOP:  cpu time    5.3072: real time    5.3055

 eigenvalue-minimisations  :   104
 total energy-change (2. order) : 0.1629704E+01  (-0.3910738E+00)
 number of electron      56.0000017 magnetization 
 augmentation part       -4.7495266 magnetization 

 Broyden mixing:
  rms(total) = 0.12038E+00    rms(broyden)= 0.12023E+00
  rms(prec ) = 0.15170E+00
  weight for this iteration     100.00

 eigenvalues of (default mixing * dielectric matrix)
  average eigenvalue GAMMA=   1.8465
  1.7748  1.9183

 Free energy of the ion-electron system (eV)
  ---------------------------------------------------
  alpha Z        PSCENC =         2.79095307
  Ewald energy   TEWEN  =      2629.98113996
  -Hartree energ DENC   =     -3524.32612290
  -exchange      EXHF   =         0.00000000
  -V(xc)+E(xc)   XCENC  =       -37.99634428
  PAW double counting   =      3391.62449495    -3239.74767321
  entropy T*S    EENTRO =        -0.00000000
  eigenvalues    EBANDS =      -564.73059877
  atomic energy  EATOM  =      1243.82505112
  Solvation  Ediel_sol  =         0.00000000
  ---------------------------------------------------
  free energy    TOTEN  =       -98.57910006 eV

  energy without entropy =      -98.57910006  energy(sigma->0) =      -98.57910006


--------------------------------------------------------------------------------------------------------




--------------------------------------- Iteration      1(   8)  ---------------------------------------


    POTLOK:  cpu time    1.0888: real time    1.3613
    SETDIJ:  cpu time    0.0060: real time    0.0062
     EDDAV:  cpu time    4.2524: real time    4.2496
       DOS:  cpu time    0.0000: real time    0.0003
    CHARGE:  cpu time    0.2300: real time    0.2296
    MIXING:  cpu time    0.0260: real time    0.0258
    --------------------------------------------
      LOOP:  cpu time    5.6031: real time    5.8728

 eigenvalue-minimisations  :   112
 total energy-change (2. order) : 0.5553998E-01  (-0.2597950E-01)
 number of electron      56.0000017 magnetization 
 augmentation part       -4.7420910 magnetization 

 Broyden mixing:
  rms(total) = 0.58806E-01    rms(broyden)= 0.58792E-01
  rms(prec ) = 0.78308E-01
  weight for this iteration     100.00

 eigenvalues of (default mixing * dielectric matrix)
  average eigenvalue GAMMA=   1.9730
  2.6555  1.6317  1.6317

 Free energy of the ion-electron system (eV)
  ---------------------------------------------------
  alpha Z        PSCENC =         2.79095307
  Ewald energy   TEWEN  =      2629.98113996
  -Hartree energ DENC   =     -3532.72418816
  -exchange      EXHF   =         0.00000000
  -V(xc)+E(xc)   XCENC  =       -37.98134941
  PAW double counting   =      3424.39513961    -3272.43896301
  entropy T*S    EENTRO =        -0.00000000
  eigenvalues    EBANDS =      -556.37134327
  atomic energy  EATOM  =      1243.82505112
  Solvation  Ediel_sol  =         0.00000000
  ---------------------------------------------------
  free energy    TOTEN  =       -98.52356009 eV

  energy without entropy =      -98.52356009  energy(sigma->0) =      -98.52356009


--------------------------------------------------------------------------------------------------------




--------------------------------------- Iteration      1(   9)  ---------------------------------------


    POTLOK:  cpu time    0.9549: real time    0.9550
    SETDIJ:  cpu time    0.0060: real time    0.0062
     EDDAV:  cpu time    4.4723: real time    4.4705
       DOS:  cpu time    0.0010: real time    0.0002
    CHARGE:  cpu time    0.2280: real time    0.2279
    MIXING:  cpu time    0.0280: real time    0.0274
    --------------------------------------------
      LOOP:  cpu time    5.6901: real time    5.6872

 eigenvalue-minimisations  :   120
 total energy-change (2. order) : 0.3597799E-01  (-0.7009296E-02)
 number of electron      56.0000017 magnetization 
 augmentation part       -4.7261105 magnetization 

 Broyden mixing:
  rms(total) = 0.31454E-01    rms(broyden)= 0.31453E-01
  rms(prec ) = 0.43224E-01
  weight for this iteration     100.00

 eigenvalues of (default mixing * dielectric matrix)
  average eigenvalue GAMMA=   1.7545
  2.5082  1.8301  1.8301  0.8497

 Free energy of the ion-electron system (eV)
  ---------------------------------------------------
  alpha Z        PSCENC =         2.79095307
  Ewald energy   TEWEN  =      2629.98113996
  -Hartree energ DENC   =     -3544.48555600
  -exchange      EXHF   =         0.00000000
  -V(xc)+E(xc)   XCENC  =       -37.27550669
  PAW double counting   =      3552.28997238    -3400.38587063
  entropy T*S    EENTRO =        -0.00000000
  eigenvalues    EBANDS =      -545.22776530
  atomic energy  EATOM  =      1243.82505112
  Solvation  Ediel_sol  =         0.00000000
  ---------------------------------------------------
  free energy    TOTEN  =       -98.48758209 eV

  energy without entropy =      -98.48758209  energy(sigma->0) =      -98.48758209


--------------------------------------------------------------------------------------------------------




--------------------------------------- Iteration      1(  10)  ---------------------------------------


    POTLOK:  cpu time    0.9599: real time    0.9597
    SETDIJ:  cpu time    0.0060: real time    0.0062
     EDDAV:  cpu time    4.2334: real time    4.2325
       DOS:  cpu time    0.0010: real time    0.0003
    CHARGE:  cpu time    0.2280: real time    0.2284
    MIXING:  cpu time    0.0280: real time    0.0282
    --------------------------------------------
      LOOP:  cpu time    5.4562: real time    5.4553

 eigenvalue-minimisations  :   112
 total energy-change (2. order) :-0.4891304E-03  (-0.2474458E-03)
 number of electron      56.0000017 magnetization 
 augmentation part       -4.7255667 magnetization 

 Broyden mixing:
  rms(total) = 0.13723E-01    rms(broyden)= 0.13723E-01
  rms(prec ) = 0.27307E-01
  weight for this iteration     100.00

 eigenvalues of (default mixing * dielectric matrix)
  average eigenvalue GAMMA=   1.9308
  2.9372  2.4692  1.0133  1.6172  1.6172

 Free energy of the ion-electron system (eV)
  ---------------------------------------------------
  alpha Z        PSCENC =         2.79095307
  Ewald energy   TEWEN  =      2629.98113996
  -Hartree energ DENC   =     -3546.65398340
  -exchange      EXHF   =         0.00000000
  -V(xc)+E(xc)   XCENC  =       -37.27053476
  PAW double counting   =      3485.40437141    -3333.44846248
  entropy T*S    EENTRO =        -0.00000000
  eigenvalues    EBANDS =      -543.11660616
  atomic energy  EATOM  =      1243.82505112
  Solvation  Ediel_sol  =         0.00000000
  ---------------------------------------------------
  free energy    TOTEN  =       -98.48807122 eV

  energy without entropy =      -98.48807122  energy(sigma->0) =      -98.48807122


--------------------------------------------------------------------------------------------------------




--------------------------------------- Iteration      1(  11)  ---------------------------------------


    POTLOK:  cpu time    0.9669: real time    0.9660
    SETDIJ:  cpu time    0.0070: real time    0.0063
     EDDAV:  cpu time    4.0064: real time    4.0053
       DOS:  cpu time    0.0000: real time    0.0003
    CHARGE:  cpu time    0.2300: real time    0.2296
    MIXING:  cpu time    0.0290: real time    0.0292
    --------------------------------------------
      LOOP:  cpu time    5.2392: real time    5.2366

 eigenvalue-minimisations  :   104
 total energy-change (2. order) : 0.2182138E-03  (-0.6975640E-03)
 number of electron      56.0000017 magnetization 
 augmentation part       -4.7239755 magnetization 

 Broyden mixing:
  rms(total) = 0.84834E-02    rms(broyden)= 0.84831E-02
  rms(prec ) = 0.14344E-01
  weight for this iteration     100.00

 eigenvalues of (default mixing * dielectric matrix)
  average eigenvalue GAMMA=   1.8833
  3.2820  2.5910  1.7332  1.7332  1.0586  0.9017

 Free energy of the ion-electron system (eV)
  ---------------------------------------------------
  alpha Z        PSCENC =         2.79095307
  Ewald energy   TEWEN  =      2629.98113996
  -Hartree energ DENC   =     -3553.58438674
  -exchange      EXHF   =         0.00000000
  -V(xc)+E(xc)   XCENC  =       -37.07038349
  PAW double counting   =      3453.51120635    -3301.51521868
  entropy T*S    EENTRO =        -0.00000000
  eigenvalues    EBANDS =      -536.42621459
  atomic energy  EATOM  =      1243.82505112
  Solvation  Ediel_sol  =         0.00000000
  ---------------------------------------------------
  free energy    TOTEN  =       -98.48785301 eV

  energy without entropy =      -98.48785301  energy(sigma->0) =      -98.48785301


--------------------------------------------------------------------------------------------------------




--------------------------------------- Iteration      1(  12)  ---------------------------------------


    POTLOK:  cpu time    0.9709: real time    0.9699
    SETDIJ:  cpu time    0.0060: real time    0.0062
     EDDAV:  cpu time    4.0884: real time    4.0868
       DOS:  cpu time    0.0000: real time    0.0002
    CHARGE:  cpu time    0.2320: real time    0.2316
    MIXING:  cpu time    0.0330: real time    0.0325
    --------------------------------------------
      LOOP:  cpu time    5.3302: real time    5.3272

 eigenvalue-minimisations  :   104
 total energy-change (2. order) :-0.4931502E-02  (-0.1198893E-03)
 number of electron      56.0000017 magnetization 
 augmentation part       -4.7231052 magnetization 

 Broyden mixing:
  rms(total) = 0.51460E-02    rms(broyden)= 0.51459E-02
  rms(prec ) = 0.91290E-02
  weight for this iteration     100.00

 eigenvalues of (default mixing * dielectric matrix)
  average eigenvalue GAMMA=   2.1248
  4.7624  2.5321  2.5321  1.5614  1.5614  0.9622  0.9622

 Free energy of the ion-electron system (eV)
  ---------------------------------------------------
  alpha Z        PSCENC =         2.79095307
  Ewald energy   TEWEN  =      2629.98113996
  -Hartree energ DENC   =     -3555.89962020
  -exchange      EXHF   =         0.00000000
  -V(xc)+E(xc)   XCENC  =       -37.03078457
  PAW double counting   =      3450.78217426    -3298.78833229
  entropy T*S    EENTRO =        -0.00000000
  eigenvalues    EBANDS =      -534.15336585
  atomic energy  EATOM  =      1243.82505112
  Solvation  Ediel_sol  =         0.00000000
  ---------------------------------------------------
  free energy    TOTEN  =       -98.49278451 eV

  energy without entropy =      -98.49278451  energy(sigma->0) =      -98.49278451


--------------------------------------------------------------------------------------------------------




--------------------------------------- Iteration      1(  13)  ---------------------------------------


    POTLOK:  cpu time    0.9719: real time    0.9730
    SETDIJ:  cpu time    0.0060: real time    0.0062
     EDDAV:  cpu time    4.2704: real time    4.2675
       DOS:  cpu time    0.0000: real time    0.0003
    CHARGE:  cpu time    0.2160: real time    0.2162
    MIXING:  cpu time    0.0350: real time    0.0345
    --------------------------------------------
      LOOP:  cpu time    5.4992: real time    5.4977

 eigenvalue-minimisations  :   112
 total energy-change (2. order) :-0.4384114E-02  (-0.1600885E-03)
 number of electron      56.0000017 magnetization 
 augmentation part       -4.7228274 magnetization 

 Broyden mixing:
  rms(total) = 0.34786E-02    rms(broyden)= 0.34785E-02
  rms(prec ) = 0.51101E-02
  weight for this iteration     100.00

 eigenvalues of (default mixing * dielectric matrix)
  average eigenvalue GAMMA=   2.2134
  5.7444  2.9305  2.2559  1.8243  1.8243  0.9645  0.9645  1.1990

 Free energy of the ion-electron system (eV)
  ---------------------------------------------------
  alpha Z        PSCENC =         2.79095307
  Ewald energy   TEWEN  =      2629.98113996
  -Hartree energ DENC   =     -3558.47312717
  -exchange      EXHF   =         0.00000000
  -V(xc)+E(xc)   XCENC  =       -36.98207582
  PAW double counting   =      3456.08615449    -3304.10165042
  entropy T*S    EENTRO =        -0.00000000
  eigenvalues    EBANDS =      -531.62361385
  atomic energy  EATOM  =      1243.82505112
  Solvation  Ediel_sol  =         0.00000000
  ---------------------------------------------------
  free energy    TOTEN  =       -98.49716862 eV

  energy without entropy =      -98.49716862  energy(sigma->0) =      -98.49716862


--------------------------------------------------------------------------------------------------------




--------------------------------------- Iteration      1(  14)  ---------------------------------------


    POTLOK:  cpu time    0.9649: real time    0.9651
    SETDIJ:  cpu time    0.0060: real time    0.0061
     EDDAV:  cpu time    4.2484: real time    4.2463
       DOS:  cpu time    0.0010: real time    0.0002
    CHARGE:  cpu time    0.2280: real time    0.2281
    MIXING:  cpu time    0.0330: real time    0.0336
    --------------------------------------------
      LOOP:  cpu time    5.4812: real time    5.4793

 eigenvalue-minimisations  :   112
 total energy-change (2. order) :-0.4263727E-02  (-0.3437455E-04)
 number of electron      56.0000017 magnetization 
 augmentation part       -4.7222810 magnetization 

 Broyden mixing:
  rms(total) = 0.14812E-02    rms(broyden)= 0.14812E-02
  rms(prec ) = 0.26100E-02
  weight for this iteration     100.00

 eigenvalues of (default mixing * dielectric matrix)
  average eigenvalue GAMMA=   2.3368
  6.6589  3.0353  2.7954  2.2737  1.6327  1.6327  1.0790  0.9619  0.9619

 Free energy of the ion-electron system (eV)
  ---------------------------------------------------
  alpha Z        PSCENC =         2.79095307
  Ewald energy   TEWEN  =      2629.98113996
  -Hartree energ DENC   =     -3559.09101266
  -exchange      EXHF   =         0.00000000
  -V(xc)+E(xc)   XCENC  =       -37.00019965
  PAW double counting   =      3454.28550034    -3302.29943072
  entropy T*S    EENTRO =        -0.00000000
  eigenvalues    EBANDS =      -530.99343382
  atomic energy  EATOM  =      1243.82505112
  Solvation  Ediel_sol  =         0.00000000
  ---------------------------------------------------
  free energy    TOTEN  =       -98.50143235 eV

  energy without entropy =      -98.50143235  energy(sigma->0) =      -98.50143235


--------------------------------------------------------------------------------------------------------




--------------------------------------- Iteration      1(  15)  ---------------------------------------


    POTLOK:  cpu time    0.9649: real time    0.9637
    SETDIJ:  cpu time    0.0060: real time    0.0062
     EDDAV:  cpu time    4.2404: real time    4.2392
       DOS:  cpu time    0.0010: real time    0.0003
    CHARGE:  cpu time    0.2290: real time    0.2298
    MIXING:  cpu time    0.0360: real time    0.0357
    --------------------------------------------
      LOOP:  cpu time    5.4772: real time    5.4749

 eigenvalue-minimisations  :   112
 total energy-change (2. order) :-0.4167114E-02  (-0.5055295E-04)
 number of electron      56.0000017 magnetization 
 augmentation part       -4.7220976 magnetization 

 Broyden mixing:
  rms(total) = 0.13426E-02    rms(broyden)= 0.13426E-02
  rms(prec ) = 0.17542E-02
  weight for this iteration     100.00

 eigenvalues of (default mixing * dielectric matrix)
  average eigenvalue GAMMA=   2.3131
  6.7537  3.8732  2.6317  2.0254  1.8769  1.8769  1.2171  0.9254  0.9754  0.9754

 Free energy of the ion-electron system (eV)
  ---------------------------------------------------
  alpha Z        PSCENC =         2.79095307
  Ewald energy   TEWEN  =      2629.98113996
  -Hartree energ DENC   =     -3559.31000232
  -exchange      EXHF   =         0.00000000
  -V(xc)+E(xc)   XCENC  =       -37.00698043
  PAW double counting   =      3457.73638312    -3305.75002876
  entropy T*S    EENTRO =        -0.00000000
  eigenvalues    EBANDS =      -530.77211523
  atomic energy  EATOM  =      1243.82505112
  Solvation  Ediel_sol  =         0.00000000
  ---------------------------------------------------
  free energy    TOTEN  =       -98.50559946 eV

  energy without entropy =      -98.50559946  energy(sigma->0) =      -98.50559946


--------------------------------------------------------------------------------------------------------




--------------------------------------- Iteration      1(  16)  ---------------------------------------


    POTLOK:  cpu time    0.9599: real time    0.9592
    SETDIJ:  cpu time    0.0060: real time    0.0061
     EDDAV:  cpu time    4.2404: real time    4.2390
       DOS:  cpu time    0.0010: real time    0.0003
    CHARGE:  cpu time    0.2290: real time    0.2296
    MIXING:  cpu time    0.0390: real time    0.0384
    --------------------------------------------
      LOOP:  cpu time    5.4752: real time    5.4725

 eigenvalue-minimisations  :   112
 total energy-change (2. order) :-0.9063140E-03  (-0.4765523E-05)
 number of electron      56.0000017 magnetization 
 augmentation part       -4.7223202 magnetization 

 Broyden mixing:
  rms(total) = 0.60159E-03    rms(broyden)= 0.60157E-03
  rms(prec ) = 0.91343E-03
  weight for this iteration     100.00

 eigenvalues of (default mixing * dielectric matrix)
  average eigenvalue GAMMA=   2.4466
  7.4202  4.7579  2.6665  2.6665  1.8388  1.8388  1.5548  1.2583  0.9712  0.9712
  0.9683

 Free energy of the ion-electron system (eV)
  ---------------------------------------------------
  alpha Z        PSCENC =         2.79095307
  Ewald energy   TEWEN  =      2629.98113996
  -Hartree energ DENC   =     -3559.40519298
  -exchange      EXHF   =         0.00000000
  -V(xc)+E(xc)   XCENC  =       -37.00404295
  PAW double counting   =      3457.74731414    -3305.76069664
  entropy T*S    EENTRO =        -0.00000000
  eigenvalues    EBANDS =      -530.68103149
  atomic energy  EATOM  =      1243.82505112
  Solvation  Ediel_sol  =         0.00000000
  ---------------------------------------------------
  free energy    TOTEN  =       -98.50650578 eV

  energy without entropy =      -98.50650578  energy(sigma->0) =      -98.50650578


--------------------------------------------------------------------------------------------------------




--------------------------------------- Iteration      1(  17)  ---------------------------------------


    POTLOK:  cpu time    0.9589: real time    0.9582
    SETDIJ:  cpu time    0.0060: real time    0.0062
     EDDAV:  cpu time    4.2384: real time    4.2369
       DOS:  cpu time    0.0000: real time    0.0004
    CHARGE:  cpu time    0.2280: real time    0.2277
    MIXING:  cpu time    0.0420: real time    0.0424
    --------------------------------------------
      LOOP:  cpu time    5.4742: real time    5.4718

 eigenvalue-minimisations  :   112
 total energy-change (2. order) :-0.1042455E-02  (-0.8898025E-05)
 number of electron      56.0000017 magnetization 
 augmentation part       -4.7225378 magnetization 

 Broyden mixing:
  rms(total) = 0.27583E-03    rms(broyden)= 0.27578E-03
  rms(prec ) = 0.41405E-03
  weight for this iteration     100.00

 eigenvalues of (default mixing * dielectric matrix)
  average eigenvalue GAMMA=   2.4441
  7.6126  5.2643  2.7160  2.7160  1.8596  1.8596  1.8977  1.2559  1.2559  0.9654
  0.9654  0.9610

 Free energy of the ion-electron system (eV)
  ---------------------------------------------------
  alpha Z        PSCENC =         2.79095307
  Ewald energy   TEWEN  =      2629.98113996
  -Hartree energ DENC   =     -3559.41859551
  -exchange      EXHF   =         0.00000000
  -V(xc)+E(xc)   XCENC  =       -37.00635141
  PAW double counting   =      3456.11375660    -3304.12603105
  entropy T*S    EENTRO =        -0.00000000
  eigenvalues    EBANDS =      -530.66747101
  atomic energy  EATOM  =      1243.82505112
  Solvation  Ediel_sol  =         0.00000000
  ---------------------------------------------------
  free energy    TOTEN  =       -98.50754823 eV

  energy without entropy =      -98.50754823  energy(sigma->0) =      -98.50754823


--------------------------------------------------------------------------------------------------------




--------------------------------------- Iteration      1(  18)  ---------------------------------------


    POTLOK:  cpu time    0.9639: real time    0.9626
    SETDIJ:  cpu time    0.0060: real time    0.0062
     EDDAV:  cpu time    4.0164: real time    4.0150
       DOS:  cpu time    0.0010: real time    0.0004
    CHARGE:  cpu time    0.2280: real time    0.2282
    MIXING:  cpu time    0.0470: real time    0.0474
    --------------------------------------------
      LOOP:  cpu time    5.2612: real time    5.2599

 eigenvalue-minimisations  :   104
 total energy-change (2. order) :-0.2452027E-03  (-0.8708412E-06)
 number of electron      56.0000017 magnetization 
 augmentation part       -4.7225090 magnetization 

 Broyden mixing:
  rms(total) = 0.18580E-03    rms(broyden)= 0.18577E-03
  rms(prec ) = 0.25150E-03
  weight for this iteration     100.00

 eigenvalues of (default mixing * dielectric matrix)
  average eigenvalue GAMMA=   2.5013
  8.2334  5.8019  3.2138  2.5980  2.3466  1.8154  1.8154  1.3833  1.3833  0.9613
  0.9613  1.0018  1.0018

 Free energy of the ion-electron system (eV)
  ---------------------------------------------------
  alpha Z        PSCENC =         2.79095307
  Ewald energy   TEWEN  =      2629.98113996
  -Hartree energ DENC   =     -3559.45737747
  -exchange      EXHF   =         0.00000000
  -V(xc)+E(xc)   XCENC  =       -37.00545906
  PAW double counting   =      3456.24589890    -3304.25879752
  entropy T*S    EENTRO =        -0.00000000
  eigenvalues    EBANDS =      -530.62920243
  atomic energy  EATOM  =      1243.82505112
  Solvation  Ediel_sol  =         0.00000000
  ---------------------------------------------------
  free energy    TOTEN  =       -98.50779344 eV

  energy without entropy =      -98.50779344  energy(sigma->0) =      -98.50779344


--------------------------------------------------------------------------------------------------------




--------------------------------------- Iteration      1(  19)  ---------------------------------------


    POTLOK:  cpu time    0.9679: real time    0.9699
    SETDIJ:  cpu time    0.0120: real time    0.0112
     EDDAV:  cpu time    4.0074: real time    4.0054
       DOS:  cpu time    0.0000: real time    0.0004
    CHARGE:  cpu time    0.2310: real time    0.2303
    MIXING:  cpu time    0.0530: real time    0.0537
    --------------------------------------------
      LOOP:  cpu time    5.2712: real time    5.2709

 eigenvalue-minimisations  :   104
 total energy-change (2. order) :-0.1225193E-03  (-0.3544458E-06)
 number of electron      56.0000017 magnetization 
 augmentation part       -4.7225120 magnetization 

 Broyden mixing:
  rms(total) = 0.11631E-03    rms(broyden)= 0.11631E-03
  rms(prec ) = 0.15627E-03
  weight for this iteration     100.00

 eigenvalues of (default mixing * dielectric matrix)
  average eigenvalue GAMMA=   2.5013
  8.3788  6.0973  3.3994  2.6985  2.2521  2.2521  1.7370  1.7370  1.3049  1.3049
  0.9919  0.9919  0.9360  0.9360

 Free energy of the ion-electron system (eV)
  ---------------------------------------------------
  alpha Z        PSCENC =         2.79095307
  Ewald energy   TEWEN  =      2629.98113996
  -Hartree energ DENC   =     -3559.46479401
  -exchange      EXHF   =         0.00000000
  -V(xc)+E(xc)   XCENC  =       -37.00533664
  PAW double counting   =      3456.09479133    -3304.10780314
  entropy T*S    EENTRO =        -0.00000000
  eigenvalues    EBANDS =      -530.62191764
  atomic energy  EATOM  =      1243.82505112
  Solvation  Ediel_sol  =         0.00000000
  ---------------------------------------------------
  free energy    TOTEN  =       -98.50791596 eV

  energy without entropy =      -98.50791596  energy(sigma->0) =      -98.50791596


--------------------------------------------------------------------------------------------------------




--------------------------------------- Iteration      1(  20)  ---------------------------------------


    POTLOK:  cpu time    0.9659: real time    0.9654
    SETDIJ:  cpu time    0.0060: real time    0.0062
     EDDAV:  cpu time    3.5325: real time    3.5313
       DOS:  cpu time    0.0010: real time    0.0004
    CHARGE:  cpu time    0.2300: real time    0.2291
    MIXING:  cpu time    0.0600: real time    0.0607
    --------------------------------------------
      LOOP:  cpu time    4.7953: real time    4.7931

 eigenvalue-minimisations  :    88
 total energy-change (2. order) :-0.4853298E-04  (-0.8986298E-07)
 number of electron      56.0000017 magnetization 
 augmentation part       -4.7224874 magnetization 

 Broyden mixing:
  rms(total) = 0.76603E-04    rms(broyden)= 0.76602E-04
  rms(prec ) = 0.96511E-04
  weight for this iteration     100.00

 eigenvalues of (default mixing * dielectric matrix)
  average eigenvalue GAMMA=   2.5384
  8.5492  6.5056  4.0865  2.9194  2.5733  1.9609  1.8577  1.8577  1.4022  1.4022
  1.1334  0.9830  0.9830  0.9845  0.8775

 Free energy of the ion-electron system (eV)
  ---------------------------------------------------
  alpha Z        PSCENC =         2.79095307
  Ewald energy   TEWEN  =      2629.98113996
  -Hartree energ DENC   =     -3559.46893397
  -exchange      EXHF   =         0.00000000
  -V(xc)+E(xc)   XCENC  =       -37.00619007
  PAW double counting   =      3456.04125750    -3304.05419782
  entropy T*S    EENTRO =        -0.00000000
  eigenvalues    EBANDS =      -530.61704427
  atomic energy  EATOM  =      1243.82505112
  Solvation  Ediel_sol  =         0.00000000
  ---------------------------------------------------
  free energy    TOTEN  =       -98.50796449 eV

  energy without entropy =      -98.50796449  energy(sigma->0) =      -98.50796449


--------------------------------------------------------------------------------------------------------




--------------------------------------- Iteration      1(  21)  ---------------------------------------


    POTLOK:  cpu time    0.9599: real time    0.9592
    SETDIJ:  cpu time    0.0060: real time    0.0062
     EDDAV:  cpu time    3.5245: real time    3.5234
       DOS:  cpu time    0.0010: real time    0.0003
    CHARGE:  cpu time    0.2290: real time    0.2423
    MIXING:  cpu time    0.0670: real time    0.0668
    --------------------------------------------
      LOOP:  cpu time    4.7873: real time    4.7982

 eigenvalue-minimisations  :    88
 total energy-change (2. order) :-0.2198665E-04  (-0.6829498E-07)
 number of electron      56.0000017 magnetization 
 augmentation part       -4.7224767 magnetization 

 Broyden mixing:
  rms(total) = 0.44846E-04    rms(broyden)= 0.44843E-04
  rms(prec ) = 0.58626E-04
  weight for this iteration     100.00

 eigenvalues of (default mixing * dielectric matrix)
  average eigenvalue GAMMA=   2.5181
  8.5453  6.7121  4.2026  2.9690  2.5923  2.0821  2.0821  1.7354  1.7354  1.4693
  0.9464  0.9464  1.0966  1.0966  1.0387  1.0387

 Free energy of the ion-electron system (eV)
  ---------------------------------------------------
  alpha Z        PSCENC =         2.79095307
  Ewald energy   TEWEN  =      2629.98113996
  -Hartree energ DENC   =     -3559.47462515
  -exchange      EXHF   =         0.00000000
  -V(xc)+E(xc)   XCENC  =       -37.00601681
  PAW double counting   =      3456.17778474    -3304.19079506
  entropy T*S    EENTRO =        -0.00000000
  eigenvalues    EBANDS =      -530.61147833
  atomic energy  EATOM  =      1243.82505112
  Solvation  Ediel_sol  =         0.00000000
  ---------------------------------------------------
  free energy    TOTEN  =       -98.50798648 eV

  energy without entropy =      -98.50798648  energy(sigma->0) =      -98.50798648


--------------------------------------------------------------------------------------------------------




--------------------------------------- Iteration      1(  22)  ---------------------------------------


    POTLOK:  cpu time    0.9549: real time    0.9539
    SETDIJ:  cpu time    0.0060: real time    0.0062
     EDDAV:  cpu time    3.5295: real time    3.5280
       DOS:  cpu time    0.0000: real time    0.0003
    CHARGE:  cpu time    0.2300: real time    0.2295
    MIXING:  cpu time    0.0730: real time    0.0735
    --------------------------------------------
      LOOP:  cpu time    4.7933: real time    4.7915

 eigenvalue-minimisations  :    88
 total energy-change (2. order) :-0.7440761E-05  (-0.1956198E-07)
 number of electron      56.0000017 magnetization 
 augmentation part       -4.7224944 magnetization 

 Broyden mixing:
  rms(total) = 0.28585E-04    rms(broyden)= 0.28584E-04
  rms(prec ) = 0.35247E-04
  weight for this iteration     100.00

 eigenvalues of (default mixing * dielectric matrix)
  average eigenvalue GAMMA=   2.5388
  8.8472  6.7418  4.7210  3.1956  2.5894  2.5894  1.9113  1.9113  1.6685  1.6685
  1.2347  1.1217  1.1217  0.9407  0.9407  0.9777  0.9777

 Free energy of the ion-electron system (eV)
  ---------------------------------------------------
  alpha Z        PSCENC =         2.79095307
  Ewald energy   TEWEN  =      2629.98113996
  -Hartree energ DENC   =     -3559.47279284
  -exchange      EXHF   =         0.00000000
  -V(xc)+E(xc)   XCENC  =       -37.00582985
  PAW double counting   =      3456.19168502    -3304.20461713
  entropy T*S    EENTRO =        -0.00000000
  eigenvalues    EBANDS =      -530.61358327
  atomic energy  EATOM  =      1243.82505112
  Solvation  Ediel_sol  =         0.00000000
  ---------------------------------------------------
  free energy    TOTEN  =       -98.50799392 eV

  energy without entropy =      -98.50799392  energy(sigma->0) =      -98.50799392


--------------------------------------------------------------------------------------------------------




--------------------------------------- Iteration      1(  23)  ---------------------------------------


    POTLOK:  cpu time    0.9589: real time    0.9592
    SETDIJ:  cpu time    0.0060: real time    0.0062
     EDDAV:  cpu time    3.5235: real time    3.5212
       DOS:  cpu time    0.0000: real time    0.0003
    CHARGE:  cpu time    0.2300: real time    0.2296
    MIXING:  cpu time    0.0800: real time    0.0802
    --------------------------------------------
      LOOP:  cpu time    4.7983: real time    4.7967

 eigenvalue-minimisations  :    88
 total energy-change (2. order) :-0.3114987E-05  (-0.7515474E-08)
 number of electron      56.0000017 magnetization 
 augmentation part       -4.7225010 magnetization 

 Broyden mixing:
  rms(total) = 0.17070E-04    rms(broyden)= 0.17068E-04
  rms(prec ) = 0.21857E-04
  weight for this iteration     100.00

 eigenvalues of (default mixing * dielectric matrix)
  average eigenvalue GAMMA=   2.5512
  8.9060  6.8278  4.9281  3.0858  2.8618  2.8618  2.2033  1.9276  1.9276  1.5559
  1.5559  1.1864  1.1864  1.0124  1.0124  0.9490  0.9490  0.9838

 Free energy of the ion-electron system (eV)
  ---------------------------------------------------
  alpha Z        PSCENC =         2.79095307
  Ewald energy   TEWEN  =      2629.98113996
  -Hartree energ DENC   =     -3559.47266234
  -exchange      EXHF   =         0.00000000
  -V(xc)+E(xc)   XCENC  =       -37.00595576
  PAW double counting   =      3456.16112553    -3304.17404360
  entropy T*S    EENTRO =        -0.00000000
  eigenvalues    EBANDS =      -530.61360500
  atomic energy  EATOM  =      1243.82505112
  Solvation  Ediel_sol  =         0.00000000
  ---------------------------------------------------
  free energy    TOTEN  =       -98.50799703 eV

  energy without entropy =      -98.50799703  energy(sigma->0) =      -98.50799703


--------------------------------------------------------------------------------------------------------




--------------------------------------- Iteration      1(  24)  ---------------------------------------


    POTLOK:  cpu time    0.9679: real time    0.9670
    SETDIJ:  cpu time    0.0060: real time    0.0062
     EDDAV:  cpu time    3.5415: real time    3.5401
       DOS:  cpu time    0.0010: real time    0.0004
    CHARGE:  cpu time    0.2300: real time    0.2300
    MIXING:  cpu time    0.0860: real time    0.0868
    --------------------------------------------
      LOOP:  cpu time    4.8323: real time    4.8306

 eigenvalue-minimisations  :    88
 total energy-change (2. order) :-0.2158604E-05  (-0.3524153E-08)
 number of electron      56.0000017 magnetization 
 augmentation part       -4.7224962 magnetization 

 Broyden mixing:
  rms(total) = 0.71012E-05    rms(broyden)= 0.71011E-05
  rms(prec ) = 0.85237E-05
  weight for this iteration     100.00

 eigenvalues of (default mixing * dielectric matrix)
  average eigenvalue GAMMA=   2.5615
  8.8475  7.1405  5.4966  3.9184  2.9374  2.5025  2.2390  1.9094  1.9094  1.6827
  1.6827  1.2705  1.1607  1.1607  0.9841  0.9841  0.9449  0.9449  0.9528

 Free energy of the ion-electron system (eV)
  ---------------------------------------------------
  alpha Z        PSCENC =         2.79095307
  Ewald energy   TEWEN  =      2629.98113996
  -Hartree energ DENC   =     -3559.47389210
  -exchange      EXHF   =         0.00000000
  -V(xc)+E(xc)   XCENC  =       -37.00599378
  PAW double counting   =      3456.12534212    -3304.13829723
  entropy T*S    EENTRO =        -0.00000000
  eigenvalues    EBANDS =      -530.61230235
  atomic energy  EATOM  =      1243.82505112
  Solvation  Ediel_sol  =         0.00000000
  ---------------------------------------------------
  free energy    TOTEN  =       -98.50799919 eV

  energy without entropy =      -98.50799919  energy(sigma->0) =      -98.50799919


--------------------------------------------------------------------------------------------------------




--------------------------------------- Iteration      1(  25)  ---------------------------------------


    POTLOK:  cpu time    0.9729: real time    0.9722
    SETDIJ:  cpu time    0.0060: real time    0.0063
     EDDAV:  cpu time    3.5195: real time    3.5185
       DOS:  cpu time    0.0010: real time    0.0003
    --------------------------------------------
      LOOP:  cpu time    4.4993: real time    4.4972

 eigenvalue-minimisations  :    88
 total energy-change (2. order) :-0.3985942E-06  (-0.9415047E-09)
 number of electron      56.0000017 magnetization 
 augmentation part       -4.7224962 magnetization 

 Free energy of the ion-electron system (eV)
  ---------------------------------------------------
  alpha Z        PSCENC =         2.79095307
  Ewald energy   TEWEN  =      2629.98113996
  -Hartree energ DENC   =     -3559.47435437
  -exchange      EXHF   =         0.00000000
  -V(xc)+E(xc)   XCENC  =       -37.00597832
  PAW double counting   =      3456.14058930    -3304.15354189
  entropy T*S    EENTRO =        -0.00000000
  eigenvalues    EBANDS =      -530.61185845
  atomic energy  EATOM  =      1243.82505112
  Solvation  Ediel_sol  =         0.00000000
  ---------------------------------------------------
  free energy    TOTEN  =       -98.50799959 eV

  energy without entropy =      -98.50799959  energy(sigma->0) =      -98.50799959


--------------------------------------------------------------------------------------------------------




 average (electrostatic) potential at core
  the test charge radii are     0.9892  1.1631  0.5201
  (the norm of the test charge is              1.0000)
       1 -93.4304       2 -93.4103       3 -93.4304       4 -40.4279       5 -40.4279
       6 -40.4627       7 -40.4627       8 -40.4634       9 -40.4279      10 -40.4279
      11 -41.0557      12 -41.0603      13 -41.0398      14 -41.0472      15 -41.0468
      16 -41.0608      17 -41.0568      18 -40.6840      19 -41.0402      20 -41.0603
      21 -41.0558      22 -40.6841      23 -40.6999      24 -40.7000      25 -41.0556
      26 -41.0605
 
 
 
 E-fermi :  -5.3481     XC(G=0):  -0.6115     alpha+bet : -0.3265


 k-point     1 :       0.0000    0.0000    0.0000
  band No.  band energies     occupation 
      1     -15.4962      2.00000
      2     -14.6311      2.00000
      3     -14.2591      2.00000
      4     -14.1394      2.00000
      5     -13.4144      2.00000
      6     -13.0465      2.00000
      7     -11.9506      2.00000
      8     -11.6377      2.00000
      9     -11.4696      2.00000
     10     -10.5243      2.00000
     11      -8.9759      2.00000
     12      -8.6394      2.00000
     13      -8.6369      2.00000
     14      -8.6276      2.00000
     15      -8.1776      2.00000
     16      -8.1721      2.00000
     17      -8.1678      2.00000
     18      -7.8593      2.00000
     19      -7.8475      2.00000
     20      -7.8455      2.00000
     21      -6.7589      2.00000
     22      -6.7444      2.00000
     23      -6.4653      2.00000
     24      -6.4301      2.00000
     25      -6.4232      2.00000
     26      -6.3303      2.00000
     27      -6.3227      2.00000
     28      -6.3126      2.00000
     29      -1.6508      0.00000
     30      -1.3203      0.00000
     31      -1.1517      0.00000
     32      -1.1172      0.00000
     33      -1.0903      0.00000
     34      -1.0618      0.00000
     35      -1.0417      0.00000
     36      -1.0154      0.00000
     37      -1.0010      0.00000
     38      -0.6619      0.00000
     39      -0.2687      0.00000
     40      -0.2480      0.00000
     41      -0.1348      0.00000
     42      -0.1110      0.00000


--------------------------------------------------------------------------------------------------------


 soft charge-density along one line, spin component           1
         0         1         2         3         4         5         6         7         8         9
 total charge-density along one line
 
 pseudopotential strength for first ion, spin component:           1
 19.618  27.377  -0.001   0.003   0.003  -0.001   0.006   0.005
 27.377  38.210  -0.001   0.004   0.003  -0.001   0.008   0.006
 -0.001  -0.001   4.360   0.000  -0.000   8.133   0.000  -0.000
  0.003   0.004   0.000   4.359   0.000   0.000   8.132   0.000
  0.003   0.003  -0.000   0.000   4.359  -0.000   0.000   8.132
 -0.001  -0.001   8.133   0.000  -0.000  15.181   0.001  -0.000
  0.006   0.008   0.000   8.132   0.000   0.001  15.179   0.001
  0.005   0.006  -0.000   0.000   8.132  -0.000   0.001  15.180
 total augmentation occupancy for first ion, spin component:           1
  5.534  -2.027   0.070  -0.341  -0.067  -0.021   0.102   0.020
 -2.027   0.809  -0.043   0.207   0.037   0.009  -0.045  -0.007
  0.070  -0.043   2.800  -0.107  -0.008  -0.604   0.037   0.003
 -0.341   0.207  -0.107   3.281   0.048   0.037  -0.773  -0.019
 -0.067   0.037  -0.008   0.048   2.822   0.003  -0.019  -0.608
 -0.021   0.009  -0.604   0.037   0.003   0.138  -0.010  -0.001
  0.102  -0.045   0.037  -0.773  -0.019  -0.010   0.185   0.006
  0.020  -0.007   0.003  -0.019  -0.608  -0.001   0.006   0.138


------------------------ aborting loop because EDIFF is reached ----------------------------------------


    CHARGE:  cpu time    0.2380: real time    0.2380
    FORLOC:  cpu time    0.1270: real time    0.1264
    FORNL :  cpu time    0.8969: real time    0.8972
    STRESS:  cpu time    3.0295: real time    3.0272
    FORCOR:  cpu time    0.9998: real time    0.9993
    FORHAR:  cpu time    0.3509: real time    0.3507
    MIXING:  cpu time    0.0920: real time    0.0925
    OFIELD:  cpu time    0.0000: real time    0.0000

  FORCE on cell =-STRESS in cart. coord.  units (eV):
  Direction    XX          YY          ZZ          XY          YZ          ZX
  --------------------------------------------------------------------------------------
  Alpha Z     2.79095     2.79095     2.79095
  Ewald     876.64706   876.62235   876.71007    -0.21850     0.02563    -0.50464
  Hartree  1186.98242  1185.71399  1186.77752    -0.18413    -0.16057    -0.34463
  E(xc)    -181.77056  -181.76954  -181.76666     0.00062    -0.00088    -0.00318
  Local   -2536.44413 -2535.18525 -2536.29796     0.40544     0.12578     0.84671
  n-local   221.99544   222.09576   221.99365    -0.00661     0.02376     0.00512
  augment    -6.94782    -6.96118    -6.94065     0.00176    -0.00470    -0.00469
  Kinetic   437.91401   437.82183   437.88851     0.00154    -0.01402     0.01586
  Fock        0.00000     0.00000     0.00000     0.00000     0.00000     0.00000
  -------------------------------------------------------------------------------------
  Total       1.16737     1.12890     1.15542     0.00012    -0.00500     0.01055
  in kB       0.23379     0.22609     0.23140     0.00002    -0.00100     0.00211
  external pressure =        0.23 kB  Pullay stress =        0.00 kB


 VOLUME and BASIS-vectors are now :
 -----------------------------------------------------------------------------
  energy-cutoff  :      400.00
[...]
    SETDIJ:  cpu time    0.0070: real time    0.0064
     EDDAV:  cpu time    4.4693: real time    4.4758
       DOS:  cpu time    0.0010: real time    0.0003
    CHARGE:  cpu time    0.2280: real time    0.2295
    MIXING:  cpu time    0.0240: real time    0.0240
    --------------------------------------------
      LOOP:  cpu time    5.6971: real time    5.7072

 eigenvalue-minimisations  :   120
 total energy-change (2. order) :-0.1791294E-04  (-0.2144780E-04)
 number of electron      56.0000001 magnetization 
 augmentation part       -4.7069185 magnetization 

 Broyden mixing:
  rms(total) = 0.11851E-02    rms(broyden)= 0.11849E-02
  rms(prec ) = 0.12748E-02
  weight for this iteration     100.00

 eigenvalues of (default mixing * dielectric matrix)
  average eigenvalue GAMMA=   1.1018
  1.1018

 Free energy of the ion-electron system (eV)
  ---------------------------------------------------
  alpha Z        PSCENC =         2.79095307
  Ewald energy   TEWEN  =      2576.19582342
  -Hartree energ DENC   =     -3506.96353704
  -exchange      EXHF   =         0.00000000
  -V(xc)+E(xc)   XCENC  =       -37.17979679
  PAW double counting   =      3450.66774582    -3298.60723402
  entropy T*S    EENTRO =        -0.00000000
  eigenvalues    EBANDS =      -529.46225919
  atomic energy  EATOM  =      1243.82505112
  Solvation  Ediel_sol  =         0.00000000
  ---------------------------------------------------
  free energy    TOTEN  =       -98.73325361 eV

  energy without entropy =      -98.73325361  energy(sigma->0) =      -98.73325361


--------------------------------------------------------------------------------------------------------




--------------------------------------- Iteration     20(   3)  ---------------------------------------


    POTLOK:  cpu time    0.9669: real time    0.9675
    SETDIJ:  cpu time    0.0060: real time    0.0061
     EDDAV:  cpu time    4.4623: real time    4.4688
       DOS:  cpu time    0.0010: real time    0.0003
    CHARGE:  cpu time    0.2290: real time    0.2294
    MIXING:  cpu time    0.0250: real time    0.0248
    --------------------------------------------
      LOOP:  cpu time    5.6901: real time    5.6969

 eigenvalue-minimisations  :   120
 total energy-change (2. order) : 0.1015078E-05  (-0.6883640E-06)
 number of electron      56.0000001 magnetization 
 augmentation part       -4.7068827 magnetization 

 Broyden mixing:
  rms(total) = 0.63163E-03    rms(broyden)= 0.63161E-03
  rms(prec ) = 0.67067E-03
  weight for this iteration     100.00

 eigenvalues of (default mixing * dielectric matrix)
  average eigenvalue GAMMA=   1.5506
  1.0867  2.0145

 Free energy of the ion-electron system (eV)
  ---------------------------------------------------
  alpha Z        PSCENC =         2.79095307
  Ewald energy   TEWEN  =      2576.19582342
  -Hartree energ DENC   =     -3506.96889442
  -exchange      EXHF   =         0.00000000
  -V(xc)+E(xc)   XCENC  =       -37.17990230
  PAW double counting   =      3450.75992469    -3298.69959222
  entropy T*S    EENTRO =        -0.00000000
  eigenvalues    EBANDS =      -529.45661595
  atomic energy  EATOM  =      1243.82505112
  Solvation  Ediel_sol  =         0.00000000
  ---------------------------------------------------
  free energy    TOTEN  =       -98.73325260 eV

  energy without entropy =      -98.73325260  energy(sigma->0) =      -98.73325260


--------------------------------------------------------------------------------------------------------




--------------------------------------- Iteration     20(   4)  ---------------------------------------


    POTLOK:  cpu time    0.9639: real time    0.9661
    SETDIJ:  cpu time    0.0060: real time    0.0062
     EDDAV:  cpu time    3.2885: real time    3.2947
       DOS:  cpu time    0.0000: real time    0.0002
    --------------------------------------------
      LOOP:  cpu time    4.2584: real time    4.2672

 eigenvalue-minimisations  :    80
 total energy-change (2. order) :-0.2254155E-06  (-0.1921317E-06)
 number of electron      56.0000001 magnetization 
 augmentation part       -4.7068827 magnetization 

 Free energy of the ion-electron system (eV)
  ---------------------------------------------------
  alpha Z        PSCENC =         2.79095307
  Ewald energy   TEWEN  =      2576.19582342
  -Hartree energ DENC   =     -3506.97320416
  -exchange      EXHF   =         0.00000000
  -V(xc)+E(xc)   XCENC  =       -37.17986429
  PAW double counting   =      3450.91589873    -3298.85567881
  entropy T*S    EENTRO =        -0.00000000
  eigenvalues    EBANDS =      -529.45223189
  atomic energy  EATOM  =      1243.82505112
  Solvation  Ediel_sol  =         0.00000000
  ---------------------------------------------------
  free energy    TOTEN  =       -98.73325282 eV

  energy without entropy =      -98.73325282  energy(sigma->0) =      -98.73325282


--------------------------------------------------------------------------------------------------------




 average (electrostatic) potential at core
  the test charge radii are     0.9892  1.1631  0.5201
  (the norm of the test charge is              1.0000)
       1 -93.4315       2 -93.2989       3 -93.4315       4 -40.4474       5 -40.4473
       6 -40.5272       7 -40.5270       8 -40.4936       9 -40.4474      10 -40.4474
      11 -40.9949      12 -40.9954      13 -41.0282      14 -40.9901      15 -40.9909
      16 -40.9954      17 -40.9950      18 -40.9108      19 -41.0278      20 -40.9956
      21 -40.9949      22 -40.9111      23 -40.8619      24 -40.8627      25 -40.9955
      26 -40.9955
 
 
 
 E-fermi :  -5.3188     XC(G=0):  -0.6107     alpha+bet : -0.3265


 k-point     1 :       0.0000    0.0000    0.0000
  band No.  band energies     occupation 
      1     -15.2738      2.00000
      2     -14.4161      2.00000
      3     -14.2133      2.00000
      4     -14.1345      2.00000
      5     -13.3369      2.00000
      6     -13.1159      2.00000
      7     -11.9543      2.00000
      8     -11.7022      2.00000
      9     -11.5875      2.00000
     10     -10.6520      2.00000
     11      -8.9762      2.00000
     12      -8.6494      2.00000
     13      -8.5227      2.00000
     14      -8.4939      2.00000
     15      -8.1368      2.00000
     16      -8.0835      2.00000
     17      -8.0566      2.00000
     18      -7.9110      2.00000
     19      -7.8773      2.00000
     20      -7.8071      2.00000
     21      -6.8204      2.00000
     22      -6.7769      2.00000
     23      -6.5598      2.00000
     24      -6.4155      2.00000
     25      -6.3498      2.00000
     26      -6.3315      2.00000
     27      -6.2878      2.00000
     28      -6.2833      2.00000
     29      -1.6081      0.00000
     30      -1.4206      0.00000
     31      -1.3619      0.00000
     32      -1.3396      0.00000
     33      -1.2077      0.00000
     34      -1.1558      0.00000
     35      -1.1438      0.00000
     36      -1.0434      0.00000
     37      -1.0360      0.00000
     38      -0.6191      0.00000
     39      -0.2876      0.00000
     40      -0.2177      0.00000
     41      -0.1122      0.00000
     42      -0.0947      0.00000


--------------------------------------------------------------------------------------------------------


 soft charge-density along one line, spin component           1
         0         1         2         3         4         5         6         7         8         9
 total charge-density along one line
 
 pseudopotential strength for first ion, spin component:           1
 19.623  27.384  -0.001   0.003   0.003  -0.001   0.006   0.005
 27.384  38.220  -0.001   0.004   0.004  -0.001   0.008   0.007
 -0.001  -0.001   4.362   0.000  -0.000   8.137   0.000  -0.000
  0.003   0.004   0.000   4.362   0.000   0.000   8.137   0.000
  0.003   0.004  -0.000   0.000   4.361  -0.000   0.000   8.136
 -0.001  -0.001   8.137   0.000  -0.000  15.188   0.000  -0.000
  0.006   0.008   0.000   8.137   0.000   0.000  15.188   0.001
  0.005   0.007  -0.000   0.000   8.136  -0.000   0.001  15.187
 total augmentation occupancy for first ion, spin component:           1
  5.748  -2.141   0.095  -0.487  -0.188  -0.029   0.151   0.061
 -2.141   0.862  -0.055   0.278   0.094   0.013  -0.068  -0.025
  0.095  -0.055   2.781  -0.159   0.001  -0.602   0.052   0.001
 -0.487   0.278  -0.159   3.490   0.037   0.052  -0.833  -0.017
 -0.188   0.094   0.001   0.037   2.905   0.001  -0.017  -0.633
 -0.029   0.013  -0.602   0.052   0.001   0.137  -0.014  -0.001
  0.151  -0.068   0.052  -0.833  -0.017  -0.014   0.202   0.006
  0.061  -0.025   0.001  -0.017  -0.633  -0.001   0.006   0.144


------------------------ aborting loop because EDIFF is reached ----------------------------------------


    CHARGE:  cpu time    0.2280: real time    0.2287
    FORLOC:  cpu time    0.1260: real time    0.1259
    FORNL :  cpu time    0.8479: real time    0.8468
    STRESS:  cpu time    3.0725: real time    3.0707
    FORCOR:  cpu time    1.0008: real time    1.0011
    FORHAR:  cpu time    0.3519: real time    0.3518
    MIXING:  cpu time    0.0250: real time    0.0257
    OFIELD:  cpu time    0.0000: real time    0.0000

  FORCE on cell =-STRESS in cart. coord.  units (eV):
  Direction    XX          YY          ZZ          XY          YZ          ZX
  --------------------------------------------------------------------------------------
  Alpha Z     2.79095     2.79095     2.79095
  Ewald     861.60971   855.18716   859.39732    -0.18636    -0.77178     0.70490
  Hartree  1171.79751  1165.41380  1169.76224    -0.15214    -0.82136     0.60634
  E(xc)    -181.22622  -181.26893  -181.22704     0.00261    -0.00970    -0.00038
  Local   -2505.53434 -2492.19808 -2501.41600     0.28255     1.75108    -1.20014
  n-local   219.97862   219.99017   220.16544     0.02997    -0.04715    -0.13951
  augment    -7.17315    -7.11612    -7.19298    -0.00699     0.01851     0.01630
  Kinetic   436.88790   436.15303   436.88760     0.04939    -0.17161    -0.02110
  Fock        0.00000     0.00000     0.00000     0.00000     0.00000     0.00000
  -------------------------------------------------------------------------------------
  Total      -0.86901    -1.04803    -0.83249     0.01903    -0.05203    -0.03358
  in kB      -0.17404    -0.20989    -0.16672     0.00381    -0.01042    -0.00673
  external pressure =       -0.18 kB  Pullay stress =        0.00 kB


 VOLUME and BASIS-vectors are now :
 -----------------------------------------------------------------------------
  energy-cutoff  :      400.00
  volume of cell :     8000.00
      direct lattice vectors                 reciprocal lattice vectors
    20.000000000  0.000000000  0.000000000     0.050000000  0.000000000  0.000000000
     0.000000000 20.000000000  0.000000000     0.000000000  0.050000000  0.000000000
     0.000000000  0.000000000 20.000000000     0.000000000  0.000000000  0.050000000

  length of vectors
    20.000000000 20.000000000 20.000000000     0.050000000  0.050000000  0.050000000


 FORCES acting on ions
    electron-ion (+dipol)            ewald-force                    non-local-force                 convergence-correction
 -----------------------------------------------------------------------------------------------
   0.905E+01 -.182E+02 0.860E+02   -.101E+02 0.185E+02 -.876E+02   0.106E+01 -.278E+00 0.156E+01   0.738E-03 0.617E-04 -.185E-03
   0.862E+02 -.506E+01 0.456E+02   -.877E+02 0.515E+01 -.464E+02   0.157E+01 -.899E-01 0.828E+00   -.557E-04 -.160E-04 -.366E-04
   0.775E+02 0.132E+02 -.406E+02   -.794E+02 -.133E+02 0.405E+02   0.191E+01 0.105E+00 0.656E-02   0.287E-03 -.151E-03 0.692E-03
   -.375E+02 0.538E+02 0.733E+02   0.377E+02 -.541E+02 -.741E+02   -.207E+00 0.305E+00 0.858E+00   -.316E-04 0.719E-03 -.325E-03
   -.298E+02 -.827E+02 0.438E+02   0.300E+02 0.834E+02 -.444E+02   -.153E+00 -.653E+00 0.649E+00   0.489E-04 -.539E-03 -.596E-03
   -.511E+02 0.748E+02 -.913E+01   0.515E+02 -.754E+02 0.919E+01   -.381E+00 0.605E+00 -.575E-01   -.351E-03 0.692E-03 -.231E-05
   -.430E+02 -.693E+02 -.405E+02   0.434E+02 0.699E+02 0.408E+02   -.316E+00 -.564E+00 -.311E+00   -.263E-03 -.678E-03 -.294E-03
   -.852E+02 0.501E+01 -.451E+02   0.862E+02 -.507E+01 0.456E+02   -.933E+00 0.540E-01 -.491E+00   -.172E-03 0.391E-06 -.761E-04
   0.269E+02 0.829E+02 -.453E+02   -.274E+02 -.836E+02 0.457E+02   0.507E+00 0.632E+00 -.463E+00   -.400E-03 0.542E-03 0.394E-03
   0.345E+02 -.536E+02 -.748E+02   -.351E+02 0.539E+02 0.755E+02   0.561E+00 -.326E+00 -.670E+00   -.331E-03 -.713E-03 0.136E-03
   0.200E+02 0.395E+02 0.560E+01   -.211E+02 -.414E+02 -.666E+01   0.116E+01 0.196E+01 0.106E+01   -.810E-04 0.337E-04 0.594E-04
   0.138E+01 0.214E+02 -.391E+02   -.110E+01 -.219E+02 0.416E+02   -.284E+00 0.542E+00 -.244E+01   -.645E-04 0.105E-03 -.227E-04
   -.252E+02 0.382E+02 -.419E+01   0.266E+02 -.402E+02 0.441E+01   -.134E+01 0.206E+01 -.217E+00   0.637E-04 -.233E-04 0.294E-04
   -.435E+02 -.363E+01 0.536E+01   0.458E+02 0.398E+01 -.641E+01   -.226E+01 -.353E+00 0.105E+01   -.580E-04 0.113E-04 -.714E-04
   -.198E+02 0.735E+01 -.389E+02   0.202E+02 -.786E+01 0.413E+02   -.375E+00 0.507E+00 -.243E+01   -.910E-04 -.524E-05 -.903E-05
   -.348E+02 0.490E+01 0.275E+02   0.370E+02 -.455E+01 -.287E+02   -.222E+01 -.342E+00 0.113E+01   -.783E-04 0.100E-03 -.722E-05
   0.793E+01 0.342E+02 0.277E+02   -.905E+01 -.361E+02 -.289E+02   0.111E+01 0.194E+01 0.114E+01   -.891E-05 0.662E-04 -.825E-04
   0.701E+01 -.986E+01 0.469E+02   -.745E+01 0.105E+02 -.497E+02   0.434E+00 -.588E+00 0.282E+01   0.222E-03 -.147E-04 0.106E-03
   -.211E+02 -.355E+02 -.202E+02   0.222E+02 0.374E+02 0.213E+02   -.112E+01 -.192E+01 -.108E+01   0.623E-04 0.132E-04 0.404E-04
   0.275E+01 -.303E+01 -.443E+02   -.247E+01 0.253E+01 0.467E+02   -.281E+00 0.488E+00 -.245E+01   -.552E-04 -.936E-04 -.621E-04
   0.242E+02 -.360E+02 -.108E+02   -.256E+02 0.381E+02 0.107E+02   0.139E+01 -.209E+01 0.178E+00   -.768E-04 -.621E-04 0.394E-04
   0.434E+02 0.691E+01 -.205E+02   -.460E+02 -.732E+01 0.217E+02   0.262E+01 0.411E+00 -.121E+01   0.218E-03 -.176E-04 0.124E-03
   0.320E+02 0.250E+02 0.236E+02   -.334E+02 -.273E+02 -.249E+02   0.141E+01 0.223E+01 0.132E+01   -.204E-03 -.778E-04 -.131E-03
   0.350E+02 -.290E+02 0.119E+02   -.367E+02 0.314E+02 -.122E+02   0.167E+01 -.241E+01 0.309E+00   -.215E-03 0.946E-04 -.928E-04
   0.122E+02 -.413E+02 0.114E+02   -.135E+02 0.434E+02 -.116E+02   0.134E+01 -.211E+01 0.263E+00   -.323E-05 -.289E-04 -.106E-03
   -.335E+02 -.195E+02 0.223E+02   0.357E+02 0.199E+02 -.234E+02   -.222E+01 -.395E+00 0.112E+01   -.646E-04 -.986E-04 -.499E-04
 -----------------------------------------------------------------------------------------------
   -.466E+01 0.272E+00 -.246E+01   -.142E-13 -.568E-13 -.568E-13   0.466E+01 -.270E+00 0.246E+01   -.965E-03 -.795E-04 -.530E-03
 
 
 POSITION                                       TOTAL-FORCE (eV/Angst)
 -----------------------------------------------------------------------------------
      9.47360     11.12512      7.68388        -0.006403      0.000039     -0.001825
      7.39586     10.78046      8.73574         0.013964     -0.000627      0.007105
      7.66464     10.29864     11.02431        -0.005148      0.000597     -0.004102
     10.83032      9.14980      7.87848         0.003107     -0.000151      0.002854
     10.61597     12.97567      8.70899         0.003104     -0.000809      0.002730
     11.17799      8.61680     10.24854         0.001787      0.006540      0.002462
     10.95957     12.51485     11.09469         0.002709     -0.006760     -0.000253
     12.32869     10.49228     11.33569         0.005060     -0.000272      0.002877
      8.98023      8.30450     11.29460         0.003933      0.000391      0.000999
      8.76597     12.13031     12.12535         0.003990     -0.000443      0.000909
      8.25915      7.08965     10.63741        -0.002585      0.004156     -0.005050
      9.15559      7.97156     12.80610        -0.002689      0.007130      0.005298
     12.02799      7.31276     10.38624        -0.004216      0.005329     -0.000777
     13.72812     10.71139     10.68694         0.003250      0.001120     -0.004239
     12.56037     10.17812     12.84396        -0.002251     -0.001141      0.005401
     12.20412      9.36476      7.17655         0.001422      0.008978     -0.002115
     10.13632      7.94755      7.17091        -0.006192      0.002498      0.001500
      9.24970     11.42799      6.23047        -0.004737      0.001971     -0.010348
     11.66830     13.72798     11.77881        -0.003461     -0.004886     -0.003030
      8.93979     11.82509     13.64288        -0.001644     -0.009014      0.001887
      7.90434     13.42361     12.01278        -0.002279     -0.002108     -0.006031
      6.31566     10.08748     11.64870        -0.011298     -0.000891      0.001414
      6.67984      9.64449      8.06711         0.006652      0.005759      0.005099
      6.54733     12.00763      8.57984         0.007304     -0.006638      0.002239
      9.78167     14.28146      8.54630        -0.005710     -0.003575      0.000570
     11.98826     13.21806      8.01309         0.002331     -0.007193     -0.005575
 -----------------------------------------------------------------------------------
    total drift:                                0.002899      0.001863      0.000556


--------------------------------------------------------------------------------------------------------



  FREE ENERGIE OF THE ION-ELECTRON SYSTEM (eV)
  ---------------------------------------------------
  free  energy   TOTEN  =       -98.73325282 eV

  energy  without entropy=      -98.73325282  energy(sigma->0) =      -98.73325282
 
 d Force = 0.1234819E-03[ 0.527E-04, 0.194E-03]  d Energy = 0.1251100E-03-0.163E-05
 d Force =-0.2887762E+00[-0.289E+00,-0.289E+00]  d Ewald  =-0.2887762E+00 0.456E-07


--------------------------------------------------------------------------------------------------------


    POTLOK:  cpu time    0.9769: real time    0.9756


--------------------------------------------------------------------------------------------------------


 Conjugate gradient step on ions:
 trial-energy change:   -0.000125  1 .order   -0.000123   -0.000194   -0.000053
  (g-gl).g = 0.173E-03      g.g   = 0.163E-03  gl.gl    = 0.568E-03
 g(Force)  = 0.163E-03   g(Stress)= 0.000E+00 ortho     =-0.767E-05
 gamma     =   0.30369
 trial     =   1.20886
 opt step  =   1.65941  (harmonic =   1.65941) maximal distance =0.00183846
 next E    =   -98.733261   (d E  =  -0.00013)


--------------------------------------------------------------------------------------------------------


  
 reached required accuracy - stopping structural energy minimisation
 writing wavefunctions
     LOOP+:  cpu time   27.2899: real time   27.7786
    4ORBIT:  cpu time    0.0000: real time    0.0000

 total amount of memory used by VASP MPI-rank0   131440. kBytes
=======================================================================

   base      :      30000. kBytes
   nonl-proj :      17624. kBytes
   fftplans  :      26957. kBytes
   grid      :      48673. kBytes
   one-center:         40. kBytes
   wavefun   :       8146. kBytes
 
  
  
 General timing and accounting informations for this job:
 ========================================================
  
                  Total CPU time used (sec):     1180.066
                            User time (sec):     1156.686
                          System time (sec):       23.379
                         Elapsed time (sec):     1184.445
  
                   Maximum memory used (kb):      184056.
                   Average memory used (kb):           0.
  
                          Minor page faults:      6261911
                          Major page faults:           11
                 Voluntary context switches:         6729
