 vasp.5.4.4.18Apr17-6-g9f103f2a35 (build Nov 06 2017 19:16:10) complex          
  
 executed on           IFC91_ompi date 2018.07.12  11:34:23
 running on   12 total cores
 distrk:  each k-point on   12 cores,    1 groups
 distr:  one band on NCORES_PER_BAND=   6 cores,    2 groups


--------------------------------------------------------------------------------------------------------


 INCAR:
 POTCAR:    PAW_PBE Si 05Jan2001                  
 POTCAR:    PAW_PBE Ge 05Jan2001                  
 POTCAR:    PAW_PBE H 15Jun2001                   
 POTCAR:    PAW_PBE Si 05Jan2001                  
   VRHFIN =Si: s2p2                                                             
   LEXCH  = PE                                                                  
   EATOM  =   103.0669 eV,    7.5752 Ry                                         
                                                                                
   TITEL  = PAW_PBE Si 05Jan2001                                                
   LULTRA =        F    use ultrasoft PP ?                                      
   IUNSCR =        1    unscreen: 0-lin 1-nonlin 2-no                           
   RPACOR =    1.500    partial core radius                                     
   POMASS =   28.085; ZVAL   =    4.000    mass and valenz                      
   RCORE  =    1.900    outmost cutoff radius                                   
   RWIGS  =    2.480; RWIGS  =    1.312    wigner-seitz radius (au A)           
   ENMAX  =  245.345; ENMIN  =  184.009 eV                                      
   ICORE  =        2    local potential                                         
   LCOR   =        T    correct aug charges                                     
   LPAW   =        T    paw PP                                                  
   EAUG   =  322.069                                                            
   DEXC   =    0.000                                                            
   RMAX   =    1.950    core radius for proj-oper                               
   RAUG   =    1.300    factor for augmentation sphere                          
   RDEP   =    1.993    radius for radial grids                                 
   RDEPT  =    1.837    core radius for aug-charge                              
                                                                                
   Atomic configuration                                                         
    6 entries                                                                   
     n  l   j            E        occ.                                          
     1  0  0.50     -1785.8828   2.0000                                         
     2  0  0.50      -139.4969   2.0000                                         
     2  1  1.50       -95.5546   6.0000                                         
     3  0  0.50       -10.8127   2.0000                                         
     3  1  0.50        -4.0811   2.0000                                         
     3  2  1.50        -4.0817   0.0000                                         
   Description                                                                  
     l       E           TYP  RCUT    TYP  RCUT                                 
     0    -10.8127223     23  1.900                                             
     0     -7.6451159     23  1.900                                             
     1     -4.0811372     23  1.900                                             
     1      2.4879257     23  1.900                                             
     2     -4.0817478      7  1.900                                             
  local pseudopotential read in
  partial core-charges read in
  partial kinetic energy density read in
  atomic valenz-charges read in
  non local Contribution for L=           0  read in
    real space projection operators read in
  non local Contribution for L=           0  read in
    real space projection operators read in
  non local Contribution for L=           1  read in
    real space projection operators read in
  non local Contribution for L=           1  read in
    real space projection operators read in
    PAW grid and wavefunctions read in
 
   number of l-projection  operators is LMAX  =           4
   number of lm-projection operators is LMMAX =           8
 
 POTCAR:    PAW_PBE Ge 05Jan2001                  
   VRHFIN =Ge: s2p2                                                             
   LEXCH  = PE                                                                  
   EATOM  =   104.9960 eV,    7.7170 Ry                                         
                                                                                
   TITEL  = PAW_PBE Ge 05Jan2001                                                
   LULTRA =        F    use ultrasoft PP ?                                      
   IUNSCR =        1    unscreen: 0-lin 1-nonlin 2-no                           
   RPACOR =    2.170    partial core radius                                     
   POMASS =   72.610; ZVAL   =    4.000    mass and valenz                      
   RCORE  =    2.300    outmost cutoff radius                                   
   RWIGS  =    2.300; RWIGS  =    1.217    wigner-seitz radius (au A)           
   ENMAX  =  173.807; ENMIN  =  130.355 eV                                      
   ICORE  =        3    local potential                                         
   LCOR   =        T    correct aug charges                                     
   LPAW   =        T    paw PP                                                  
   EAUG   =  385.843                                                            
   DEXC   =    0.000                                                            
   RMAX   =    2.342    core radius for proj-oper                               
   RAUG   =    1.300    factor for augmentation sphere                          
   RDEP   =    2.318    radius for radial grids                                 
   RDEPT  =    2.103    core radius for aug-charge                              
                                                                                
   Atomic configuration                                                         
   10 entries                                                                   
     n  l   j            E        occ.                                          
     1  0  0.50    -10959.8463   2.0000                                         
     2  0  0.50     -1371.6056   2.0000                                         
     2  1  1.50     -1198.4791   6.0000                                         
     3  0  0.50      -168.4733   2.0000                                         
     3  1  1.50      -115.6019   6.0000                                         
     3  2  2.50       -29.3106  10.0000                                         
     4  0  0.50       -11.7309   2.0000                                         
     4  1  0.50        -3.8952   2.0000                                         
     4  2  1.50        -4.0817   0.0000                                         
     4  3  2.50        -4.0817   0.0000                                         
   Description                                                                  
     l       E           TYP  RCUT    TYP  RCUT                                 
     0    -11.7309493     23  2.300                                             
     0     -7.4578696     23  2.300                                             
     1     -3.8952261     23  2.300                                             
     1      6.1178114     23  2.300                                             
     2     -4.0817478     23  2.300                                             
     3     -1.3605826      7  2.300                                             
  local pseudopotential read in
  partial core-charges read in
  partial kinetic energy density read in
  atomic valenz-charges read in
  non local Contribution for L=           0  read in
    real space projection operators read in
  non local Contribution for L=           0  read in
    real space projection operators read in
  non local Contribution for L=           1  read in
    real space projection operators read in
  non local Contribution for L=           1  read in
    real space projection operators read in
  non local Contribution for L=           2  read in
    real space projection operators read in
    PAW grid and wavefunctions read in
 
   number of l-projection  operators is LMAX  =           5
   number of lm-projection operators is LMMAX =          13
 
 POTCAR:    PAW_PBE H 15Jun2001                   
   VRHFIN =H: ultrasoft test                                                    
   LEXCH  = PE                                                                  
   EATOM  =    12.4884 eV,    0.9179 Ry                                         
                                                                                
   TITEL  = PAW_PBE H 15Jun2001                                                 
   LULTRA =        F    use ultrasoft PP ?                                      
   IUNSCR =        0    unscreen: 0-lin 1-nonlin 2-no                           
   RPACOR =    0.000    partial core radius                                     
   POMASS =    1.000; ZVAL   =    1.000    mass and valenz                      
   RCORE  =    1.100    outmost cutoff radius                                   
   RWIGS  =    0.700; RWIGS  =    0.370    wigner-seitz radius (au A)           
   ENMAX  =  250.000; ENMIN  =  200.000 eV                                      
   RCLOC  =    0.701    cutoff for local pot                                    
   LCOR   =        T    correct aug charges                                     
   LPAW   =        T    paw PP                                                  
   EAUG   =  400.000                                                            
   RMAX   =    1.123    core radius for proj-oper                               
   RAUG   =    1.200    factor for augmentation sphere                          
   RDEP   =    1.112    radius for radial grids                                 
   RDEPT  =    0.926    core radius for aug-charge                              
                                                                                
   Atomic configuration                                                         
    2 entries                                                                   
     n  l   j            E        occ.                                          
     1  0  0.50        -6.4927   1.0000                                         
     2  1  0.50        -3.4015   0.0000                                         
   Description                                                                  
     l       E           TYP  RCUT    TYP  RCUT                                 
     0     -6.4927494     23  1.100                                             
     0      6.8029130     23  1.100                                             
     1     -4.0817478     23  1.100                                             
  local pseudopotential read in
  atomic valenz-charges read in
  non local Contribution for L=           0  read in
    real space projection operators read in
  non local Contribution for L=           0  read in
    real space projection operators read in
  non local Contribution for L=           1  read in
    real space projection operators read in
    PAW grid and wavefunctions read in
 
   number of l-projection  operators is LMAX  =           3
   number of lm-projection operators is LMMAX =           5
 

 ----------------------------------------------------------------------------- 
|                                                                             |
|  ADVICE TO THIS USER RUNNING 'VASP/VAMP'   (HEAR YOUR MASTER'S VOICE ...):  |
|                                                                             |
|      You have a (more or less) 'large supercell' and for larger cells       |
|      it might be more efficient to use real space projection opertators     |
|      So try LREAL= Auto  in the INCAR   file.                               |
|      Mind:          For very  accurate calculation you might also keep the  |
|      reciprocal projection scheme          (i.e. LREAL=.FALSE.)             |
|                                                                             |
 ----------------------------------------------------------------------------- 

  PAW_PBE Si 05Jan2001                  :
 energy of atom  1       EATOM= -103.0669
 kinetic energy error for atom=    0.0012 (will be added to EATOM!!)
  PAW_PBE Ge 05Jan2001                  :
 energy of atom  2       EATOM= -104.9960
 kinetic energy error for atom=    0.0003 (will be added to EATOM!!)
  PAW_PBE H 15Jun2001                   :
 energy of atom  3       EATOM=  -12.4884
 kinetic energy error for atom=    0.0098 (will be added to EATOM!!)
 
 
 POSCAR: SiGeH16                                 
  positions in direct lattice
  No initial velocities read in
 exchange correlation table for  LEXCH =        8
   RHO(1)=    0.500       N(1)  =     2000
   RHO(2)=  100.500       N(2)  =     4000
 


--------------------------------------------------------------------------------------------------------


 ion  position               nearest neighbor table
   1  0.475  0.556  0.385-  18 1.55   5 2.39   2 2.39   3 2.39
   2  0.369  0.539  0.436-  23 1.55  24 1.55   6 2.39   1 2.39
   3  0.542  0.457  0.396-  17 1.55  16 1.55   7 2.39   1 2.39
   4  0.451  0.416  0.564-  12 1.55  11 1.55   6 2.39   7 2.39
   5  0.531  0.648  0.437-  25 1.55  26 1.55   8 2.39   1 2.39
   6  0.385  0.515  0.552-  22 1.55  10 2.39   4 2.39   2 2.39
   7  0.557  0.433  0.512-  13 1.55   3 2.39   9 2.39   4 2.39
   8  0.547  0.624  0.554-  19 1.55   5 2.39   9 2.39  10 2.39
   9  0.613  0.525  0.565-  15 1.55  14 1.55   8 2.39   7 2.39
  10  0.440  0.606  0.605-  20 1.55  21 1.55   6 2.39   8 2.39
  11  0.415  0.357  0.529-   4 1.55
  12  0.461  0.400  0.639-   4 1.55
  13  0.600  0.369  0.520-   7 1.55
  14  0.682  0.536  0.531-   9 1.55
  15  0.623  0.509  0.640-   9 1.55
  16  0.611  0.469  0.363-   3 1.55
  17  0.506  0.398  0.362-   3 1.55
  18  0.465  0.572  0.309-   1 1.55
  19  0.583  0.683  0.588-   8 1.55
  20  0.451  0.590  0.680-  10 1.55
  21  0.397  0.670  0.598-  10 1.55
  22  0.316  0.504  0.586-   6 1.55
  23  0.333  0.479  0.402-   2 1.55
  24  0.326  0.603  0.429-   2 1.55
  25  0.488  0.712  0.430-   5 1.55
  26  0.600  0.659  0.404-   5 1.55
 
  LATTYP: Found a simple cubic cell.
 ALAT       =    20.0000000000
  
  Lattice vectors:
  
 A1 = (  20.0000000000,   0.0000000000,   0.0000000000)
 A2 = (   0.0000000000,  20.0000000000,   0.0000000000)
 A3 = (   0.0000000000,   0.0000000000,  20.0000000000)


Analysis of symmetry for initial positions (statically):
=====================================================================
 Subroutine PRICEL returns:
 Original cell was already a primitive cell.
 

 Routine SETGRP: Setting up the symmetry group for a 
 simple cubic supercell.


 Subroutine GETGRP returns: Found  1 space group operations
 (whereof  1 operations were pure point group operations)
 out of a pool of 48 trial point group operations.


The static configuration has the point symmetry C_1 .


Analysis of symmetry for dynamics (positions and initial velocities):
=====================================================================
 Subroutine PRICEL returns:
 Original cell was already a primitive cell.
 

 Routine SETGRP: Setting up the symmetry group for a 
 simple cubic supercell.


 Subroutine GETGRP returns: Found  1 space group operations
 (whereof  1 operations were pure point group operations)
 out of a pool of 48 trial point group operations.


The dynamic configuration has the point symmetry C_1 .


 Subroutine INISYM returns: Found  1 space group operations
 (whereof  1 operations are pure point group operations),
 and found     1 'primitive' translations

 
 
 KPOINTS: Automatic mesh                          

Automatic generation of k-mesh.
Space group operators:
 irot       det(A)        alpha          n_x          n_y          n_z        tau_x        tau_y        tau_z
    1     1.000000     0.000000     1.000000     0.000000     0.000000     0.000000     0.000000     0.000000
 
 Subroutine IBZKPT returns following result:
 ===========================================
 
 Found      1 irreducible k-points:
 
 Following reciprocal coordinates:
            Coordinates               Weight
  0.000000  0.000000  0.000000      1.000000
 
 Following cartesian coordinates:
            Coordinates               Weight
  0.000000  0.000000  0.000000      1.000000
 


--------------------------------------------------------------------------------------------------------




 Dimension of arrays:
   k-points           NKPTS =      1   k-points in BZ     NKDIM =      1   number of bands    NBANDS=     42
   number of dos      NEDOS =    301   number of ions     NIONS =     26
   non local maximal  LDIM  =      5   non local SUM 2l+1 LMDIM =     13
   total plane-waves  NPLWV = 941192
   max r-space proj   IRMAX =      1   max aug-charges    IRDMAX=   6593
   dimension x,y,z NGX =    98 NGY =   98 NGZ =   98
   dimension x,y,z NGXF=   196 NGYF=  196 NGZF=  196
   support grid    NGXF=   196 NGYF=  196 NGZF=  196
   ions per type =               4   6  16
   NGX,Y,Z   is equivalent  to a cutoff of   8.15,  8.15,  8.15 a.u.
   NGXF,Y,Z  is equivalent  to a cutoff of  16.29, 16.29, 16.29 a.u.

 SYSTEM =  SiGe                                    
 POSCAR =  SiGeH16                                 

 Startparameter for this run:
   NWRITE =      2    write-flag & timer
   PREC   = normal    normal or accurate (medium, high low for compatibility)
   ISTART =      0    job   : 0-new  1-cont  2-samecut
   ICHARG =      2    charge: 1-file 2-atom 10-const
   ISPIN  =      1    spin polarized calculation?
   LNONCOLLINEAR =      F non collinear calculations
   LSORBIT =      F    spin-orbit coupling
   INIWAV =      1    electr: 0-lowe 1-rand  2-diag
   LASPH  =      F    aspherical Exc in radial PAW
   METAGGA=      F    non-selfconsistent MetaGGA calc.

 Electronic Relaxation 1
   ENCUT  =  400.0 eV  29.40 Ry    5.42 a.u.  32.61 32.61 32.61*2*pi/ulx,y,z
   ENINI  =  400.0     initial cutoff
   ENAUG  =  400.0 eV  augmentation charge cutoff
   NELM   =     60;   NELMIN=  2; NELMDL= -5     # of ELM steps 
   EDIFF  = 0.1E-05   stopping-criterion for ELM
   LREAL  =      F    real-space projection
   NLSPLINE    = F    spline interpolate recip. space projectors
   LCOMPAT=      F    compatible to vasp.4.4
   GGA_COMPAT  = T    GGA compatible to vasp.4.4-vasp.4.6
   LMAXPAW     = -100 max onsite density
   LMAXMIX     =    2 max onsite mixed and CHGCAR
   VOSKOWN=      0    Vosko Wilk Nusair interpolation
   ROPT   =    0.00000   0.00000   0.00000
 Ionic relaxation
   EDIFFG = -.2E-01   stopping-criterion for IOM
   NSW    =    200    number of steps for IOM
   NBLOCK =      1;   KBLOCK =    200    inner block; outer block 
   IBRION =      2    ionic relax: 0-MD 1-quasi-New 2-CG
   NFREE  =      1    steps in history (QN), initial steepest desc. (CG)
   ISIF   =      2    stress and relaxation
   IWAVPR =     11    prediction:  0-non 1-charg 2-wave 3-comb
   ISYM   =      2    0-nonsym 1-usesym 2-fastsym
   LCORR  =      T    Harris-Foulkes like correction to forces

   POTIM  = 0.5000    time-step for ionic-motion
   TEIN   =    0.0    initial temperature
   TEBEG  =    0.0;   TEEND  =   0.0 temperature during run
   SMASS  =  -3.00    Nose mass-parameter (am)
   estimated Nose-frequenzy (Omega)   =  0.10E-29 period in steps =****** mass=  -0.914E-26a.u.
   SCALEE = 1.0000    scale energy and forces
   NPACO  =    256;   APACO  = 16.0  distance and # of slots for P.C.
   PSTRESS=    0.0 pullay stress

  Mass of Ions in am
   POMASS =  28.09 72.61  1.00
  Ionic Valenz
   ZVAL   =   4.00  4.00  1.00
  Atomic Wigner-Seitz radii
   RWIGS  =  -1.00 -1.00 -1.00
  virtual crystal weights 
   VCA    =   1.00  1.00  1.00
   NELECT =      56.0000    total number of electrons
   NUPDOWN=      -1.0000    fix difference up-down

 DOS related values:
   EMIN   =  10.00;   EMAX   =-10.00  energy-range for DOS
   EFERMI =   0.00
   ISMEAR =     0;   SIGMA  =   0.20  broadening in eV -4-tet -1-fermi 0-gaus

 Electronic relaxation 2 (details)
   IALGO  =     38    algorithm
   LDIAG  =      T    sub-space diagonalisation (order eigenvalues)
   LSUBROT=      F    optimize rotation matrix (better conditioning)
   TURBO    =      0    0=normal 1=particle mesh
   IRESTART =      0    0=no restart 2=restart with 2 vectors
   NREBOOT  =      0    no. of reboots
   NMIN     =      0    reboot dimension
   EREF     =   0.00    reference energy to select bands
   IMIX   =      4    mixing-type and parameters
     AMIX     =   0.40;   BMIX     =  1.00
     AMIX_MAG =   1.60;   BMIX_MAG =  1.00
     AMIN     =   0.10
     WC   =   100.;   INIMIX=   1;  MIXPRE=   1;  MAXMIX= -45

 Intra band minimization:
   WEIMIN = 0.0010     energy-eigenvalue tresh-hold
   EBREAK =  0.60E-08  absolut break condition
   DEPER  =   0.30     relativ break condition  

   TIME   =   0.40     timestep for ELM

  volume/ion in A,a.u.               =     307.69      2076.41
  Fermi-wavevector in a.u.,A,eV,Ry     =   0.313166  0.591797  1.334361  0.098073
  Thomas-Fermi vector in A             =   1.193276
 
 Write flags
   LWAVE        =      T    write WAVECAR
   LDOWNSAMPLE  =      F    k-point downsampling of WAVECAR
   LCHARG       =      T    write CHGCAR
   LVTOT        =      F    write LOCPOT, total local potential
   LVHAR        =      F    write LOCPOT, Hartree potential only
   LELF         =      F    write electronic localiz. function (ELF)
   LORBIT       =      0    0 simple, 1 ext, 2 COOP (PROOUT), +10 PAW based schemes


 Dipole corrections
   LMONO  =      F    monopole corrections only (constant potential shift)
   LDIPOL =      F    correct potential (dipole corrections)
   IDIPOL =      0    1-x, 2-y, 3-z, 4-all directions 
   EPSILON=  1.0000000 bulk dielectric constant

 Exchange correlation treatment:
   GGA     =    --    GGA type
   LEXCH   =     8    internal setting for exchange type
   VOSKOWN=      0    Vosko Wilk Nusair interpolation
   LHFCALC =     F    Hartree Fock is set to
   LHFONE  =     F    Hartree Fock one center treatment
   AEXX    =    0.0000 exact exchange contribution

 Linear response parameters
   LEPSILON=     F    determine dielectric tensor
   LRPA    =     F    only Hartree local field effects (RPA)
   LNABLA  =     F    use nabla operator in PAW spheres
   LVEL    =     F    velocity operator in full k-point grid
   LINTERFAST=   F  fast interpolation
   KINTER  =     0    interpolate to denser k-point grid
   CSHIFT  =0.1000    complex shift for real part using Kramers Kronig
   OMEGAMAX=  -1.0    maximum frequency
   DEG_THRESHOLD= 0.2000000E-02 threshold for treating states as degnerate
   RTIME   =   -0.100 relaxation time in fs
  (WPLASMAI=    0.000 imaginary part of plasma frequency in eV, 0.658/RTIME)
   DFIELD  = 0.0000000 0.0000000 0.0000000 field for delta impulse in time
 
 Orbital magnetization related:
   ORBITALMAG=     F  switch on orbital magnetization
   LCHIMAG   =     F  perturbation theory with respect to B field
   DQ        =  0.001000  dq finite difference perturbation B field
   LLRAUG    =     F  two centre corrections for induced B field



--------------------------------------------------------------------------------------------------------


 conjugate gradient relaxation of ions
 charge density and potential will be updated during run
 non-spin polarized calculation
 Variant of blocked Davidson
 Davidson routine will perform the subspace rotation
 perform sub-space diagonalisation
    after iterative eigenvector-optimisation
 modified Broyden-mixing scheme, WC =      100.0
 initial mixing is a Kerker type mixing with AMIX =  0.4000 and BMIX =      1.0000
 Hartree-type preconditioning will be used
 using additional bands           14
 reciprocal scheme for non local part
 use partial core corrections
 calculate Harris-corrections to forces 
   (improved forces if not selfconsistent)
 use gradient corrections 
 use of overlap-Matrix (Vanderbilt PP)
 Gauss-broadening in eV      SIGMA  =   0.20


--------------------------------------------------------------------------------------------------------


  energy-cutoff  :      400.00
  volume of cell :     8000.00
      direct lattice vectors                 reciprocal lattice vectors
    20.000000000  0.000000000  0.000000000     0.050000000  0.000000000  0.000000000
     0.000000000 20.000000000  0.000000000     0.000000000  0.050000000  0.000000000
     0.000000000  0.000000000 20.000000000     0.000000000  0.000000000  0.050000000

  length of vectors
    20.000000000 20.000000000 20.000000000     0.050000000  0.050000000  0.050000000


 
 k-points in units of 2pi/SCALE and weight: Automatic mesh                          
   0.00000000  0.00000000  0.00000000       1.000
 
 k-points in reciprocal lattice and weights: Automatic mesh                          
   0.00000000  0.00000000  0.00000000       1.000
 
 position of ions in fractional coordinates (direct lattice) 
   0.47547100  0.55626000  0.38465300
   0.36907800  0.53906000  0.43641200
   0.54179100  0.45744600  0.39613600
   0.45095700  0.41593600  0.56388300
   0.53111600  0.64794100  0.43749600
   0.38461900  0.51474100  0.55243500
   0.55736800  0.43311000  0.51215000
   0.54669200  0.62364400  0.55351800
   0.61299700  0.52481700  0.56496600
   0.44028400  0.60643000  0.60524300
   0.41490100  0.35665000  0.52940300
   0.46117000  0.40042600  0.63910800
   0.60034800  0.36907000  0.51957800
   0.68182700  0.53600700  0.53118700
   0.62280400  0.50903400  0.64018900
   0.61080000  0.46880600  0.36278200
   0.50550800  0.39805500  0.36207700
   0.46538400  0.57201900  0.30946400
   0.58275500  0.68306700  0.58775000
   0.45052500  0.59044300  0.68036400
   0.39732000  0.67044900  0.59753500
   0.31566200  0.50359800  0.58596500
   0.33322800  0.47946500  0.40225200
   0.32629100  0.60324700  0.42912600
   0.48792300  0.71185500  0.43020800
   0.60015100  0.65882400  0.40403700
 
 position of ions in cartesian coordinates  (Angst):
   9.50942000 11.12520000  7.69306000
   7.38156000 10.78120000  8.72824000
  10.83582000  9.14892000  7.92272000
   9.01914000  8.31872000 11.27766000
  10.62232000 12.95882000  8.74992000
   7.69238000 10.29482000 11.04870000
  11.14736000  8.66220000 10.24300000
  10.93384000 12.47288000 11.07036000
  12.25994000 10.49634000 11.29932000
   8.80568000 12.12860000 12.10486000
   8.29802000  7.13300000 10.58806000
   9.22340000  8.00852000 12.78216000
  12.00696000  7.38140000 10.39156000
  13.63654000 10.72014000 10.62374000
  12.45608000 10.18068000 12.80378000
  12.21600000  9.37612000  7.25564000
  10.11016000  7.96110000  7.24154000
   9.30768000 11.44038000  6.18928000
  11.65510000 13.66134000 11.75500000
   9.01050000 11.80886000 13.60728000
   7.94640000 13.40898000 11.95070000
   6.31324000 10.07196000 11.71930000
   6.66456000  9.58930000  8.04504000
   6.52582000 12.06494000  8.58252000
   9.75846000 14.23710000  8.60416000
  12.00302000 13.17648000  8.08074000
 


--------------------------------------------------------------------------------------------------------


 k-point  1 :   0.0000 0.0000 0.0000  plane waves:  145165

 maximum and minimum number of plane-waves per node :     24209    24180

 maximum number of plane-waves:    145165
 maximum index in each direction: 
   IXMAX=   32   IYMAX=   32   IZMAX=   32
   IXMIN=  -32   IYMIN=  -32   IZMIN=  -32


 parallel 3D FFT for wavefunctions:
    minimum data exchange during FFTs selected (reduces bandwidth)
 parallel 3D FFT for charge:
    minimum data exchange during FFTs selected (reduces bandwidth)


 total amount of memory used by VASP MPI-rank0   131440. kBytes
=======================================================================

   base      :      30000. kBytes
   nonl-proj :      17624. kBytes
   fftplans  :      26957. kBytes
   grid      :      48673. kBytes
   one-center:         40. kBytes
   wavefun   :       8146. kBytes
 
     INWAV:  cpu time    0.0000: real time    0.0000
 Broyden mixing: mesh for mixing (old mesh)
   NGX = 65   NGY = 65   NGZ = 65
  (NGX  =196   NGY  =196   NGZ  =196)
  gives a total of 274625 points

 initial charge density was supplied:
 charge density of overlapping atoms calculated
 number of electron      56.0000000 magnetization 
 keeping initial charge density in first step


--------------------------------------------------------------------------------------------------------


 Maximum index for augmentation-charges          565 (set IRDMAX)


--------------------------------------------------------------------------------------------------------


 First call to EWALD:  gamma=   0.089
 Maximum number of real-space cells 3x 3x 3
 Maximum number of reciprocal cells 3x 3x 3

    FEWALD:  cpu time    0.0020: real time    0.0022


--------------------------------------- Iteration      1(   1)  ---------------------------------------


    POTLOK:  cpu time    0.9919: real time    0.9964
    SETDIJ:  cpu time    0.0070: real time    0.0063
     EDDAV:  cpu time    4.2204: real time    4.2250
       DOS:  cpu time    0.0010: real time    0.0003
    --------------------------------------------
      LOOP:  cpu time    5.2202: real time    5.2279

 eigenvalue-minimisations  :   116
 total energy-change (2. order) : 0.2074830E+03  (-0.1046533E+04)
 number of electron      56.0000000 magnetization 
 augmentation part       56.0000000 magnetization 

 Free energy of the ion-electron system (eV)
  ---------------------------------------------------
  alpha Z        PSCENC =         2.51538199
  Ewald energy   TEWEN  =      2629.98113996
  -Hartree energ DENC   =     -3440.31259395
  -exchange      EXHF   =         0.00000000
  -V(xc)+E(xc)   XCENC  =       -49.24219738
  PAW double counting   =       915.51080863     -758.35430496
  entropy T*S    EENTRO =        -0.43009109
  eigenvalues    EBANDS =      -334.08029308
  atomic energy  EATOM  =      1241.89512738
  Solvation  Ediel_sol  =         0.00000000
  ---------------------------------------------------
  free energy    TOTEN  =       207.48297750 eV

  energy without entropy =      207.91306859  energy(sigma->0) =      207.69802304


--------------------------------------------------------------------------------------------------------




--------------------------------------- Iteration      1(   2)  ---------------------------------------


     EDDAV:  cpu time    5.0282: real time    5.0381
       DOS:  cpu time    0.0000: real time    0.0002
    --------------------------------------------
      LOOP:  cpu time    5.0282: real time    5.0383

 eigenvalue-minimisations  :   144
 total energy-change (2. order) :-0.2330636E+03  (-0.2182818E+03)
 number of electron      56.0000000 magnetization 
 augmentation part       56.0000000 magnetization 

 Free energy of the ion-electron system (eV)
  ---------------------------------------------------
  alpha Z        PSCENC =         2.51538199
  Ewald energy   TEWEN  =      2629.98113996
  -Hartree energ DENC   =     -3440.31259395
  -exchange      EXHF   =         0.00000000
  -V(xc)+E(xc)   XCENC  =       -49.24219738
  PAW double counting   =       915.51080863     -758.35430496
  entropy T*S    EENTRO =        -0.00000000
  eigenvalues    EBANDS =      -567.57398538
  atomic energy  EATOM  =      1241.89512738
  Solvation  Ediel_sol  =         0.00000000
  ---------------------------------------------------
  free energy    TOTEN  =       -25.58062372 eV

  energy without entropy =      -25.58062372  energy(sigma->0) =      -25.58062372


--------------------------------------------------------------------------------------------------------




--------------------------------------- Iteration      1(   3)  ---------------------------------------


     EDDAV:  cpu time    3.8914: real time    3.8992
       DOS:  cpu time    0.0000: real time    0.0002
    --------------------------------------------
      LOOP:  cpu time    3.8914: real time    3.8994

 eigenvalue-minimisations  :   104
 total energy-change (2. order) :-0.7479521E+02  (-0.7463283E+02)
 number of electron      56.0000000 magnetization 
 augmentation part       56.0000000 magnetization 

 Free energy of the ion-electron system (eV)
  ---------------------------------------------------
  alpha Z        PSCENC =         2.51538199
  Ewald energy   TEWEN  =      2629.98113996
  -Hartree energ DENC   =     -3440.31259395
  -exchange      EXHF   =         0.00000000
  -V(xc)+E(xc)   XCENC  =       -49.24219738
  PAW double counting   =       915.51080863     -758.35430496
  entropy T*S    EENTRO =        -0.00000000
  eigenvalues    EBANDS =      -642.36919052
  atomic energy  EATOM  =      1241.89512738
  Solvation  Ediel_sol  =         0.00000000
  ---------------------------------------------------
  free energy    TOTEN  =      -100.37582886 eV

  energy without entropy =     -100.37582886  energy(sigma->0) =     -100.37582886


--------------------------------------------------------------------------------------------------------




--------------------------------------- Iteration      1(   4)  ---------------------------------------


     EDDAV:  cpu time    4.1114: real time    4.1187
       DOS:  cpu time    0.0000: real time    0.0002
    --------------------------------------------
      LOOP:  cpu time    4.1114: real time    4.1189

 eigenvalue-minimisations  :   112
 total energy-change (2. order) :-0.4313782E+01  (-0.4298972E+01)
 number of electron      56.0000000 magnetization 
 augmentation part       56.0000000 magnetization 

 Free energy of the ion-electron system (eV)
  ---------------------------------------------------
  alpha Z        PSCENC =         2.51538199
  Ewald energy   TEWEN  =      2629.98113996
  -Hartree energ DENC   =     -3440.31259395
  -exchange      EXHF   =         0.00000000
  -V(xc)+E(xc)   XCENC  =       -49.24219738
  PAW double counting   =       915.51080863     -758.35430496
  entropy T*S    EENTRO =        -0.00000000
  eigenvalues    EBANDS =      -646.68297292
  atomic energy  EATOM  =      1241.89512738
  Solvation  Ediel_sol  =         0.00000000
  ---------------------------------------------------
  free energy    TOTEN  =      -104.68961126 eV

  energy without entropy =     -104.68961126  energy(sigma->0) =     -104.68961126


--------------------------------------------------------------------------------------------------------




--------------------------------------- Iteration      1(   5)  ---------------------------------------


     EDDAV:  cpu time    4.3413: real time    4.3508
       DOS:  cpu time    0.0000: real time    0.0002
    CHARGE:  cpu time    0.2300: real time    0.2297
    MIXING:  cpu time    0.0250: real time    0.0240
    --------------------------------------------
      LOOP:  cpu time    4.5963: real time    4.6047

 eigenvalue-minimisations  :   120
 total energy-change (2. order) :-0.6695648E-01  (-0.6689635E-01)
 number of electron      56.0000011 magnetization 
 augmentation part       -4.3574312 magnetization 

 Broyden mixing:
  rms(total) = 0.14586E+01    rms(broyden)= 0.14585E+01
  rms(prec ) = 0.15548E+01
  weight for this iteration     100.00

 Free energy of the ion-electron system (eV)
  ---------------------------------------------------
  alpha Z        PSCENC =         2.51538199
  Ewald energy   TEWEN  =      2629.98113996
  -Hartree energ DENC   =     -3440.31259395
  -exchange      EXHF   =         0.00000000
  -V(xc)+E(xc)   XCENC  =       -49.24219738
  PAW double counting   =       915.51080863     -758.35430496
  entropy T*S    EENTRO =        -0.00000000
  eigenvalues    EBANDS =      -646.74992941
  atomic energy  EATOM  =      1241.89512738
  Solvation  Ediel_sol  =         0.00000000
  ---------------------------------------------------
  free energy    TOTEN  =      -104.75656774 eV

  energy without entropy =     -104.75656774  energy(sigma->0) =     -104.75656774


--------------------------------------------------------------------------------------------------------




--------------------------------------- Iteration      1(   6)  ---------------------------------------


    POTLOK:  cpu time    0.9379: real time    0.9417
    SETDIJ:  cpu time    0.0060: real time    0.0063
     EDDAV:  cpu time    4.1474: real time    4.1542
       DOS:  cpu time    0.0010: real time    0.0004
    CHARGE:  cpu time    0.2300: real time    0.2299
    MIXING:  cpu time    0.0240: real time    0.0244
    --------------------------------------------
      LOOP:  cpu time    5.3462: real time    5.3570

 eigenvalue-minimisations  :   112
 total energy-change (2. order) : 0.3177529E+01  (-0.1597305E+00)
 number of electron      56.0000010 magnetization 
 augmentation part       -4.3559464 magnetization 

 Broyden mixing:
  rms(total) = 0.84246E+00    rms(broyden)= 0.84246E+00
  rms(prec ) = 0.90140E+00
  weight for this iteration     100.00

 eigenvalues of (default mixing * dielectric matrix)
  average eigenvalue GAMMA=   2.2980
  2.2980

 Free energy of the ion-electron system (eV)
  ---------------------------------------------------
  alpha Z        PSCENC =         2.51538199
  Ewald energy   TEWEN  =      2629.98113996
  -Hartree energ DENC   =     -3471.24270480
  -exchange      EXHF   =         0.00000000
  -V(xc)+E(xc)   XCENC  =       -45.61527471
  PAW double counting   =      1758.79062877    -1602.50021067
  entropy T*S    EENTRO =        -0.00000000
  eigenvalues    EBANDS =      -615.40312633
  atomic energy  EATOM  =      1241.89512738
  Solvation  Ediel_sol  =         0.00000000
  ---------------------------------------------------
  free energy    TOTEN  =      -101.57903841 eV

  energy without entropy =     -101.57903841  energy(sigma->0) =     -101.57903841


--------------------------------------------------------------------------------------------------------




--------------------------------------- Iteration      1(   7)  ---------------------------------------


    POTLOK:  cpu time    0.9429: real time    0.9455
    SETDIJ:  cpu time    0.0070: real time    0.0065
     EDDAV:  cpu time    3.8884: real time    3.8943
       DOS:  cpu time    0.0010: real time    0.0004
    CHARGE:  cpu time    0.2300: real time    0.2306
    MIXING:  cpu time    0.0260: real time    0.0254
    --------------------------------------------
      LOOP:  cpu time    5.0952: real time    5.1027

 eigenvalue-minimisations  :   104
 total energy-change (2. order) : 0.1658139E+01  (-0.4031799E+00)
 number of electron      56.0000008 magnetization 
 augmentation part       -4.3519776 magnetization 

 Broyden mixing:
  rms(total) = 0.12126E+00    rms(broyden)= 0.12111E+00
  rms(prec ) = 0.15259E+00
  weight for this iteration     100.00

 eigenvalues of (default mixing * dielectric matrix)
  average eigenvalue GAMMA=   1.8378
  1.7376  1.9380

 Free energy of the ion-electron system (eV)
  ---------------------------------------------------
  alpha Z        PSCENC =         2.51538199
  Ewald energy   TEWEN  =      2629.98113996
  -Hartree energ DENC   =     -3526.18816973
  -exchange      EXHF   =         0.00000000
  -V(xc)+E(xc)   XCENC  =       -39.88125804
  PAW double counting   =      3565.75916265    -3410.62559384
  entropy T*S    EENTRO =        -0.00000000
  eigenvalues    EBANDS =      -563.37668944
  atomic energy  EATOM  =      1241.89512738
  Solvation  Ediel_sol  =         0.00000000
  ---------------------------------------------------
  free energy    TOTEN  =       -99.92089906 eV

  energy without entropy =      -99.92089906  energy(sigma->0) =      -99.92089906


--------------------------------------------------------------------------------------------------------




--------------------------------------- Iteration      1(   8)  ---------------------------------------


    POTLOK:  cpu time    0.9489: real time    0.9502
    SETDIJ:  cpu time    0.0060: real time    0.0064
     EDDAV:  cpu time    4.1294: real time    4.1367
       DOS:  cpu time    0.0000: real time    0.0004
    CHARGE:  cpu time    0.2300: real time    0.2291
    MIXING:  cpu time    0.0260: real time    0.0268
    --------------------------------------------
      LOOP:  cpu time    5.3402: real time    5.3497

 eigenvalue-minimisations  :   112
 total energy-change (2. order) : 0.5352501E-01  (-0.2744735E-01)
 number of electron      56.0000008 magnetization 
 augmentation part       -4.3470512 magnetization 

 Broyden mixing:
  rms(total) = 0.60809E-01    rms(broyden)= 0.60795E-01
  rms(prec ) = 0.80172E-01
  weight for this iteration     100.00

 eigenvalues of (default mixing * dielectric matrix)
  average eigenvalue GAMMA=   1.9608
  2.6397  1.6214  1.6214

 Free energy of the ion-electron system (eV)
  ---------------------------------------------------
  alpha Z        PSCENC =         2.51538199
  Ewald energy   TEWEN  =      2629.98113996
  -Hartree energ DENC   =     -3534.28311916
  -exchange      EXHF   =         0.00000000
  -V(xc)+E(xc)   XCENC  =       -39.89214106
  PAW double counting   =      3582.05387900    -3426.84289201
  entropy T*S    EENTRO =        -0.00000000
  eigenvalues    EBANDS =      -555.29475016
  atomic energy  EATOM  =      1241.89512738
  Solvation  Ediel_sol  =         0.00000000
  ---------------------------------------------------
  free energy    TOTEN  =       -99.86737406 eV

  energy without entropy =      -99.86737406  energy(sigma->0) =      -99.86737406


--------------------------------------------------------------------------------------------------------




--------------------------------------- Iteration      1(   9)  ---------------------------------------


    POTLOK:  cpu time    0.9539: real time    0.9565
    SETDIJ:  cpu time    0.0060: real time    0.0064
     EDDAV:  cpu time    4.3443: real time    4.3494
       DOS:  cpu time    0.0000: real time    0.0004
    CHARGE:  cpu time    0.2300: real time    0.2291
    MIXING:  cpu time    0.0270: real time    0.0271
    --------------------------------------------
      LOOP:  cpu time    5.5612: real time    5.5689

 eigenvalue-minimisations  :   120
 total energy-change (2. order) : 0.3611294E-01  (-0.7287149E-02)
 number of electron      56.0000008 magnetization 
 augmentation part       -4.3323705 magnetization 

 Broyden mixing:
  rms(total) = 0.32373E-01    rms(broyden)= 0.32372E-01
  rms(prec ) = 0.44177E-01
  weight for this iteration     100.00

 eigenvalues of (default mixing * dielectric matrix)
  average eigenvalue GAMMA=   1.7512
  2.5045  1.8269  1.8269  0.8465

 Free energy of the ion-electron system (eV)
  ---------------------------------------------------
  alpha Z        PSCENC =         2.51538199
  Ewald energy   TEWEN  =      2629.98113996
  -Hartree energ DENC   =     -3546.04765572
  -exchange      EXHF   =         0.00000000
  -V(xc)+E(xc)   XCENC  =       -39.19045727
  PAW double counting   =      3720.15937462    -3564.99610602
  entropy T*S    EENTRO =        -0.00000000
  eigenvalues    EBANDS =      -544.14806606
  atomic energy  EATOM  =      1241.89512738
  Solvation  Ediel_sol  =         0.00000000
  ---------------------------------------------------
  free energy    TOTEN  =       -99.83126111 eV

  energy without entropy =      -99.83126111  energy(sigma->0) =      -99.83126111


--------------------------------------------------------------------------------------------------------




--------------------------------------- Iteration      1(  10)  ---------------------------------------


    POTLOK:  cpu time    1.0428: real time    1.0435
    SETDIJ:  cpu time    0.0200: real time    0.0206
     EDDAV:  cpu time    4.1274: real time    4.1244
       DOS:  cpu time    0.0000: real time    0.0005
    CHARGE:  cpu time    0.2290: real time    0.2285
    MIXING:  cpu time    0.0290: real time    0.0293
    --------------------------------------------
      LOOP:  cpu time    5.4482: real time    5.4469

 eigenvalue-minimisations  :   112
 total energy-change (2. order) :-0.8795586E-04  (-0.2723315E-03)
 number of electron      56.0000008 magnetization 
 augmentation part       -4.3315556 magnetization 

 Broyden mixing:
  rms(total) = 0.14724E-01    rms(broyden)= 0.14724E-01
  rms(prec ) = 0.28159E-01
  weight for this iteration     100.00

 eigenvalues of (default mixing * dielectric matrix)
  average eigenvalue GAMMA=   1.8722
  2.8261  2.2745  1.0637  1.5984  1.5984

 Free energy of the ion-electron system (eV)
  ---------------------------------------------------
  alpha Z        PSCENC =         2.51538199
  Ewald energy   TEWEN  =      2629.98113996
  -Hartree energ DENC   =     -3548.25026883
  -exchange      EXHF   =         0.00000000
  -V(xc)+E(xc)   XCENC  =       -39.18169509
  PAW double counting   =      3653.45376719    -3498.24226275
  entropy T*S    EENTRO =        -0.00000000
  eigenvalues    EBANDS =      -542.00253892
  atomic energy  EATOM  =      1241.89512738
  Solvation  Ediel_sol  =         0.00000000
  ---------------------------------------------------
  free energy    TOTEN  =       -99.83134907 eV

  energy without entropy =      -99.83134907  energy(sigma->0) =      -99.83134907


--------------------------------------------------------------------------------------------------------




--------------------------------------- Iteration      1(  11)  ---------------------------------------


    POTLOK:  cpu time    0.9669: real time    0.9657
    SETDIJ:  cpu time    0.0060: real time    0.0065
     EDDAV:  cpu time    3.9074: real time    3.9056
       DOS:  cpu time    0.0000: real time    0.0002
    CHARGE:  cpu time    0.2300: real time    0.2297
    MIXING:  cpu time    0.0290: real time    0.0295
    --------------------------------------------
      LOOP:  cpu time    5.1392: real time    5.1373

 eigenvalue-minimisations  :   104
 total energy-change (2. order) : 0.2790335E-03  (-0.6591927E-03)
 number of electron      56.0000008 magnetization 
 augmentation part       -4.3301316 magnetization 

 Broyden mixing:
  rms(total) = 0.81393E-02    rms(broyden)= 0.81390E-02
  rms(prec ) = 0.14629E-01
  weight for this iteration     100.00

 eigenvalues of (default mixing * dielectric matrix)
  average eigenvalue GAMMA=   1.8730
  3.2527  2.5752  1.7273  1.7273  1.0619  0.8935

 Free energy of the ion-electron system (eV)
  ---------------------------------------------------
  alpha Z        PSCENC =         2.51538199
  Ewald energy   TEWEN  =      2629.98113996
  -Hartree energ DENC   =     -3554.98550421
  -exchange      EXHF   =         0.00000000
  -V(xc)+E(xc)   XCENC  =       -38.98709262
  PAW double counting   =      3619.28925267    -3464.03835427
  entropy T*S    EENTRO =        -0.00000000
  eigenvalues    EBANDS =      -535.50102093
  atomic energy  EATOM  =      1241.89512738
  Solvation  Ediel_sol  =         0.00000000
  ---------------------------------------------------
  free energy    TOTEN  =       -99.83107004 eV

  energy without entropy =      -99.83107004  energy(sigma->0) =      -99.83107004


--------------------------------------------------------------------------------------------------------




--------------------------------------- Iteration      1(  12)  ---------------------------------------


    POTLOK:  cpu time    0.9759: real time    0.9749
    SETDIJ:  cpu time    0.0070: real time    0.0063
     EDDAV:  cpu time    3.8944: real time    3.8926
       DOS:  cpu time    0.0010: real time    0.0002
    CHARGE:  cpu time    0.2290: real time    0.2291
    MIXING:  cpu time    0.0310: real time    0.0310
    --------------------------------------------
      LOOP:  cpu time    5.1382: real time    5.1342

 eigenvalue-minimisations  :   104
 total energy-change (2. order) :-0.4580050E-02  (-0.1220465E-03)
 number of electron      56.0000008 magnetization 
 augmentation part       -4.3294149 magnetization 

 Broyden mixing:
  rms(total) = 0.55013E-02    rms(broyden)= 0.55013E-02
  rms(prec ) = 0.95696E-02
  weight for this iteration     100.00

 eigenvalues of (default mixing * dielectric matrix)
  average eigenvalue GAMMA=   2.1146
  4.7580  2.6167  2.3810  1.5549  1.5549  0.9682  0.9682

 Free energy of the ion-electron system (eV)
  ---------------------------------------------------
  alpha Z        PSCENC =         2.51538199
  Ewald energy   TEWEN  =      2629.98113996
  -Hartree energ DENC   =     -3557.50674702
  -exchange      EXHF   =         0.00000000
  -V(xc)+E(xc)   XCENC  =       -38.94500056
  PAW double counting   =      3609.84800080    -3454.59342022
  entropy T*S    EENTRO =        -0.00000000
  eigenvalues    EBANDS =      -533.03013242
  atomic energy  EATOM  =      1241.89512738
  Solvation  Ediel_sol  =         0.00000000
  ---------------------------------------------------
  free energy    TOTEN  =       -99.83565009 eV

  energy without entropy =      -99.83565009  energy(sigma->0) =      -99.83565009


--------------------------------------------------------------------------------------------------------




--------------------------------------- Iteration      1(  13)  ---------------------------------------


    POTLOK:  cpu time    1.2828: real time    1.2832
    SETDIJ:  cpu time    0.0070: real time    0.0071
     EDDAV:  cpu time    4.1274: real time    4.1255
       DOS:  cpu time    0.0010: real time    0.0002
    CHARGE:  cpu time    0.2280: real time    0.2281
    MIXING:  cpu time    0.0320: real time    0.0325
    --------------------------------------------
      LOOP:  cpu time    5.6781: real time    5.6765

 eigenvalue-minimisations  :   112
 total energy-change (2. order) :-0.4459376E-02  (-0.1755977E-03)
 number of electron      56.0000008 magnetization 
 augmentation part       -4.3291977 magnetization 

 Broyden mixing:
  rms(total) = 0.34778E-02    rms(broyden)= 0.34777E-02
  rms(prec ) = 0.51524E-02
  weight for this iteration     100.00

 eigenvalues of (default mixing * dielectric matrix)
  average eigenvalue GAMMA=   2.2071
  5.6813  2.9302  2.2655  1.8276  1.8276  0.9661  0.9661  1.1925

 Free energy of the ion-electron system (eV)
  ---------------------------------------------------
  alpha Z        PSCENC =         2.51538199
  Ewald energy   TEWEN  =      2629.98113996
  -Hartree energ DENC   =     -3560.21012044
  -exchange      EXHF   =         0.00000000
  -V(xc)+E(xc)   XCENC  =       -38.89467065
  PAW double counting   =      3614.54691912    -3459.30076922
  entropy T*S    EENTRO =        -0.00000000
  eigenvalues    EBANDS =      -530.37311761
  atomic energy  EATOM  =      1241.89512738
  Solvation  Ediel_sol  =         0.00000000
  ---------------------------------------------------
  free energy    TOTEN  =       -99.84010946 eV

  energy without entropy =      -99.84010946  energy(sigma->0) =      -99.84010946


--------------------------------------------------------------------------------------------------------




--------------------------------------- Iteration      1(  14)  ---------------------------------------


    POTLOK:  cpu time    0.9679: real time    0.9667
    SETDIJ:  cpu time    0.0060: real time    0.0063
     EDDAV:  cpu time    4.1194: real time    4.1171
       DOS:  cpu time    0.0010: real time    0.0003
    CHARGE:  cpu time    0.2300: real time    0.2303
    MIXING:  cpu time    0.0340: real time    0.0340
    --------------------------------------------
      LOOP:  cpu time    5.3582: real time    5.3547

 eigenvalue-minimisations  :   112
 total energy-change (2. order) :-0.4585642E-02  (-0.3911801E-04)
 number of electron      56.0000008 magnetization 
 augmentation part       -4.3286790 magnetization 

 Broyden mixing:
  rms(total) = 0.14957E-02    rms(broyden)= 0.14956E-02
  rms(prec ) = 0.26115E-02
  weight for this iteration     100.00

 eigenvalues of (default mixing * dielectric matrix)
  average eigenvalue GAMMA=   2.3021
  6.5908  2.9674  2.7147  2.2288  1.6119  1.6119  1.0641  0.9647  0.9647

 Free energy of the ion-electron system (eV)
  ---------------------------------------------------
  alpha Z        PSCENC =         2.51538199
  Ewald energy   TEWEN  =      2629.98113996
  -Hartree energ DENC   =     -3560.87166606
  -exchange      EXHF   =         0.00000000
  -V(xc)+E(xc)   XCENC  =       -38.91135610
  PAW double counting   =      3613.94728059    -3458.70147625
  entropy T*S    EENTRO =        -0.00000000
  eigenvalues    EBANDS =      -529.69912662
  atomic energy  EATOM  =      1241.89512738
  Solvation  Ediel_sol  =         0.00000000
  ---------------------------------------------------
  free energy    TOTEN  =       -99.84469510 eV

  energy without entropy =      -99.84469510  energy(sigma->0) =      -99.84469510


--------------------------------------------------------------------------------------------------------




--------------------------------------- Iteration      1(  15)  ---------------------------------------


    POTLOK:  cpu time    0.9629: real time    0.9622
    SETDIJ:  cpu time    0.0060: real time    0.0062
     EDDAV:  cpu time    4.1264: real time    4.1249
       DOS:  cpu time    0.0000: real time    0.0002
    CHARGE:  cpu time    0.2300: real time    0.2290
    MIXING:  cpu time    0.0370: real time    0.0366
    --------------------------------------------
      LOOP:  cpu time    5.3622: real time    5.3592

 eigenvalue-minimisations  :   112
 total energy-change (2. order) :-0.3920209E-02  (-0.4441318E-04)
 number of electron      56.0000008 magnetization 
 augmentation part       -4.3284287 magnetization 

 Broyden mixing:
  rms(total) = 0.13861E-02    rms(broyden)= 0.13861E-02
  rms(prec ) = 0.18431E-02
  weight for this iteration     100.00

 eigenvalues of (default mixing * dielectric matrix)
  average eigenvalue GAMMA=   2.3166
  6.7378  3.8744  2.6437  1.9540  1.9540  1.8368  1.2609  0.9325  0.9860  0.9860

 Free energy of the ion-electron system (eV)
  ---------------------------------------------------
  alpha Z        PSCENC =         2.51538199
  Ewald energy   TEWEN  =      2629.98113996
  -Hartree energ DENC   =     -3561.08191940
  -exchange      EXHF   =         0.00000000
  -V(xc)+E(xc)   XCENC  =       -38.91792292
  PAW double counting   =      3617.59922796    -3462.35331890
  entropy T*S    EENTRO =        -0.00000000
  eigenvalues    EBANDS =      -529.48633139
  atomic energy  EATOM  =      1241.89512738
  Solvation  Ediel_sol  =         0.00000000
  ---------------------------------------------------
  free energy    TOTEN  =       -99.84861531 eV

  energy without entropy =      -99.84861531  energy(sigma->0) =      -99.84861531


--------------------------------------------------------------------------------------------------------




--------------------------------------- Iteration      1(  16)  ---------------------------------------


    POTLOK:  cpu time    0.9599: real time    0.9595
    SETDIJ:  cpu time    0.0060: real time    0.0063
     EDDAV:  cpu time    4.1234: real time    4.1209
       DOS:  cpu time    0.0000: real time    0.0002
    CHARGE:  cpu time    0.2290: real time    0.2289
    MIXING:  cpu time    0.0390: real time    0.0390
    --------------------------------------------
      LOOP:  cpu time    5.3572: real time    5.3548

 eigenvalue-minimisations  :   112
 total energy-change (2. order) :-0.1116370E-02  (-0.6702410E-05)
 number of electron      56.0000008 magnetization 
 augmentation part       -4.3286604 magnetization 

 Broyden mixing:
  rms(total) = 0.63398E-03    rms(broyden)= 0.63396E-03
  rms(prec ) = 0.93730E-03
  weight for this iteration     100.00

 eigenvalues of (default mixing * dielectric matrix)
  average eigenvalue GAMMA=   2.4301
  7.3916  4.7363  2.6556  2.6556  1.8127  1.8127  1.3759  1.3759  0.9736  0.9736
  0.9680

 Free energy of the ion-electron system (eV)
  ---------------------------------------------------
  alpha Z        PSCENC =         2.51538199
  Ewald energy   TEWEN  =      2629.98113996
  -Hartree energ DENC   =     -3561.19406354
  -exchange      EXHF   =         0.00000000
  -V(xc)+E(xc)   XCENC  =       -38.91465066
  PAW double counting   =      3617.88134244    -3462.63483004
  entropy T*S    EENTRO =        -0.00000000
  eigenvalues    EBANDS =      -529.37917922
  atomic energy  EATOM  =      1241.89512738
  Solvation  Ediel_sol  =         0.00000000
  ---------------------------------------------------
  free energy    TOTEN  =       -99.84973168 eV

  energy without entropy =      -99.84973168  energy(sigma->0) =      -99.84973168


--------------------------------------------------------------------------------------------------------




--------------------------------------- Iteration      1(  17)  ---------------------------------------


    POTLOK:  cpu time    0.9599: real time    0.9593
    SETDIJ:  cpu time    0.0070: real time    0.0064
     EDDAV:  cpu time    4.1174: real time    4.1173
       DOS:  cpu time    0.0000: real time    0.0002
    CHARGE:  cpu time    0.2220: real time    0.2205
    MIXING:  cpu time    0.0470: real time    0.0477
    --------------------------------------------
      LOOP:  cpu time    5.3532: real time    5.3514

 eigenvalue-minimisations  :   112
 total energy-change (2. order) :-0.1011574E-02  (-0.8491863E-05)
 number of electron      56.0000008 magnetization 
 augmentation part       -4.3288784 magnetization 

 Broyden mixing:
  rms(total) = 0.32139E-03    rms(broyden)= 0.32135E-03
  rms(prec ) = 0.45478E-03
  weight for this iteration     100.00

 eigenvalues of (default mixing * dielectric matrix)
  average eigenvalue GAMMA=   2.4351
  7.5580  5.1305  2.7024  2.7024  1.9442  1.9442  1.6760  1.4277  1.2218  0.9729
  0.9729  0.9688

 Free energy of the ion-electron system (eV)
  ---------------------------------------------------
  alpha Z        PSCENC =         2.51538199
  Ewald energy   TEWEN  =      2629.98113996
  -Hartree energ DENC   =     -3561.19363229
  -exchange      EXHF   =         0.00000000
  -V(xc)+E(xc)   XCENC  =       -38.91824247
  PAW double counting   =      3615.94992679    -3460.70206559
  entropy T*S    EENTRO =        -0.00000000
  eigenvalues    EBANDS =      -529.37837903
  atomic energy  EATOM  =      1241.89512738
  Solvation  Ediel_sol  =         0.00000000
  ---------------------------------------------------
  free energy    TOTEN  =       -99.85074326 eV

  energy without entropy =      -99.85074326  energy(sigma->0) =      -99.85074326


--------------------------------------------------------------------------------------------------------




--------------------------------------- Iteration      1(  18)  ---------------------------------------


    POTLOK:  cpu time    0.9639: real time    0.9634
    SETDIJ:  cpu time    0.0060: real time    0.0065
     EDDAV:  cpu time    3.8904: real time    3.8874
       DOS:  cpu time    0.0000: real time    0.0002
    CHARGE:  cpu time    0.2290: real time    0.2450
    MIXING:  cpu time    0.0470: real time    0.0473
    --------------------------------------------
      LOOP:  cpu time    5.1362: real time    5.1499

 eigenvalue-minimisations  :   104
 total energy-change (2. order) :-0.2800598E-03  (-0.9873591E-06)
 number of electron      56.0000008 magnetization 
 augmentation part       -4.3288459 magnetization 

 Broyden mixing:
  rms(total) = 0.16478E-03    rms(broyden)= 0.16475E-03
  rms(prec ) = 0.23469E-03
  weight for this iteration     100.00

 eigenvalues of (default mixing * dielectric matrix)
  average eigenvalue GAMMA=   2.5020
  8.1991  5.8273  3.2125  2.6212  2.3887  1.7930  1.7930  1.3723  1.3723  0.9718
  0.9718  1.0012  1.0012

 Free energy of the ion-electron system (eV)
  ---------------------------------------------------
  alpha Z        PSCENC =         2.51538199
  Ewald energy   TEWEN  =      2629.98113996
  -Hartree energ DENC   =     -3561.24221351
  -exchange      EXHF   =         0.00000000
  -V(xc)+E(xc)   XCENC  =       -38.91689023
  PAW double counting   =      3616.01214498    -3460.76498786
  entropy T*S    EENTRO =        -0.00000000
  eigenvalues    EBANDS =      -529.33072603
  atomic energy  EATOM  =      1241.89512738
  Solvation  Ediel_sol  =         0.00000000
  ---------------------------------------------------
  free energy    TOTEN  =       -99.85102332 eV

  energy without entropy =      -99.85102332  energy(sigma->0) =      -99.85102332


--------------------------------------------------------------------------------------------------------




--------------------------------------- Iteration      1(  19)  ---------------------------------------


    POTLOK:  cpu time    0.9669: real time    0.9662
    SETDIJ:  cpu time    0.0070: real time    0.0063
     EDDAV:  cpu time    3.8994: real time    3.8974
       DOS:  cpu time    0.0000: real time    0.0003
    CHARGE:  cpu time    0.2280: real time    0.2282
    MIXING:  cpu time    0.0540: real time    0.0538
    --------------------------------------------
      LOOP:  cpu time    5.1552: real time    5.1522

 eigenvalue-minimisations  :   104
 total energy-change (2. order) :-0.1199869E-03  (-0.3790077E-06)
 number of electron      56.0000008 magnetization 
 augmentation part       -4.3288624 magnetization 

 Broyden mixing:
  rms(total) = 0.14092E-03    rms(broyden)= 0.14092E-03
  rms(prec ) = 0.17930E-03
  weight for this iteration     100.00

 eigenvalues of (default mixing * dielectric matrix)
  average eigenvalue GAMMA=   2.4965
  8.3702  6.0856  3.3568  2.6796  2.2209  2.2209  1.7550  1.7550  1.3172  1.3172
  0.9974  0.9974  0.9392  0.9392

 Free energy of the ion-electron system (eV)
  ---------------------------------------------------
  alpha Z        PSCENC =         2.51538199
  Ewald energy   TEWEN  =      2629.98113996
  -Hartree energ DENC   =     -3561.24817283
  -exchange      EXHF   =         0.00000000
  -V(xc)+E(xc)   XCENC  =       -38.91645207
  PAW double counting   =      3615.97021455    -3460.72320478
  entropy T*S    EENTRO =        -0.00000000
  eigenvalues    EBANDS =      -529.32517750
  atomic energy  EATOM  =      1241.89512738
  Solvation  Ediel_sol  =         0.00000000
  ---------------------------------------------------
  free energy    TOTEN  =       -99.85114331 eV

  energy without entropy =      -99.85114331  energy(sigma->0) =      -99.85114331


--------------------------------------------------------------------------------------------------------




--------------------------------------- Iteration      1(  20)  ---------------------------------------


    POTLOK:  cpu time    0.9699: real time    0.9685
    SETDIJ:  cpu time    0.0060: real time    0.0062
     EDDAV:  cpu time    3.4405: real time    3.4393
       DOS:  cpu time    0.0010: real time    0.0002
    CHARGE:  cpu time    0.2280: real time    0.2287
    MIXING:  cpu time    0.0600: real time    0.0596
    --------------------------------------------
      LOOP:  cpu time    4.7053: real time    4.7025

 eigenvalue-minimisations  :    88
 total energy-change (2. order) :-0.4978519E-04  (-0.8912792E-07)
 number of electron      56.0000008 magnetization 
 augmentation part       -4.3288476 magnetization 

 Broyden mixing:
  rms(total) = 0.59886E-04    rms(broyden)= 0.59885E-04
  rms(prec ) = 0.82080E-04
  weight for this iteration     100.00

 eigenvalues of (default mixing * dielectric matrix)
  average eigenvalue GAMMA=   2.5305
  8.6022  6.4158  4.0646  2.8702  2.5900  1.9651  1.8259  1.8259  1.3859  1.3859
  1.1903  0.9854  0.9854  0.9744  0.8897

 Free energy of the ion-electron system (eV)
  ---------------------------------------------------
  alpha Z        PSCENC =         2.51538199
  Ewald energy   TEWEN  =      2629.98113996
  -Hartree energ DENC   =     -3561.25011665
  -exchange      EXHF   =         0.00000000
  -V(xc)+E(xc)   XCENC  =       -38.91740030
  PAW double counting   =      3615.87036255    -3460.62326252
  entropy T*S    EENTRO =        -0.00000000
  eigenvalues    EBANDS =      -529.32242550
  atomic energy  EATOM  =      1241.89512738
  Solvation  Ediel_sol  =         0.00000000
  ---------------------------------------------------
  free energy    TOTEN  =       -99.85119309 eV

  energy without entropy =      -99.85119309  energy(sigma->0) =      -99.85119309


--------------------------------------------------------------------------------------------------------




--------------------------------------- Iteration      1(  21)  ---------------------------------------


    POTLOK:  cpu time    0.9609: real time    0.9597
    SETDIJ:  cpu time    0.0060: real time    0.0063
     EDDAV:  cpu time    3.4365: real time    3.4343
       DOS:  cpu time    0.0010: real time    0.0004
    CHARGE:  cpu time    0.2280: real time    0.2282
    MIXING:  cpu time    0.0670: real time    0.0671
    --------------------------------------------
      LOOP:  cpu time    4.6993: real time    4.6960

 eigenvalue-minimisations  :    88
 total energy-change (2. order) :-0.2255379E-04  (-0.7086877E-07)
 number of electron      56.0000008 magnetization 
 augmentation part       -4.3288338 magnetization 

 Broyden mixing:
  rms(total) = 0.47228E-04    rms(broyden)= 0.47225E-04
  rms(prec ) = 0.61019E-04
  weight for this iteration     100.00

 eigenvalues of (default mixing * dielectric matrix)
  average eigenvalue GAMMA=   2.5082
  8.5451  6.6607  4.1375  2.9158  2.6124  2.0799  2.0799  1.7374  1.7374  1.4724
  0.9513  0.9513  1.0682  1.0682  1.0854  1.0286

 Free energy of the ion-electron system (eV)
  ---------------------------------------------------
  alpha Z        PSCENC =         2.51538199
  Ewald energy   TEWEN  =      2629.98113996
  -Hartree energ DENC   =     -3561.25722469
  -exchange      EXHF   =         0.00000000
  -V(xc)+E(xc)   XCENC  =       -38.91730229
  PAW double counting   =      3615.97234874    -3460.72533652
  entropy T*S    EENTRO =        -0.00000000
  eigenvalues    EBANDS =      -529.31535021
  atomic energy  EATOM  =      1241.89512738
  Solvation  Ediel_sol  =         0.00000000
  ---------------------------------------------------
  free energy    TOTEN  =       -99.85121564 eV

  energy without entropy =      -99.85121564  energy(sigma->0) =      -99.85121564


--------------------------------------------------------------------------------------------------------




--------------------------------------- Iteration      1(  22)  ---------------------------------------


    POTLOK:  cpu time    1.0568: real time    1.0581
    SETDIJ:  cpu time    0.0070: real time    0.0070
     EDDAV:  cpu time    3.4515: real time    3.4501
       DOS:  cpu time    0.0000: real time    0.0004
    CHARGE:  cpu time    0.2310: real time    0.2305
    MIXING:  cpu time    0.0740: real time    0.0742
    --------------------------------------------
      LOOP:  cpu time    4.8203: real time    4.8202

 eigenvalue-minimisations  :    88
 total energy-change (2. order) :-0.7249926E-05  (-0.1629853E-07)
 number of electron      56.0000008 magnetization 
 augmentation part       -4.3288459 magnetization 

 Broyden mixing:
  rms(total) = 0.19524E-04    rms(broyden)= 0.19524E-04
  rms(prec ) = 0.26855E-04
  weight for this iteration     100.00

 eigenvalues of (default mixing * dielectric matrix)
  average eigenvalue GAMMA=   2.5302
  8.7988  6.7722  4.6604  3.2230  2.5716  2.5716  1.8751  1.8751  1.6718  1.6718
  1.2199  1.2199  0.9495  0.9495  0.9998  0.9919  0.9919

 Free energy of the ion-electron system (eV)
  ---------------------------------------------------
  alpha Z        PSCENC =         2.51538199
  Ewald energy   TEWEN  =      2629.98113996
  -Hartree energ DENC   =     -3561.25570820
  -exchange      EXHF   =         0.00000000
  -V(xc)+E(xc)   XCENC  =       -38.91714676
  PAW double counting   =      3616.00438489    -3460.75730623
  entropy T*S    EENTRO =        -0.00000000
  eigenvalues    EBANDS =      -529.31709593
  atomic energy  EATOM  =      1241.89512738
  Solvation  Ediel_sol  =         0.00000000
  ---------------------------------------------------
  free energy    TOTEN  =       -99.85122289 eV

  energy without entropy =      -99.85122289  energy(sigma->0) =      -99.85122289


--------------------------------------------------------------------------------------------------------




--------------------------------------- Iteration      1(  23)  ---------------------------------------


    POTLOK:  cpu time    0.9609: real time    0.9598
    SETDIJ:  cpu time    0.0060: real time    0.0063
     EDDAV:  cpu time    3.4415: real time    3.4403
       DOS:  cpu time    0.0010: real time    0.0005
    CHARGE:  cpu time    0.2310: real time    0.2409
    MIXING:  cpu time    0.0800: real time    0.0805
    --------------------------------------------
      LOOP:  cpu time    4.7203: real time    4.7282

 eigenvalue-minimisations  :    88
 total energy-change (2. order) :-0.3485746E-05  (-0.8872520E-08)
 number of electron      56.0000008 magnetization 
 augmentation part       -4.3288540 magnetization 

 Broyden mixing:
  rms(total) = 0.15688E-04    rms(broyden)= 0.15687E-04
  rms(prec ) = 0.20191E-04
  weight for this iteration     100.00

 eigenvalues of (default mixing * dielectric matrix)
  average eigenvalue GAMMA=   2.5013
  8.8720  6.8124  4.7909  3.1446  2.6317  2.6317  1.9483  1.9483  1.9008  1.5421
  1.5421  1.1567  1.1567  0.9194  1.0066  1.0066  1.0065  1.0065

 Free energy of the ion-electron system (eV)
  ---------------------------------------------------
  alpha Z        PSCENC =         2.51538199
  Ewald energy   TEWEN  =      2629.98113996
  -Hartree energ DENC   =     -3561.25516301
  -exchange      EXHF   =         0.00000000
  -V(xc)+E(xc)   XCENC  =       -38.91724906
  PAW double counting   =      3615.98415954    -3460.73704969
  entropy T*S    EENTRO =        -0.00000000
  eigenvalues    EBANDS =      -529.31757350
  atomic energy  EATOM  =      1241.89512738
  Solvation  Ediel_sol  =         0.00000000
  ---------------------------------------------------
  free energy    TOTEN  =       -99.85122638 eV

  energy without entropy =      -99.85122638  energy(sigma->0) =      -99.85122638


--------------------------------------------------------------------------------------------------------




--------------------------------------- Iteration      1(  24)  ---------------------------------------


    POTLOK:  cpu time    0.9699: real time    0.9699
    SETDIJ:  cpu time    0.0070: real time    0.0064
     EDDAV:  cpu time    3.4445: real time    3.4433
       DOS:  cpu time    0.0000: real time    0.0003
    CHARGE:  cpu time    0.2310: real time    0.2297
    MIXING:  cpu time    0.0860: real time    0.0863
    --------------------------------------------
      LOOP:  cpu time    4.7383: real time    4.7359

 eigenvalue-minimisations  :    88
 total energy-change (2. order) :-0.1977165E-05  (-0.2597130E-08)
 number of electron      56.0000008 magnetization 
 augmentation part       -4.3288521 magnetization 

 Broyden mixing:
  rms(total) = 0.63538E-05    rms(broyden)= 0.63535E-05
  rms(prec ) = 0.89383E-05
  weight for this iteration     100.00

 eigenvalues of (default mixing * dielectric matrix)
  average eigenvalue GAMMA=   2.5544
  8.8803  7.0761  5.4784  3.8182  2.9507  2.4829  2.3303  1.8717  1.8717  1.6722
  1.6722  1.2094  1.2094  1.1370  0.9904  0.9904  0.9514  0.9514  0.9897

 Free energy of the ion-electron system (eV)
  ---------------------------------------------------
  alpha Z        PSCENC =         2.51538199
  Ewald energy   TEWEN  =      2629.98113996
  -Hartree energ DENC   =     -3561.25592934
  -exchange      EXHF   =         0.00000000
  -V(xc)+E(xc)   XCENC  =       -38.91726717
  PAW double counting   =      3615.94651337    -3460.69943439
  entropy T*S    EENTRO =        -0.00000000
  eigenvalues    EBANDS =      -529.31676016
  atomic energy  EATOM  =      1241.89512738
  Solvation  Ediel_sol  =         0.00000000
  ---------------------------------------------------
  free energy    TOTEN  =       -99.85122836 eV

  energy without entropy =      -99.85122836  energy(sigma->0) =      -99.85122836


--------------------------------------------------------------------------------------------------------




--------------------------------------- Iteration      1(  25)  ---------------------------------------


    POTLOK:  cpu time    0.9809: real time    0.9806
    SETDIJ:  cpu time    0.0060: real time    0.0061
     EDDAV:  cpu time    3.4465: real time    3.4447
       DOS:  cpu time    0.0000: real time    0.0002
    --------------------------------------------
      LOOP:  cpu time    4.4333: real time    4.4317

 eigenvalue-minimisations  :    88
 total energy-change (2. order) :-0.7633098E-06  (-0.1417199E-08)
 number of electron      56.0000008 magnetization 
 augmentation part       -4.3288521 magnetization 

 Free energy of the ion-electron system (eV)
  ---------------------------------------------------
  alpha Z        PSCENC =         2.51538199
  Ewald energy   TEWEN  =      2629.98113996
  -Hartree energ DENC   =     -3561.25686828
  -exchange      EXHF   =         0.00000000
  -V(xc)+E(xc)   XCENC  =       -38.91724841
  PAW double counting   =      3615.95341648    -3460.70634254
  entropy T*S    EENTRO =        -0.00000000
  eigenvalues    EBANDS =      -529.31583570
  atomic energy  EATOM  =      1241.89512738
  Solvation  Ediel_sol  =         0.00000000
  ---------------------------------------------------
  free energy    TOTEN  =       -99.85122912 eV

  energy without entropy =      -99.85122912  energy(sigma->0) =      -99.85122912


--------------------------------------------------------------------------------------------------------




 average (electrostatic) potential at core
  the test charge radii are     0.9892  1.1631  0.5201
  (the norm of the test charge is              1.0000)
       1 -93.3902       2 -93.4641       3 -93.4641       4 -93.5041       5 -40.4366
       6 -40.3800       7 -40.3800       8 -40.4621       9 -40.4785      10 -40.4784
      11 -40.6865      12 -40.6947      13 -41.0640      14 -41.0549      15 -41.0540
      16 -40.7032      17 -40.6945      18 -40.6937      19 -41.0405      20 -41.0540
      21 -41.0546      22 -41.0643      23 -40.6937      24 -40.7032      25 -41.0635
      26 -41.0636
 
 
 
 E-fermi :  -5.3616     XC(G=0):  -0.6100     alpha+bet : -0.3306


 k-point     1 :       0.0000    0.0000    0.0000
  band No.  band energies     occupation 
      1     -15.4503      2.00000
      2     -14.4497      2.00000
      3     -14.3684      2.00000
      4     -14.0627      2.00000
      5     -12.9843      2.00000
      6     -12.9229      2.00000
      7     -11.7976      2.00000
      8     -11.7129      2.00000
      9     -11.4810      2.00000
     10     -10.5236      2.00000
     11      -8.9865      2.00000
     12      -8.6357      2.00000
     13      -8.6355      2.00000
     14      -8.6184      2.00000
     15      -8.1990      2.00000
     16      -8.1940      2.00000
     17      -8.1785      2.00000
     18      -7.8621      2.00000
     19      -7.8577      2.00000
     20      -7.8505      2.00000
     21      -6.7594      2.00000
     22      -6.7579      2.00000
     23      -6.4642      2.00000
     24      -6.4579      2.00000
     25      -6.4402      2.00000
     26      -6.3476      2.00000
     27      -6.3314      2.00000
     28      -6.3281      2.00000
     29      -1.6358      0.00000
     30      -1.3763      0.00000
     31      -1.2647      0.00000
     32      -1.1526      0.00000
     33      -1.1234      0.00000
     34      -1.0802      0.00000
     35      -1.0709      0.00000
     36      -0.9802      0.00000
     37      -0.8593      0.00000
     38      -0.6377      0.00000
     39      -0.3462      0.00000
     40      -0.2146      0.00000
     41      -0.2046      0.00000
     42      -0.1599      0.00000


--------------------------------------------------------------------------------------------------------


 soft charge-density along one line, spin component           1
         0         1         2         3         4         5         6         7         8         9
 total charge-density along one line
 
 pseudopotential strength for first ion, spin component:           1
 19.613  27.370   0.001   0.003   0.001   0.003   0.005   0.003
 27.370  38.201   0.002   0.004   0.002   0.004   0.007   0.003
  0.001   0.002   4.359   0.000   0.000   8.131   0.000   0.000
  0.003   0.004   0.000   4.359   0.000   0.000   8.131   0.000
  0.001   0.002   0.000   0.000   4.358   0.000   0.000   8.130
  0.003   0.004   8.131   0.000   0.000  15.177   0.001   0.001
  0.005   0.007   0.000   8.131   0.000   0.001  15.177   0.001
  0.003   0.003   0.000   0.000   8.130   0.001   0.001  15.176
 total augmentation occupancy for first ion, spin component:           1
  5.564  -2.042   0.051  -0.337  -0.054  -0.014   0.101   0.017
 -2.042   0.812  -0.035   0.204   0.031   0.008  -0.045  -0.006
  0.051  -0.035   2.840  -0.111  -0.030  -0.616   0.038   0.009
 -0.337   0.204  -0.111   3.287   0.050   0.039  -0.776  -0.019
 -0.054   0.031  -0.030   0.050   2.846   0.009  -0.019  -0.616
 -0.014   0.008  -0.616   0.039   0.009   0.140  -0.011  -0.002
  0.101  -0.045   0.038  -0.776  -0.019  -0.011   0.186   0.006
  0.017  -0.006   0.009  -0.019  -0.616  -0.002   0.006   0.140


------------------------ aborting loop because EDIFF is reached ----------------------------------------


    CHARGE:  cpu time    0.2290: real time    0.2288
    FORLOC:  cpu time    0.1260: real time    0.1259
    FORNL :  cpu time    0.8309: real time    0.8305
    STRESS:  cpu time    2.7026: real time    2.7005
    FORCOR:  cpu time    1.0008: real time    1.0010
    FORHAR:  cpu time    0.3539: real time    0.3532
    MIXING:  cpu time    0.0920: real time    0.0924
    OFIELD:  cpu time    0.0000: real time    0.0001

  FORCE on cell =-STRESS in cart. coord.  units (eV):
  Direction    XX          YY          ZZ          XY          YZ          ZX
  --------------------------------------------------------------------------------------
  Alpha Z     2.51538     2.51538     2.51538
  Ewald     876.64706   876.62235   876.71007    -0.21850     0.02563    -0.50464
  Hartree  1186.86724  1186.82588  1187.56359    -0.28107    -0.13460    -0.45419
  E(xc)    -180.33631  -180.25407  -180.24568     0.07394     0.05227     0.05707
  Local   -2546.46878 -2546.37195 -2547.11442     0.52183     0.10776     0.98919
  n-local   238.78656   238.37423   238.21351    -0.36464    -0.23564    -0.30126
  augment   -13.73918   -13.74123   -13.74217    -0.00006     0.00101    -0.00033
  Kinetic   435.15383   435.37073   435.38551     0.19723     0.14482     0.15218
  Fock        0.00000     0.00000     0.00000     0.00000     0.00000     0.00000
  -------------------------------------------------------------------------------------
  Total      -0.57421    -0.65868    -0.71420    -0.07127    -0.03874    -0.06197
  in kB      -0.11500    -0.13191    -0.14303    -0.01427    -0.00776    -0.01241
  external pressure =       -0.13 kB  Pullay stress =        0.00 kB


 VOLUME and BASIS-vectors are now :
 -----------------------------------------------------------------------------
  energy-cutoff  :      400.00
[...]

--------------------------------------- Iteration     19(   1)  ---------------------------------------


    POTLOK:  cpu time    0.9639: real time    0.9688
    SETDIJ:  cpu time    0.0070: real time    0.0065
     EDDAV:  cpu time    3.2975: real time    3.3014
       DOS:  cpu time    0.0010: real time    0.0004
    CHARGE:  cpu time    0.2280: real time    0.2408
    MIXING:  cpu time    0.0240: real time    0.0238
    --------------------------------------------
      LOOP:  cpu time    4.5213: real time    4.5417

 eigenvalue-minimisations  :    84
 total energy-change (2. order) :-0.1546214E-03  (-0.5698403E-03)
 number of electron      55.9999984 magnetization 
 augmentation part       -4.3147087 magnetization 

 Broyden mixing:
  rms(total) = 0.23907E-02    rms(broyden)= 0.23901E-02
  rms(prec ) = 0.25043E-02
  weight for this iteration     100.00

 Free energy of the ion-electron system (eV)
  ---------------------------------------------------
  alpha Z        PSCENC =         2.51538199
  Ewald energy   TEWEN  =      2591.38911345
  -Hartree energ DENC   =     -3523.52741004
  -exchange      EXHF   =         0.00000000
  -V(xc)+E(xc)   XCENC  =       -38.78240561
  PAW double counting   =      3697.38615795    -3542.11935014
  entropy T*S    EENTRO =        -0.00000000
  eigenvalues    EBANDS =      -528.87810766
  atomic energy  EATOM  =      1241.89512738
  Solvation  Ediel_sol  =         0.00000000
  ---------------------------------------------------
  free energy    TOTEN  =      -100.12149268 eV

  energy without entropy =     -100.12149268  energy(sigma->0) =     -100.12149268


--------------------------------------------------------------------------------------------------------




--------------------------------------- Iteration     19(   2)  ---------------------------------------


    POTLOK:  cpu time    0.9649: real time    0.9656
    SETDIJ:  cpu time    0.0060: real time    0.0063
     EDDAV:  cpu time    4.3333: real time    4.3428
       DOS:  cpu time    0.0010: real time    0.0004
    CHARGE:  cpu time    0.2280: real time    0.2284
    MIXING:  cpu time    0.0240: real time    0.0244
    --------------------------------------------
      LOOP:  cpu time    5.5572: real time    5.5680

 eigenvalue-minimisations  :   120
 total energy-change (2. order) :-0.1728731E-04  (-0.2102621E-04)
 number of electron      55.9999984 magnetization 
 augmentation part       -4.3148122 magnetization 

 Broyden mixing:
  rms(total) = 0.13757E-02    rms(broyden)= 0.13753E-02
  rms(prec ) = 0.14762E-02
  weight for this iteration     100.00

 eigenvalues of (default mixing * dielectric matrix)
  average eigenvalue GAMMA=   1.0732
  1.0732

 Free energy of the ion-electron system (eV)
  ---------------------------------------------------
  alpha Z        PSCENC =         2.51538199
  Ewald energy   TEWEN  =      2591.38911345
  -Hartree energ DENC   =     -3523.54542491
  -exchange      EXHF   =         0.00000000
  -V(xc)+E(xc)   XCENC  =       -38.78147026
  PAW double counting   =      3698.78095493    -3543.51500740
  entropy T*S    EENTRO =        -0.00000000
  eigenvalues    EBANDS =      -528.86018514
  atomic energy  EATOM  =      1241.89512738
  Solvation  Ediel_sol  =         0.00000000
  ---------------------------------------------------
  free energy    TOTEN  =      -100.12150996 eV

  energy without entropy =     -100.12150996  energy(sigma->0) =     -100.12150996


--------------------------------------------------------------------------------------------------------




--------------------------------------- Iteration     19(   3)  ---------------------------------------


    POTLOK:  cpu time    0.9599: real time    0.9644
    SETDIJ:  cpu time    0.0060: real time    0.0063
     EDDAV:  cpu time    4.3553: real time    4.3619
       DOS:  cpu time    0.0000: real time    0.0003
    --------------------------------------------
      LOOP:  cpu time    5.3212: real time    5.3329

 eigenvalue-minimisations  :   120
 total energy-change (2. order) : 0.9464766E-06  (-0.6629904E-06)
 number of electron      55.9999984 magnetization 
 augmentation part       -4.3148122 magnetization 

 Free energy of the ion-electron system (eV)
  ---------------------------------------------------
  alpha Z        PSCENC =         2.51538199
  Ewald energy   TEWEN  =      2591.38911345
  -Hartree energ DENC   =     -3523.55864365
  -exchange      EXHF   =         0.00000000
  -V(xc)+E(xc)   XCENC  =       -38.78135849
  PAW double counting   =      3699.27970859    -3544.01438716
  entropy T*S    EENTRO =        -0.00000000
  eigenvalues    EBANDS =      -528.84645113
  atomic energy  EATOM  =      1241.89512738
  Solvation  Ediel_sol  =         0.00000000
  ---------------------------------------------------
  free energy    TOTEN  =      -100.12150902 eV

  energy without entropy =     -100.12150902  energy(sigma->0) =     -100.12150902


--------------------------------------------------------------------------------------------------------




 average (electrostatic) potential at core
  the test charge radii are     0.9892  1.1631  0.5201
  (the norm of the test charge is              1.0000)
       1 -93.3460       2 -93.3587       3 -93.3589       4 -93.4263       5 -40.4434
       6 -40.4060       7 -40.4062       8 -40.5163       9 -40.4871      10 -40.4872
      11 -40.8602      12 -40.8611      13 -41.0093      14 -40.9822      15 -40.9829
      16 -40.8542      17 -40.8543      18 -40.8963      19 -41.0250      20 -40.9837
      21 -40.9825      22 -41.0092      23 -40.8543      24 -40.8535      25 -40.9845
      26 -40.9846
 
 
 
 E-fermi :  -5.3213     XC(G=0):  -0.6059     alpha+bet : -0.3306


 k-point     1 :       0.0000    0.0000    0.0000
  band No.  band energies     occupation 
      1     -15.2363      2.00000
      2     -14.2851      2.00000
      3     -14.2600      2.00000
      4     -14.0821      2.00000
      5     -13.0172      2.00000
      6     -12.9996      2.00000
      7     -11.8168      2.00000
      8     -11.7957      2.00000
      9     -11.5853      2.00000
     10     -10.6630      2.00000
     11      -8.9536      2.00000
     12      -8.7014      2.00000
     13      -8.5802      2.00000
     14      -8.5678      2.00000
     15      -8.2251      2.00000
     16      -8.1983      2.00000
     17      -8.0650      2.00000
     18      -7.9065      2.00000
     19      -7.8488      2.00000
     20      -7.7971      2.00000
     21      -6.8028      2.00000
     22      -6.7963      2.00000
     23      -6.4992      2.00000
     24      -6.4588      2.00000
     25      -6.3985      2.00000
     26      -6.3388      2.00000
     27      -6.2792      2.00000
     28      -6.2649      2.00000
     29      -1.5984      0.00000
     30      -1.4250      0.00000
     31      -1.3591      0.00000
     32      -1.3273      0.00000
     33      -1.2369      0.00000
     34      -1.1984      0.00000
     35      -1.1066      0.00000
     36      -0.9632      0.00000
     37      -0.8538      0.00000
     38      -0.5715      0.00000
     39      -0.3229      0.00000
     40      -0.1873      0.00000
     41      -0.1489      0.00000
     42      -0.1214      0.00000


--------------------------------------------------------------------------------------------------------


 soft charge-density along one line, spin component           1
         0         1         2         3         4         5         6         7         8         9
 total charge-density along one line
 
 pseudopotential strength for first ion, spin component:           1
 19.615  27.374   0.001   0.003   0.001   0.003   0.006   0.003
 27.374  38.206   0.002   0.004   0.002   0.004   0.008   0.004
  0.001   0.002   4.361   0.000   0.000   8.136   0.000   0.000
  0.003   0.004   0.000   4.362   0.000   0.000   8.136   0.000
  0.001   0.002   0.000   0.000   4.361   0.000   0.000   8.135
  0.003   0.004   8.136   0.000   0.000  15.186   0.000   0.001
  0.006   0.008   0.000   8.136   0.000   0.000  15.187   0.001
  0.003   0.004   0.000   0.000   8.135   0.001   0.001  15.186
 total augmentation occupancy for first ion, spin component:           1
  5.907  -2.228  -0.008  -0.478  -0.115   0.005   0.149   0.037
 -2.228   0.901  -0.009   0.272   0.060  -0.000  -0.067  -0.016
 -0.008  -0.009   2.927  -0.180  -0.086  -0.644   0.058   0.024
 -0.478   0.272  -0.180   3.509   0.029   0.058  -0.843  -0.014
 -0.115   0.060  -0.086   0.029   2.987   0.024  -0.014  -0.658
  0.005  -0.000  -0.644   0.058   0.024   0.148  -0.016  -0.006
  0.149  -0.067   0.058  -0.843  -0.014  -0.016   0.206   0.005
  0.037  -0.016   0.024  -0.014  -0.658  -0.006   0.005   0.151


------------------------ aborting loop because EDIFF is reached ----------------------------------------


    CHARGE:  cpu time    0.2240: real time    0.2294
    FORLOC:  cpu time    0.1270: real time    0.1263
    FORNL :  cpu time    0.8719: real time    0.8725
    STRESS:  cpu time    2.8686: real time    2.8709
    FORCOR:  cpu time    0.9998: real time    1.0021
    FORHAR:  cpu time    0.3499: real time    0.3523
    MIXING:  cpu time    0.0250: real time    0.0248
    OFIELD:  cpu time    0.0000: real time    0.0000

  FORCE on cell =-STRESS in cart. coord.  units (eV):
  Direction    XX          YY          ZZ          XY          YZ          ZX
  --------------------------------------------------------------------------------------
  Alpha Z     2.51538     2.51538     2.51538
  Ewald     861.68774   863.38739   866.31231     0.06295    -0.56728    -0.00587
  Hartree  1171.70640  1174.27200  1177.61750     0.96907     0.14747     0.80150
  E(xc)    -180.25600  -180.16890  -180.18182     0.07898     0.05939     0.05724
  Local   -2516.03750 -2520.24215 -2526.40066    -0.97753     0.45246    -0.73071
  n-local   237.67004   237.26269   237.00027    -0.36075    -0.22142    -0.31943
  augment   -13.95135   -13.96675   -13.94510    -0.01473    -0.01368    -0.00676
  Kinetic   435.65965   435.85293   436.16648     0.16713     0.05924     0.17526
  Fock        0.00000     0.00000     0.00000     0.00000     0.00000     0.00000
  -------------------------------------------------------------------------------------
  Total      -1.00564    -1.08741    -0.91564    -0.07488    -0.08382    -0.02876
  in kB      -0.20140    -0.21778    -0.18338    -0.01500    -0.01679    -0.00576
  external pressure =       -0.20 kB  Pullay stress =        0.00 kB


 VOLUME and BASIS-vectors are now :
 -----------------------------------------------------------------------------
  energy-cutoff  :      400.00
  volume of cell :     8000.00
      direct lattice vectors                 reciprocal lattice vectors
    20.000000000  0.000000000  0.000000000     0.050000000  0.000000000  0.000000000
     0.000000000 20.000000000  0.000000000     0.000000000  0.050000000  0.000000000
     0.000000000  0.000000000 20.000000000     0.000000000  0.000000000  0.050000000

  length of vectors
    20.000000000 20.000000000 20.000000000     0.050000000  0.050000000  0.050000000


 FORCES acting on ions
    electron-ion (+dipol)            ewald-force                    non-local-force                 convergence-correction
 -----------------------------------------------------------------------------------------------
   0.104E+02 -.206E+02 0.862E+02   -.110E+02 0.202E+02 -.877E+02   0.599E+00 0.495E+00 0.156E+01   -.482E-03 -.580E-03 -.978E-03
   0.868E+02 -.505E+01 0.433E+02   -.884E+02 0.534E+01 -.449E+02   0.159E+01 -.282E+00 0.158E+01   -.297E-02 -.796E-03 0.459E-03
   -.371E+02 0.536E+02 0.721E+02   0.377E+02 -.543E+02 -.742E+02   -.535E+00 0.722E+00 0.208E+01   0.125E-02 -.284E-02 -.513E-03
   0.276E+02 0.802E+02 -.448E+02   -.283E+02 -.823E+02 0.460E+02   0.726E+00 0.211E+01 -.115E+01   -.595E-03 -.116E-02 -.303E-03
   -.293E+02 -.831E+02 0.436E+02   0.294E+02 0.838E+02 -.442E+02   -.177E+00 -.690E+00 0.640E+00   0.106E-02 0.162E-02 0.127E-02
   0.809E+02 0.117E+02 -.411E+02   -.815E+02 -.121E+02 0.411E+02   0.560E+00 0.394E+00 0.183E-02   -.111E-02 -.847E-03 0.109E-03
   -.522E+02 0.745E+02 -.100E+02   0.523E+02 -.752E+02 0.988E+01   -.236E-01 0.669E+00 0.137E+00   0.250E-04 -.141E-02 -.173E-03
   -.428E+02 -.703E+02 -.409E+02   0.431E+02 0.708E+02 0.412E+02   -.315E+00 -.518E+00 -.302E+00   0.475E-03 0.581E-03 0.867E-03
   -.856E+02 0.498E+01 -.458E+02   0.866E+02 -.500E+01 0.463E+02   -.947E+00 0.233E-01 -.497E+00   -.141E-03 0.645E-03 0.467E-04
   0.356E+02 -.525E+02 -.739E+02   -.360E+02 0.530E+02 0.747E+02   0.371E+00 -.600E+00 -.804E+00   0.550E-03 0.335E-03 -.109E-03
   0.210E+02 0.411E+02 0.612E+01   -.223E+02 -.434E+02 -.736E+01   0.138E+01 0.230E+01 0.125E+01   -.411E-03 -.726E-03 -.305E-03
   0.808E+00 0.219E+02 -.410E+02   -.430E+00 -.225E+02 0.439E+02   -.380E+00 0.617E+00 -.288E+01   0.797E-04 -.128E-03 0.552E-03
   -.259E+02 0.384E+02 -.398E+01   0.273E+02 -.404E+02 0.417E+01   -.137E+01 0.203E+01 -.201E+00   0.655E-03 -.877E-03 0.441E-03
   -.437E+02 -.331E+01 0.543E+01   0.460E+02 0.363E+01 -.649E+01   -.226E+01 -.329E+00 0.106E+01   0.210E-03 0.406E-03 -.555E-03
   -.199E+02 0.769E+01 -.389E+02   0.203E+02 -.823E+01 0.414E+02   -.376E+00 0.533E+00 -.243E+01   -.463E-03 0.136E-03 0.374E-03
   -.369E+02 0.490E+01 0.284E+02   0.396E+02 -.449E+01 -.296E+02   -.263E+01 -.411E+00 0.129E+01   0.397E-03 -.765E-03 -.121E-03
   0.855E+01 0.358E+02 0.290E+02   -.986E+01 -.381E+02 -.304E+02   0.131E+01 0.228E+01 0.135E+01   0.493E-03 -.937E-03 -.289E-03
   0.639E+01 -.995E+01 0.471E+02   -.677E+01 0.105E+02 -.500E+02   0.378E+00 -.590E+00 0.282E+01   -.894E-04 0.232E-03 -.900E-03
   -.214E+02 -.354E+02 -.199E+02   0.226E+02 0.373E+02 0.210E+02   -.115E+01 -.191E+01 -.106E+01   0.261E-03 0.317E-03 0.492E-03
   0.276E+01 -.307E+01 -.440E+02   -.249E+01 0.258E+01 0.465E+02   -.279E+00 0.488E+00 -.245E+01   0.478E-03 -.294E-03 0.166E-03
   0.245E+02 -.356E+02 -.105E+02   -.259E+02 0.377E+02 0.103E+02   0.142E+01 -.207E+01 0.201E+00   -.188E-04 0.497E-03 -.501E-03
   0.415E+02 0.661E+01 -.197E+02   -.437E+02 -.695E+01 0.208E+02   0.221E+01 0.342E+00 -.104E+01   -.850E-03 -.144E-03 0.788E-03
   0.322E+02 0.247E+02 0.236E+02   -.336E+02 -.269E+02 -.249E+02   0.144E+01 0.222E+01 0.132E+01   -.109E-02 -.182E-03 0.703E-04
   0.347E+02 -.291E+02 0.117E+02   -.364E+02 0.315E+02 -.120E+02   0.165E+01 -.244E+01 0.291E+00   -.804E-03 -.159E-03 0.143E-03
   0.125E+02 -.412E+02 0.116E+02   -.138E+02 0.433E+02 -.119E+02   0.136E+01 -.209E+01 0.285E+00   -.179E-04 0.865E-03 0.478E-03
   -.335E+02 -.197E+02 0.223E+02   0.357E+02 0.201E+02 -.234E+02   -.221E+01 -.404E+00 0.112E+01   0.824E-03 0.473E-03 0.295E-03
 -----------------------------------------------------------------------------------------------
   -.233E+01 -.288E+01 -.417E+01   0.711E-14 0.178E-13 0.426E-13   0.234E+01 0.289E+01 0.417E+01   -.229E-02 -.573E-02 0.180E-02
 
 
 POSITION                                       TOTAL-FORCE (eV/Angst)
 -----------------------------------------------------------------------------------
      9.49376     11.09684      7.68400         0.002663      0.003724      0.004085
      7.39606     10.77321      8.69924         0.004469      0.005711      0.006483
     10.81096      9.15952      7.90300         0.003728      0.005989      0.006513
      9.00445      8.28348     11.28601         0.004503      0.006990      0.004951
     10.61588     12.96338      8.71256        -0.002636     -0.007018      0.003064
      7.67247     10.26716     11.03464         0.006375      0.001995     -0.003142
     11.13309      8.63173     10.22776        -0.003337      0.006747     -0.000840
     10.96832     12.53009     11.10215        -0.006369     -0.013422     -0.000438
     12.30852     10.48808     11.32745        -0.006477      0.003984      0.000293
      8.78245     12.15439     12.14980         0.006621     -0.002188     -0.003049
      8.30629      7.11869     10.65187         0.004265      0.007203      0.003890
      9.19652      7.97345     12.73884        -0.001283     -0.001021     -0.002933
     12.00384      7.34052     10.35403        -0.002127     -0.000961     -0.005340
     13.70687     10.69112     10.67109         0.000736     -0.004824      0.000956
     12.54145     10.15728     12.83185         0.002283     -0.004272      0.001014
     12.14395      9.37046      7.25079        -0.008026      0.002190      0.003241
     10.14367      8.00459      7.21776         0.000898      0.011618      0.006040
      9.29783     11.40194      6.22606        -0.001654      0.000696     -0.008163
     11.69628     13.74052     11.77177        -0.005772     -0.008083     -0.008565
      8.95513     11.85176     13.66819        -0.003721     -0.001624      0.002118
      7.90268     13.43417     12.02487        -0.003559     -0.002577      0.002067
      6.27117     10.04927     11.69052        -0.001494     -0.001558     -0.005318
      6.66927      9.64636      8.02795         0.010402      0.006830      0.003778
      6.56003     12.00871      8.55292         0.007002     -0.005408     -0.000050
      9.77023     14.25986      8.53531        -0.005335     -0.004578     -0.004859
     11.98824     13.21141      8.01791        -0.002154     -0.006143     -0.005796
 -----------------------------------------------------------------------------------
    total drift:                                0.000662      0.000912      0.000297


--------------------------------------------------------------------------------------------------------



  FREE ENERGIE OF THE ION-ELECTRON SYSTEM (eV)
  ---------------------------------------------------
  free  energy   TOTEN  =      -100.12150902 eV

  energy  without entropy=     -100.12150902  energy(sigma->0) =     -100.12150902
 
 d Force = 0.1686381E-03[ 0.120E-03, 0.218E-03]  d Energy = 0.1716758E-03-0.304E-05
 d Force =-0.6330276E+00[-0.633E+00,-0.633E+00]  d Ewald  =-0.6330276E+00 0.133E-07


--------------------------------------------------------------------------------------------------------


    POTLOK:  cpu time    0.9679: real time    0.9702


--------------------------------------------------------------------------------------------------------


 Conjugate gradient step on ions:
 trial-energy change:   -0.000172  1 .order   -0.000169   -0.000218   -0.000120
  (g-gl).g = 0.186E-03      g.g   = 0.184E-03  gl.gl    = 0.568E-03
 g(Force)  = 0.184E-03   g(Stress)= 0.000E+00 ortho     =-0.380E-05
 gamma     =   0.32717
 trial     =   1.19395
 opt step  =   2.64845  (harmonic =   2.64845) maximal distance =0.00221320
 next E    =  -100.121579   (d E  =  -0.00024)


--------------------------------------------------------------------------------------------------------


  
 reached required accuracy - stopping structural energy minimisation
 writing wavefunctions
     LOOP+:  cpu time   22.2206: real time   22.7340
    4ORBIT:  cpu time    0.0000: real time    0.0000

 total amount of memory used by VASP MPI-rank0   131440. kBytes
=======================================================================

   base      :      30000. kBytes
   nonl-proj :      17624. kBytes
   fftplans  :      26957. kBytes
   grid      :      48673. kBytes
   one-center:         40. kBytes
   wavefun   :       8146. kBytes
 
  
  
 General timing and accounting informations for this job:
 ========================================================
  
                  Total CPU time used (sec):     1122.355
                            User time (sec):     1100.056
                          System time (sec):       22.300
                         Elapsed time (sec):     1127.128
  
                   Maximum memory used (kb):      187732.
                   Average memory used (kb):           0.
  
                          Minor page faults:      5730850
                          Major page faults:            6
                 Voluntary context switches:         6917
