 vasp.5.4.4.18Apr17-6-g9f103f2a35 (build Nov 06 2017 19:16:10) complex          
  
 executed on           IFC91_ompi date 2018.07.11  06:30:52
 running on   12 total cores
 distrk:  each k-point on   12 cores,    1 groups
 distr:  one band on NCORES_PER_BAND=   6 cores,    2 groups


--------------------------------------------------------------------------------------------------------


 INCAR:
 POTCAR:    PAW_PBE Si 05Jan2001                  
 POTCAR:    PAW_PBE Ge 05Jan2001                  
 POTCAR:    PAW_PBE H 15Jun2001                   
 POTCAR:    PAW_PBE Si 05Jan2001                  
   VRHFIN =Si: s2p2                                                             
   LEXCH  = PE                                                                  
   EATOM  =   103.0669 eV,    7.5752 Ry                                         
                                                                                
   TITEL  = PAW_PBE Si 05Jan2001                                                
   LULTRA =        F    use ultrasoft PP ?                                      
   IUNSCR =        1    unscreen: 0-lin 1-nonlin 2-no                           
   RPACOR =    1.500    partial core radius                                     
   POMASS =   28.085; ZVAL   =    4.000    mass and valenz                      
   RCORE  =    1.900    outmost cutoff radius                                   
   RWIGS  =    2.480; RWIGS  =    1.312    wigner-seitz radius (au A)           
   ENMAX  =  245.345; ENMIN  =  184.009 eV                                      
   ICORE  =        2    local potential                                         
   LCOR   =        T    correct aug charges                                     
   LPAW   =        T    paw PP                                                  
   EAUG   =  322.069                                                            
   DEXC   =    0.000                                                            
   RMAX   =    1.950    core radius for proj-oper                               
   RAUG   =    1.300    factor for augmentation sphere                          
   RDEP   =    1.993    radius for radial grids                                 
   RDEPT  =    1.837    core radius for aug-charge                              
                                                                                
   Atomic configuration                                                         
    6 entries                                                                   
     n  l   j            E        occ.                                          
     1  0  0.50     -1785.8828   2.0000                                         
     2  0  0.50      -139.4969   2.0000                                         
     2  1  1.50       -95.5546   6.0000                                         
     3  0  0.50       -10.8127   2.0000                                         
     3  1  0.50        -4.0811   2.0000                                         
     3  2  1.50        -4.0817   0.0000                                         
   Description                                                                  
     l       E           TYP  RCUT    TYP  RCUT                                 
     0    -10.8127223     23  1.900                                             
     0     -7.6451159     23  1.900                                             
     1     -4.0811372     23  1.900                                             
     1      2.4879257     23  1.900                                             
     2     -4.0817478      7  1.900                                             
  local pseudopotential read in
  partial core-charges read in
  partial kinetic energy density read in
  atomic valenz-charges read in
  non local Contribution for L=           0  read in
    real space projection operators read in
  non local Contribution for L=           0  read in
    real space projection operators read in
  non local Contribution for L=           1  read in
    real space projection operators read in
  non local Contribution for L=           1  read in
    real space projection operators read in
    PAW grid and wavefunctions read in
 
   number of l-projection  operators is LMAX  =           4
   number of lm-projection operators is LMMAX =           8
 
 POTCAR:    PAW_PBE Ge 05Jan2001                  
   VRHFIN =Ge: s2p2                                                             
   LEXCH  = PE                                                                  
   EATOM  =   104.9960 eV,    7.7170 Ry                                         
                                                                                
   TITEL  = PAW_PBE Ge 05Jan2001                                                
   LULTRA =        F    use ultrasoft PP ?                                      
   IUNSCR =        1    unscreen: 0-lin 1-nonlin 2-no                           
   RPACOR =    2.170    partial core radius                                     
   POMASS =   72.610; ZVAL   =    4.000    mass and valenz                      
   RCORE  =    2.300    outmost cutoff radius                                   
   RWIGS  =    2.300; RWIGS  =    1.217    wigner-seitz radius (au A)           
   ENMAX  =  173.807; ENMIN  =  130.355 eV                                      
   ICORE  =        3    local potential                                         
   LCOR   =        T    correct aug charges                                     
   LPAW   =        T    paw PP                                                  
   EAUG   =  385.843                                                            
   DEXC   =    0.000                                                            
   RMAX   =    2.342    core radius for proj-oper                               
   RAUG   =    1.300    factor for augmentation sphere                          
   RDEP   =    2.318    radius for radial grids                                 
   RDEPT  =    2.103    core radius for aug-charge                              
                                                                                
   Atomic configuration                                                         
   10 entries                                                                   
     n  l   j            E        occ.                                          
     1  0  0.50    -10959.8463   2.0000                                         
     2  0  0.50     -1371.6056   2.0000                                         
     2  1  1.50     -1198.4791   6.0000                                         
     3  0  0.50      -168.4733   2.0000                                         
     3  1  1.50      -115.6019   6.0000                                         
     3  2  2.50       -29.3106  10.0000                                         
     4  0  0.50       -11.7309   2.0000                                         
     4  1  0.50        -3.8952   2.0000                                         
     4  2  1.50        -4.0817   0.0000                                         
     4  3  2.50        -4.0817   0.0000                                         
   Description                                                                  
     l       E           TYP  RCUT    TYP  RCUT                                 
     0    -11.7309493     23  2.300                                             
     0     -7.4578696     23  2.300                                             
     1     -3.8952261     23  2.300                                             
     1      6.1178114     23  2.300                                             
     2     -4.0817478     23  2.300                                             
     3     -1.3605826      7  2.300                                             
  local pseudopotential read in
  partial core-charges read in
  partial kinetic energy density read in
  atomic valenz-charges read in
  non local Contribution for L=           0  read in
    real space projection operators read in
  non local Contribution for L=           0  read in
    real space projection operators read in
  non local Contribution for L=           1  read in
    real space projection operators read in
  non local Contribution for L=           1  read in
    real space projection operators read in
  non local Contribution for L=           2  read in
    real space projection operators read in
    PAW grid and wavefunctions read in
 
   number of l-projection  operators is LMAX  =           5
   number of lm-projection operators is LMMAX =          13
 
 POTCAR:    PAW_PBE H 15Jun2001                   
   VRHFIN =H: ultrasoft test                                                    
   LEXCH  = PE                                                                  
   EATOM  =    12.4884 eV,    0.9179 Ry                                         
                                                                                
   TITEL  = PAW_PBE H 15Jun2001                                                 
   LULTRA =        F    use ultrasoft PP ?                                      
   IUNSCR =        0    unscreen: 0-lin 1-nonlin 2-no                           
   RPACOR =    0.000    partial core radius                                     
   POMASS =    1.000; ZVAL   =    1.000    mass and valenz                      
   RCORE  =    1.100    outmost cutoff radius                                   
   RWIGS  =    0.700; RWIGS  =    0.370    wigner-seitz radius (au A)           
   ENMAX  =  250.000; ENMIN  =  200.000 eV                                      
   RCLOC  =    0.701    cutoff for local pot                                    
   LCOR   =        T    correct aug charges                                     
   LPAW   =        T    paw PP                                                  
   EAUG   =  400.000                                                            
   RMAX   =    1.123    core radius for proj-oper                               
   RAUG   =    1.200    factor for augmentation sphere                          
   RDEP   =    1.112    radius for radial grids                                 
   RDEPT  =    0.926    core radius for aug-charge                              
                                                                                
   Atomic configuration                                                         
    2 entries                                                                   
     n  l   j            E        occ.                                          
     1  0  0.50        -6.4927   1.0000                                         
     2  1  0.50        -3.4015   0.0000                                         
   Description                                                                  
     l       E           TYP  RCUT    TYP  RCUT                                 
     0     -6.4927494     23  1.100                                             
     0      6.8029130     23  1.100                                             
     1     -4.0817478     23  1.100                                             
  local pseudopotential read in
  atomic valenz-charges read in
  non local Contribution for L=           0  read in
    real space projection operators read in
  non local Contribution for L=           0  read in
    real space projection operators read in
  non local Contribution for L=           1  read in
    real space projection operators read in
    PAW grid and wavefunctions read in
 
   number of l-projection  operators is LMAX  =           3
   number of lm-projection operators is LMMAX =           5
 

 ----------------------------------------------------------------------------- 
|                                                                             |
|  ADVICE TO THIS USER RUNNING 'VASP/VAMP'   (HEAR YOUR MASTER'S VOICE ...):  |
|                                                                             |
|      You have a (more or less) 'large supercell' and for larger cells       |
|      it might be more efficient to use real space projection opertators     |
|      So try LREAL= Auto  in the INCAR   file.                               |
|      Mind:          For very  accurate calculation you might also keep the  |
|      reciprocal projection scheme          (i.e. LREAL=.FALSE.)             |
|                                                                             |
 ----------------------------------------------------------------------------- 

  PAW_PBE Si 05Jan2001                  :
 energy of atom  1       EATOM= -103.0669
 kinetic energy error for atom=    0.0012 (will be added to EATOM!!)
  PAW_PBE Ge 05Jan2001                  :
 energy of atom  2       EATOM= -104.9960
 kinetic energy error for atom=    0.0003 (will be added to EATOM!!)
  PAW_PBE H 15Jun2001                   :
 energy of atom  3       EATOM=  -12.4884
 kinetic energy error for atom=    0.0098 (will be added to EATOM!!)
 
 
 POSCAR: SiGeH16                                 
  positions in direct lattice
  No initial velocities read in
 exchange correlation table for  LEXCH =        8
   RHO(1)=    0.500       N(1)  =     2000
   RHO(2)=  100.500       N(2)  =     4000
 


--------------------------------------------------------------------------------------------------------


 ion  position               nearest neighbor table
   1  0.369  0.539  0.436-  23 1.55  24 1.55   6 2.39   4 2.39
   2  0.542  0.457  0.396-  17 1.55  16 1.55   7 2.39   4 2.39
   3  0.613  0.525  0.565-  15 1.55  14 1.55   8 2.39   7 2.39
   4  0.475  0.556  0.385-  18 1.55   5 2.39   1 2.39   2 2.39
   5  0.531  0.648  0.437-  25 1.55  26 1.55   8 2.39   4 2.39
   6  0.385  0.515  0.552-  22 1.55  10 2.39   9 2.39   1 2.39
   7  0.557  0.433  0.512-  13 1.55   2 2.39   3 2.39   9 2.39
   8  0.547  0.624  0.554-  19 1.55   5 2.39   3 2.39  10 2.39
   9  0.451  0.416  0.564-  12 1.55  11 1.55   6 2.39   7 2.39
  10  0.440  0.606  0.605-  20 1.55  21 1.55   6 2.39   8 2.39
  11  0.415  0.357  0.529-   9 1.55
  12  0.461  0.400  0.639-   9 1.55
  13  0.600  0.369  0.520-   7 1.55
  14  0.682  0.536  0.531-   3 1.55
  15  0.623  0.509  0.640-   3 1.55
  16  0.611  0.469  0.363-   2 1.55
  17  0.506  0.398  0.362-   2 1.55
  18  0.465  0.572  0.309-   4 1.55
  19  0.583  0.683  0.588-   8 1.55
  20  0.451  0.590  0.680-  10 1.55
  21  0.397  0.670  0.598-  10 1.55
  22  0.316  0.504  0.586-   6 1.55
  23  0.333  0.479  0.402-   1 1.55
  24  0.326  0.603  0.429-   1 1.55
  25  0.488  0.712  0.430-   5 1.55
  26  0.600  0.659  0.404-   5 1.55
 
  LATTYP: Found a simple cubic cell.
 ALAT       =    20.0000000000
  
  Lattice vectors:
  
 A1 = (  20.0000000000,   0.0000000000,   0.0000000000)
 A2 = (   0.0000000000,  20.0000000000,   0.0000000000)
 A3 = (   0.0000000000,   0.0000000000,  20.0000000000)


Analysis of symmetry for initial positions (statically):
=====================================================================
 Subroutine PRICEL returns:
 Original cell was already a primitive cell.
 

 Routine SETGRP: Setting up the symmetry group for a 
 simple cubic supercell.


 Subroutine GETGRP returns: Found  1 space group operations
 (whereof  1 operations were pure point group operations)
 out of a pool of 48 trial point group operations.


The static configuration has the point symmetry C_1 .


Analysis of symmetry for dynamics (positions and initial velocities):
=====================================================================
 Subroutine PRICEL returns:
 Original cell was already a primitive cell.
 

 Routine SETGRP: Setting up the symmetry group for a 
 simple cubic supercell.


 Subroutine GETGRP returns: Found  1 space group operations
 (whereof  1 operations were pure point group operations)
 out of a pool of 48 trial point group operations.


The dynamic configuration has the point symmetry C_1 .


 Subroutine INISYM returns: Found  1 space group operations
 (whereof  1 operations are pure point group operations),
 and found     1 'primitive' translations

 
 
 KPOINTS: Automatic mesh                          

Automatic generation of k-mesh.
Space group operators:
 irot       det(A)        alpha          n_x          n_y          n_z        tau_x        tau_y        tau_z
    1     1.000000     0.000000     1.000000     0.000000     0.000000     0.000000     0.000000     0.000000
 
 Subroutine IBZKPT returns following result:
 ===========================================
 
 Found      1 irreducible k-points:
 
 Following reciprocal coordinates:
            Coordinates               Weight
  0.000000  0.000000  0.000000      1.000000
 
 Following cartesian coordinates:
            Coordinates               Weight
  0.000000  0.000000  0.000000      1.000000
 


--------------------------------------------------------------------------------------------------------




 Dimension of arrays:
   k-points           NKPTS =      1   k-points in BZ     NKDIM =      1   number of bands    NBANDS=     42
   number of dos      NEDOS =    301   number of ions     NIONS =     26
   non local maximal  LDIM  =      5   non local SUM 2l+1 LMDIM =     13
   total plane-waves  NPLWV = 941192
   max r-space proj   IRMAX =      1   max aug-charges    IRDMAX=   6593
   dimension x,y,z NGX =    98 NGY =   98 NGZ =   98
   dimension x,y,z NGXF=   196 NGYF=  196 NGZF=  196
   support grid    NGXF=   196 NGYF=  196 NGZF=  196
   ions per type =               3   7  16
   NGX,Y,Z   is equivalent  to a cutoff of   8.15,  8.15,  8.15 a.u.
   NGXF,Y,Z  is equivalent  to a cutoff of  16.29, 16.29, 16.29 a.u.

 SYSTEM =  SiGe                                    
 POSCAR =  SiGeH16                                 

 Startparameter for this run:
   NWRITE =      2    write-flag & timer
   PREC   = normal    normal or accurate (medium, high low for compatibility)
   ISTART =      0    job   : 0-new  1-cont  2-samecut
   ICHARG =      2    charge: 1-file 2-atom 10-const
   ISPIN  =      1    spin polarized calculation?
   LNONCOLLINEAR =      F non collinear calculations
   LSORBIT =      F    spin-orbit coupling
   INIWAV =      1    electr: 0-lowe 1-rand  2-diag
   LASPH  =      F    aspherical Exc in radial PAW
   METAGGA=      F    non-selfconsistent MetaGGA calc.

 Electronic Relaxation 1
   ENCUT  =  400.0 eV  29.40 Ry    5.42 a.u.  32.61 32.61 32.61*2*pi/ulx,y,z
   ENINI  =  400.0     initial cutoff
   ENAUG  =  400.0 eV  augmentation charge cutoff
   NELM   =     60;   NELMIN=  2; NELMDL= -5     # of ELM steps 
   EDIFF  = 0.1E-05   stopping-criterion for ELM
   LREAL  =      F    real-space projection
   NLSPLINE    = F    spline interpolate recip. space projectors
   LCOMPAT=      F    compatible to vasp.4.4
   GGA_COMPAT  = T    GGA compatible to vasp.4.4-vasp.4.6
   LMAXPAW     = -100 max onsite density
   LMAXMIX     =    2 max onsite mixed and CHGCAR
   VOSKOWN=      0    Vosko Wilk Nusair interpolation
   ROPT   =    0.00000   0.00000   0.00000
 Ionic relaxation
   EDIFFG = -.2E-01   stopping-criterion for IOM
   NSW    =    200    number of steps for IOM
   NBLOCK =      1;   KBLOCK =    200    inner block; outer block 
   IBRION =      2    ionic relax: 0-MD 1-quasi-New 2-CG
   NFREE  =      1    steps in history (QN), initial steepest desc. (CG)
   ISIF   =      2    stress and relaxation
   IWAVPR =     11    prediction:  0-non 1-charg 2-wave 3-comb
   ISYM   =      2    0-nonsym 1-usesym 2-fastsym
   LCORR  =      T    Harris-Foulkes like correction to forces

   POTIM  = 0.5000    time-step for ionic-motion
   TEIN   =    0.0    initial temperature
   TEBEG  =    0.0;   TEEND  =   0.0 temperature during run
   SMASS  =  -3.00    Nose mass-parameter (am)
   estimated Nose-frequenzy (Omega)   =  0.10E-29 period in steps =****** mass=  -0.914E-26a.u.
   SCALEE = 1.0000    scale energy and forces
   NPACO  =    256;   APACO  = 16.0  distance and # of slots for P.C.
   PSTRESS=    0.0 pullay stress

  Mass of Ions in am
   POMASS =  28.09 72.61  1.00
  Ionic Valenz
   ZVAL   =   4.00  4.00  1.00
  Atomic Wigner-Seitz radii
   RWIGS  =  -1.00 -1.00 -1.00
  virtual crystal weights 
   VCA    =   1.00  1.00  1.00
   NELECT =      56.0000    total number of electrons
   NUPDOWN=      -1.0000    fix difference up-down

 DOS related values:
   EMIN   =  10.00;   EMAX   =-10.00  energy-range for DOS
   EFERMI =   0.00
   ISMEAR =     0;   SIGMA  =   0.20  broadening in eV -4-tet -1-fermi 0-gaus

 Electronic relaxation 2 (details)
   IALGO  =     38    algorithm
   LDIAG  =      T    sub-space diagonalisation (order eigenvalues)
   LSUBROT=      F    optimize rotation matrix (better conditioning)
   TURBO    =      0    0=normal 1=particle mesh
   IRESTART =      0    0=no restart 2=restart with 2 vectors
   NREBOOT  =      0    no. of reboots
   NMIN     =      0    reboot dimension
   EREF     =   0.00    reference energy to select bands
   IMIX   =      4    mixing-type and parameters
     AMIX     =   0.40;   BMIX     =  1.00
     AMIX_MAG =   1.60;   BMIX_MAG =  1.00
     AMIN     =   0.10
     WC   =   100.;   INIMIX=   1;  MIXPRE=   1;  MAXMIX= -45

 Intra band minimization:
   WEIMIN = 0.0010     energy-eigenvalue tresh-hold
   EBREAK =  0.60E-08  absolut break condition
   DEPER  =   0.30     relativ break condition  

   TIME   =   0.40     timestep for ELM

  volume/ion in A,a.u.               =     307.69      2076.41
  Fermi-wavevector in a.u.,A,eV,Ry     =   0.313166  0.591797  1.334361  0.098073
  Thomas-Fermi vector in A             =   1.193276
 
 Write flags
   LWAVE        =      T    write WAVECAR
   LDOWNSAMPLE  =      F    k-point downsampling of WAVECAR
   LCHARG       =      T    write CHGCAR
   LVTOT        =      F    write LOCPOT, total local potential
   LVHAR        =      F    write LOCPOT, Hartree potential only
   LELF         =      F    write electronic localiz. function (ELF)
   LORBIT       =      0    0 simple, 1 ext, 2 COOP (PROOUT), +10 PAW based schemes


 Dipole corrections
   LMONO  =      F    monopole corrections only (constant potential shift)
   LDIPOL =      F    correct potential (dipole corrections)
   IDIPOL =      0    1-x, 2-y, 3-z, 4-all directions 
   EPSILON=  1.0000000 bulk dielectric constant

 Exchange correlation treatment:
   GGA     =    --    GGA type
   LEXCH   =     8    internal setting for exchange type
   VOSKOWN=      0    Vosko Wilk Nusair interpolation
   LHFCALC =     F    Hartree Fock is set to
   LHFONE  =     F    Hartree Fock one center treatment
   AEXX    =    0.0000 exact exchange contribution

 Linear response parameters
   LEPSILON=     F    determine dielectric tensor
   LRPA    =     F    only Hartree local field effects (RPA)
   LNABLA  =     F    use nabla operator in PAW spheres
   LVEL    =     F    velocity operator in full k-point grid
   LINTERFAST=   F  fast interpolation
   KINTER  =     0    interpolate to denser k-point grid
   CSHIFT  =0.1000    complex shift for real part using Kramers Kronig
   OMEGAMAX=  -1.0    maximum frequency
   DEG_THRESHOLD= 0.2000000E-02 threshold for treating states as degnerate
   RTIME   =   -0.100 relaxation time in fs
  (WPLASMAI=    0.000 imaginary part of plasma frequency in eV, 0.658/RTIME)
   DFIELD  = 0.0000000 0.0000000 0.0000000 field for delta impulse in time
 
 Orbital magnetization related:
   ORBITALMAG=     F  switch on orbital magnetization
   LCHIMAG   =     F  perturbation theory with respect to B field
   DQ        =  0.001000  dq finite difference perturbation B field
   LLRAUG    =     F  two centre corrections for induced B field



--------------------------------------------------------------------------------------------------------


 conjugate gradient relaxation of ions
 charge density and potential will be updated during run
 non-spin polarized calculation
 Variant of blocked Davidson
 Davidson routine will perform the subspace rotation
 perform sub-space diagonalisation
    after iterative eigenvector-optimisation
 modified Broyden-mixing scheme, WC =      100.0
 initial mixing is a Kerker type mixing with AMIX =  0.4000 and BMIX =      1.0000
 Hartree-type preconditioning will be used
 using additional bands           14
 reciprocal scheme for non local part
 use partial core corrections
 calculate Harris-corrections to forces 
   (improved forces if not selfconsistent)
 use gradient corrections 
 use of overlap-Matrix (Vanderbilt PP)
 Gauss-broadening in eV      SIGMA  =   0.20


--------------------------------------------------------------------------------------------------------


  energy-cutoff  :      400.00
  volume of cell :     8000.00
      direct lattice vectors                 reciprocal lattice vectors
    20.000000000  0.000000000  0.000000000     0.050000000  0.000000000  0.000000000
     0.000000000 20.000000000  0.000000000     0.000000000  0.050000000  0.000000000
     0.000000000  0.000000000 20.000000000     0.000000000  0.000000000  0.050000000

  length of vectors
    20.000000000 20.000000000 20.000000000     0.050000000  0.050000000  0.050000000


 
 k-points in units of 2pi/SCALE and weight: Automatic mesh                          
   0.00000000  0.00000000  0.00000000       1.000
 
 k-points in reciprocal lattice and weights: Automatic mesh                          
   0.00000000  0.00000000  0.00000000       1.000
 
 position of ions in fractional coordinates (direct lattice) 
   0.36907800  0.53906000  0.43641200
   0.54179100  0.45744600  0.39613600
   0.61299700  0.52481700  0.56496600
   0.47547100  0.55626000  0.38465300
   0.53111600  0.64794100  0.43749600
   0.38461900  0.51474100  0.55243500
   0.55736800  0.43311000  0.51215000
   0.54669200  0.62364400  0.55351800
   0.45095700  0.41593600  0.56388300
   0.44028400  0.60643000  0.60524300
   0.41490100  0.35665000  0.52940300
   0.46117000  0.40042600  0.63910800
   0.60034800  0.36907000  0.51957800
   0.68182700  0.53600700  0.53118700
   0.62280400  0.50903400  0.64018900
   0.61080000  0.46880600  0.36278200
   0.50550800  0.39805500  0.36207700
   0.46538400  0.57201900  0.30946400
   0.58275500  0.68306700  0.58775000
   0.45052500  0.59044300  0.68036400
   0.39732000  0.67044900  0.59753500
   0.31566200  0.50359800  0.58596500
   0.33322800  0.47946500  0.40225200
   0.32629100  0.60324700  0.42912600
   0.48792300  0.71185500  0.43020800
   0.60015100  0.65882400  0.40403700
 
 position of ions in cartesian coordinates  (Angst):
   7.38156000 10.78120000  8.72824000
  10.83582000  9.14892000  7.92272000
  12.25994000 10.49634000 11.29932000
   9.50942000 11.12520000  7.69306000
  10.62232000 12.95882000  8.74992000
   7.69238000 10.29482000 11.04870000
  11.14736000  8.66220000 10.24300000
  10.93384000 12.47288000 11.07036000
   9.01914000  8.31872000 11.27766000
   8.80568000 12.12860000 12.10486000
   8.29802000  7.13300000 10.58806000
   9.22340000  8.00852000 12.78216000
  12.00696000  7.38140000 10.39156000
  13.63654000 10.72014000 10.62374000
  12.45608000 10.18068000 12.80378000
  12.21600000  9.37612000  7.25564000
  10.11016000  7.96110000  7.24154000
   9.30768000 11.44038000  6.18928000
  11.65510000 13.66134000 11.75500000
   9.01050000 11.80886000 13.60728000
   7.94640000 13.40898000 11.95070000
   6.31324000 10.07196000 11.71930000
   6.66456000  9.58930000  8.04504000
   6.52582000 12.06494000  8.58252000
   9.75846000 14.23710000  8.60416000
  12.00302000 13.17648000  8.08074000
 


--------------------------------------------------------------------------------------------------------


 k-point  1 :   0.0000 0.0000 0.0000  plane waves:  145165

 maximum and minimum number of plane-waves per node :     24209    24180

 maximum number of plane-waves:    145165
 maximum index in each direction: 
   IXMAX=   32   IYMAX=   32   IZMAX=   32
   IXMIN=  -32   IYMIN=  -32   IZMIN=  -32


 parallel 3D FFT for wavefunctions:
    minimum data exchange during FFTs selected (reduces bandwidth)
 parallel 3D FFT for charge:
    minimum data exchange during FFTs selected (reduces bandwidth)


 total amount of memory used by VASP MPI-rank0   131440. kBytes
=======================================================================

   base      :      30000. kBytes
   nonl-proj :      17624. kBytes
   fftplans  :      26957. kBytes
   grid      :      48673. kBytes
   one-center:         40. kBytes
   wavefun   :       8146. kBytes
 
     INWAV:  cpu time    0.0000: real time    0.0000
 Broyden mixing: mesh for mixing (old mesh)
   NGX = 65   NGY = 65   NGZ = 65
  (NGX  =196   NGY  =196   NGZ  =196)
  gives a total of 274625 points

 initial charge density was supplied:
 charge density of overlapping atoms calculated
 number of electron      56.0000000 magnetization 
 keeping initial charge density in first step


--------------------------------------------------------------------------------------------------------


 Maximum index for augmentation-charges          565 (set IRDMAX)


--------------------------------------------------------------------------------------------------------


 First call to EWALD:  gamma=   0.089
 Maximum number of real-space cells 3x 3x 3
 Maximum number of reciprocal cells 3x 3x 3

    FEWALD:  cpu time    0.0040: real time    0.0038


--------------------------------------- Iteration      1(   1)  ---------------------------------------


    POTLOK:  cpu time    0.9938: real time    0.9947
    SETDIJ:  cpu time    0.0060: real time    0.0062
     EDDAV:  cpu time    4.3483: real time    4.3461
       DOS:  cpu time    0.0000: real time    0.0003
    --------------------------------------------
      LOOP:  cpu time    5.3482: real time    5.3474

 eigenvalue-minimisations  :   116
 total energy-change (2. order) : 0.2101204E+03  (-0.1046106E+04)
 number of electron      56.0000000 magnetization 
 augmentation part       56.0000000 magnetization 

 Free energy of the ion-electron system (eV)
  ---------------------------------------------------
  alpha Z        PSCENC =         2.79095307
  Ewald energy   TEWEN  =      2629.98113996
  -Hartree energ DENC   =     -3439.24835263
  -exchange      EXHF   =         0.00000000
  -V(xc)+E(xc)   XCENC  =       -47.26790411
  PAW double counting   =       915.53220421     -761.48141222
  entropy T*S    EENTRO =        -0.44069645
  eigenvalues    EBANDS =      -333.57058554
  atomic energy  EATOM  =      1243.82505112
  Solvation  Ediel_sol  =         0.00000000
  ---------------------------------------------------
  free energy    TOTEN  =       210.12039743 eV

  energy without entropy =      210.56109387  energy(sigma->0) =      210.34074565


--------------------------------------------------------------------------------------------------------




--------------------------------------- Iteration      1(   2)  ---------------------------------------


     EDDAV:  cpu time    5.3532: real time    5.5219
       DOS:  cpu time    0.0000: real time    0.0002
    --------------------------------------------
      LOOP:  cpu time    5.3532: real time    5.5221

 eigenvalue-minimisations  :   144
 total energy-change (2. order) :-0.2334627E+03  (-0.2183244E+03)
 number of electron      56.0000000 magnetization 
 augmentation part       56.0000000 magnetization 

 Free energy of the ion-electron system (eV)
  ---------------------------------------------------
  alpha Z        PSCENC =         2.79095307
  Ewald energy   TEWEN  =      2629.98113996
  -Hartree energ DENC   =     -3439.24835263
  -exchange      EXHF   =         0.00000000
  -V(xc)+E(xc)   XCENC  =       -47.26790411
  PAW double counting   =       915.53220421     -761.48141222
  entropy T*S    EENTRO =        -0.00000000
  eigenvalues    EBANDS =      -567.47393622
  atomic energy  EATOM  =      1243.82505112
  Solvation  Ediel_sol  =         0.00000000
  ---------------------------------------------------
  free energy    TOTEN  =       -23.34225681 eV

  energy without entropy =      -23.34225681  energy(sigma->0) =      -23.34225681


--------------------------------------------------------------------------------------------------------




--------------------------------------- Iteration      1(   3)  ---------------------------------------


     EDDAV:  cpu time    4.2274: real time    4.2265
       DOS:  cpu time    0.0010: real time    0.0002
    --------------------------------------------
      LOOP:  cpu time    4.2284: real time    4.2267

 eigenvalue-minimisations  :   112
 total energy-change (2. order) :-0.7584850E+02  (-0.7568521E+02)
 number of electron      56.0000000 magnetization 
 augmentation part       56.0000000 magnetization 

 Free energy of the ion-electron system (eV)
  ---------------------------------------------------
  alpha Z        PSCENC =         2.79095307
  Ewald energy   TEWEN  =      2629.98113996
  -Hartree energ DENC   =     -3439.24835263
  -exchange      EXHF   =         0.00000000
  -V(xc)+E(xc)   XCENC  =       -47.26790411
  PAW double counting   =       915.53220421     -761.48141222
  entropy T*S    EENTRO =        -0.00000000
  eigenvalues    EBANDS =      -643.32243967
  atomic energy  EATOM  =      1243.82505112
  Solvation  Ediel_sol  =         0.00000000
  ---------------------------------------------------
  free energy    TOTEN  =       -99.19076026 eV

  energy without entropy =      -99.19076026  energy(sigma->0) =      -99.19076026


--------------------------------------------------------------------------------------------------------




--------------------------------------- Iteration      1(   4)  ---------------------------------------


     EDDAV:  cpu time    4.0304: real time    4.0292
       DOS:  cpu time    0.0000: real time    0.0002
    --------------------------------------------
      LOOP:  cpu time    4.0304: real time    4.0294

 eigenvalue-minimisations  :   104
 total energy-change (2. order) :-0.4350436E+01  (-0.4333740E+01)
 number of electron      56.0000000 magnetization 
 augmentation part       56.0000000 magnetization 

 Free energy of the ion-electron system (eV)
  ---------------------------------------------------
  alpha Z        PSCENC =         2.79095307
  Ewald energy   TEWEN  =      2629.98113996
  -Hartree energ DENC   =     -3439.24835263
  -exchange      EXHF   =         0.00000000
  -V(xc)+E(xc)   XCENC  =       -47.26790411
  PAW double counting   =       915.53220421     -761.48141222
  entropy T*S    EENTRO =        -0.00000000
  eigenvalues    EBANDS =      -647.67287542
  atomic energy  EATOM  =      1243.82505112
  Solvation  Ediel_sol  =         0.00000000
  ---------------------------------------------------
  free energy    TOTEN  =      -103.54119601 eV

  energy without entropy =     -103.54119601  energy(sigma->0) =     -103.54119601


--------------------------------------------------------------------------------------------------------




--------------------------------------- Iteration      1(   5)  ---------------------------------------


     EDDAV:  cpu time    4.9342: real time    4.9323
       DOS:  cpu time    0.0000: real time    0.0002
    CHARGE:  cpu time    0.2280: real time    0.2277
    MIXING:  cpu time    0.0250: real time    0.0244
    --------------------------------------------
      LOOP:  cpu time    5.1872: real time    5.1847

 eigenvalue-minimisations  :   136
 total energy-change (2. order) :-0.6793953E-01  (-0.6789189E-01)
 number of electron      56.0000021 magnetization 
 augmentation part       -4.7650659 magnetization 

 Broyden mixing:
  rms(total) = 0.14358E+01    rms(broyden)= 0.14357E+01
  rms(prec ) = 0.15322E+01
  weight for this iteration     100.00

 Free energy of the ion-electron system (eV)
  ---------------------------------------------------
  alpha Z        PSCENC =         2.79095307
  Ewald energy   TEWEN  =      2629.98113996
  -Hartree energ DENC   =     -3439.24835263
  -exchange      EXHF   =         0.00000000
  -V(xc)+E(xc)   XCENC  =       -47.26790411
  PAW double counting   =       915.53220421     -761.48141222
  entropy T*S    EENTRO =        -0.00000000
  eigenvalues    EBANDS =      -647.74081495
  atomic energy  EATOM  =      1243.82505112
  Solvation  Ediel_sol  =         0.00000000
  ---------------------------------------------------
  free energy    TOTEN  =      -103.60913554 eV

  energy without entropy =     -103.60913554  energy(sigma->0) =     -103.60913554


--------------------------------------------------------------------------------------------------------




--------------------------------------- Iteration      1(   6)  ---------------------------------------


    POTLOK:  cpu time    0.9419: real time    0.9418
    SETDIJ:  cpu time    0.0070: real time    0.0061
     EDDAV:  cpu time    4.2264: real time    4.2256
       DOS:  cpu time    0.0010: real time    0.0004
    CHARGE:  cpu time    0.2280: real time    0.2287
    MIXING:  cpu time    0.0250: real time    0.0246
    --------------------------------------------
      LOOP:  cpu time    5.4292: real time    5.4272

 eigenvalue-minimisations  :   112
 total energy-change (2. order) : 0.3157708E+01  (-0.1615608E+00)
 number of electron      56.0000020 magnetization 
 augmentation part       -4.7635670 magnetization 

 Broyden mixing:
  rms(total) = 0.82630E+00    rms(broyden)= 0.82630E+00
  rms(prec ) = 0.88545E+00
  weight for this iteration     100.00

 eigenvalues of (default mixing * dielectric matrix)
  average eigenvalue GAMMA=   2.2866
  2.2866

 Free energy of the ion-electron system (eV)
  ---------------------------------------------------
  alpha Z        PSCENC =         2.79095307
  Ewald energy   TEWEN  =      2629.98113996
  -Hartree energ DENC   =     -3469.92406701
  -exchange      EXHF   =         0.00000000
  -V(xc)+E(xc)   XCENC  =       -43.64223535
  PAW double counting   =      1715.06152678    -1561.92205787
  entropy T*S    EENTRO =        -0.00000000
  eigenvalues    EBANDS =      -616.62173811
  atomic energy  EATOM  =      1243.82505112
  Solvation  Ediel_sol  =         0.00000000
  ---------------------------------------------------
  free energy    TOTEN  =      -100.45142741 eV

  energy without entropy =     -100.45142741  energy(sigma->0) =     -100.45142741


--------------------------------------------------------------------------------------------------------




--------------------------------------- Iteration      1(   7)  ---------------------------------------


    POTLOK:  cpu time    0.9449: real time    0.9438
    SETDIJ:  cpu time    0.0060: real time    0.0062
     EDDAV:  cpu time    4.0824: real time    4.0812
       DOS:  cpu time    0.0010: real time    0.0005
    CHARGE:  cpu time    0.2290: real time    0.2292
    MIXING:  cpu time    0.0250: real time    0.0253
    --------------------------------------------
      LOOP:  cpu time    5.2882: real time    5.2862

 eigenvalue-minimisations  :   104
 total energy-change (2. order) : 0.1640277E+01  (-0.3967964E+00)
 number of electron      56.0000018 magnetization 
 augmentation part       -4.7586578 magnetization 

 Broyden mixing:
  rms(total) = 0.12037E+00    rms(broyden)= 0.12022E+00
  rms(prec ) = 0.15198E+00
  weight for this iteration     100.00

 eigenvalues of (default mixing * dielectric matrix)
  average eigenvalue GAMMA=   1.8585
  1.8585  1.8585

 Free energy of the ion-electron system (eV)
  ---------------------------------------------------
  alpha Z        PSCENC =         2.79095307
  Ewald energy   TEWEN  =      2629.98113996
  -Hartree energ DENC   =     -3524.18707616
  -exchange      EXHF   =         0.00000000
  -V(xc)+E(xc)   XCENC  =       -37.94607631
  PAW double counting   =      3391.90810153    -3239.98049929
  entropy T*S    EENTRO =        -0.00000000
  eigenvalues    EBANDS =      -565.20274384
  atomic energy  EATOM  =      1243.82505112
  Solvation  Ediel_sol  =         0.00000000
  ---------------------------------------------------
  free energy    TOTEN  =       -98.81114991 eV

  energy without entropy =      -98.81114991  energy(sigma->0) =      -98.81114991


--------------------------------------------------------------------------------------------------------




--------------------------------------- Iteration      1(   8)  ---------------------------------------


    POTLOK:  cpu time    1.0268: real time    1.0276
    SETDIJ:  cpu time    0.0070: real time    0.0070
     EDDAV:  cpu time    4.2434: real time    4.2414
       DOS:  cpu time    0.0000: real time    0.0004
    CHARGE:  cpu time    0.2280: real time    0.2277
    MIXING:  cpu time    0.0260: real time    0.0265
    --------------------------------------------
      LOOP:  cpu time    5.5322: real time    5.5305

 eigenvalue-minimisations  :   112
 total energy-change (2. order) : 0.5623230E-01  (-0.2792096E-01)
 number of electron      56.0000018 magnetization 
 augmentation part       -4.7510318 magnetization 

 Broyden mixing:
  rms(total) = 0.59381E-01    rms(broyden)= 0.59367E-01
  rms(prec ) = 0.78542E-01
  weight for this iteration     100.00

 eigenvalues of (default mixing * dielectric matrix)
  average eigenvalue GAMMA=   1.9524
  2.6289  1.6141  1.6141

 Free energy of the ion-electron system (eV)
  ---------------------------------------------------
  alpha Z        PSCENC =         2.79095307
  Ewald energy   TEWEN  =      2629.98113996
  -Hartree energ DENC   =     -3532.85858162
  -exchange      EXHF   =         0.00000000
  -V(xc)+E(xc)   XCENC  =       -37.91431740
  PAW double counting   =      3421.99930883    -3270.00442785
  entropy T*S    EENTRO =        -0.00000000
  eigenvalues    EBANDS =      -556.57404371
  atomic energy  EATOM  =      1243.82505112
  Solvation  Ediel_sol  =         0.00000000
  ---------------------------------------------------
  free energy    TOTEN  =       -98.75491761 eV

  energy without entropy =      -98.75491761  energy(sigma->0) =      -98.75491761


--------------------------------------------------------------------------------------------------------




--------------------------------------- Iteration      1(   9)  ---------------------------------------


    POTLOK:  cpu time    0.9569: real time    0.9559
    SETDIJ:  cpu time    0.0060: real time    0.0061
     EDDAV:  cpu time    4.2534: real time    4.2506
       DOS:  cpu time    0.0000: real time    0.0004
    CHARGE:  cpu time    0.2280: real time    0.2276
    MIXING:  cpu time    0.0280: real time    0.0278
    --------------------------------------------
      LOOP:  cpu time    5.4712: real time    5.4683

 eigenvalue-minimisations  :   112
 total energy-change (2. order) : 0.3496131E-01  (-0.6842189E-02)
 number of electron      56.0000018 magnetization 
 augmentation part       -4.7350770 magnetization 

 Broyden mixing:
  rms(total) = 0.31111E-01    rms(broyden)= 0.31110E-01
  rms(prec ) = 0.43267E-01
  weight for this iteration     100.00

 eigenvalues of (default mixing * dielectric matrix)
  average eigenvalue GAMMA=   1.7612
  2.5102  1.8365  1.8365  0.8615

 Free energy of the ion-electron system (eV)
  ---------------------------------------------------
  alpha Z        PSCENC =         2.79095307
  Ewald energy   TEWEN  =      2629.98113996
  -Hartree energ DENC   =     -3544.25180205
  -exchange      EXHF   =         0.00000000
  -V(xc)+E(xc)   XCENC  =       -37.22106382
  PAW double counting   =      3555.00884462    -3403.06796865
  entropy T*S    EENTRO =        -0.00000000
  eigenvalues    EBANDS =      -545.78511056
  atomic energy  EATOM  =      1243.82505112
  Solvation  Ediel_sol  =         0.00000000
  ---------------------------------------------------
  free energy    TOTEN  =       -98.71995631 eV

  energy without entropy =      -98.71995631  energy(sigma->0) =      -98.71995631


--------------------------------------------------------------------------------------------------------




--------------------------------------- Iteration      1(  10)  ---------------------------------------


    POTLOK:  cpu time    0.9599: real time    0.9588
    SETDIJ:  cpu time    0.0060: real time    0.0061
     EDDAV:  cpu time    4.2234: real time    4.2594
       DOS:  cpu time    0.0000: real time    0.0003
    CHARGE:  cpu time    0.2290: real time    0.2284
    MIXING:  cpu time    0.0290: real time    0.0292
    --------------------------------------------
      LOOP:  cpu time    5.4472: real time    5.4822

 eigenvalue-minimisations  :   112
 total energy-change (2. order) : 0.3852044E-03  (-0.2408839E-03)
 number of electron      56.0000018 magnetization 
 augmentation part       -4.7344100 magnetization 

 Broyden mixing:
  rms(total) = 0.14313E-01    rms(broyden)= 0.14313E-01
  rms(prec ) = 0.27713E-01
  weight for this iteration     100.00

 eigenvalues of (default mixing * dielectric matrix)
  average eigenvalue GAMMA=   1.8860
  2.8760  2.3510  1.0537  1.5747  1.5747

 Free energy of the ion-electron system (eV)
  ---------------------------------------------------
  alpha Z        PSCENC =         2.79095307
  Ewald energy   TEWEN  =      2629.98113996
  -Hartree energ DENC   =     -3546.70035028
  -exchange      EXHF   =         0.00000000
  -V(xc)+E(xc)   XCENC  =       -37.19335538
  PAW double counting   =      3496.82712941    -3344.83885970
  entropy T*S    EENTRO =        -0.00000000
  eigenvalues    EBANDS =      -543.41127930
  atomic energy  EATOM  =      1243.82505112
  Solvation  Ediel_sol  =         0.00000000
  ---------------------------------------------------
  free energy    TOTEN  =       -98.71957110 eV

  energy without entropy =      -98.71957110  energy(sigma->0) =      -98.71957110


--------------------------------------------------------------------------------------------------------




--------------------------------------- Iteration      1(  11)  ---------------------------------------


    POTLOK:  cpu time    0.9629: real time    0.9647
    SETDIJ:  cpu time    0.0060: real time    0.0061
     EDDAV:  cpu time    3.9864: real time    3.9848
       DOS:  cpu time    0.0000: real time    0.0002
    CHARGE:  cpu time    0.2290: real time    0.2280
    MIXING:  cpu time    0.0300: real time    0.0300
    --------------------------------------------
      LOOP:  cpu time    5.2142: real time    5.2139

 eigenvalue-minimisations  :   104
 total energy-change (2. order) : 0.8640311E-04  (-0.6365991E-03)
 number of electron      56.0000018 magnetization 
 augmentation part       -4.7328555 magnetization 

 Broyden mixing:
  rms(total) = 0.83114E-02    rms(broyden)= 0.83111E-02
  rms(prec ) = 0.14683E-01
  weight for this iteration     100.00

 eigenvalues of (default mixing * dielectric matrix)
  average eigenvalue GAMMA=   1.8862
  3.2648  2.6061  1.7312  1.7312  1.0680  0.9156

 Free energy of the ion-electron system (eV)
  ---------------------------------------------------
  alpha Z        PSCENC =         2.79095307
  Ewald energy   TEWEN  =      2629.98113996
  -Hartree energ DENC   =     -3553.30104188
  -exchange      EXHF   =         0.00000000
  -V(xc)+E(xc)   XCENC  =       -37.00540158
  PAW double counting   =      3465.63396805    -3313.60773379
  entropy T*S    EENTRO =        -0.00000000
  eigenvalues    EBANDS =      -537.03641965
  atomic energy  EATOM  =      1243.82505112
  Solvation  Ediel_sol  =         0.00000000
  ---------------------------------------------------
  free energy    TOTEN  =       -98.71948470 eV

  energy without entropy =      -98.71948470  energy(sigma->0) =      -98.71948470


--------------------------------------------------------------------------------------------------------




--------------------------------------- Iteration      1(  12)  ---------------------------------------


    POTLOK:  cpu time    0.9709: real time    0.9707
    SETDIJ:  cpu time    0.0060: real time    0.0063
     EDDAV:  cpu time    3.8674: real time    3.8649
       DOS:  cpu time    0.0000: real time    0.0002
    CHARGE:  cpu time    0.2280: real time    0.2281
    MIXING:  cpu time    0.0310: real time    0.0312
    --------------------------------------------
      LOOP:  cpu time    5.1032: real time    5.1014

 eigenvalue-minimisations  :   100
 total energy-change (2. order) :-0.5093769E-02  (-0.1438488E-03)
 number of electron      56.0000018 magnetization 
 augmentation part       -4.7320022 magnetization 

 Broyden mixing:
  rms(total) = 0.51308E-02    rms(broyden)= 0.51308E-02
  rms(prec ) = 0.90292E-02
  weight for this iteration     100.00

 eigenvalues of (default mixing * dielectric matrix)
  average eigenvalue GAMMA=   2.1275
  4.8341  2.6403  2.3858  1.5410  1.5410  0.9752  0.9752

 Free energy of the ion-electron system (eV)
  ---------------------------------------------------
  alpha Z        PSCENC =         2.79095307
  Ewald energy   TEWEN  =      2629.98113996
  -Hartree energ DENC   =     -3556.01892631
  -exchange      EXHF   =         0.00000000
  -V(xc)+E(xc)   XCENC  =       -36.96052231
  PAW double counting   =      3456.59396651    -3304.56482670
  entropy T*S    EENTRO =        -0.00000000
  eigenvalues    EBANDS =      -534.37141381
  atomic energy  EATOM  =      1243.82505112
  Solvation  Ediel_sol  =         0.00000000
  ---------------------------------------------------
  free energy    TOTEN  =       -98.72457847 eV

  energy without entropy =      -98.72457847  energy(sigma->0) =      -98.72457847


--------------------------------------------------------------------------------------------------------




--------------------------------------- Iteration      1(  13)  ---------------------------------------


    POTLOK:  cpu time    0.9699: real time    0.9700
    SETDIJ:  cpu time    0.0070: real time    0.0063
     EDDAV:  cpu time    4.2304: real time    4.2285
       DOS:  cpu time    0.0000: real time    0.0003
    CHARGE:  cpu time    0.2270: real time    0.2272
    MIXING:  cpu time    0.0330: real time    0.0330
    --------------------------------------------
      LOOP:  cpu time    5.4672: real time    5.4652

 eigenvalue-minimisations  :   112
 total energy-change (2. order) :-0.4012168E-02  (-0.1539315E-03)
 number of electron      56.0000018 magnetization 
 augmentation part       -4.7317724 magnetization 

 Broyden mixing:
  rms(total) = 0.34358E-02    rms(broyden)= 0.34357E-02
  rms(prec ) = 0.50979E-02
  weight for this iteration     100.00

 eigenvalues of (default mixing * dielectric matrix)
  average eigenvalue GAMMA=   2.2146
  5.6656  2.9402  2.1087  1.9094  1.9094  1.2322  0.9755  0.9755

 Free energy of the ion-electron system (eV)
  ---------------------------------------------------
  alpha Z        PSCENC =         2.79095307
  Ewald energy   TEWEN  =      2629.98113996
  -Hartree energ DENC   =     -3558.52648468
  -exchange      EXHF   =         0.00000000
  -V(xc)+E(xc)   XCENC  =       -36.91254526
  PAW double counting   =      3460.91146862    -3308.89010643
  entropy T*S    EENTRO =        -0.00000000
  eigenvalues    EBANDS =      -531.90806703
  atomic energy  EATOM  =      1243.82505112
  Solvation  Ediel_sol  =         0.00000000
  ---------------------------------------------------
  free energy    TOTEN  =       -98.72859064 eV

  energy without entropy =      -98.72859064  energy(sigma->0) =      -98.72859064


--------------------------------------------------------------------------------------------------------




--------------------------------------- Iteration      1(  14)  ---------------------------------------


    POTLOK:  cpu time    0.9659: real time    0.9654
    SETDIJ:  cpu time    0.0060: real time    0.0066
     EDDAV:  cpu time    4.2234: real time    4.2208
       DOS:  cpu time    0.0000: real time    0.0002
    CHARGE:  cpu time    0.2280: real time    0.2277
    MIXING:  cpu time    0.0340: real time    0.0339
    --------------------------------------------
      LOOP:  cpu time    5.4572: real time    5.4547

 eigenvalue-minimisations  :   112
 total energy-change (2. order) :-0.4932072E-02  (-0.4341728E-04)
 number of electron      56.0000018 magnetization 
 augmentation part       -4.7312352 magnetization 

 Broyden mixing:
  rms(total) = 0.14719E-02    rms(broyden)= 0.14718E-02
  rms(prec ) = 0.25341E-02
  weight for this iteration     100.00

 eigenvalues of (default mixing * dielectric matrix)
  average eigenvalue GAMMA=   2.3005
  6.6139  3.0648  2.6325  2.1617  1.5984  1.5984  1.0963  0.9692  0.9692

 Free energy of the ion-electron system (eV)
  ---------------------------------------------------
  alpha Z        PSCENC =         2.79095307
  Ewald energy   TEWEN  =      2629.98113996
  -Hartree energ DENC   =     -3559.16717755
  -exchange      EXHF   =         0.00000000
  -V(xc)+E(xc)   XCENC  =       -36.93190016
  PAW double counting   =      3460.36635508    -3308.34473415
  entropy T*S    EENTRO =        -0.00000000
  eigenvalues    EBANDS =      -531.25321008
  atomic energy  EATOM  =      1243.82505112
  Solvation  Ediel_sol  =         0.00000000
  ---------------------------------------------------
  free energy    TOTEN  =       -98.73352271 eV

  energy without entropy =      -98.73352271  energy(sigma->0) =      -98.73352271


--------------------------------------------------------------------------------------------------------




--------------------------------------- Iteration      1(  15)  ---------------------------------------


    POTLOK:  cpu time    0.9629: real time    0.9618
    SETDIJ:  cpu time    0.0060: real time    0.0061
     EDDAV:  cpu time    4.2194: real time    4.2167
       DOS:  cpu time    0.0000: real time    0.0003
    CHARGE:  cpu time    0.2280: real time    0.2277
    MIXING:  cpu time    0.0360: real time    0.0362
    --------------------------------------------
      LOOP:  cpu time    5.4522: real time    5.4488

 eigenvalue-minimisations  :   112
 total energy-change (2. order) :-0.3429931E-02  (-0.3485279E-04)
 number of electron      56.0000018 magnetization 
 augmentation part       -4.7310104 magnetization 

 Broyden mixing:
  rms(total) = 0.12098E-02    rms(broyden)= 0.12098E-02
  rms(prec ) = 0.17129E-02
  weight for this iteration     100.00

 eigenvalues of (default mixing * dielectric matrix)
  average eigenvalue GAMMA=   2.3328
  6.7317  3.9289  2.6252  2.0383  2.0383  1.7116  1.2878  0.9493  1.0082  1.0082

 Free energy of the ion-electron system (eV)
  ---------------------------------------------------
  alpha Z        PSCENC =         2.79095307
  Ewald energy   TEWEN  =      2629.98113996
  -Hartree energ DENC   =     -3559.36712329
  -exchange      EXHF   =         0.00000000
  -V(xc)+E(xc)   XCENC  =       -36.93569353
  PAW double counting   =      3463.71165779    -3311.69058161
  entropy T*S    EENTRO =        -0.00000000
  eigenvalues    EBANDS =      -531.05235614
  atomic energy  EATOM  =      1243.82505112
  Solvation  Ediel_sol  =         0.00000000
  ---------------------------------------------------
  free energy    TOTEN  =       -98.73695264 eV

  energy without entropy =      -98.73695264  energy(sigma->0) =      -98.73695264


--------------------------------------------------------------------------------------------------------




--------------------------------------- Iteration      1(  16)  ---------------------------------------


    POTLOK:  cpu time    0.9579: real time    0.9577
    SETDIJ:  cpu time    0.0060: real time    0.0061
     EDDAV:  cpu time    4.2084: real time    4.2450
       DOS:  cpu time    0.0000: real time    0.0002
    CHARGE:  cpu time    0.2280: real time    0.2280
    MIXING:  cpu time    0.0390: real time    0.0394
    --------------------------------------------
      LOOP:  cpu time    5.4392: real time    5.4765

 eigenvalue-minimisations  :   112
 total energy-change (2. order) :-0.1349132E-02  (-0.9361613E-05)
 number of electron      56.0000018 magnetization 
 augmentation part       -4.7312896 magnetization 

 Broyden mixing:
  rms(total) = 0.60900E-03    rms(broyden)= 0.60898E-03
  rms(prec ) = 0.89380E-03
  weight for this iteration     100.00

 eigenvalues of (default mixing * dielectric matrix)
  average eigenvalue GAMMA=   2.4448
  7.4248  4.8251  2.6649  2.6649  1.8149  1.8149  1.3636  1.3636  0.9882  0.9882
  0.9794

 Free energy of the ion-electron system (eV)
  ---------------------------------------------------
  alpha Z        PSCENC =         2.79095307
  Ewald energy   TEWEN  =      2629.98113996
  -Hartree energ DENC   =     -3559.47875697
  -exchange      EXHF   =         0.00000000
  -V(xc)+E(xc)   XCENC  =       -36.93312701
  PAW double counting   =      3463.77790722    -3311.75609412
  entropy T*S    EENTRO =        -0.00000000
  eigenvalues    EBANDS =      -530.94537504
  atomic energy  EATOM  =      1243.82505112
  Solvation  Ediel_sol  =         0.00000000
  ---------------------------------------------------
  free energy    TOTEN  =       -98.73830177 eV

  energy without entropy =      -98.73830177  energy(sigma->0) =      -98.73830177


--------------------------------------------------------------------------------------------------------




--------------------------------------- Iteration      1(  17)  ---------------------------------------


    POTLOK:  cpu time    0.9599: real time    0.9585
    SETDIJ:  cpu time    0.0060: real time    0.0061
     EDDAV:  cpu time    4.2394: real time    4.2366
       DOS:  cpu time    0.0000: real time    0.0004
    CHARGE:  cpu time    0.2290: real time    0.2286
    MIXING:  cpu time    0.0420: real time    0.0428
    --------------------------------------------
      LOOP:  cpu time    5.4762: real time    5.4730

 eigenvalue-minimisations  :   112
 total energy-change (2. order) :-0.9345305E-03  (-0.7693851E-05)
 number of electron      56.0000018 magnetization 
 augmentation part       -4.7314800 magnetization 

 Broyden mixing:
  rms(total) = 0.31916E-03    rms(broyden)= 0.31913E-03
  rms(prec ) = 0.44538E-03
  weight for this iteration     100.00

 eigenvalues of (default mixing * dielectric matrix)
  average eigenvalue GAMMA=   2.4823
  7.6696  5.3003  2.7520  2.7520  2.1256  1.8046  1.8046  1.3137  1.3137  0.9857
  0.9857  0.9803

 Free energy of the ion-electron system (eV)
  ---------------------------------------------------
  alpha Z        PSCENC =         2.79095307
  Ewald energy   TEWEN  =      2629.98113996
  -Hartree energ DENC   =     -3559.46973232
  -exchange      EXHF   =         0.00000000
  -V(xc)+E(xc)   XCENC  =       -36.93715787
  PAW double counting   =      3462.08124174    -3310.05812772
  entropy T*S    EENTRO =        -0.00000000
  eigenvalues    EBANDS =      -530.95260429
  atomic energy  EATOM  =      1243.82505112
  Solvation  Ediel_sol  =         0.00000000
  ---------------------------------------------------
  free energy    TOTEN  =       -98.73923630 eV

  energy without entropy =      -98.73923630  energy(sigma->0) =      -98.73923630


--------------------------------------------------------------------------------------------------------




--------------------------------------- Iteration      1(  18)  ---------------------------------------


    POTLOK:  cpu time    0.9619: real time    0.9616
    SETDIJ:  cpu time    0.0060: real time    0.0061
     EDDAV:  cpu time    3.9934: real time    3.9911
       DOS:  cpu time    0.0000: real time    0.0003
    CHARGE:  cpu time    0.2280: real time    0.2280
    MIXING:  cpu time    0.0490: real time    0.0484
    --------------------------------------------
      LOOP:  cpu time    5.2382: real time    5.2355

 eigenvalue-minimisations  :   104
 total energy-change (2. order) :-0.2909283E-03  (-0.1076177E-05)
 number of electron      56.0000018 magnetization 
 augmentation part       -4.7314481 magnetization 

 Broyden mixing:
  rms(total) = 0.16900E-03    rms(broyden)= 0.16897E-03
  rms(prec ) = 0.22649E-03
  weight for this iteration     100.00

 eigenvalues of (default mixing * dielectric matrix)
  average eigenvalue GAMMA=   2.5191
  8.2278  5.8811  3.2356  2.6186  2.3792  1.8197  1.8197  1.3785  1.3785  0.9926
  0.9926  1.0125  1.0125

 Free energy of the ion-electron system (eV)
  ---------------------------------------------------
  alpha Z        PSCENC =         2.79095307
  Ewald energy   TEWEN  =      2629.98113996
  -Hartree energ DENC   =     -3559.52559519
  -exchange      EXHF   =         0.00000000
  -V(xc)+E(xc)   XCENC  =       -36.93530587
  PAW double counting   =      3462.19208735    -3310.16970561
  entropy T*S    EENTRO =        -0.00000000
  eigenvalues    EBANDS =      -530.89815205
  atomic energy  EATOM  =      1243.82505112
  Solvation  Ediel_sol  =         0.00000000
  ---------------------------------------------------
  free energy    TOTEN  =       -98.73952723 eV

  energy without entropy =      -98.73952723  energy(sigma->0) =      -98.73952723


--------------------------------------------------------------------------------------------------------




--------------------------------------- Iteration      1(  19)  ---------------------------------------


    POTLOK:  cpu time    0.9649: real time    0.9650
    SETDIJ:  cpu time    0.0060: real time    0.0062
     EDDAV:  cpu time    3.7574: real time    3.7563
       DOS:  cpu time    0.0010: real time    0.0004
    CHARGE:  cpu time    0.2280: real time    0.2278
    MIXING:  cpu time    0.0550: real time    0.0544
    --------------------------------------------
      LOOP:  cpu time    5.0122: real time    5.0101

 eigenvalue-minimisations  :    96
 total energy-change (2. order) :-0.9541438E-04  (-0.2495316E-06)
 number of electron      56.0000018 magnetization 
 augmentation part       -4.7314578 magnetization 

 Broyden mixing:
  rms(total) = 0.10983E-03    rms(broyden)= 0.10983E-03
  rms(prec ) = 0.14799E-03
  weight for this iteration     100.00

 eigenvalues of (default mixing * dielectric matrix)
  average eigenvalue GAMMA=   2.5293
  8.4383  6.1456  3.5266  2.6530  2.2639  2.2639  1.7794  1.7794  1.2937  1.2937
  0.9692  0.9692  1.0174  1.0174

 Free energy of the ion-electron system (eV)
  ---------------------------------------------------
  alpha Z        PSCENC =         2.79095307
  Ewald energy   TEWEN  =      2629.98113996
  -Hartree energ DENC   =     -3559.52556131
  -exchange      EXHF   =         0.00000000
  -V(xc)+E(xc)   XCENC  =       -36.93539340
  PAW double counting   =      3462.14732087    -3310.12501354
  entropy T*S    EENTRO =        -0.00000000
  eigenvalues    EBANDS =      -530.89811941
  atomic energy  EATOM  =      1243.82505112
  Solvation  Ediel_sol  =         0.00000000
  ---------------------------------------------------
  free energy    TOTEN  =       -98.73962264 eV

  energy without entropy =      -98.73962264  energy(sigma->0) =      -98.73962264


--------------------------------------------------------------------------------------------------------




--------------------------------------- Iteration      1(  20)  ---------------------------------------


    POTLOK:  cpu time    1.2138: real time    1.2185
    SETDIJ:  cpu time    0.0060: real time    0.0061
     EDDAV:  cpu time    3.5255: real time    3.5299
       DOS:  cpu time    0.0000: real time    0.0003
    CHARGE:  cpu time    0.2270: real time    0.2295
    MIXING:  cpu time    0.0600: real time    0.0600
    --------------------------------------------
      LOOP:  cpu time    5.0322: real time    5.0444

 eigenvalue-minimisations  :    88
 total energy-change (2. order) :-0.4833606E-04  (-0.9888624E-07)
 number of electron      56.0000018 magnetization 
 augmentation part       -4.7314425 magnetization 

 Broyden mixing:
  rms(total) = 0.50909E-04    rms(broyden)= 0.50908E-04
  rms(prec ) = 0.71183E-04
  weight for this iteration     100.00

 eigenvalues of (default mixing * dielectric matrix)
  average eigenvalue GAMMA=   2.5484
  8.6087  6.4586  4.0914  2.9042  2.5493  2.0461  1.8472  1.8472  1.4035  1.4035
  1.1739  0.9962  0.9962  0.9945  0.9055

 Free energy of the ion-electron system (eV)
  ---------------------------------------------------
  alpha Z        PSCENC =         2.79095307
  Ewald energy   TEWEN  =      2629.98113996
  -Hartree energ DENC   =     -3559.53016419
  -exchange      EXHF   =         0.00000000
  -V(xc)+E(xc)   XCENC  =       -36.93607817
  PAW double counting   =      3462.11050348    -3310.08813193
  entropy T*S    EENTRO =        -0.00000000
  eigenvalues    EBANDS =      -530.89294433
  atomic energy  EATOM  =      1243.82505112
  Solvation  Ediel_sol  =         0.00000000
  ---------------------------------------------------
  free energy    TOTEN  =       -98.73967098 eV

  energy without entropy =      -98.73967098  energy(sigma->0) =      -98.73967098


--------------------------------------------------------------------------------------------------------




--------------------------------------- Iteration      1(  21)  ---------------------------------------


    POTLOK:  cpu time    0.9559: real time    0.9576
    SETDIJ:  cpu time    0.0060: real time    0.0062
     EDDAV:  cpu time    3.5395: real time    3.5427
       DOS:  cpu time    0.0000: real time    0.0004
    CHARGE:  cpu time    0.2270: real time    0.2263
    MIXING:  cpu time    0.0660: real time    0.0660
    --------------------------------------------
      LOOP:  cpu time    4.7943: real time    4.7990

 eigenvalue-minimisations  :    88
 total energy-change (2. order) :-0.1670566E-04  (-0.4859668E-07)
 number of electron      56.0000018 magnetization 
 augmentation part       -4.7314337 magnetization 

 Broyden mixing:
  rms(total) = 0.39636E-04    rms(broyden)= 0.39633E-04
  rms(prec ) = 0.52102E-04
  weight for this iteration     100.00

 eigenvalues of (default mixing * dielectric matrix)
  average eigenvalue GAMMA=   2.5426
  8.6089  6.6828  4.2309  3.0062  2.5155  2.1246  2.1246  1.8183  1.8183  1.4463
  1.1917  1.1917  0.9771  0.9771  0.9840  0.9840

 Free energy of the ion-electron system (eV)
  ---------------------------------------------------
  alpha Z        PSCENC =         2.79095307
  Ewald energy   TEWEN  =      2629.98113996
  -Hartree energ DENC   =     -3559.53386086
  -exchange      EXHF   =         0.00000000
  -V(xc)+E(xc)   XCENC  =       -36.93608370
  PAW double counting   =      3462.17667790    -3310.15434148
  entropy T*S    EENTRO =        -0.00000000
  eigenvalues    EBANDS =      -530.88922369
  atomic energy  EATOM  =      1243.82505112
  Solvation  Ediel_sol  =         0.00000000
  ---------------------------------------------------
  free energy    TOTEN  =       -98.73968769 eV

  energy without entropy =      -98.73968769  energy(sigma->0) =      -98.73968769


--------------------------------------------------------------------------------------------------------




--------------------------------------- Iteration      1(  22)  ---------------------------------------


    POTLOK:  cpu time    0.9549: real time    0.9572
    SETDIJ:  cpu time    0.0060: real time    0.0061
     EDDAV:  cpu time    3.5075: real time    3.5380
       DOS:  cpu time    0.0000: real time    0.0003
    CHARGE:  cpu time    0.2280: real time    0.2278
    MIXING:  cpu time    0.0740: real time    0.0727
    --------------------------------------------
      LOOP:  cpu time    4.7703: real time    4.8023

 eigenvalue-minimisations  :    88
 total energy-change (2. order) :-0.7317516E-05  (-0.1703811E-07)
 number of electron      56.0000018 magnetization 
 augmentation part       -4.7314474 magnetization 

 Broyden mixing:
  rms(total) = 0.18503E-04    rms(broyden)= 0.18503E-04
  rms(prec ) = 0.25484E-04
  weight for this iteration     100.00

 eigenvalues of (default mixing * dielectric matrix)
  average eigenvalue GAMMA=   2.5437
  8.7867  6.7957  4.6882  3.2495  2.5474  2.5474  1.9067  1.9067  1.6965  1.6965
  1.2224  1.2224  1.0531  0.9989  0.9989  0.9626  0.9626

 Free energy of the ion-electron system (eV)
  ---------------------------------------------------
  alpha Z        PSCENC =         2.79095307
  Ewald energy   TEWEN  =      2629.98113996
  -Hartree energ DENC   =     -3559.53202897
  -exchange      EXHF   =         0.00000000
  -V(xc)+E(xc)   XCENC  =       -36.93595805
  PAW double counting   =      3462.18279151    -3310.16039408
  entropy T*S    EENTRO =        -0.00000000
  eigenvalues    EBANDS =      -530.89124957
  atomic energy  EATOM  =      1243.82505112
  Solvation  Ediel_sol  =         0.00000000
  ---------------------------------------------------
  free energy    TOTEN  =       -98.73969500 eV

  energy without entropy =      -98.73969500  energy(sigma->0) =      -98.73969500


--------------------------------------------------------------------------------------------------------




--------------------------------------- Iteration      1(  23)  ---------------------------------------


    POTLOK:  cpu time    0.9539: real time    0.9580
    SETDIJ:  cpu time    0.0060: real time    0.0062
     EDDAV:  cpu time    3.5305: real time    3.5362
       DOS:  cpu time    0.0000: real time    0.0003
    CHARGE:  cpu time    0.2290: real time    0.2282
    MIXING:  cpu time    0.0800: real time    0.0792
    --------------------------------------------
      LOOP:  cpu time    4.7993: real time    4.8082

 eigenvalue-minimisations  :    88
 total energy-change (2. order) :-0.2389526E-05  (-0.4933195E-08)
 number of electron      56.0000018 magnetization 
 augmentation part       -4.7314521 magnetization 

 Broyden mixing:
  rms(total) = 0.13052E-04    rms(broyden)= 0.13051E-04
  rms(prec ) = 0.17332E-04
  weight for this iteration     100.00

 eigenvalues of (default mixing * dielectric matrix)
  average eigenvalue GAMMA=   2.5541
  8.9130  6.8165  4.9892  3.2498  2.7579  2.7579  2.0867  1.9469  1.9469  1.5695
  1.5695  1.2042  1.2042  1.0291  1.0291  0.9913  0.9913  0.9208

 Free energy of the ion-electron system (eV)
  ---------------------------------------------------
  alpha Z        PSCENC =         2.79095307
  Ewald energy   TEWEN  =      2629.98113996
  -Hartree energ DENC   =     -3559.53266530
  -exchange      EXHF   =         0.00000000
  -V(xc)+E(xc)   XCENC  =       -36.93601611
  PAW double counting   =      3462.17415833    -3310.15176203
  entropy T*S    EENTRO =        -0.00000000
  eigenvalues    EBANDS =      -530.89055644
  atomic energy  EATOM  =      1243.82505112
  Solvation  Ediel_sol  =         0.00000000
  ---------------------------------------------------
  free energy    TOTEN  =       -98.73969739 eV

  energy without entropy =      -98.73969739  energy(sigma->0) =      -98.73969739


--------------------------------------------------------------------------------------------------------




--------------------------------------- Iteration      1(  24)  ---------------------------------------


    POTLOK:  cpu time    0.9629: real time    0.9662
    SETDIJ:  cpu time    0.0060: real time    0.0062
     EDDAV:  cpu time    3.5315: real time    3.5367
       DOS:  cpu time    0.0000: real time    0.0003
    CHARGE:  cpu time    0.2260: real time    0.2283
    MIXING:  cpu time    0.0870: real time    0.0863
    --------------------------------------------
      LOOP:  cpu time    4.8133: real time    4.8239

 eigenvalue-minimisations  :    88
 total energy-change (2. order) :-0.2065810E-05  (-0.2884983E-08)
 number of electron      56.0000018 magnetization 
 augmentation part       -4.7314494 magnetization 

 Broyden mixing:
  rms(total) = 0.55009E-05    rms(broyden)= 0.55008E-05
  rms(prec ) = 0.72638E-05
  weight for this iteration     100.00

 eigenvalues of (default mixing * dielectric matrix)
  average eigenvalue GAMMA=   2.5696
  8.8832  7.1191  5.5354  3.9001  2.9517  2.5267  2.0538  1.9326  1.9326  1.7209
  1.7209  1.2736  1.1884  1.1884  0.9977  0.9977  0.9622  0.9622  0.9750

 Free energy of the ion-electron system (eV)
  ---------------------------------------------------
  alpha Z        PSCENC =         2.79095307
  Ewald energy   TEWEN  =      2629.98113996
  -Hartree energ DENC   =     -3559.53349498
  -exchange      EXHF   =         0.00000000
  -V(xc)+E(xc)   XCENC  =       -36.93604500
  PAW double counting   =      3462.14164263    -3310.11926652
  entropy T*S    EENTRO =        -0.00000000
  eigenvalues    EBANDS =      -530.88967974
  atomic energy  EATOM  =      1243.82505112
  Solvation  Ediel_sol  =         0.00000000
  ---------------------------------------------------
  free energy    TOTEN  =       -98.73969946 eV

  energy without entropy =      -98.73969946  energy(sigma->0) =      -98.73969946


--------------------------------------------------------------------------------------------------------




--------------------------------------- Iteration      1(  25)  ---------------------------------------


    POTLOK:  cpu time    0.9739: real time    0.9747
    SETDIJ:  cpu time    0.0070: real time    0.0061
     EDDAV:  cpu time    3.5165: real time    3.5158
       DOS:  cpu time    0.0010: real time    0.0002
    --------------------------------------------
      LOOP:  cpu time    4.4983: real time    4.4968

 eigenvalue-minimisations  :    88
 total energy-change (2. order) :-0.4556273E-06  (-0.7577086E-09)
 number of electron      56.0000018 magnetization 
 augmentation part       -4.7314494 magnetization 

 Free energy of the ion-electron system (eV)
  ---------------------------------------------------
  alpha Z        PSCENC =         2.79095307
  Ewald energy   TEWEN  =      2629.98113996
  -Hartree energ DENC   =     -3559.53404972
  -exchange      EXHF   =         0.00000000
  -V(xc)+E(xc)   XCENC  =       -36.93602906
  PAW double counting   =      3462.15033489    -3310.12795833
  entropy T*S    EENTRO =        -0.00000000
  eigenvalues    EBANDS =      -530.88914185
  atomic energy  EATOM  =      1243.82505112
  Solvation  Ediel_sol  =         0.00000000
  ---------------------------------------------------
  free energy    TOTEN  =       -98.73969991 eV

  energy without entropy =      -98.73969991  energy(sigma->0) =      -98.73969991


--------------------------------------------------------------------------------------------------------




 average (electrostatic) potential at core
  the test charge radii are     0.9892  1.1631  0.5201
  (the norm of the test charge is              1.0000)
       1 -93.4982       2 -93.5047       3 -93.4982       4 -40.3763       5 -40.4850
       6 -40.4168       7 -40.3763       8 -40.4168       9 -40.4850      10 -40.4786
      11 -41.0553      12 -41.0595      13 -41.0607      14 -40.6881      15 -40.6921
      16 -40.6922      17 -40.6929      18 -41.0608      19 -41.0490      20 -41.0550
      21 -41.0552      22 -41.0487      23 -40.6880      24 -40.6925      25 -41.0595
      26 -41.0552
 
 
 
 E-fermi :  -5.3309     XC(G=0):  -0.6109     alpha+bet : -0.3265


 k-point     1 :       0.0000    0.0000    0.0000
  band No.  band energies     occupation 
      1     -15.5032      2.00000
      2     -14.6358      2.00000
      3     -14.4174      2.00000
      4     -14.1610      2.00000
      5     -13.2309      2.00000
      6     -12.7494      2.00000
      7     -11.9508      2.00000
      8     -11.7449      2.00000
      9     -11.5887      2.00000
     10     -10.6334      2.00000
     11      -9.0019      2.00000
     12      -8.6395      2.00000
     13      -8.6328      2.00000
     14      -8.6261      2.00000
     15      -8.2045      2.00000
     16      -8.1959      2.00000
     17      -8.1866      2.00000
     18      -7.8632      2.00000
     19      -7.8566      2.00000
     20      -7.8496      2.00000
     21      -6.7571      2.00000
     22      -6.7333      2.00000
     23      -6.4523      2.00000
     24      -6.4370      2.00000
     25      -6.4262      2.00000
     26      -6.3277      2.00000
     27      -6.3231      2.00000
     28      -6.3155      2.00000
     29      -1.5542      0.00000
     30      -1.2867      0.00000
     31      -1.2251      0.00000
     32      -1.2077      0.00000
     33      -1.1349      0.00000
     34      -1.1010      0.00000
     35      -0.9894      0.00000
     36      -0.8592      0.00000
     37      -0.8489      0.00000
     38      -0.7304      0.00000
     39      -0.2586      0.00000
     40      -0.2299      0.00000
     41      -0.1652      0.00000
     42      -0.0795      0.00000


--------------------------------------------------------------------------------------------------------


 soft charge-density along one line, spin component           1
         0         1         2         3         4         5         6         7         8         9
 total charge-density along one line
 
 pseudopotential strength for first ion, spin component:           1
 19.624  27.386  -0.000   0.002   0.004  -0.000   0.004   0.007
 27.386  38.224  -0.000   0.003   0.005  -0.000   0.005   0.010
 -0.000  -0.000   4.359  -0.000   0.000   8.132  -0.000   0.000
  0.002   0.003  -0.000   4.360  -0.000  -0.000   8.134  -0.000
  0.004   0.005   0.000  -0.000   4.360   0.000  -0.000   8.133
 -0.000  -0.000   8.132  -0.000   0.000  15.180  -0.001   0.000
  0.004   0.005  -0.000   8.134  -0.000  -0.001  15.183  -0.001
  0.007   0.010   0.000  -0.000   8.133   0.000  -0.001  15.182
 total augmentation occupancy for first ion, spin component:           1
  5.694  -2.106   0.023  -0.197  -0.375  -0.007   0.057   0.109
 -2.106   0.833  -0.014   0.119   0.224   0.003  -0.024  -0.046
  0.023  -0.014   3.393   0.146  -0.055  -0.809  -0.050   0.019
 -0.197   0.119   0.146   2.791   0.138  -0.050  -0.602  -0.047
 -0.375   0.224  -0.055   0.138   2.954   0.019  -0.047  -0.659
 -0.007   0.003  -0.809  -0.050   0.019   0.194   0.014  -0.005
  0.057  -0.024  -0.050  -0.602  -0.047   0.014   0.137   0.013
  0.109  -0.046   0.019  -0.047  -0.659  -0.005   0.013   0.153


------------------------ aborting loop because EDIFF is reached ----------------------------------------


    CHARGE:  cpu time    0.2270: real time    0.2278
    FORLOC:  cpu time    0.1280: real time    0.1276
    FORNL :  cpu time    0.8489: real time    0.8479
    STRESS:  cpu time    2.8696: real time    2.8680
    FORCOR:  cpu time    1.0008: real time    1.0006
    FORHAR:  cpu time    0.3509: real time    0.3510
    MIXING:  cpu time    0.0930: real time    0.0927
    OFIELD:  cpu time    0.0000: real time    0.0000

  FORCE on cell =-STRESS in cart. coord.  units (eV):
  Direction    XX          YY          ZZ          XY          YZ          ZX
  --------------------------------------------------------------------------------------
  Alpha Z     2.79095     2.79095     2.79095
  Ewald     876.64706   876.62235   876.71007    -0.21850     0.02563    -0.50464
  Hartree  1187.12023  1185.82759  1186.58602    -0.47710     0.29282    -0.05706
  E(xc)    -181.79991  -181.83548  -181.86442     0.05439     0.02772    -0.02254
  Local   -2536.45174 -2535.16090 -2536.00426     0.70434    -0.30718     0.56529
  n-local   220.99905   221.27464   221.36650    -0.24788    -0.16390     0.07347
  augment    -6.87516    -6.87973    -6.88003     0.00505     0.00253    -0.00243
  Kinetic   438.50810   438.27911   438.26157     0.12939     0.11443    -0.01770
  Fock        0.00000     0.00000     0.00000     0.00000     0.00000     0.00000
  -------------------------------------------------------------------------------------
  Total       0.93859     0.91854     0.96639    -0.05031    -0.00795     0.03439
  in kB       0.18797     0.18396     0.19354    -0.01008    -0.00159     0.00689
  external pressure =        0.19 kB  Pullay stress =        0.00 kB


 VOLUME and BASIS-vectors are now :
 -----------------------------------------------------------------------------
  energy-cutoff  :      400.00
[...]
    SETDIJ:  cpu time    0.0060: real time    0.0062
     EDDAV:  cpu time    4.4813: real time    4.4792
       DOS:  cpu time    0.0000: real time    0.0005
    CHARGE:  cpu time    0.2290: real time    0.2285
    MIXING:  cpu time    0.0240: real time    0.0244
    --------------------------------------------
      LOOP:  cpu time    5.7081: real time    5.7054

 eigenvalue-minimisations  :   120
 total energy-change (2. order) :-0.2408422E-04  (-0.3015232E-04)
 number of electron      56.0000021 magnetization 
 augmentation part       -4.7137181 magnetization 

 Broyden mixing:
  rms(total) = 0.15610E-02    rms(broyden)= 0.15605E-02
  rms(prec ) = 0.16669E-02
  weight for this iteration     100.00

 eigenvalues of (default mixing * dielectric matrix)
  average eigenvalue GAMMA=   1.0327
  1.0327

 Free energy of the ion-electron system (eV)
  ---------------------------------------------------
  alpha Z        PSCENC =         2.79095307
  Ewald energy   TEWEN  =      2566.57568541
  -Hartree energ DENC   =     -3497.84149516
  -exchange      EXHF   =         0.00000000
  -V(xc)+E(xc)   XCENC  =       -37.05790410
  PAW double counting   =      3454.51660439    -3302.42218716
  entropy T*S    EENTRO =        -0.00000000
  eigenvalues    EBANDS =      -529.38735768
  atomic energy  EATOM  =      1243.82505112
  Solvation  Ediel_sol  =         0.00000000
  ---------------------------------------------------
  free energy    TOTEN  =       -99.00065011 eV

  energy without entropy =      -99.00065011  energy(sigma->0) =      -99.00065011


--------------------------------------------------------------------------------------------------------




--------------------------------------- Iteration     20(   3)  ---------------------------------------


    POTLOK:  cpu time    0.9649: real time    0.9638
    SETDIJ:  cpu time    0.0060: real time    0.0062
     EDDAV:  cpu time    4.7053: real time    4.7023
       DOS:  cpu time    0.0000: real time    0.0004
    CHARGE:  cpu time    0.2280: real time    0.2279
    MIXING:  cpu time    0.0250: real time    0.0253
    --------------------------------------------
      LOOP:  cpu time    5.9291: real time    5.9258

 eigenvalue-minimisations  :   128
 total energy-change (2. order) : 0.2022539E-05  (-0.7718375E-06)
 number of electron      56.0000021 magnetization 
 augmentation part       -4.7136881 magnetization 

 Broyden mixing:
  rms(total) = 0.89181E-03    rms(broyden)= 0.89177E-03
  rms(prec ) = 0.95420E-03
  weight for this iteration     100.00

 eigenvalues of (default mixing * dielectric matrix)
  average eigenvalue GAMMA=   1.6064
  1.0673  2.1456

 Free energy of the ion-electron system (eV)
  ---------------------------------------------------
  alpha Z        PSCENC =         2.79095307
  Ewald energy   TEWEN  =      2566.57568541
  -Hartree energ DENC   =     -3497.84528114
  -exchange      EXHF   =         0.00000000
  -V(xc)+E(xc)   XCENC  =       -37.05786660
  PAW double counting   =      3454.75295775    -3302.65879407
  entropy T*S    EENTRO =        -0.00000000
  eigenvalues    EBANDS =      -529.38335362
  atomic energy  EATOM  =      1243.82505112
  Solvation  Ediel_sol  =         0.00000000
  ---------------------------------------------------
  free energy    TOTEN  =       -99.00064809 eV

  energy without entropy =      -99.00064809  energy(sigma->0) =      -99.00064809


--------------------------------------------------------------------------------------------------------




--------------------------------------- Iteration     20(   4)  ---------------------------------------


    POTLOK:  cpu time    1.0378: real time    1.0385
    SETDIJ:  cpu time    0.0070: real time    0.0070
     EDDAV:  cpu time    4.2813: real time    4.2790
       DOS:  cpu time    0.0000: real time    0.0004
    --------------------------------------------
      LOOP:  cpu time    5.3262: real time    5.3249

 eigenvalue-minimisations  :   112
 total energy-change (2. order) : 0.3519863E-06  (-0.4098518E-06)
 number of electron      56.0000021 magnetization 
 augmentation part       -4.7136881 magnetization 

 Free energy of the ion-electron system (eV)
  ---------------------------------------------------
  alpha Z        PSCENC =         2.79095307
  Ewald energy   TEWEN  =      2566.57568541
  -Hartree energ DENC   =     -3497.84739711
  -exchange      EXHF   =         0.00000000
  -V(xc)+E(xc)   XCENC  =       -37.05779554
  PAW double counting   =      3454.94730387    -3302.85334931
  entropy T*S    EENTRO =        -0.00000000
  eigenvalues    EBANDS =      -529.38109924
  atomic energy  EATOM  =      1243.82505112
  Solvation  Ediel_sol  =         0.00000000
  ---------------------------------------------------
  free energy    TOTEN  =       -99.00064774 eV

  energy without entropy =      -99.00064774  energy(sigma->0) =      -99.00064774


--------------------------------------------------------------------------------------------------------




 average (electrostatic) potential at core
  the test charge radii are     0.9892  1.1631  0.5201
  (the norm of the test charge is              1.0000)
       1 -93.4361       2 -93.4345       3 -93.4360       4 -40.4117       5 -40.4913
       6 -40.4650       7 -40.4116       8 -40.4649       9 -40.4912      10 -40.4908
      11 -40.9847      12 -40.9872      13 -41.0110      14 -40.8644      15 -40.8676
      16 -40.8688      17 -40.8699      18 -41.0113      19 -41.0167      20 -40.9822
      21 -40.9822      22 -41.0171      23 -40.8639      24 -40.8680      25 -40.9885
      26 -40.9845
 
 
 
 E-fermi :  -5.2971     XC(G=0):  -0.6168     alpha+bet : -0.3265


 k-point     1 :       0.0000    0.0000    0.0000
  band No.  band energies     occupation 
      1     -15.2763      2.00000
      2     -14.4067      2.00000
      3     -14.2804      2.00000
      4     -14.1322      2.00000
      5     -13.1792      2.00000
      6     -12.8589      2.00000
      7     -11.9645      2.00000
      8     -11.8023      2.00000
      9     -11.6659      2.00000
     10     -10.7732      2.00000
     11      -8.9001      2.00000
     12      -8.6711      2.00000
     13      -8.6197      2.00000
     14      -8.5504      2.00000
     15      -8.2635      2.00000
     16      -8.1648      2.00000
     17      -8.0844      2.00000
     18      -7.8584      2.00000
     19      -7.8208      2.00000
     20      -7.7785      2.00000
     21      -6.8225      2.00000
     22      -6.7243      2.00000
     23      -6.4525      2.00000
     24      -6.4122      2.00000
     25      -6.3795      2.00000
     26      -6.2883      2.00000
     27      -6.2836      2.00000
     28      -6.2763      2.00000
     29      -1.5252      0.00000
     30      -1.4314      0.00000
     31      -1.3400      0.00000
     32      -1.2738      0.00000
     33      -1.2284      0.00000
     34      -1.2122      0.00000
     35      -1.1734      0.00000
     36      -0.8760      0.00000
     37      -0.8549      0.00000
     38      -0.7781      0.00000
     39      -0.2439      0.00000
     40      -0.2141      0.00000
     41      -0.1345      0.00000
     42      -0.0585      0.00000


--------------------------------------------------------------------------------------------------------


 soft charge-density along one line, spin component           1
         0         1         2         3         4         5         6         7         8         9
 total charge-density along one line
 
 pseudopotential strength for first ion, spin component:           1
 19.625  27.387  -0.000   0.003   0.005  -0.001   0.005   0.009
 27.387  38.224  -0.000   0.004   0.007  -0.001   0.007   0.013
 -0.000  -0.000   4.362  -0.000   0.000   8.138  -0.000   0.000
  0.003   0.004  -0.000   4.363  -0.000  -0.000   8.138  -0.000
  0.005   0.007   0.000  -0.000   4.362   0.000  -0.000   8.138
 -0.001  -0.001   8.138  -0.000   0.000  15.190  -0.000   0.000
  0.005   0.007  -0.000   8.138  -0.000  -0.000  15.190  -0.000
  0.009   0.013   0.000  -0.000   8.138   0.000  -0.000  15.190
 total augmentation occupancy for first ion, spin component:           1
  6.031  -2.286   0.040  -0.319  -0.603  -0.012   0.099   0.188
 -2.286   0.918  -0.022   0.178   0.334   0.005  -0.043  -0.082
  0.040  -0.022   3.653   0.192  -0.077  -0.884  -0.062   0.025
 -0.319   0.178   0.192   2.826   0.220  -0.062  -0.617  -0.070
 -0.603   0.334  -0.077   0.220   3.081   0.025  -0.070  -0.699
 -0.012   0.005  -0.884  -0.062   0.025   0.214   0.017  -0.007
  0.099  -0.043  -0.062  -0.617  -0.070   0.017   0.142   0.020
  0.188  -0.082   0.025  -0.070  -0.699  -0.007   0.020   0.165


------------------------ aborting loop because EDIFF is reached ----------------------------------------


    CHARGE:  cpu time    0.2280: real time    0.2282
    FORLOC:  cpu time    0.1270: real time    0.1265
    FORNL :  cpu time    0.8489: real time    0.8489
    STRESS:  cpu time    2.7576: real time    2.7564
    FORCOR:  cpu time    1.0008: real time    0.9999
    FORHAR:  cpu time    0.3509: real time    0.3512
    MIXING:  cpu time    0.0260: real time    0.0258
    OFIELD:  cpu time    0.0000: real time    0.0000

  FORCE on cell =-STRESS in cart. coord.  units (eV):
  Direction    XX          YY          ZZ          XY          YZ          ZX
  --------------------------------------------------------------------------------------
  Alpha Z     2.79095     2.79095     2.79095
  Ewald     860.70241   850.67909   855.19253    -1.79149     2.25609     2.51239
  Hartree  1171.19213  1161.42663  1165.22242    -0.94058     2.45935     2.00991
  E(xc)    -181.31531  -181.38930  -181.40951     0.06035     0.04030    -0.01464
  Local   -2503.79703 -2483.75290 -2492.12839     2.69895    -4.81144    -4.56767
  n-local   218.73484   219.13671   219.10210    -0.13985    -0.16506    -0.02753
  augment    -7.12238    -7.09756    -7.08635    -0.02523    -0.01398     0.00742
  Kinetic   437.87606   437.22773   437.39983     0.07484     0.23083     0.12430
  Fock        0.00000     0.00000     0.00000     0.00000     0.00000     0.00000
  -------------------------------------------------------------------------------------
  Total      -0.93832    -0.97865    -0.91642    -0.06300    -0.00392     0.04418
  in kB      -0.18792    -0.19600    -0.18353    -0.01262    -0.00079     0.00885
  external pressure =       -0.19 kB  Pullay stress =        0.00 kB


 VOLUME and BASIS-vectors are now :
 -----------------------------------------------------------------------------
  energy-cutoff  :      400.00
  volume of cell :     8000.00
      direct lattice vectors                 reciprocal lattice vectors
    20.000000000  0.000000000  0.000000000     0.050000000  0.000000000  0.000000000
     0.000000000 20.000000000  0.000000000     0.000000000  0.050000000  0.000000000
     0.000000000  0.000000000 20.000000000     0.000000000  0.000000000  0.050000000

  length of vectors
    20.000000000 20.000000000 20.000000000     0.050000000  0.050000000  0.050000000


 FORCES acting on ions
    electron-ion (+dipol)            ewald-force                    non-local-force                 convergence-correction
 -----------------------------------------------------------------------------------------------
   0.833E+02 -.516E+01 0.440E+02   -.856E+02 0.530E+01 -.452E+02   0.230E+01 -.151E+00 0.117E+01   0.511E-03 0.888E-03 -.617E-03
   -.350E+02 0.513E+02 0.719E+02   0.359E+02 -.527E+02 -.739E+02   -.944E+00 0.139E+01 0.195E+01   0.366E-03 -.675E-03 -.897E-03
   -.831E+02 0.490E+01 -.443E+02   0.854E+02 -.501E+01 0.455E+02   -.227E+01 0.108E+00 -.124E+01   -.397E-03 -.107E-02 0.385E-03
   0.117E+02 -.196E+02 0.873E+02   -.119E+02 0.194E+02 -.879E+02   0.211E+00 0.218E+00 0.601E+00   0.571E-03 -.590E-03 -.343E-03
   -.280E+02 -.815E+02 0.444E+02   0.283E+02 0.824E+02 -.449E+02   -.311E+00 -.912E+00 0.472E+00   -.358E-03 -.713E-03 -.759E-03
   0.800E+02 0.128E+02 -.404E+02   -.808E+02 -.129E+02 0.404E+02   0.719E+00 0.509E-01 0.591E-01   0.613E-03 -.638E-03 -.113E-02
   -.495E+02 0.750E+02 -.961E+01   0.500E+02 -.753E+02 0.947E+01   -.575E+00 0.317E+00 0.149E+00   -.401E-04 -.273E-03 -.857E-03
   -.411E+02 -.702E+02 -.401E+02   0.417E+02 0.704E+02 0.405E+02   -.578E+00 -.258E+00 -.351E+00   0.421E-03 -.900E-03 -.101E-02
   0.282E+02 0.812E+02 -.447E+02   -.285E+02 -.821E+02 0.452E+02   0.325E+00 0.890E+00 -.502E+00   0.954E-03 -.177E-03 -.529E-03
   0.356E+02 -.521E+02 -.730E+02   -.360E+02 0.527E+02 0.738E+02   0.396E+00 -.582E+00 -.817E+00   0.617E-03 -.898E-03 -.125E-02
   0.196E+02 0.394E+02 0.566E+01   -.208E+02 -.413E+02 -.673E+01   0.114E+01 0.197E+01 0.106E+01   0.208E-03 0.379E-04 -.876E-04
   0.111E+01 0.213E+02 -.389E+02   -.798E+00 -.219E+02 0.414E+02   -.307E+00 0.542E+00 -.244E+01   0.201E-03 -.852E-04 -.967E-04
   -.258E+02 0.382E+02 -.449E+01   0.272E+02 -.403E+02 0.473E+01   -.136E+01 0.204E+01 -.241E+00   -.921E-04 0.437E-04 -.144E-03
   -.456E+02 -.393E+01 0.588E+01   0.483E+02 0.435E+01 -.711E+01   -.266E+01 -.422E+00 0.123E+01   -.870E-04 -.210E-03 0.337E-04
   -.202E+02 0.820E+01 -.409E+02   0.206E+02 -.885E+01 0.438E+02   -.417E+00 0.638E+00 -.287E+01   0.112E-04 -.208E-03 0.520E-04
   -.364E+02 0.473E+01 0.286E+02   0.390E+02 -.430E+01 -.300E+02   -.262E+01 -.422E+00 0.134E+01   -.304E-03 -.270E-03 -.565E-04
   0.870E+01 0.359E+02 0.283E+02   -.100E+02 -.382E+02 -.296E+02   0.133E+01 0.231E+01 0.131E+01   0.339E-03 0.180E-03 -.563E-04
   0.610E+01 -.948E+01 0.448E+02   -.643E+01 0.998E+01 -.472E+02   0.317E+00 -.509E+00 0.239E+01   0.125E-03 -.101E-03 0.678E-04
   -.215E+02 -.353E+02 -.204E+02   0.226E+02 0.372E+02 0.215E+02   -.114E+01 -.190E+01 -.109E+01   0.772E-04 -.988E-04 -.155E-03
   0.285E+01 -.300E+01 -.440E+02   -.258E+01 0.251E+01 0.464E+02   -.271E+00 0.491E+00 -.245E+01   0.242E-03 -.303E-03 0.169E-03
   0.238E+02 -.360E+02 -.105E+02   -.251E+02 0.381E+02 0.103E+02   0.137E+01 -.210E+01 0.192E+00   -.147E-03 0.166E-03 -.362E-03
   0.409E+02 0.664E+01 -.200E+02   -.431E+02 -.699E+01 0.211E+02   0.219E+01 0.356E+00 -.107E+01   0.703E-04 -.122E-03 -.148E-03
   0.317E+02 0.247E+02 0.233E+02   -.331E+02 -.270E+02 -.246E+02   0.143E+01 0.224E+01 0.132E+01   0.132E-03 0.143E-03 -.122E-03
   0.342E+02 -.289E+02 0.120E+02   -.359E+02 0.314E+02 -.123E+02   0.165E+01 -.245E+01 0.332E+00   0.497E-04 0.117E-03 -.172E-03
   0.124E+02 -.410E+02 0.112E+02   -.138E+02 0.431E+02 -.114E+02   0.137E+01 -.210E+01 0.255E+00   -.573E-04 -.119E-03 -.199E-03
   -.332E+02 -.196E+02 0.223E+02   0.354E+02 0.200E+02 -.234E+02   -.221E+01 -.408E+00 0.113E+01   -.122E-03 -.160E-03 -.100E-03
 -----------------------------------------------------------------------------------------------
   0.915E+00 -.134E+01 -.188E+01   -.711E-13 0.107E-13 -.675E-13   -.917E+00 0.135E+01 0.189E+01   0.391E-02 -.603E-02 -.839E-02
 
 
 POSITION                                       TOTAL-FORCE (eV/Angst)
 -----------------------------------------------------------------------------------
      7.34359     10.77808      8.70408         0.009632     -0.009742     -0.002209
     10.84857      9.13002      7.89638        -0.005260      0.009031      0.012123
     12.30233     10.49306     11.31421        -0.001735     -0.001455     -0.013725
      9.48964     11.09836      7.66577        -0.010661      0.000808      0.002803
     10.64010     12.99068      8.72666         0.003161     -0.000137     -0.001000
      7.62977     10.29436     11.04019        -0.000032      0.005131      0.000696
     11.18745      8.65894     10.22823         0.005848      0.006145      0.007125
     10.98436     12.49098     11.10340        -0.002509     -0.001555      0.004099
      9.00631      8.27951     11.29042        -0.001826     -0.001764     -0.001808
      8.78648     12.15686     12.14457        -0.002576      0.003804      0.005455
      8.29756      7.05871     10.63021         0.006422      0.003372     -0.001787
      9.19702      7.94509     12.79999         0.001106      0.004004     -0.001886
     12.05176      7.36601     10.38075         0.006996      0.000833     -0.001850
     13.64831     10.70695     10.69051        -0.006983     -0.000967      0.004137
     12.51082     10.17089     12.76193         0.000346     -0.004688      0.003498
     12.16824      9.34502      7.22129         0.000731      0.003196     -0.003568
     10.17668      7.96475      7.23755         0.000103     -0.005012      0.001421
      9.28719     11.41964      6.14993        -0.004659     -0.004773     -0.003693
     11.70882     13.69176     11.79326         0.003107     -0.006797      0.001920
      8.95518     11.85137     13.66338        -0.003070     -0.003953     -0.004674
      7.93899     13.45915     12.02480         0.006759     -0.000858     -0.001240
      6.24048     10.06917     11.71975        -0.000895      0.003285     -0.006997
      6.62406      9.64462      8.03778         0.003161      0.006520      0.003690
      6.51316     12.01334      8.53762        -0.000206      0.004721     -0.003474
      9.79307     14.28863      8.56919        -0.001797     -0.003827      0.002165
     12.00946     13.24206      8.02651        -0.005159     -0.005324     -0.001223
 -----------------------------------------------------------------------------------
    total drift:                                0.002011      0.000801      0.000941


--------------------------------------------------------------------------------------------------------



  FREE ENERGIE OF THE ION-ELECTRON SYSTEM (eV)
  ---------------------------------------------------
  free  energy   TOTEN  =       -99.00064774 eV

  energy  without entropy=      -99.00064774  energy(sigma->0) =      -99.00064774
 
 d Force = 0.1130728E-03[-0.468E-04, 0.273E-03]  d Energy = 0.1146868E-03-0.161E-05
 d Force =-0.3598838E+00[-0.360E+00,-0.360E+00]  d Ewald  =-0.3598838E+00-0.507E-07


--------------------------------------------------------------------------------------------------------


    POTLOK:  cpu time    0.9729: real time    0.9719


--------------------------------------------------------------------------------------------------------


 Conjugate gradient step on ions:
 trial-energy change:   -0.000115  1 .order   -0.000113   -0.000273    0.000047
  (g-gl).g = 0.219E-03      g.g   = 0.240E-03  gl.gl    = 0.737E-03
 g(Force)  = 0.240E-03   g(Stress)= 0.000E+00 ortho     = 0.142E-04
 gamma     =   0.29735
 trial     =   1.11859
 opt step  =   0.95485  (harmonic =   0.95485) maximal distance =0.00112810
 next E    =   -99.000650   (d E  =  -0.00012)


--------------------------------------------------------------------------------------------------------


  
 reached required accuracy - stopping structural energy minimisation
 writing wavefunctions
     LOOP+:  cpu time   28.2737: real time   28.7215
    4ORBIT:  cpu time    0.0000: real time    0.0000

 total amount of memory used by VASP MPI-rank0   131440. kBytes
=======================================================================

   base      :      30000. kBytes
   nonl-proj :      17624. kBytes
   fftplans  :      26957. kBytes
   grid      :      48673. kBytes
   one-center:         40. kBytes
   wavefun   :       8146. kBytes
 
  
  
 General timing and accounting informations for this job:
 ========================================================
  
                  Total CPU time used (sec):     1181.714
                            User time (sec):     1158.608
                          System time (sec):       23.106
                         Elapsed time (sec):     1186.409
  
                   Maximum memory used (kb):      185140.
                   Average memory used (kb):           0.
  
                          Minor page faults:      6370653
                          Major page faults:           11
                 Voluntary context switches:        10478
