 vasp.5.4.4.18Apr17-6-g9f103f2a35 (build Nov 06 2017 19:16:10) complex          
  
 executed on           IFC91_ompi date 2018.07.09  05:28:10
 running on   12 total cores
 distrk:  each k-point on   12 cores,    1 groups
 distr:  one band on NCORES_PER_BAND=   6 cores,    2 groups


--------------------------------------------------------------------------------------------------------


 INCAR:
 POTCAR:    PAW_PBE Si 05Jan2001                  
 POTCAR:    PAW_PBE Ge 05Jan2001                  
 POTCAR:    PAW_PBE H 15Jun2001                   
 POTCAR:    PAW_PBE Si 05Jan2001                  
   VRHFIN =Si: s2p2                                                             
   LEXCH  = PE                                                                  
   EATOM  =   103.0669 eV,    7.5752 Ry                                         
                                                                                
   TITEL  = PAW_PBE Si 05Jan2001                                                
   LULTRA =        F    use ultrasoft PP ?                                      
   IUNSCR =        1    unscreen: 0-lin 1-nonlin 2-no                           
   RPACOR =    1.500    partial core radius                                     
   POMASS =   28.085; ZVAL   =    4.000    mass and valenz                      
   RCORE  =    1.900    outmost cutoff radius                                   
   RWIGS  =    2.480; RWIGS  =    1.312    wigner-seitz radius (au A)           
   ENMAX  =  245.345; ENMIN  =  184.009 eV                                      
   ICORE  =        2    local potential                                         
   LCOR   =        T    correct aug charges                                     
   LPAW   =        T    paw PP                                                  
   EAUG   =  322.069                                                            
   DEXC   =    0.000                                                            
   RMAX   =    1.950    core radius for proj-oper                               
   RAUG   =    1.300    factor for augmentation sphere                          
   RDEP   =    1.993    radius for radial grids                                 
   RDEPT  =    1.837    core radius for aug-charge                              
                                                                                
   Atomic configuration                                                         
    6 entries                                                                   
     n  l   j            E        occ.                                          
     1  0  0.50     -1785.8828   2.0000                                         
     2  0  0.50      -139.4969   2.0000                                         
     2  1  1.50       -95.5546   6.0000                                         
     3  0  0.50       -10.8127   2.0000                                         
     3  1  0.50        -4.0811   2.0000                                         
     3  2  1.50        -4.0817   0.0000                                         
   Description                                                                  
     l       E           TYP  RCUT    TYP  RCUT                                 
     0    -10.8127223     23  1.900                                             
     0     -7.6451159     23  1.900                                             
     1     -4.0811372     23  1.900                                             
     1      2.4879257     23  1.900                                             
     2     -4.0817478      7  1.900                                             
  local pseudopotential read in
  partial core-charges read in
  partial kinetic energy density read in
  atomic valenz-charges read in
  non local Contribution for L=           0  read in
    real space projection operators read in
  non local Contribution for L=           0  read in
    real space projection operators read in
  non local Contribution for L=           1  read in
    real space projection operators read in
  non local Contribution for L=           1  read in
    real space projection operators read in
    PAW grid and wavefunctions read in
 
   number of l-projection  operators is LMAX  =           4
   number of lm-projection operators is LMMAX =           8
 
 POTCAR:    PAW_PBE Ge 05Jan2001                  
   VRHFIN =Ge: s2p2                                                             
   LEXCH  = PE                                                                  
   EATOM  =   104.9960 eV,    7.7170 Ry                                         
                                                                                
   TITEL  = PAW_PBE Ge 05Jan2001                                                
   LULTRA =        F    use ultrasoft PP ?                                      
   IUNSCR =        1    unscreen: 0-lin 1-nonlin 2-no                           
   RPACOR =    2.170    partial core radius                                     
   POMASS =   72.610; ZVAL   =    4.000    mass and valenz                      
   RCORE  =    2.300    outmost cutoff radius                                   
   RWIGS  =    2.300; RWIGS  =    1.217    wigner-seitz radius (au A)           
   ENMAX  =  173.807; ENMIN  =  130.355 eV                                      
   ICORE  =        3    local potential                                         
   LCOR   =        T    correct aug charges                                     
   LPAW   =        T    paw PP                                                  
   EAUG   =  385.843                                                            
   DEXC   =    0.000                                                            
   RMAX   =    2.342    core radius for proj-oper                               
   RAUG   =    1.300    factor for augmentation sphere                          
   RDEP   =    2.318    radius for radial grids                                 
   RDEPT  =    2.103    core radius for aug-charge                              
                                                                                
   Atomic configuration                                                         
   10 entries                                                                   
     n  l   j            E        occ.                                          
     1  0  0.50    -10959.8463   2.0000                                         
     2  0  0.50     -1371.6056   2.0000                                         
     2  1  1.50     -1198.4791   6.0000                                         
     3  0  0.50      -168.4733   2.0000                                         
     3  1  1.50      -115.6019   6.0000                                         
     3  2  2.50       -29.3106  10.0000                                         
     4  0  0.50       -11.7309   2.0000                                         
     4  1  0.50        -3.8952   2.0000                                         
     4  2  1.50        -4.0817   0.0000                                         
     4  3  2.50        -4.0817   0.0000                                         
   Description                                                                  
     l       E           TYP  RCUT    TYP  RCUT                                 
     0    -11.7309493     23  2.300                                             
     0     -7.4578696     23  2.300                                             
     1     -3.8952261     23  2.300                                             
     1      6.1178114     23  2.300                                             
     2     -4.0817478     23  2.300                                             
     3     -1.3605826      7  2.300                                             
  local pseudopotential read in
  partial core-charges read in
  partial kinetic energy density read in
  atomic valenz-charges read in
  non local Contribution for L=           0  read in
    real space projection operators read in
  non local Contribution for L=           0  read in
    real space projection operators read in
  non local Contribution for L=           1  read in
    real space projection operators read in
  non local Contribution for L=           1  read in
    real space projection operators read in
  non local Contribution for L=           2  read in
    real space projection operators read in
    PAW grid and wavefunctions read in
 
   number of l-projection  operators is LMAX  =           5
   number of lm-projection operators is LMMAX =          13
 
 POTCAR:    PAW_PBE H 15Jun2001                   
   VRHFIN =H: ultrasoft test                                                    
   LEXCH  = PE                                                                  
   EATOM  =    12.4884 eV,    0.9179 Ry                                         
                                                                                
   TITEL  = PAW_PBE H 15Jun2001                                                 
   LULTRA =        F    use ultrasoft PP ?                                      
   IUNSCR =        0    unscreen: 0-lin 1-nonlin 2-no                           
   RPACOR =    0.000    partial core radius                                     
   POMASS =    1.000; ZVAL   =    1.000    mass and valenz                      
   RCORE  =    1.100    outmost cutoff radius                                   
   RWIGS  =    0.700; RWIGS  =    0.370    wigner-seitz radius (au A)           
   ENMAX  =  250.000; ENMIN  =  200.000 eV                                      
   RCLOC  =    0.701    cutoff for local pot                                    
   LCOR   =        T    correct aug charges                                     
   LPAW   =        T    paw PP                                                  
   EAUG   =  400.000                                                            
   RMAX   =    1.123    core radius for proj-oper                               
   RAUG   =    1.200    factor for augmentation sphere                          
   RDEP   =    1.112    radius for radial grids                                 
   RDEPT  =    0.926    core radius for aug-charge                              
                                                                                
   Atomic configuration                                                         
    2 entries                                                                   
     n  l   j            E        occ.                                          
     1  0  0.50        -6.4927   1.0000                                         
     2  1  0.50        -3.4015   0.0000                                         
   Description                                                                  
     l       E           TYP  RCUT    TYP  RCUT                                 
     0     -6.4927494     23  1.100                                             
     0      6.8029130     23  1.100                                             
     1     -4.0817478     23  1.100                                             
  local pseudopotential read in
  atomic valenz-charges read in
  non local Contribution for L=           0  read in
    real space projection operators read in
  non local Contribution for L=           0  read in
    real space projection operators read in
  non local Contribution for L=           1  read in
    real space projection operators read in
    PAW grid and wavefunctions read in
 
   number of l-projection  operators is LMAX  =           3
   number of lm-projection operators is LMMAX =           5
 

 ----------------------------------------------------------------------------- 
|                                                                             |
|  ADVICE TO THIS USER RUNNING 'VASP/VAMP'   (HEAR YOUR MASTER'S VOICE ...):  |
|                                                                             |
|      You have a (more or less) 'large supercell' and for larger cells       |
|      it might be more efficient to use real space projection opertators     |
|      So try LREAL= Auto  in the INCAR   file.                               |
|      Mind:          For very  accurate calculation you might also keep the  |
|      reciprocal projection scheme          (i.e. LREAL=.FALSE.)             |
|                                                                             |
 ----------------------------------------------------------------------------- 

  PAW_PBE Si 05Jan2001                  :
 energy of atom  1       EATOM= -103.0669
 kinetic energy error for atom=    0.0012 (will be added to EATOM!!)
  PAW_PBE Ge 05Jan2001                  :
 energy of atom  2       EATOM= -104.9960
 kinetic energy error for atom=    0.0003 (will be added to EATOM!!)
  PAW_PBE H 15Jun2001                   :
 energy of atom  3       EATOM=  -12.4884
 kinetic energy error for atom=    0.0098 (will be added to EATOM!!)
 
 
 POSCAR: SiGeH16                                 
  positions in direct lattice
  No initial velocities read in
 exchange correlation table for  LEXCH =        8
   RHO(1)=    0.500       N(1)  =     2000
   RHO(2)=  100.500       N(2)  =     4000
 


--------------------------------------------------------------------------------------------------------


 ion  position               nearest neighbor table
   1  0.369  0.539  0.436-  23 1.55  24 1.55   6 2.39   3 2.39
   2  0.613  0.525  0.565-  15 1.55  14 1.55   8 2.39   7 2.39
   3  0.475  0.556  0.385-  18 1.55   5 2.39   1 2.39   4 2.39
   4  0.542  0.457  0.396-  17 1.55  16 1.55   7 2.39   3 2.39
   5  0.531  0.648  0.437-  25 1.55  26 1.55   8 2.39   3 2.39
   6  0.385  0.515  0.552-  22 1.55  10 2.39   9 2.39   1 2.39
   7  0.557  0.433  0.512-  13 1.55   4 2.39   2 2.39   9 2.39
   8  0.547  0.624  0.554-  19 1.55   5 2.39   2 2.39  10 2.39
   9  0.451  0.416  0.564-  12 1.55  11 1.55   6 2.39   7 2.39
  10  0.440  0.606  0.605-  20 1.55  21 1.55   6 2.39   8 2.39
  11  0.415  0.357  0.529-   9 1.55
  12  0.461  0.400  0.639-   9 1.55
  13  0.600  0.369  0.520-   7 1.55
  14  0.682  0.536  0.531-   2 1.55
  15  0.623  0.509  0.640-   2 1.55
  16  0.611  0.469  0.363-   4 1.55
  17  0.506  0.398  0.362-   4 1.55
  18  0.465  0.572  0.309-   3 1.55
  19  0.583  0.683  0.588-   8 1.55
  20  0.451  0.590  0.680-  10 1.55
  21  0.397  0.670  0.598-  10 1.55
  22  0.316  0.504  0.586-   6 1.55
  23  0.333  0.479  0.402-   1 1.55
  24  0.326  0.603  0.429-   1 1.55
  25  0.488  0.712  0.430-   5 1.55
  26  0.600  0.659  0.404-   5 1.55
 
  LATTYP: Found a simple cubic cell.
 ALAT       =    20.0000000000
  
  Lattice vectors:
  
 A1 = (  20.0000000000,   0.0000000000,   0.0000000000)
 A2 = (   0.0000000000,  20.0000000000,   0.0000000000)
 A3 = (   0.0000000000,   0.0000000000,  20.0000000000)


Analysis of symmetry for initial positions (statically):
=====================================================================
 Subroutine PRICEL returns:
 Original cell was already a primitive cell.
 

 Routine SETGRP: Setting up the symmetry group for a 
 simple cubic supercell.


 Subroutine GETGRP returns: Found  1 space group operations
 (whereof  1 operations were pure point group operations)
 out of a pool of 48 trial point group operations.


The static configuration has the point symmetry C_1 .


Analysis of symmetry for dynamics (positions and initial velocities):
=====================================================================
 Subroutine PRICEL returns:
 Original cell was already a primitive cell.
 

 Routine SETGRP: Setting up the symmetry group for a 
 simple cubic supercell.


 Subroutine GETGRP returns: Found  1 space group operations
 (whereof  1 operations were pure point group operations)
 out of a pool of 48 trial point group operations.


The dynamic configuration has the point symmetry C_1 .


 Subroutine INISYM returns: Found  1 space group operations
 (whereof  1 operations are pure point group operations),
 and found     1 'primitive' translations

 
 
 KPOINTS: Automatic mesh                          

Automatic generation of k-mesh.
Space group operators:
 irot       det(A)        alpha          n_x          n_y          n_z        tau_x        tau_y        tau_z
    1     1.000000     0.000000     1.000000     0.000000     0.000000     0.000000     0.000000     0.000000
 
 Subroutine IBZKPT returns following result:
 ===========================================
 
 Found      1 irreducible k-points:
 
 Following reciprocal coordinates:
            Coordinates               Weight
  0.000000  0.000000  0.000000      1.000000
 
 Following cartesian coordinates:
            Coordinates               Weight
  0.000000  0.000000  0.000000      1.000000
 


--------------------------------------------------------------------------------------------------------




 Dimension of arrays:
   k-points           NKPTS =      1   k-points in BZ     NKDIM =      1   number of bands    NBANDS=     42
   number of dos      NEDOS =    301   number of ions     NIONS =     26
   non local maximal  LDIM  =      5   non local SUM 2l+1 LMDIM =     13
   total plane-waves  NPLWV = 941192
   max r-space proj   IRMAX =      1   max aug-charges    IRDMAX=   6593
   dimension x,y,z NGX =    98 NGY =   98 NGZ =   98
   dimension x,y,z NGXF=   196 NGYF=  196 NGZF=  196
   support grid    NGXF=   196 NGYF=  196 NGZF=  196
   ions per type =               2   8  16
   NGX,Y,Z   is equivalent  to a cutoff of   8.15,  8.15,  8.15 a.u.
   NGXF,Y,Z  is equivalent  to a cutoff of  16.29, 16.29, 16.29 a.u.

 SYSTEM =  SiGe                                    
 POSCAR =  SiGeH16                                 

 Startparameter for this run:
   NWRITE =      2    write-flag & timer
   PREC   = normal    normal or accurate (medium, high low for compatibility)
   ISTART =      0    job   : 0-new  1-cont  2-samecut
   ICHARG =      2    charge: 1-file 2-atom 10-const
   ISPIN  =      1    spin polarized calculation?
   LNONCOLLINEAR =      F non collinear calculations
   LSORBIT =      F    spin-orbit coupling
   INIWAV =      1    electr: 0-lowe 1-rand  2-diag
   LASPH  =      F    aspherical Exc in radial PAW
   METAGGA=      F    non-selfconsistent MetaGGA calc.

 Electronic Relaxation 1
   ENCUT  =  400.0 eV  29.40 Ry    5.42 a.u.  32.61 32.61 32.61*2*pi/ulx,y,z
   ENINI  =  400.0     initial cutoff
   ENAUG  =  400.0 eV  augmentation charge cutoff
   NELM   =     60;   NELMIN=  2; NELMDL= -5     # of ELM steps 
   EDIFF  = 0.1E-05   stopping-criterion for ELM
   LREAL  =      F    real-space projection
   NLSPLINE    = F    spline interpolate recip. space projectors
   LCOMPAT=      F    compatible to vasp.4.4
   GGA_COMPAT  = T    GGA compatible to vasp.4.4-vasp.4.6
   LMAXPAW     = -100 max onsite density
   LMAXMIX     =    2 max onsite mixed and CHGCAR
   VOSKOWN=      0    Vosko Wilk Nusair interpolation
   ROPT   =    0.00000   0.00000   0.00000
 Ionic relaxation
   EDIFFG = -.2E-01   stopping-criterion for IOM
   NSW    =    200    number of steps for IOM
   NBLOCK =      1;   KBLOCK =    200    inner block; outer block 
   IBRION =      2    ionic relax: 0-MD 1-quasi-New 2-CG
   NFREE  =      1    steps in history (QN), initial steepest desc. (CG)
   ISIF   =      2    stress and relaxation
   IWAVPR =     11    prediction:  0-non 1-charg 2-wave 3-comb
   ISYM   =      2    0-nonsym 1-usesym 2-fastsym
   LCORR  =      T    Harris-Foulkes like correction to forces

   POTIM  = 0.5000    time-step for ionic-motion
   TEIN   =    0.0    initial temperature
   TEBEG  =    0.0;   TEEND  =   0.0 temperature during run
   SMASS  =  -3.00    Nose mass-parameter (am)
   estimated Nose-frequenzy (Omega)   =  0.10E-29 period in steps =****** mass=  -0.914E-26a.u.
   SCALEE = 1.0000    scale energy and forces
   NPACO  =    256;   APACO  = 16.0  distance and # of slots for P.C.
   PSTRESS=    0.0 pullay stress

  Mass of Ions in am
   POMASS =  28.09 72.61  1.00
  Ionic Valenz
   ZVAL   =   4.00  4.00  1.00
  Atomic Wigner-Seitz radii
   RWIGS  =  -1.00 -1.00 -1.00
  virtual crystal weights 
   VCA    =   1.00  1.00  1.00
   NELECT =      56.0000    total number of electrons
   NUPDOWN=      -1.0000    fix difference up-down

 DOS related values:
   EMIN   =  10.00;   EMAX   =-10.00  energy-range for DOS
   EFERMI =   0.00
   ISMEAR =     0;   SIGMA  =   0.20  broadening in eV -4-tet -1-fermi 0-gaus

 Electronic relaxation 2 (details)
   IALGO  =     38    algorithm
   LDIAG  =      T    sub-space diagonalisation (order eigenvalues)
   LSUBROT=      F    optimize rotation matrix (better conditioning)
   TURBO    =      0    0=normal 1=particle mesh
   IRESTART =      0    0=no restart 2=restart with 2 vectors
   NREBOOT  =      0    no. of reboots
   NMIN     =      0    reboot dimension
   EREF     =   0.00    reference energy to select bands
   IMIX   =      4    mixing-type and parameters
     AMIX     =   0.40;   BMIX     =  1.00
     AMIX_MAG =   1.60;   BMIX_MAG =  1.00
     AMIN     =   0.10
     WC   =   100.;   INIMIX=   1;  MIXPRE=   1;  MAXMIX= -45

 Intra band minimization:
   WEIMIN = 0.0010     energy-eigenvalue tresh-hold
   EBREAK =  0.60E-08  absolut break condition
   DEPER  =   0.30     relativ break condition  

   TIME   =   0.40     timestep for ELM

  volume/ion in A,a.u.               =     307.69      2076.41
  Fermi-wavevector in a.u.,A,eV,Ry     =   0.313166  0.591797  1.334361  0.098073
  Thomas-Fermi vector in A             =   1.193276
 
 Write flags
   LWAVE        =      T    write WAVECAR
   LDOWNSAMPLE  =      F    k-point downsampling of WAVECAR
   LCHARG       =      T    write CHGCAR
   LVTOT        =      F    write LOCPOT, total local potential
   LVHAR        =      F    write LOCPOT, Hartree potential only
   LELF         =      F    write electronic localiz. function (ELF)
   LORBIT       =      0    0 simple, 1 ext, 2 COOP (PROOUT), +10 PAW based schemes


 Dipole corrections
   LMONO  =      F    monopole corrections only (constant potential shift)
   LDIPOL =      F    correct potential (dipole corrections)
   IDIPOL =      0    1-x, 2-y, 3-z, 4-all directions 
   EPSILON=  1.0000000 bulk dielectric constant

 Exchange correlation treatment:
   GGA     =    --    GGA type
   LEXCH   =     8    internal setting for exchange type
   VOSKOWN=      0    Vosko Wilk Nusair interpolation
   LHFCALC =     F    Hartree Fock is set to
   LHFONE  =     F    Hartree Fock one center treatment
   AEXX    =    0.0000 exact exchange contribution

 Linear response parameters
   LEPSILON=     F    determine dielectric tensor
   LRPA    =     F    only Hartree local field effects (RPA)
   LNABLA  =     F    use nabla operator in PAW spheres
   LVEL    =     F    velocity operator in full k-point grid
   LINTERFAST=   F  fast interpolation
   KINTER  =     0    interpolate to denser k-point grid
   CSHIFT  =0.1000    complex shift for real part using Kramers Kronig
   OMEGAMAX=  -1.0    maximum frequency
   DEG_THRESHOLD= 0.2000000E-02 threshold for treating states as degnerate
   RTIME   =   -0.100 relaxation time in fs
  (WPLASMAI=    0.000 imaginary part of plasma frequency in eV, 0.658/RTIME)
   DFIELD  = 0.0000000 0.0000000 0.0000000 field for delta impulse in time
 
 Orbital magnetization related:
   ORBITALMAG=     F  switch on orbital magnetization
   LCHIMAG   =     F  perturbation theory with respect to B field
   DQ        =  0.001000  dq finite difference perturbation B field
   LLRAUG    =     F  two centre corrections for induced B field



--------------------------------------------------------------------------------------------------------


 conjugate gradient relaxation of ions
 charge density and potential will be updated during run
 non-spin polarized calculation
 Variant of blocked Davidson
 Davidson routine will perform the subspace rotation
 perform sub-space diagonalisation
    after iterative eigenvector-optimisation
 modified Broyden-mixing scheme, WC =      100.0
 initial mixing is a Kerker type mixing with AMIX =  0.4000 and BMIX =      1.0000
 Hartree-type preconditioning will be used
 using additional bands           14
 reciprocal scheme for non local part
 use partial core corrections
 calculate Harris-corrections to forces 
   (improved forces if not selfconsistent)
 use gradient corrections 
 use of overlap-Matrix (Vanderbilt PP)
 Gauss-broadening in eV      SIGMA  =   0.20


--------------------------------------------------------------------------------------------------------


  energy-cutoff  :      400.00
  volume of cell :     8000.00
      direct lattice vectors                 reciprocal lattice vectors
    20.000000000  0.000000000  0.000000000     0.050000000  0.000000000  0.000000000
     0.000000000 20.000000000  0.000000000     0.000000000  0.050000000  0.000000000
     0.000000000  0.000000000 20.000000000     0.000000000  0.000000000  0.050000000

  length of vectors
    20.000000000 20.000000000 20.000000000     0.050000000  0.050000000  0.050000000


 
 k-points in units of 2pi/SCALE and weight: Automatic mesh                          
   0.00000000  0.00000000  0.00000000       1.000
 
 k-points in reciprocal lattice and weights: Automatic mesh                          
   0.00000000  0.00000000  0.00000000       1.000
 
 position of ions in fractional coordinates (direct lattice) 
   0.36907800  0.53906000  0.43641200
   0.61299700  0.52481700  0.56496600
   0.47547100  0.55626000  0.38465300
   0.54179100  0.45744600  0.39613600
   0.53111600  0.64794100  0.43749600
   0.38461900  0.51474100  0.55243500
   0.55736800  0.43311000  0.51215000
   0.54669200  0.62364400  0.55351800
   0.45095700  0.41593600  0.56388300
   0.44028400  0.60643000  0.60524300
   0.41490100  0.35665000  0.52940300
   0.46117000  0.40042600  0.63910800
   0.60034800  0.36907000  0.51957800
   0.68182700  0.53600700  0.53118700
   0.62280400  0.50903400  0.64018900
   0.61080000  0.46880600  0.36278200
   0.50550800  0.39805500  0.36207700
   0.46538400  0.57201900  0.30946400
   0.58275500  0.68306700  0.58775000
   0.45052500  0.59044300  0.68036400
   0.39732000  0.67044900  0.59753500
   0.31566200  0.50359800  0.58596500
   0.33322800  0.47946500  0.40225200
   0.32629100  0.60324700  0.42912600
   0.48792300  0.71185500  0.43020800
   0.60015100  0.65882400  0.40403700
 
 position of ions in cartesian coordinates  (Angst):
   7.38156000 10.78120000  8.72824000
  12.25994000 10.49634000 11.29932000
   9.50942000 11.12520000  7.69306000
  10.83582000  9.14892000  7.92272000
  10.62232000 12.95882000  8.74992000
   7.69238000 10.29482000 11.04870000
  11.14736000  8.66220000 10.24300000
  10.93384000 12.47288000 11.07036000
   9.01914000  8.31872000 11.27766000
   8.80568000 12.12860000 12.10486000
   8.29802000  7.13300000 10.58806000
   9.22340000  8.00852000 12.78216000
  12.00696000  7.38140000 10.39156000
  13.63654000 10.72014000 10.62374000
  12.45608000 10.18068000 12.80378000
  12.21600000  9.37612000  7.25564000
  10.11016000  7.96110000  7.24154000
   9.30768000 11.44038000  6.18928000
  11.65510000 13.66134000 11.75500000
   9.01050000 11.80886000 13.60728000
   7.94640000 13.40898000 11.95070000
   6.31324000 10.07196000 11.71930000
   6.66456000  9.58930000  8.04504000
   6.52582000 12.06494000  8.58252000
   9.75846000 14.23710000  8.60416000
  12.00302000 13.17648000  8.08074000
 


--------------------------------------------------------------------------------------------------------


 k-point  1 :   0.0000 0.0000 0.0000  plane waves:  145165

 maximum and minimum number of plane-waves per node :     24209    24180

 maximum number of plane-waves:    145165
 maximum index in each direction: 
   IXMAX=   32   IYMAX=   32   IZMAX=   32
   IXMIN=  -32   IYMIN=  -32   IZMIN=  -32


 parallel 3D FFT for wavefunctions:
    minimum data exchange during FFTs selected (reduces bandwidth)
 parallel 3D FFT for charge:
    minimum data exchange during FFTs selected (reduces bandwidth)


 total amount of memory used by VASP MPI-rank0   131440. kBytes
=======================================================================

   base      :      30000. kBytes
   nonl-proj :      17624. kBytes
   fftplans  :      26957. kBytes
   grid      :      48673. kBytes
   one-center:         40. kBytes
   wavefun   :       8146. kBytes
 
     INWAV:  cpu time    0.0000: real time    0.0000
 Broyden mixing: mesh for mixing (old mesh)
   NGX = 65   NGY = 65   NGZ = 65
  (NGX  =196   NGY  =196   NGZ  =196)
  gives a total of 274625 points

 initial charge density was supplied:
 charge density of overlapping atoms calculated
 number of electron      56.0000000 magnetization 
 keeping initial charge density in first step


--------------------------------------------------------------------------------------------------------


 Maximum index for augmentation-charges          565 (set IRDMAX)


--------------------------------------------------------------------------------------------------------


 First call to EWALD:  gamma=   0.089
 Maximum number of real-space cells 3x 3x 3
 Maximum number of reciprocal cells 3x 3x 3

    FEWALD:  cpu time    0.0020: real time    0.0022


--------------------------------------- Iteration      1(   1)  ---------------------------------------


    POTLOK:  cpu time    0.9928: real time    0.9949
    SETDIJ:  cpu time    0.0070: real time    0.0063
     EDDAV:  cpu time    4.4733: real time    4.4717
       DOS:  cpu time    0.0010: real time    0.0003
    --------------------------------------------
      LOOP:  cpu time    5.4742: real time    5.4733

 eigenvalue-minimisations  :   116
 total energy-change (2. order) : 0.2130824E+03  (-0.1045196E+04)
 number of electron      56.0000000 magnetization 
 augmentation part       56.0000000 magnetization 

 Free energy of the ion-electron system (eV)
  ---------------------------------------------------
  alpha Z        PSCENC =         3.06652414
  Ewald energy   TEWEN  =      2629.98113996
  -Hartree energ DENC   =     -3438.23417405
  -exchange      EXHF   =         0.00000000
  -V(xc)+E(xc)   XCENC  =       -45.31624413
  PAW double counting   =       915.55359980     -764.60851948
  entropy T*S    EENTRO =        -0.44455007
  eigenvalues    EBANDS =      -332.67037929
  atomic energy  EATOM  =      1245.75497486
  Solvation  Ediel_sol  =         0.00000000
  ---------------------------------------------------
  free energy    TOTEN  =       213.08237174 eV

  energy without entropy =      213.52692181  energy(sigma->0) =      213.30464678


--------------------------------------------------------------------------------------------------------




--------------------------------------- Iteration      1(   2)  ---------------------------------------


     EDDAV:  cpu time    5.3172: real time    5.3156
       DOS:  cpu time    0.0010: real time    0.0002
    --------------------------------------------
      LOOP:  cpu time    5.3182: real time    5.3158

 eigenvalue-minimisations  :   144
 total energy-change (2. order) :-0.2350095E+03  (-0.2195798E+03)
 number of electron      56.0000000 magnetization 
 augmentation part       56.0000000 magnetization 

 Free energy of the ion-electron system (eV)
  ---------------------------------------------------
  alpha Z        PSCENC =         3.06652414
  Ewald energy   TEWEN  =      2629.98113996
  -Hartree energ DENC   =     -3438.23417405
  -exchange      EXHF   =         0.00000000
  -V(xc)+E(xc)   XCENC  =       -45.31624413
  PAW double counting   =       915.55359980     -764.60851948
  entropy T*S    EENTRO =        -0.00000000
  eigenvalues    EBANDS =      -568.12439888
  atomic energy  EATOM  =      1245.75497486
  Solvation  Ediel_sol  =         0.00000000
  ---------------------------------------------------
  free energy    TOTEN  =       -21.92709777 eV

  energy without entropy =      -21.92709777  energy(sigma->0) =      -21.92709777


--------------------------------------------------------------------------------------------------------




--------------------------------------- Iteration      1(   3)  ---------------------------------------


     EDDAV:  cpu time    4.3433: real time    4.3410
       DOS:  cpu time    0.0000: real time    0.0002
    --------------------------------------------
      LOOP:  cpu time    4.3433: real time    4.3412

 eigenvalue-minimisations  :   112
 total energy-change (2. order) :-0.7598551E+02  (-0.7582796E+02)
 number of electron      56.0000000 magnetization 
 augmentation part       56.0000000 magnetization 

 Free energy of the ion-electron system (eV)
  ---------------------------------------------------
  alpha Z        PSCENC =         3.06652414
  Ewald energy   TEWEN  =      2629.98113996
  -Hartree energ DENC   =     -3438.23417405
  -exchange      EXHF   =         0.00000000
  -V(xc)+E(xc)   XCENC  =       -45.31624413
  PAW double counting   =       915.55359980     -764.60851948
  entropy T*S    EENTRO =        -0.00000000
  eigenvalues    EBANDS =      -644.10991156
  atomic energy  EATOM  =      1245.75497486
  Solvation  Ediel_sol  =         0.00000000
  ---------------------------------------------------
  free energy    TOTEN  =       -97.91261046 eV

  energy without entropy =      -97.91261046  energy(sigma->0) =      -97.91261046


--------------------------------------------------------------------------------------------------------




--------------------------------------- Iteration      1(   4)  ---------------------------------------


     EDDAV:  cpu time    4.1024: real time    4.1006
       DOS:  cpu time    0.0010: real time    0.0002
    --------------------------------------------
      LOOP:  cpu time    4.1034: real time    4.1008

 eigenvalue-minimisations  :   104
 total energy-change (2. order) :-0.4343824E+01  (-0.4326773E+01)
 number of electron      56.0000000 magnetization 
 augmentation part       56.0000000 magnetization 

 Free energy of the ion-electron system (eV)
  ---------------------------------------------------
  alpha Z        PSCENC =         3.06652414
  Ewald energy   TEWEN  =      2629.98113996
  -Hartree energ DENC   =     -3438.23417405
  -exchange      EXHF   =         0.00000000
  -V(xc)+E(xc)   XCENC  =       -45.31624413
  PAW double counting   =       915.55359980     -764.60851948
  entropy T*S    EENTRO =        -0.00000000
  eigenvalues    EBANDS =      -648.45373605
  atomic energy  EATOM  =      1245.75497486
  Solvation  Ediel_sol  =         0.00000000
  ---------------------------------------------------
  free energy    TOTEN  =      -102.25643494 eV

  energy without entropy =     -102.25643494  energy(sigma->0) =     -102.25643494


--------------------------------------------------------------------------------------------------------




--------------------------------------- Iteration      1(   5)  ---------------------------------------


     EDDAV:  cpu time    4.8373: real time    4.8358
       DOS:  cpu time    0.0010: real time    0.0002
    CHARGE:  cpu time    0.2290: real time    0.2295
    MIXING:  cpu time    0.0240: real time    0.0234
    --------------------------------------------
      LOOP:  cpu time    5.0912: real time    5.0891

 eigenvalue-minimisations  :   128
 total energy-change (2. order) :-0.6184304E-01  (-0.6178438E-01)
 number of electron      56.0000024 magnetization 
 augmentation part       -5.1684496 magnetization 

 Broyden mixing:
  rms(total) = 0.14065E+01    rms(broyden)= 0.14064E+01
  rms(prec ) = 0.15028E+01
  weight for this iteration     100.00

 Free energy of the ion-electron system (eV)
  ---------------------------------------------------
  alpha Z        PSCENC =         3.06652414
  Ewald energy   TEWEN  =      2629.98113996
  -Hartree energ DENC   =     -3438.23417405
  -exchange      EXHF   =         0.00000000
  -V(xc)+E(xc)   XCENC  =       -45.31624413
  PAW double counting   =       915.55359980     -764.60851948
  entropy T*S    EENTRO =        -0.00000000
  eigenvalues    EBANDS =      -648.51557909
  atomic energy  EATOM  =      1245.75497486
  Solvation  Ediel_sol  =         0.00000000
  ---------------------------------------------------
  free energy    TOTEN  =      -102.31827799 eV

  energy without entropy =     -102.31827799  energy(sigma->0) =     -102.31827799


--------------------------------------------------------------------------------------------------------




--------------------------------------- Iteration      1(   6)  ---------------------------------------


    POTLOK:  cpu time    0.9409: real time    0.9405
    SETDIJ:  cpu time    0.0060: real time    0.0063
     EDDAV:  cpu time    4.3533: real time    4.3502
       DOS:  cpu time    0.0000: real time    0.0002
    CHARGE:  cpu time    0.2290: real time    0.2287
    MIXING:  cpu time    0.0240: real time    0.0243
    --------------------------------------------
      LOOP:  cpu time    5.5532: real time    5.5503

 eigenvalue-minimisations  :   112
 total energy-change (2. order) : 0.3117943E+01  (-0.1593045E+00)
 number of electron      56.0000022 magnetization 
 augmentation part       -5.1663606 magnetization 

 Broyden mixing:
  rms(total) = 0.80821E+00    rms(broyden)= 0.80821E+00
  rms(prec ) = 0.86747E+00
  weight for this iteration     100.00

 eigenvalues of (default mixing * dielectric matrix)
  average eigenvalue GAMMA=   2.2825
  2.2825

 Free energy of the ion-electron system (eV)
  ---------------------------------------------------
  alpha Z        PSCENC =         3.06652414
  Ewald energy   TEWEN  =      2629.98113996
  -Hartree energ DENC   =     -3468.65944861
  -exchange      EXHF   =         0.00000000
  -V(xc)+E(xc)   XCENC  =       -41.69891846
  PAW double counting   =      1670.71034473    -1520.73352278
  entropy T*S    EENTRO =        -0.00000000
  eigenvalues    EBANDS =      -617.62142923
  atomic energy  EATOM  =      1245.75497486
  Solvation  Ediel_sol  =         0.00000000
  ---------------------------------------------------
  free energy    TOTEN  =       -99.20033539 eV

  energy without entropy =      -99.20033539  energy(sigma->0) =      -99.20033539


--------------------------------------------------------------------------------------------------------




--------------------------------------- Iteration      1(   7)  ---------------------------------------


    POTLOK:  cpu time    1.0748: real time    1.1853
    SETDIJ:  cpu time    0.0060: real time    0.0063
     EDDAV:  cpu time    4.2074: real time    4.2109
       DOS:  cpu time    0.0010: real time    0.0002
    CHARGE:  cpu time    0.2380: real time    0.2396
    MIXING:  cpu time    0.0270: real time    0.0264
    --------------------------------------------
      LOOP:  cpu time    5.5542: real time    5.6687

 eigenvalue-minimisations  :   104
 total energy-change (2. order) : 0.1618537E+01  (-0.3894424E+00)
 number of electron      56.0000021 magnetization 
 augmentation part       -5.1617674 magnetization 

 Broyden mixing:
  rms(total) = 0.11986E+00    rms(broyden)= 0.11971E+00
  rms(prec ) = 0.15146E+00
  weight for this iteration     100.00

 eigenvalues of (default mixing * dielectric matrix)
  average eigenvalue GAMMA=   1.8746
  1.8746  1.8746

 Free energy of the ion-electron system (eV)
  ---------------------------------------------------
  alpha Z        PSCENC =         3.06652414
  Ewald energy   TEWEN  =      2629.98113996
  -Hartree energ DENC   =     -3522.36641555
  -exchange      EXHF   =         0.00000000
  -V(xc)+E(xc)   XCENC  =       -36.02802934
  PAW double counting   =      3226.65576409    -3077.96079200
  entropy T*S    EENTRO =        -0.00000000
  eigenvalues    EBANDS =      -566.68496440
  atomic energy  EATOM  =      1245.75497486
  Solvation  Ediel_sol  =         0.00000000
  ---------------------------------------------------
  free energy    TOTEN  =       -97.58179825 eV

  energy without entropy =      -97.58179825  energy(sigma->0) =      -97.58179825


--------------------------------------------------------------------------------------------------------




--------------------------------------- Iteration      1(   8)  ---------------------------------------


    POTLOK:  cpu time    0.9659: real time    0.9683
    SETDIJ:  cpu time    0.0060: real time    0.0062
     EDDAV:  cpu time    4.3503: real time    4.3565
       DOS:  cpu time    0.0000: real time    0.0002
    CHARGE:  cpu time    0.2300: real time    0.2294
    MIXING:  cpu time    0.0260: real time    0.0260
    --------------------------------------------
      LOOP:  cpu time    5.5782: real time    5.5867

 eigenvalue-minimisations  :   112
 total energy-change (2. order) : 0.5796761E-01  (-0.2776688E-01)
 number of electron      56.0000021 magnetization 
 augmentation part       -5.1518900 magnetization 

 Broyden mixing:
  rms(total) = 0.58180E-01    rms(broyden)= 0.58166E-01
  rms(prec ) = 0.77266E-01
  weight for this iteration     100.00

 eigenvalues of (default mixing * dielectric matrix)
  average eigenvalue GAMMA=   1.9552
  2.6364  1.6145  1.6145

 Free energy of the ion-electron system (eV)
  ---------------------------------------------------
  alpha Z        PSCENC =         3.06652414
  Ewald energy   TEWEN  =      2629.98113996
  -Hartree energ DENC   =     -3531.32036343
  -exchange      EXHF   =         0.00000000
  -V(xc)+E(xc)   XCENC  =       -35.97781617
  PAW double counting   =      3265.63047506    -3116.86997398
  entropy T*S    EENTRO =        -0.00000000
  eigenvalues    EBANDS =      -557.78879109
  atomic energy  EATOM  =      1245.75497486
  Solvation  Ediel_sol  =         0.00000000
  ---------------------------------------------------
  free energy    TOTEN  =       -97.52383064 eV

  energy without entropy =      -97.52383064  energy(sigma->0) =      -97.52383064


--------------------------------------------------------------------------------------------------------




--------------------------------------- Iteration      1(   9)  ---------------------------------------


    POTLOK:  cpu time    0.9529: real time    0.9537
    SETDIJ:  cpu time    0.0060: real time    0.0062
     EDDAV:  cpu time    4.3513: real time    4.3574
       DOS:  cpu time    0.0000: real time    0.0002
    CHARGE:  cpu time    0.2200: real time    0.2219
    MIXING:  cpu time    0.0270: real time    0.0272
    --------------------------------------------
      LOOP:  cpu time    5.5572: real time    5.5666

 eigenvalue-minimisations  :   112
 total energy-change (2. order) : 0.3453505E-01  (-0.6570556E-02)
 number of electron      56.0000021 magnetization 
 augmentation part       -5.1349340 magnetization 

 Broyden mixing:
  rms(total) = 0.30342E-01    rms(broyden)= 0.30341E-01
  rms(prec ) = 0.42654E-01
  weight for this iteration     100.00

 eigenvalues of (default mixing * dielectric matrix)
  average eigenvalue GAMMA=   1.7641
  2.5150  1.8363  1.8363  0.8690

 Free energy of the ion-electron system (eV)
  ---------------------------------------------------
  alpha Z        PSCENC =         3.06652414
  Ewald energy   TEWEN  =      2629.98113996
  -Hartree energ DENC   =     -3542.55599622
  -exchange      EXHF   =         0.00000000
  -V(xc)+E(xc)   XCENC  =       -35.27919475
  PAW double counting   =      3394.08154008    -3245.38271425
  entropy T*S    EENTRO =        -0.00000000
  eigenvalues    EBANDS =      -547.15556943
  atomic energy  EATOM  =      1245.75497486
  Solvation  Ediel_sol  =         0.00000000
  ---------------------------------------------------
  free energy    TOTEN  =       -97.48929559 eV

  energy without entropy =      -97.48929559  energy(sigma->0) =      -97.48929559


--------------------------------------------------------------------------------------------------------




--------------------------------------- Iteration      1(  10)  ---------------------------------------


    POTLOK:  cpu time    0.9569: real time    0.9581
    SETDIJ:  cpu time    0.0060: real time    0.0063
     EDDAV:  cpu time    4.3483: real time    4.3546
       DOS:  cpu time    0.0000: real time    0.0002
    CHARGE:  cpu time    0.2300: real time    0.2302
    MIXING:  cpu time    0.0300: real time    0.0294
    --------------------------------------------
      LOOP:  cpu time    5.5712: real time    5.5788

 eigenvalue-minimisations  :   112
 total energy-change (2. order) : 0.3435038E-03  (-0.2229016E-03)
 number of electron      56.0000021 magnetization 
 augmentation part       -5.1345401 magnetization 

 Broyden mixing:
  rms(total) = 0.13645E-01    rms(broyden)= 0.13645E-01
  rms(prec ) = 0.27136E-01
  weight for this iteration     100.00

 eigenvalues of (default mixing * dielectric matrix)
  average eigenvalue GAMMA=   1.9142
  2.9232  2.4704  1.0251  1.5761  1.5761

 Free energy of the ion-electron system (eV)
  ---------------------------------------------------
  alpha Z        PSCENC =         3.06652414
  Ewald energy   TEWEN  =      2629.98113996
  -Hartree energ DENC   =     -3545.07259057
  -exchange      EXHF   =         0.00000000
  -V(xc)+E(xc)   XCENC  =       -35.25029558
  PAW double counting   =      3338.78490315    -3190.03603846
  entropy T*S    EENTRO =        -0.00000000
  eigenvalues    EBANDS =      -544.71756959
  atomic energy  EATOM  =      1245.75497486
  Solvation  Ediel_sol  =         0.00000000
  ---------------------------------------------------
  free energy    TOTEN  =       -97.48895209 eV

  energy without entropy =      -97.48895209  energy(sigma->0) =      -97.48895209


--------------------------------------------------------------------------------------------------------




--------------------------------------- Iteration      1(  11)  ---------------------------------------


    POTLOK:  cpu time    0.9629: real time    0.9642
    SETDIJ:  cpu time    0.0060: real time    0.0062
     EDDAV:  cpu time    4.1084: real time    4.1133
       DOS:  cpu time    0.0000: real time    0.0002
    CHARGE:  cpu time    0.2280: real time    0.2296
    MIXING:  cpu time    0.0300: real time    0.0299
    --------------------------------------------
      LOOP:  cpu time    5.3352: real time    5.3434

 eigenvalue-minimisations  :   104
 total energy-change (2. order) : 0.2508740E-04  (-0.6364518E-03)
 number of electron      56.0000021 magnetization 
 augmentation part       -5.1327775 magnetization 

 Broyden mixing:
  rms(total) = 0.85938E-02    rms(broyden)= 0.85935E-02
  rms(prec ) = 0.14597E-01
  weight for this iteration     100.00

 eigenvalues of (default mixing * dielectric matrix)
  average eigenvalue GAMMA=   1.9002
  3.2992  2.6242  1.7376  1.7376  0.9270  1.0753

 Free energy of the ion-electron system (eV)
  ---------------------------------------------------
  alpha Z        PSCENC =         3.06652414
  Ewald energy   TEWEN  =      2629.98113996
  -Hartree energ DENC   =     -3551.72756637
  -exchange      EXHF   =         0.00000000
  -V(xc)+E(xc)   XCENC  =       -35.06219491
  PAW double counting   =      3309.70017139    -3160.91275251
  entropy T*S    EENTRO =        -0.00000000
  eigenvalues    EBANDS =      -538.28922357
  atomic energy  EATOM  =      1245.75497486
  Solvation  Ediel_sol  =         0.00000000
  ---------------------------------------------------
  free energy    TOTEN  =       -97.48892700 eV

  energy without entropy =      -97.48892700  energy(sigma->0) =      -97.48892700


--------------------------------------------------------------------------------------------------------




--------------------------------------- Iteration      1(  12)  ---------------------------------------


    POTLOK:  cpu time    0.9709: real time    0.9713
    SETDIJ:  cpu time    0.0060: real time    0.0063
     EDDAV:  cpu time    4.1044: real time    4.1110
       DOS:  cpu time    0.0000: real time    0.0002
    CHARGE:  cpu time    0.2300: real time    0.2304
    MIXING:  cpu time    0.0310: real time    0.0308
    --------------------------------------------
      LOOP:  cpu time    5.3422: real time    5.3500

 eigenvalue-minimisations  :   104
 total energy-change (2. order) :-0.5339011E-02  (-0.1557548E-03)
 number of electron      56.0000021 magnetization 
 augmentation part       -5.1317155 magnetization 

 Broyden mixing:
  rms(total) = 0.48375E-02    rms(broyden)= 0.48374E-02
  rms(prec ) = 0.86141E-02
  weight for this iteration     100.00

 eigenvalues of (default mixing * dielectric matrix)
  average eigenvalue GAMMA=   2.1407
  4.8855  2.6021  2.4693  1.5390  1.5390  0.9751  0.9751

 Free energy of the ion-electron system (eV)
  ---------------------------------------------------
  alpha Z        PSCENC =         3.06652414
  Ewald energy   TEWEN  =      2629.98113996
  -Hartree energ DENC   =     -3554.45580775
  -exchange      EXHF   =         0.00000000
  -V(xc)+E(xc)   XCENC  =       -35.01467412
  PAW double counting   =      3304.83296741    -3156.04653959
  entropy T*S    EENTRO =        -0.00000000
  eigenvalues    EBANDS =      -535.61285093
  atomic energy  EATOM  =      1245.75497486
  Solvation  Ediel_sol  =         0.00000000
  ---------------------------------------------------
  free energy    TOTEN  =       -97.49426601 eV

  energy without entropy =      -97.49426601  energy(sigma->0) =      -97.49426601


--------------------------------------------------------------------------------------------------------




--------------------------------------- Iteration      1(  13)  ---------------------------------------


    POTLOK:  cpu time    1.3858: real time    1.3864
    SETDIJ:  cpu time    0.0060: real time    0.0062
     EDDAV:  cpu time    4.3483: real time    4.3540
       DOS:  cpu time    0.0000: real time    0.0003
    CHARGE:  cpu time    0.2300: real time    0.2302
    MIXING:  cpu time    0.0330: real time    0.0323
    --------------------------------------------
      LOOP:  cpu time    6.0031: real time    6.0094

 eigenvalue-minimisations  :   112
 total energy-change (2. order) :-0.3928862E-02  (-0.1383183E-03)
 number of electron      56.0000021 magnetization 
 augmentation part       -5.1314751 magnetization 

 Broyden mixing:
  rms(total) = 0.34985E-02    rms(broyden)= 0.34984E-02
  rms(prec ) = 0.51046E-02
  weight for this iteration     100.00

 eigenvalues of (default mixing * dielectric matrix)
  average eigenvalue GAMMA=   2.2285
  5.7057  2.9556  2.0927  2.0927  1.7631  1.2633  0.9776  0.9776

 Free energy of the ion-electron system (eV)
  ---------------------------------------------------
  alpha Z        PSCENC =         3.06652414
  Ewald energy   TEWEN  =      2629.98113996
  -Hartree energ DENC   =     -3556.81928983
  -exchange      EXHF   =         0.00000000
  -V(xc)+E(xc)   XCENC  =       -34.96875297
  PAW double counting   =      3309.17034030    -3160.39211746
  entropy T*S    EENTRO =        -0.00000000
  eigenvalues    EBANDS =      -533.29101389
  atomic energy  EATOM  =      1245.75497486
  Solvation  Ediel_sol  =         0.00000000
  ---------------------------------------------------
  free energy    TOTEN  =       -97.49819487 eV

  energy without entropy =      -97.49819487  energy(sigma->0) =      -97.49819487


--------------------------------------------------------------------------------------------------------




--------------------------------------- Iteration      1(  14)  ---------------------------------------


    POTLOK:  cpu time    0.9599: real time    0.9646
    SETDIJ:  cpu time    0.0060: real time    0.0062
     EDDAV:  cpu time    4.3413: real time    4.3491
       DOS:  cpu time    0.0000: real time    0.0002
    CHARGE:  cpu time    0.2300: real time    0.2302
    MIXING:  cpu time    0.0330: real time    0.0351
    --------------------------------------------
      LOOP:  cpu time    5.5702: real time    5.5855

 eigenvalue-minimisations  :   112
 total energy-change (2. order) :-0.5008577E-02  (-0.4505402E-04)
 number of electron      56.0000021 magnetization 
 augmentation part       -5.1309185 magnetization 

 Broyden mixing:
  rms(total) = 0.14908E-02    rms(broyden)= 0.14908E-02
  rms(prec ) = 0.25063E-02
  weight for this iteration     100.00

 eigenvalues of (default mixing * dielectric matrix)
  average eigenvalue GAMMA=   2.3057
  6.6330  3.1283  2.6078  2.1550  1.5914  1.5914  1.1126  0.9660  0.9660

 Free energy of the ion-electron system (eV)
  ---------------------------------------------------
  alpha Z        PSCENC =         3.06652414
  Ewald energy   TEWEN  =      2629.98113996
  -Hartree energ DENC   =     -3557.42010316
  -exchange      EXHF   =         0.00000000
  -V(xc)+E(xc)   XCENC  =       -34.99137741
  PAW double counting   =      3308.04650580    -3159.26660735
  entropy T*S    EENTRO =        -0.00000000
  eigenvalues    EBANDS =      -532.67426029
  atomic energy  EATOM  =      1245.75497486
  Solvation  Ediel_sol  =         0.00000000
  ---------------------------------------------------
  free energy    TOTEN  =       -97.50320345 eV

  energy without entropy =      -97.50320345  energy(sigma->0) =      -97.50320345


--------------------------------------------------------------------------------------------------------




--------------------------------------- Iteration      1(  15)  ---------------------------------------


    POTLOK:  cpu time    0.9629: real time    0.9620
    SETDIJ:  cpu time    0.0070: real time    0.0063
     EDDAV:  cpu time    4.3413: real time    4.3506
       DOS:  cpu time    0.0010: real time    0.0004
    CHARGE:  cpu time    0.2300: real time    0.2301
    MIXING:  cpu time    0.0360: real time    0.0366
    --------------------------------------------
      LOOP:  cpu time    5.5782: real time    5.5860

 eigenvalue-minimisations  :   112
 total energy-change (2. order) :-0.3180977E-02  (-0.3074878E-04)
 number of electron      56.0000021 magnetization 
 augmentation part       -5.1307324 magnetization 

 Broyden mixing:
  rms(total) = 0.11372E-02    rms(broyden)= 0.11371E-02
  rms(prec ) = 0.16490E-02
  weight for this iteration     100.00

 eigenvalues of (default mixing * dielectric matrix)
  average eigenvalue GAMMA=   2.3395
  6.7380  3.9862  2.6072  2.0304  2.0304  1.7626  1.2547  0.9545  1.0155  1.0155

 Free energy of the ion-electron system (eV)
  ---------------------------------------------------
  alpha Z        PSCENC =         3.06652414
  Ewald energy   TEWEN  =      2629.98113996
  -Hartree energ DENC   =     -3557.61238270
  -exchange      EXHF   =         0.00000000
  -V(xc)+E(xc)   XCENC  =       -34.99339093
  PAW double counting   =      3311.04579573    -3162.26665751
  entropy T*S    EENTRO =        -0.00000000
  eigenvalues    EBANDS =      -532.48238798
  atomic energy  EATOM  =      1245.75497486
  Solvation  Ediel_sol  =         0.00000000
  ---------------------------------------------------
  free energy    TOTEN  =       -97.50638443 eV

  energy without entropy =      -97.50638443  energy(sigma->0) =      -97.50638443


--------------------------------------------------------------------------------------------------------




--------------------------------------- Iteration      1(  16)  ---------------------------------------


    POTLOK:  cpu time    0.9569: real time    0.9574
    SETDIJ:  cpu time    0.0060: real time    0.0062
     EDDAV:  cpu time    4.3523: real time    4.3594
       DOS:  cpu time    0.0010: real time    0.0004
    CHARGE:  cpu time    0.2250: real time    0.2262
    MIXING:  cpu time    0.0380: real time    0.0386
    --------------------------------------------
      LOOP:  cpu time    5.5792: real time    5.5882

 eigenvalue-minimisations  :   112
 total energy-change (2. order) :-0.1416455E-02  (-0.1049192E-04)
 number of electron      56.0000021 magnetization 
 augmentation part       -5.1310455 magnetization 

 Broyden mixing:
  rms(total) = 0.56726E-03    rms(broyden)= 0.56723E-03
  rms(prec ) = 0.84846E-03
  weight for this iteration     100.00

 eigenvalues of (default mixing * dielectric matrix)
  average eigenvalue GAMMA=   2.4644
  7.4851  4.9056  2.6850  2.6850  1.8208  1.8208  1.3650  1.3650  0.9956  0.9956
  0.9851

 Free energy of the ion-electron system (eV)
  ---------------------------------------------------
  alpha Z        PSCENC =         3.06652414
  Ewald energy   TEWEN  =      2629.98113996
  -Hartree energ DENC   =     -3557.71654292
  -exchange      EXHF   =         0.00000000
  -V(xc)+E(xc)   XCENC  =       -34.99129601
  PAW double counting   =      3311.00484564    -3162.22503440
  entropy T*S    EENTRO =        -0.00000000
  eigenvalues    EBANDS =      -532.38241216
  atomic energy  EATOM  =      1245.75497486
  Solvation  Ediel_sol  =         0.00000000
  ---------------------------------------------------
  free energy    TOTEN  =       -97.50780088 eV

  energy without entropy =      -97.50780088  energy(sigma->0) =      -97.50780088


--------------------------------------------------------------------------------------------------------




--------------------------------------- Iteration      1(  17)  ---------------------------------------


    POTLOK:  cpu time    0.9559: real time    0.9575
    SETDIJ:  cpu time    0.0060: real time    0.0062
     EDDAV:  cpu time    4.3483: real time    4.3548
       DOS:  cpu time    0.0000: real time    0.0004
    CHARGE:  cpu time    0.2320: real time    0.2304
    MIXING:  cpu time    0.0420: real time    0.0425
    --------------------------------------------
      LOOP:  cpu time    5.5842: real time    5.5916

 eigenvalue-minimisations  :   112
 total energy-change (2. order) :-0.9119294E-03  (-0.7676348E-05)
 number of electron      56.0000021 magnetization 
 augmentation part       -5.1312362 magnetization 

 Broyden mixing:
  rms(total) = 0.29276E-03    rms(broyden)= 0.29272E-03
  rms(prec ) = 0.41890E-03
  weight for this iteration     100.00

 eigenvalues of (default mixing * dielectric matrix)
  average eigenvalue GAMMA=   2.5110
  7.8096  5.4620  2.8286  2.8286  2.1147  1.7901  1.7901  1.2722  1.2722  0.9817
  0.9817  1.0010

 Free energy of the ion-electron system (eV)
  ---------------------------------------------------
  alpha Z        PSCENC =         3.06652414
  Ewald energy   TEWEN  =      2629.98113996
  -Hartree energ DENC   =     -3557.70664000
  -exchange      EXHF   =         0.00000000
  -V(xc)+E(xc)   XCENC  =       -34.99485636
  PAW double counting   =      3309.53852636    -3160.75752502
  entropy T*S    EENTRO =        -0.00000000
  eigenvalues    EBANDS =      -532.39085675
  atomic energy  EATOM  =      1245.75497486
  Solvation  Ediel_sol  =         0.00000000
  ---------------------------------------------------
  free energy    TOTEN  =       -97.50871281 eV

  energy without entropy =      -97.50871281  energy(sigma->0) =      -97.50871281


--------------------------------------------------------------------------------------------------------




--------------------------------------- Iteration      1(  18)  ---------------------------------------


    POTLOK:  cpu time    0.9609: real time    0.9666
    SETDIJ:  cpu time    0.0060: real time    0.0062
     EDDAV:  cpu time    4.1214: real time    4.1281
       DOS:  cpu time    0.0000: real time    0.0004
    CHARGE:  cpu time    0.2280: real time    0.2295
    MIXING:  cpu time    0.0480: real time    0.0479
    --------------------------------------------
      LOOP:  cpu time    5.3642: real time    5.3787

 eigenvalue-minimisations  :   104
 total energy-change (2. order) :-0.2701593E-03  (-0.1000136E-05)
 number of electron      56.0000021 magnetization 
 augmentation part       -5.1311991 magnetization 

 Broyden mixing:
  rms(total) = 0.17436E-03    rms(broyden)= 0.17433E-03
  rms(prec ) = 0.22665E-03
  weight for this iteration     100.00

 eigenvalues of (default mixing * dielectric matrix)
  average eigenvalue GAMMA=   2.5297
  8.2612  5.8985  3.2855  2.5901  2.4307  1.8312  1.8312  1.3719  1.3719  0.9777
  0.9777  1.0292  1.0292

 Free energy of the ion-electron system (eV)
  ---------------------------------------------------
  alpha Z        PSCENC =         3.06652414
  Ewald energy   TEWEN  =      2629.98113996
  -Hartree energ DENC   =     -3557.76274890
  -exchange      EXHF   =         0.00000000
  -V(xc)+E(xc)   XCENC  =       -34.99317905
  PAW double counting   =      3309.61976854    -3160.83946648
  entropy T*S    EENTRO =        -0.00000000
  eigenvalues    EBANDS =      -532.33599604
  atomic energy  EATOM  =      1245.75497486
  Solvation  Ediel_sol  =         0.00000000
  ---------------------------------------------------
  free energy    TOTEN  =       -97.50898297 eV

  energy without entropy =      -97.50898297  energy(sigma->0) =      -97.50898297


--------------------------------------------------------------------------------------------------------




--------------------------------------- Iteration      1(  19)  ---------------------------------------


    POTLOK:  cpu time    0.9669: real time    0.9671
    SETDIJ:  cpu time    0.0060: real time    0.0063
     EDDAV:  cpu time    3.8744: real time    3.8794
       DOS:  cpu time    0.0000: real time    0.0004
    CHARGE:  cpu time    0.2260: real time    0.2279
    MIXING:  cpu time    0.0530: real time    0.0534
    --------------------------------------------
      LOOP:  cpu time    5.1262: real time    5.1345

 eigenvalue-minimisations  :    96
 total energy-change (2. order) :-0.8933290E-04  (-0.2018091E-06)
 number of electron      56.0000021 magnetization 
 augmentation part       -5.1311944 magnetization 

 Broyden mixing:
  rms(total) = 0.96224E-04    rms(broyden)= 0.96222E-04
  rms(prec ) = 0.13219E-03
  weight for this iteration     100.00

 eigenvalues of (default mixing * dielectric matrix)
  average eigenvalue GAMMA=   2.5567
  8.4762  6.2248  3.6598  2.5776  2.3962  2.3962  1.7765  1.7765  1.2641  1.2641
  0.9778  0.9778  1.0129  1.0129

 Free energy of the ion-electron system (eV)
  ---------------------------------------------------
  alpha Z        PSCENC =         3.06652414
  Ewald energy   TEWEN  =      2629.98113996
  -Hartree energ DENC   =     -3557.76473041
  -exchange      EXHF   =         0.00000000
  -V(xc)+E(xc)   XCENC  =       -34.99335386
  PAW double counting   =      3309.63536660    -3160.85518945
  entropy T*S    EENTRO =        -0.00000000
  eigenvalues    EBANDS =      -532.33380415
  atomic energy  EATOM  =      1245.75497486
  Solvation  Ediel_sol  =         0.00000000
  ---------------------------------------------------
  free energy    TOTEN  =       -97.50907231 eV

  energy without entropy =      -97.50907231  energy(sigma->0) =      -97.50907231


--------------------------------------------------------------------------------------------------------




--------------------------------------- Iteration      1(  20)  ---------------------------------------


    POTLOK:  cpu time    0.9619: real time    0.9648
    SETDIJ:  cpu time    0.0060: real time    0.0063
     EDDAV:  cpu time    3.6264: real time    3.6303
       DOS:  cpu time    0.0000: real time    0.0004
    CHARGE:  cpu time    0.2430: real time    0.2439
    MIXING:  cpu time    0.0600: real time    0.0599
    --------------------------------------------
      LOOP:  cpu time    4.8973: real time    4.9055

 eigenvalue-minimisations  :    88
 total energy-change (2. order) :-0.4413113E-04  (-0.9666128E-07)
 number of electron      56.0000021 magnetization 
 augmentation part       -5.1311753 magnetization 

 Broyden mixing:
  rms(total) = 0.59316E-04    rms(broyden)= 0.59314E-04
  rms(prec ) = 0.77002E-04
  weight for this iteration     100.00

 eigenvalues of (default mixing * dielectric matrix)
  average eigenvalue GAMMA=   2.5690
  8.5988  6.5263  4.1783  2.9791  2.5121  2.1257  1.8745  1.8745  1.3925  1.3925
  1.1446  1.0212  1.0003  1.0003  0.9141

 Free energy of the ion-electron system (eV)
  ---------------------------------------------------
  alpha Z        PSCENC =         3.06652414
  Ewald energy   TEWEN  =      2629.98113996
  -Hartree energ DENC   =     -3557.76833406
  -exchange      EXHF   =         0.00000000
  -V(xc)+E(xc)   XCENC  =       -34.99405544
  PAW double counting   =      3309.63036563    -3160.85010504
  entropy T*S    EENTRO =        -0.00000000
  eigenvalues    EBANDS =      -532.32962649
  atomic energy  EATOM  =      1245.75497486
  Solvation  Ediel_sol  =         0.00000000
  ---------------------------------------------------
  free energy    TOTEN  =       -97.50911644 eV

  energy without entropy =      -97.50911644  energy(sigma->0) =      -97.50911644


--------------------------------------------------------------------------------------------------------




--------------------------------------- Iteration      1(  21)  ---------------------------------------


    POTLOK:  cpu time    0.9569: real time    0.9578
    SETDIJ:  cpu time    0.0060: real time    0.0063
     EDDAV:  cpu time    3.6174: real time    3.6220
       DOS:  cpu time    0.0000: real time    0.0004
    CHARGE:  cpu time    0.2290: real time    0.2289
    MIXING:  cpu time    0.0660: real time    0.0675
    --------------------------------------------
      LOOP:  cpu time    4.8753: real time    4.8829

 eigenvalue-minimisations  :    88
 total energy-change (2. order) :-0.1426798E-04  (-0.4154125E-07)
 number of electron      56.0000021 magnetization 
 augmentation part       -5.1311718 magnetization 

 Broyden mixing:
  rms(total) = 0.35941E-04    rms(broyden)= 0.35938E-04
  rms(prec ) = 0.47226E-04
  weight for this iteration     100.00

 eigenvalues of (default mixing * dielectric matrix)
  average eigenvalue GAMMA=   2.5736
  8.6119  6.7741  4.3412  3.1681  2.5263  2.5263  1.8838  1.8838  1.7013  1.4405
  1.2020  1.2020  0.9922  0.9922  0.9658  0.9658

 Free energy of the ion-electron system (eV)
  ---------------------------------------------------
  alpha Z        PSCENC =         3.06652414
  Ewald energy   TEWEN  =      2629.98113996
  -Hartree energ DENC   =     -3557.77068597
  -exchange      EXHF   =         0.00000000
  -V(xc)+E(xc)   XCENC  =       -34.99402803
  PAW double counting   =      3309.67016714    -3160.88990087
  entropy T*S    EENTRO =        -0.00000000
  eigenvalues    EBANDS =      -532.32732194
  atomic energy  EATOM  =      1245.75497486
  Solvation  Ediel_sol  =         0.00000000
  ---------------------------------------------------
  free energy    TOTEN  =       -97.50913071 eV

  energy without entropy =      -97.50913071  energy(sigma->0) =      -97.50913071


--------------------------------------------------------------------------------------------------------




--------------------------------------- Iteration      1(  22)  ---------------------------------------


    POTLOK:  cpu time    0.9559: real time    0.9560
    SETDIJ:  cpu time    0.0060: real time    0.0062
     EDDAV:  cpu time    3.6144: real time    3.6194
       DOS:  cpu time    0.0010: real time    0.0004
    CHARGE:  cpu time    0.2260: real time    0.2277
    MIXING:  cpu time    0.0750: real time    0.0735
    --------------------------------------------
      LOOP:  cpu time    4.8783: real time    4.8833

 eigenvalue-minimisations  :    88
 total energy-change (2. order) :-0.6627772E-05  (-0.1637595E-07)
 number of electron      56.0000021 magnetization 
 augmentation part       -5.1311871 magnetization 

 Broyden mixing:
  rms(total) = 0.18457E-04    rms(broyden)= 0.18457E-04
  rms(prec ) = 0.25368E-04
  weight for this iteration     100.00

 eigenvalues of (default mixing * dielectric matrix)
  average eigenvalue GAMMA=   2.5694
  8.8250  6.7887  4.7995  3.2829  2.5621  2.5621  1.9473  1.9473  1.7609  1.7609
  1.2823  1.1283  1.1283  0.9630  0.9630  0.9892  0.9892

 Free energy of the ion-electron system (eV)
  ---------------------------------------------------
  alpha Z        PSCENC =         3.06652414
  Ewald energy   TEWEN  =      2629.98113996
  -Hartree energ DENC   =     -3557.76868594
  -exchange      EXHF   =         0.00000000
  -V(xc)+E(xc)   XCENC  =       -34.99389985
  PAW double counting   =      3309.67163477    -3160.89131737
  entropy T*S    EENTRO =        -0.00000000
  eigenvalues    EBANDS =      -532.32950791
  atomic energy  EATOM  =      1245.75497486
  Solvation  Ediel_sol  =         0.00000000
  ---------------------------------------------------
  free energy    TOTEN  =       -97.50913733 eV

  energy without entropy =      -97.50913733  energy(sigma->0) =      -97.50913733


--------------------------------------------------------------------------------------------------------




--------------------------------------- Iteration      1(  23)  ---------------------------------------


    POTLOK:  cpu time    0.9599: real time    0.9607
    SETDIJ:  cpu time    0.0060: real time    0.0068
     EDDAV:  cpu time    3.9594: real time    3.9654
       DOS:  cpu time    0.0000: real time    0.0004
    CHARGE:  cpu time    0.2350: real time    0.2360
    MIXING:  cpu time    0.0820: real time    0.0821
    --------------------------------------------
      LOOP:  cpu time    5.2422: real time    5.2514

 eigenvalue-minimisations  :    88
 total energy-change (2. order) :-0.2294091E-05  (-0.4349062E-08)
 number of electron      56.0000021 magnetization 
 augmentation part       -5.1311910 magnetization 

 Broyden mixing:
  rms(total) = 0.14442E-04    rms(broyden)= 0.14440E-04
  rms(prec ) = 0.18098E-04
  weight for this iteration     100.00

 eigenvalues of (default mixing * dielectric matrix)
  average eigenvalue GAMMA=   2.6134
  8.9598  6.8622  5.3193  3.5126  2.8724  2.8724  2.2218  1.9253  1.9253  1.6018
  1.6018  1.2058  1.2058  1.0284  1.0284  0.9835  0.9835  0.9310

 Free energy of the ion-electron system (eV)
  ---------------------------------------------------
  alpha Z        PSCENC =         3.06652414
  Ewald energy   TEWEN  =      2629.98113996
  -Hartree energ DENC   =     -3557.77022574
  -exchange      EXHF   =         0.00000000
  -V(xc)+E(xc)   XCENC  =       -34.99390135
  PAW double counting   =      3309.66659877    -3160.88630118
  entropy T*S    EENTRO =        -0.00000000
  eigenvalues    EBANDS =      -532.32794908
  atomic energy  EATOM  =      1245.75497486
  Solvation  Ediel_sol  =         0.00000000
  ---------------------------------------------------
  free energy    TOTEN  =       -97.50913963 eV

  energy without entropy =      -97.50913963  energy(sigma->0) =      -97.50913963


--------------------------------------------------------------------------------------------------------




--------------------------------------- Iteration      1(  24)  ---------------------------------------


    POTLOK:  cpu time    0.9699: real time    0.9710
    SETDIJ:  cpu time    0.0070: real time    0.0062
     EDDAV:  cpu time    3.6284: real time    3.6327
       DOS:  cpu time    0.0010: real time    0.0004
    CHARGE:  cpu time    0.2270: real time    0.2277
    MIXING:  cpu time    0.0840: real time    0.0863
    --------------------------------------------
      LOOP:  cpu time    4.9173: real time    4.9244

 eigenvalue-minimisations  :    88
 total energy-change (2. order) :-0.1692286E-05  (-0.2643430E-08)
 number of electron      56.0000021 magnetization 
 augmentation part       -5.1311871 magnetization 

 Broyden mixing:
  rms(total) = 0.47027E-05    rms(broyden)= 0.47025E-05
  rms(prec ) = 0.60854E-05
  weight for this iteration     100.00

 eigenvalues of (default mixing * dielectric matrix)
  average eigenvalue GAMMA=   2.5982
  8.8840  7.1687  5.6338  3.9662  2.9682  2.5162  2.1318  2.1318  1.8608  1.8608
  1.6494  1.3750  1.1599  1.1599  0.9999  0.9999  0.9704  0.9704  0.9588

 Free energy of the ion-electron system (eV)
  ---------------------------------------------------
  alpha Z        PSCENC =         3.06652414
  Ewald energy   TEWEN  =      2629.98113996
  -Hartree energ DENC   =     -3557.77109153
  -exchange      EXHF   =         0.00000000
  -V(xc)+E(xc)   XCENC  =       -34.99395192
  PAW double counting   =      3309.63956119    -3160.85927816
  entropy T*S    EENTRO =        -0.00000000
  eigenvalues    EBANDS =      -532.32701986
  atomic energy  EATOM  =      1245.75497486
  Solvation  Ediel_sol  =         0.00000000
  ---------------------------------------------------
  free energy    TOTEN  =       -97.50914132 eV

  energy without entropy =      -97.50914132  energy(sigma->0) =      -97.50914132


--------------------------------------------------------------------------------------------------------




--------------------------------------- Iteration      1(  25)  ---------------------------------------


    POTLOK:  cpu time    0.9699: real time    0.9721
    SETDIJ:  cpu time    0.0150: real time    0.0156
     EDDAV:  cpu time    3.5995: real time    3.6029
       DOS:  cpu time    0.0000: real time    0.0002
    --------------------------------------------
      LOOP:  cpu time    4.5843: real time    4.5907

 eigenvalue-minimisations  :    88
 total energy-change (2. order) :-0.3066680E-06  (-0.4780532E-09)
 number of electron      56.0000021 magnetization 
 augmentation part       -5.1311871 magnetization 

 Free energy of the ion-electron system (eV)
  ---------------------------------------------------
  alpha Z        PSCENC =         3.06652414
  Ewald energy   TEWEN  =      2629.98113996
  -Hartree energ DENC   =     -3557.77138195
  -exchange      EXHF   =         0.00000000
  -V(xc)+E(xc)   XCENC  =       -34.99394669
  PAW double counting   =      3309.64831760    -3160.86803138
  entropy T*S    EENTRO =        -0.00000000
  eigenvalues    EBANDS =      -532.32673816
  atomic energy  EATOM  =      1245.75497486
  Solvation  Ediel_sol  =         0.00000000
  ---------------------------------------------------
  free energy    TOTEN  =       -97.50914163 eV

  energy without entropy =      -97.50914163  energy(sigma->0) =      -97.50914163


--------------------------------------------------------------------------------------------------------




 average (electrostatic) potential at core
  the test charge radii are     0.9892  1.1631  0.5201
  (the norm of the test charge is              1.0000)
       1 -93.4908       2 -93.4908       3 -40.4154       4 -40.4778       5 -40.4778
       6 -40.4153       7 -40.4154       8 -40.4154       9 -40.4778      10 -40.4778
      11 -41.0544      12 -41.0542      13 -41.0473      14 -40.6877      15 -40.6873
      16 -41.0546      17 -41.0554      18 -41.0474      19 -41.0477      20 -41.0542
      21 -41.0544      22 -41.0474      23 -40.6876      24 -40.6877      25 -41.0542
      26 -41.0543
 
 
 
 E-fermi :  -5.3530     XC(G=0):  -0.6118     alpha+bet : -0.3225


 k-point     1 :       0.0000    0.0000    0.0000
  band No.  band energies     occupation 
      1     -15.5740      2.00000
      2     -14.6361      2.00000
      3     -14.6360      2.00000
      4     -14.1626      2.00000
      5     -13.4320      2.00000
      6     -12.8406      2.00000
      7     -11.9523      2.00000
      8     -11.9523      2.00000
      9     -11.5896      2.00000
     10     -10.6824      2.00000
     11      -9.0043      2.00000
     12      -8.6414      2.00000
     13      -8.6343      2.00000
     14      -8.6343      2.00000
     15      -8.1939      2.00000
     16      -8.1939      2.00000
     17      -8.1805      2.00000
     18      -7.8579      2.00000
     19      -7.8579      2.00000
     20      -7.8444      2.00000
     21      -6.7490      2.00000
     22      -6.7220      2.00000
     23      -6.4332      2.00000
     24      -6.4332      2.00000
     25      -6.4083      2.00000
     26      -6.3096      2.00000
     27      -6.3096      2.00000
     28      -6.2976      2.00000
     29      -1.5305      0.00000
     30      -1.1845      0.00000
     31      -1.1843      0.00000
     32      -1.1643      0.00000
     33      -1.1642      0.00000
     34      -1.1065      0.00000
     35      -0.9893      0.00000
     36      -0.9262      0.00000
     37      -0.8046      0.00000
     38      -0.7478      0.00000
     39      -0.2378      0.00000
     40      -0.1880      0.00000
     41      -0.0738      0.00000
     42      -0.0725      0.00000


--------------------------------------------------------------------------------------------------------


 soft charge-density along one line, spin component           1
         0         1         2         3         4         5         6         7         8         9
 total charge-density along one line
 
 pseudopotential strength for first ion, spin component:           1
 19.624  27.385  -0.000   0.002   0.004  -0.000   0.004   0.007
 27.385  38.222  -0.000   0.003   0.005  -0.001   0.005   0.010
 -0.000  -0.000   4.359  -0.000   0.000   8.132  -0.000   0.000
  0.002   0.003  -0.000   4.360  -0.000  -0.000   8.134  -0.000
  0.004   0.005   0.000  -0.000   4.360   0.000  -0.000   8.133
 -0.000  -0.001   8.132  -0.000   0.000  15.180  -0.001   0.000
  0.004   0.005  -0.000   8.134  -0.000  -0.001  15.183  -0.001
  0.007   0.010   0.000  -0.000   8.133   0.000  -0.001  15.182
 total augmentation occupancy for first ion, spin component:           1
  5.699  -2.109   0.022  -0.197  -0.374  -0.006   0.057   0.108
 -2.109   0.835  -0.013   0.118   0.225   0.003  -0.024  -0.046
  0.022  -0.013   3.394   0.146  -0.056  -0.810  -0.050   0.019
 -0.197   0.118   0.146   2.793   0.136  -0.050  -0.603  -0.047
 -0.374   0.225  -0.056   0.136   2.959   0.019  -0.047  -0.661
 -0.006   0.003  -0.810  -0.050   0.019   0.194   0.014  -0.005
  0.057  -0.024  -0.050  -0.603  -0.047   0.014   0.137   0.013
  0.108  -0.046   0.019  -0.047  -0.661  -0.005   0.013   0.153


------------------------ aborting loop because EDIFF is reached ----------------------------------------


    CHARGE:  cpu time    0.2300: real time    0.2292
    FORLOC:  cpu time    0.1270: real time    0.1273
    FORNL :  cpu time    0.8689: real time    0.8714
    STRESS:  cpu time    2.8516: real time    2.8541
    FORCOR:  cpu time    0.9978: real time    1.0002
    FORHAR:  cpu time    0.3499: real time    0.3516
    MIXING:  cpu time    0.0930: real time    0.0927
    OFIELD:  cpu time    0.0000: real time    0.0000

  FORCE on cell =-STRESS in cart. coord.  units (eV):
  Direction    XX          YY          ZZ          XY          YZ          ZX
  --------------------------------------------------------------------------------------
  Alpha Z     3.06652     3.06652     3.06652
  Ewald     876.64706   876.62235   876.71007    -0.21850     0.02563    -0.50464
  Hartree  1186.72283  1185.28095  1185.76712    -0.28608    -0.01229     0.14709
  E(xc)    -183.35788  -183.34979  -183.35218     0.00047     0.00025    -0.00439
  Local   -2525.83235 -2524.38531 -2524.95357     0.50335    -0.01399     0.36984
  n-local   204.21932   204.28723   204.26944     0.00419     0.00207    -0.03512
  augment    -0.01161    -0.01152    -0.00925     0.00006    -0.00007    -0.00084
  Kinetic   441.24482   441.13382   441.16366    -0.00654    -0.00321     0.05706
  Fock        0.00000     0.00000     0.00000     0.00000     0.00000     0.00000
  -------------------------------------------------------------------------------------
  Total       2.69871     2.64425     2.66181    -0.00307    -0.00161     0.02899
  in kB       0.54048     0.52957     0.53309    -0.00061    -0.00032     0.00581
  external pressure =        0.53 kB  Pullay stress =        0.00 kB


 VOLUME and BASIS-vectors are now :
 -----------------------------------------------------------------------------
  energy-cutoff  :      400.00
[...]
     EDDAV:  cpu time    3.6145: real time    3.6188
       DOS:  cpu time    0.0000: real time    0.0004
    CHARGE:  cpu time    0.2250: real time    0.2273
    MIXING:  cpu time    0.0310: real time    0.0313
    --------------------------------------------
      LOOP:  cpu time    4.8363: real time    4.8460

 eigenvalue-minimisations  :    88
 total energy-change (2. order) :-0.2263420E-05  (-0.9908097E-08)
 number of electron      56.0000020 magnetization 
 augmentation part       -5.1098708 magnetization 

 Broyden mixing:
  rms(total) = 0.10929E-04    rms(broyden)= 0.10928E-04
  rms(prec ) = 0.15273E-04
  weight for this iteration     100.00

 eigenvalues of (default mixing * dielectric matrix)
  average eigenvalue GAMMA=   2.1901
  5.8640  2.5578  1.9723  1.9723  0.9394  0.9394  1.0856

 Free energy of the ion-electron system (eV)
  ---------------------------------------------------
  alpha Z        PSCENC =         3.06652414
  Ewald energy   TEWEN  =      2546.30077415
  -Hartree energ DENC   =     -3476.41800340
  -exchange      EXHF   =         0.00000000
  -V(xc)+E(xc)   XCENC  =       -35.38474944
  PAW double counting   =      3230.75680759    -3081.85099256
  entropy T*S    EENTRO =        -0.00000000
  eigenvalues    EBANDS =      -529.99166044
  atomic energy  EATOM  =      1245.75497486
  Solvation  Ediel_sol  =         0.00000000
  ---------------------------------------------------
  free energy    TOTEN  =       -97.76632510 eV

  energy without entropy =      -97.76632510  energy(sigma->0) =      -97.76632510


--------------------------------------------------------------------------------------------------------




--------------------------------------- Iteration     17(   9)  ---------------------------------------


    POTLOK:  cpu time    0.9639: real time    0.9648
    SETDIJ:  cpu time    0.0060: real time    0.0062
     EDDAV:  cpu time    3.6144: real time    3.6189
       DOS:  cpu time    0.0000: real time    0.0002
    CHARGE:  cpu time    0.2360: real time    0.2412
    MIXING:  cpu time    0.0340: real time    0.0333
    --------------------------------------------
      LOOP:  cpu time    4.8543: real time    4.8647

 eigenvalue-minimisations  :    88
 total energy-change (2. order) :-0.1055589E-05  (-0.3729371E-08)
 number of electron      56.0000020 magnetization 
 augmentation part       -5.1098709 magnetization 

 Broyden mixing:
  rms(total) = 0.39804E-05    rms(broyden)= 0.39786E-05
  rms(prec ) = 0.73494E-05
  weight for this iteration     100.00

 eigenvalues of (default mixing * dielectric matrix)
  average eigenvalue GAMMA=   2.2965
  7.2815  2.6435  2.4634  1.9324  1.1955  0.9954  0.9954  0.8647

 Free energy of the ion-electron system (eV)
  ---------------------------------------------------
  alpha Z        PSCENC =         3.06652414
  Ewald energy   TEWEN  =      2546.30077415
  -Hartree energ DENC   =     -3476.41747281
  -exchange      EXHF   =         0.00000000
  -V(xc)+E(xc)   XCENC  =       -35.38474858
  PAW double counting   =      3230.75986883    -3081.85405195
  entropy T*S    EENTRO =        -0.00000000
  eigenvalues    EBANDS =      -529.99219480
  atomic energy  EATOM  =      1245.75497486
  Solvation  Ediel_sol  =         0.00000000
  ---------------------------------------------------
  free energy    TOTEN  =       -97.76632616 eV

  energy without entropy =      -97.76632616  energy(sigma->0) =      -97.76632616


--------------------------------------------------------------------------------------------------------




--------------------------------------- Iteration     17(  10)  ---------------------------------------


    POTLOK:  cpu time    0.9709: real time    0.9723
    SETDIJ:  cpu time    0.0060: real time    0.0062
     EDDAV:  cpu time    3.6324: real time    3.6362
       DOS:  cpu time    0.0010: real time    0.0002
    --------------------------------------------
      LOOP:  cpu time    4.6103: real time    4.6149

 eigenvalue-minimisations  :    88
 total energy-change (2. order) :-0.5781742E-06  (-0.1559210E-08)
 number of electron      56.0000020 magnetization 
 augmentation part       -5.1098709 magnetization 

 Free energy of the ion-electron system (eV)
  ---------------------------------------------------
  alpha Z        PSCENC =         3.06652414
  Ewald energy   TEWEN  =      2546.30077415
  -Hartree energ DENC   =     -3476.41730478
  -exchange      EXHF   =         0.00000000
  -V(xc)+E(xc)   XCENC  =       -35.38474855
  PAW double counting   =      3230.75890896    -3081.85308852
  entropy T*S    EENTRO =        -0.00000000
  eigenvalues    EBANDS =      -529.99236700
  atomic energy  EATOM  =      1245.75497486
  Solvation  Ediel_sol  =         0.00000000
  ---------------------------------------------------
  free energy    TOTEN  =       -97.76632674 eV

  energy without entropy =      -97.76632674  energy(sigma->0) =      -97.76632674


--------------------------------------------------------------------------------------------------------




 average (electrostatic) potential at core
  the test charge radii are     0.9892  1.1631  0.5201
  (the norm of the test charge is              1.0000)
       1 -93.4421       2 -93.4420       3 -40.4820       4 -40.4965       5 -40.4966
       6 -40.4820       7 -40.4819       8 -40.4820       9 -40.4967      10 -40.4967
      11 -40.9911      12 -40.9910      13 -41.0327      14 -40.8717      15 -40.8712
      16 -40.9908      17 -40.9908      18 -41.0327      19 -41.0318      20 -40.9918
      21 -40.9917      22 -41.0321      23 -40.8711      24 -40.8711      25 -40.9916
      26 -40.9910
 
 
 
 E-fermi :  -5.3228     XC(G=0):  -0.6161     alpha+bet : -0.3225


 k-point     1 :       0.0000    0.0000    0.0000
  band No.  band energies     occupation 
      1     -15.3188      2.00000
      2     -14.4168      2.00000
      3     -14.4167      2.00000
      4     -14.1403      2.00000
      5     -13.3156      2.00000
      6     -12.9403      2.00000
      7     -11.9668      2.00000
      8     -11.9667      2.00000
      9     -11.6714      2.00000
     10     -10.8191      2.00000
     11      -8.8924      2.00000
     12      -8.6118      2.00000
     13      -8.6117      2.00000
     14      -8.5124      2.00000
     15      -8.1684      2.00000
     16      -8.1684      2.00000
     17      -8.0575      2.00000
     18      -7.8627      2.00000
     19      -7.7948      2.00000
     20      -7.7947      2.00000
     21      -6.8166      2.00000
     22      -6.7043      2.00000
     23      -6.4294      2.00000
     24      -6.4293      2.00000
     25      -6.2946      2.00000
     26      -6.2945      2.00000
     27      -6.2939      2.00000
     28      -6.2863      2.00000
     29      -1.5200      0.00000
     30      -1.4191      0.00000
     31      -1.4190      0.00000
     32      -1.2182      0.00000
     33      -1.1945      0.00000
     34      -1.1943      0.00000
     35      -1.1887      0.00000
     36      -1.1666      0.00000
     37      -0.8386      0.00000
     38      -0.7871      0.00000
     39      -0.2545      0.00000
     40      -0.1681      0.00000
     41      -0.0751      0.00000
     42      -0.0740      0.00000


--------------------------------------------------------------------------------------------------------


 soft charge-density along one line, spin component           1
         0         1         2         3         4         5         6         7         8         9
 total charge-density along one line
 
 pseudopotential strength for first ion, spin component:           1
 19.626  27.388  -0.000   0.003   0.005  -0.001   0.005   0.010
 27.388  38.226  -0.000   0.004   0.007  -0.001   0.007   0.013
 -0.000  -0.000   4.363  -0.000   0.000   8.138  -0.000   0.000
  0.003   0.004  -0.000   4.363  -0.000  -0.000   8.138  -0.000
  0.005   0.007   0.000  -0.000   4.363   0.000  -0.000   8.138
 -0.001  -0.001   8.138  -0.000   0.000  15.190  -0.000   0.000
  0.005   0.007  -0.000   8.138  -0.000  -0.000  15.191  -0.000
  0.010   0.013   0.000  -0.000   8.138   0.000  -0.000  15.191
 total augmentation occupancy for first ion, spin component:           1
  6.041  -2.292   0.036  -0.324  -0.614  -0.011   0.101   0.192
 -2.292   0.922  -0.020   0.180   0.341   0.005  -0.044  -0.084
  0.036  -0.020   3.647   0.200  -0.080  -0.881  -0.064   0.026
 -0.324   0.180   0.200   2.829   0.214  -0.064  -0.618  -0.068
 -0.614   0.341  -0.080   0.214   3.095   0.026  -0.068  -0.703
 -0.011   0.005  -0.881  -0.064   0.026   0.214   0.018  -0.007
  0.101  -0.044  -0.064  -0.618  -0.068   0.018   0.142   0.019
  0.192  -0.084   0.026  -0.068  -0.703  -0.007   0.019   0.166


------------------------ aborting loop because EDIFF is reached ----------------------------------------


    CHARGE:  cpu time    0.2050: real time    0.2232
    FORLOC:  cpu time    0.1290: real time    0.1329
    FORNL :  cpu time    0.8709: real time    0.8700
    STRESS:  cpu time    3.2505: real time    3.2493
    FORCOR:  cpu time    1.0098: real time    1.0102
    FORHAR:  cpu time    0.3519: real time    0.3506
    MIXING:  cpu time    0.0340: real time    0.0337
    OFIELD:  cpu time    0.0000: real time    0.0000

  FORCE on cell =-STRESS in cart. coord.  units (eV):
  Direction    XX          YY          ZZ          XY          YZ          ZX
  --------------------------------------------------------------------------------------
  Alpha Z     3.06652     3.06652     3.06652
  Ewald     854.36474   844.56518   847.36921    -0.72699    -0.23324     3.91792
  Hartree  1163.87806  1154.98529  1157.55414    -0.68331    -0.21254     3.52964
  E(xc)    -182.44024  -182.46920  -182.46113    -0.00170    -0.00092     0.01530
  Local   -2479.37220 -2460.46977 -2465.90064     1.42343     0.45271    -7.55906
  n-local   200.94198   201.19172   201.12218     0.01502     0.00828    -0.13207
  augment    -0.27208    -0.26028    -0.26386     0.00057     0.00041    -0.00612
  Kinetic   439.01779   438.51515   438.65273    -0.03217    -0.01698     0.26594
  Fock        0.00000     0.00000     0.00000     0.00000     0.00000     0.00000
  -------------------------------------------------------------------------------------
  Total      -0.81542    -0.87539    -0.86084    -0.00514    -0.00228     0.03156
  in kB      -0.16331    -0.17532    -0.17240    -0.00103    -0.00046     0.00632
  external pressure =       -0.17 kB  Pullay stress =        0.00 kB


 VOLUME and BASIS-vectors are now :
 -----------------------------------------------------------------------------
  energy-cutoff  :      400.00
  volume of cell :     8000.00
      direct lattice vectors                 reciprocal lattice vectors
    20.000000000  0.000000000  0.000000000     0.050000000  0.000000000  0.000000000
     0.000000000 20.000000000  0.000000000     0.000000000  0.050000000  0.000000000
     0.000000000  0.000000000 20.000000000     0.000000000  0.000000000  0.050000000

  length of vectors
    20.000000000 20.000000000 20.000000000     0.050000000  0.050000000  0.050000000


 FORCES acting on ions
    electron-ion (+dipol)            ewald-force                    non-local-force                 convergence-correction
 -----------------------------------------------------------------------------------------------
   0.823E+02 -.483E+01 0.436E+02   -.847E+02 0.497E+01 -.448E+02   0.236E+01 -.137E+00 0.124E+01   0.170E-04 0.353E-05 0.598E-05
   -.823E+02 0.483E+01 -.435E+02   0.847E+02 -.497E+01 0.448E+02   -.236E+01 0.138E+00 -.124E+01   -.177E-04 0.883E-06 -.447E-05
   0.108E+02 -.184E+02 0.871E+02   -.112E+02 0.185E+02 -.877E+02   0.424E+00 -.101E+00 0.579E+00   0.411E-05 0.457E-05 -.146E-04
   -.354E+02 0.519E+02 0.727E+02   0.358E+02 -.525E+02 -.736E+02   -.399E+00 0.585E+00 0.822E+00   0.153E-05 -.100E-04 -.108E-04
   -.279E+02 -.806E+02 0.441E+02   0.283E+02 0.815E+02 -.446E+02   -.315E+00 -.912E+00 0.497E+00   0.142E-05 0.145E-04 -.663E-05
   0.794E+02 0.131E+02 -.398E+02   -.801E+02 -.131E+02 0.397E+02   0.723E+00 0.349E-01 0.263E-01   -.510E-05 -.274E-05 0.115E-04
   -.492E+02 0.747E+02 -.811E+01   0.498E+02 -.750E+02 0.835E+01   -.592E+00 0.347E+00 -.234E+00   -.659E-08 -.173E-04 -.142E-05
   -.411E+02 -.695E+02 -.395E+02   0.417E+02 0.697E+02 0.398E+02   -.556E+00 -.280E+00 -.371E+00   -.104E-05 0.171E-04 0.589E-05
   0.280E+02 0.806E+02 -.440E+02   -.283E+02 -.815E+02 0.445E+02   0.315E+00 0.912E+00 -.497E+00   -.174E-05 -.140E-04 0.624E-05
   0.354E+02 -.519E+02 -.727E+02   -.358E+02 0.525E+02 0.735E+02   0.399E+00 -.586E+00 -.821E+00   -.202E-05 0.101E-04 0.103E-04
   0.196E+02 0.392E+02 0.583E+01   -.207E+02 -.412E+02 -.691E+01   0.114E+01 0.197E+01 0.107E+01   -.372E-06 -.444E-05 -.748E-06
   0.147E+01 0.212E+02 -.389E+02   -.120E+01 -.218E+02 0.413E+02   -.275E+00 0.545E+00 -.244E+01   -.817E-07 -.221E-05 0.385E-05
   -.256E+02 0.380E+02 -.443E+01   0.269E+02 -.400E+02 0.466E+01   -.136E+01 0.204E+01 -.230E+00   -.126E-05 -.212E-05 -.443E-06
   -.455E+02 -.388E+01 0.603E+01   0.482E+02 0.430E+01 -.728E+01   -.267E+01 -.417E+00 0.124E+01   0.746E-05 0.205E-05 -.641E-05
   -.203E+02 0.776E+01 -.409E+02   0.208E+02 -.836E+01 0.438E+02   -.441E+00 0.599E+00 -.287E+01   -.199E-05 -.244E-05 0.118E-04
   -.345E+02 0.488E+01 0.274E+02   0.367E+02 -.453E+01 -.286E+02   -.222E+01 -.342E+00 0.114E+01   0.134E-05 -.577E-06 -.267E-05
   0.794E+01 0.341E+02 0.272E+02   -.906E+01 -.361E+02 -.283E+02   0.112E+01 0.196E+01 0.112E+01   -.892E-06 -.415E-05 -.194E-05
   0.602E+01 -.941E+01 0.445E+02   -.634E+01 0.990E+01 -.469E+02   0.309E+00 -.502E+00 0.239E+01   0.599E-06 0.571E-06 -.106E-05
   -.215E+02 -.353E+02 -.204E+02   0.226E+02 0.372E+02 0.215E+02   -.114E+01 -.190E+01 -.109E+01   -.149E-05 0.166E-05 0.372E-06
   0.284E+01 -.304E+01 -.440E+02   -.257E+01 0.254E+01 0.464E+02   -.272E+00 0.487E+00 -.245E+01   0.264E-06 0.290E-06 0.389E-05
   0.238E+02 -.359E+02 -.105E+02   -.251E+02 0.380E+02 0.103E+02   0.137E+01 -.210E+01 0.189E+00   -.567E-06 0.468E-05 0.748E-06
   0.408E+02 0.666E+01 -.200E+02   -.430E+02 -.701E+01 0.211E+02   0.219E+01 0.357E+00 -.108E+01   0.119E-05 -.398E-06 0.105E-05
   0.315E+02 0.248E+02 0.233E+02   -.329E+02 -.270E+02 -.246E+02   0.142E+01 0.224E+01 0.133E+01   -.238E-05 -.102E-04 -.514E-05
   0.344E+02 -.286E+02 0.117E+02   -.361E+02 0.311E+02 -.120E+02   0.169E+01 -.242E+01 0.313E+00   -.273E-05 0.107E-04 -.146E-06
   0.122E+02 -.410E+02 0.109E+02   -.135E+02 0.432E+02 -.111E+02   0.134E+01 -.211E+01 0.239E+00   -.109E-05 0.444E-05 -.456E-06
   -.332E+02 -.194E+02 0.222E+02   0.354E+02 0.198E+02 -.234E+02   -.221E+01 -.399E+00 0.113E+01   0.158E-05 0.245E-05 -.261E-05
 -----------------------------------------------------------------------------------------------
   0.660E-03 0.376E-03 0.791E-03   0.711E-13 0.178E-13 -.142E-13   0.914E-03 0.587E-03 -.125E-02   -.394E-05 0.698E-05 0.217E-05
 
 
 POSITION                                       TOTAL-FORCE (eV/Angst)
 -----------------------------------------------------------------------------------
      7.33656     10.78386      8.70450        -0.007975      0.000752     -0.003637
     12.30493     10.49376     11.32296         0.007925     -0.000293      0.004256
      9.46810     11.13254      7.64835        -0.002754     -0.003375      0.013339
     10.85434      9.12174      7.88458         0.004808     -0.007266     -0.009641
     10.63703     13.00114      8.72670         0.003828      0.011007     -0.005676
      7.63176     10.29342     11.03973         0.009431      0.002508     -0.010039
     11.19938      8.63895     10.26552        -0.004383      0.013519      0.000794
     10.98355     12.49018     11.10154        -0.002481     -0.012972     -0.004839
      9.00445      8.27631     11.30075        -0.003800     -0.010624      0.005864
      8.78714     12.15582     12.14314        -0.004604      0.006988      0.009705
      8.29704      7.05836     10.63549         0.002189     -0.005165     -0.009685
      9.17506      7.94088     12.81229        -0.001792      0.006332      0.009162
     12.06334      7.34443     10.41307         0.001052      0.014644      0.004280
     13.64866     10.70488     10.69663         0.009558      0.004245     -0.016163
     12.52415     10.19136     12.77308        -0.008346     -0.004076      0.016870
     12.22605      9.33530      7.17806         0.004891      0.009236     -0.003734
     10.16239      7.91080      7.19090        -0.005288     -0.008814      0.004211
      9.26932     11.45059      6.13069        -0.009406     -0.003282      0.011401
     11.70756     13.69200     11.79112         0.003117     -0.015179     -0.001989
      8.95606     11.85248     13.66163        -0.000568     -0.009872      0.005895
      7.93878     13.45681     12.02474         0.001538      0.009230     -0.005823
      6.24254     10.06777     11.72034         0.004566      0.003498     -0.014381
      6.62118      9.65035      8.03681         0.000573     -0.018796     -0.004345
      6.48908     12.00856      8.54856        -0.001437      0.018886      0.003944
      9.80394     14.30906      8.57986        -0.006648      0.005422      0.007178
     12.00705     13.24666      8.02731         0.006004     -0.006552     -0.006946
 -----------------------------------------------------------------------------------
    total drift:                                0.001570      0.000970     -0.000456


--------------------------------------------------------------------------------------------------------



  FREE ENERGIE OF THE ION-ELECTRON SYSTEM (eV)
  ---------------------------------------------------
  free  energy   TOTEN  =       -97.76632674 eV

  energy  without entropy=      -97.76632674  energy(sigma->0) =      -97.76632674
 
 d Force = 0.1350968E-03[ 0.124E-03, 0.146E-03]  d Energy = 0.1653755E-03-0.303E-04
 d Force = 0.5944759E-01[ 0.595E-01, 0.594E-01]  d Ewald  = 0.5944767E-01-0.802E-07


--------------------------------------------------------------------------------------------------------


    POTLOK:  cpu time    0.9869: real time    0.9867


--------------------------------------------------------------------------------------------------------


 Conjugate gradient step on ions:
 trial-energy change:   -0.000165  1 .order   -0.000135   -0.000146   -0.000124
  (g-gl).g = 0.337E-03      g.g   = 0.328E-03  gl.gl    = 0.570E-02
 g(Force)  = 0.328E-03   g(Stress)= 0.000E+00 ortho     = 0.170E-04
 gamma     =   0.05906
 trial     =   0.44436
 opt step  =   1.77744  (harmonic =   2.89615) maximal distance =0.00199065
 next E    =   -97.766638   (d E  =  -0.00048)


--------------------------------------------------------------------------------------------------------


  
 reached required accuracy - stopping structural energy minimisation
 writing wavefunctions
     LOOP+:  cpu time   56.0035: real time   56.5487
    4ORBIT:  cpu time    0.0000: real time    0.0000

 total amount of memory used by VASP MPI-rank0   131440. kBytes
=======================================================================

   base      :      30000. kBytes
   nonl-proj :      17624. kBytes
   fftplans  :      26957. kBytes
   grid      :      48673. kBytes
   one-center:         40. kBytes
   wavefun   :       8146. kBytes
 
  
  
 General timing and accounting informations for this job:
 ========================================================
  
                  Total CPU time used (sec):     1073.263
                            User time (sec):     1051.994
                          System time (sec):       21.269
                         Elapsed time (sec):     1077.792
  
                   Maximum memory used (kb):      185340.
                   Average memory used (kb):           0.
  
                          Minor page faults:      5567656
                          Major page faults:            5
                 Voluntary context switches:         6887
