 vasp.5.4.4.18Apr17-6-g9f103f2a35 (build Nov 06 2017 19:16:10) complex          
  
 executed on           IFC91_ompi date 2018.07.08  14:19:19
 running on   12 total cores
 distrk:  each k-point on   12 cores,    1 groups
 distr:  one band on NCORES_PER_BAND=   6 cores,    2 groups


--------------------------------------------------------------------------------------------------------


 INCAR:
 POTCAR:    PAW_PBE Si 05Jan2001                  
 POTCAR:    PAW_PBE Ge 05Jan2001                  
 POTCAR:    PAW_PBE H 15Jun2001                   
 POTCAR:    PAW_PBE Si 05Jan2001                  
   VRHFIN =Si: s2p2                                                             
   LEXCH  = PE                                                                  
   EATOM  =   103.0669 eV,    7.5752 Ry                                         
                                                                                
   TITEL  = PAW_PBE Si 05Jan2001                                                
   LULTRA =        F    use ultrasoft PP ?                                      
   IUNSCR =        1    unscreen: 0-lin 1-nonlin 2-no                           
   RPACOR =    1.500    partial core radius                                     
   POMASS =   28.085; ZVAL   =    4.000    mass and valenz                      
   RCORE  =    1.900    outmost cutoff radius                                   
   RWIGS  =    2.480; RWIGS  =    1.312    wigner-seitz radius (au A)           
   ENMAX  =  245.345; ENMIN  =  184.009 eV                                      
   ICORE  =        2    local potential                                         
   LCOR   =        T    correct aug charges                                     
   LPAW   =        T    paw PP                                                  
   EAUG   =  322.069                                                            
   DEXC   =    0.000                                                            
   RMAX   =    1.950    core radius for proj-oper                               
   RAUG   =    1.300    factor for augmentation sphere                          
   RDEP   =    1.993    radius for radial grids                                 
   RDEPT  =    1.837    core radius for aug-charge                              
                                                                                
   Atomic configuration                                                         
    6 entries                                                                   
     n  l   j            E        occ.                                          
     1  0  0.50     -1785.8828   2.0000                                         
     2  0  0.50      -139.4969   2.0000                                         
     2  1  1.50       -95.5546   6.0000                                         
     3  0  0.50       -10.8127   2.0000                                         
     3  1  0.50        -4.0811   2.0000                                         
     3  2  1.50        -4.0817   0.0000                                         
   Description                                                                  
     l       E           TYP  RCUT    TYP  RCUT                                 
     0    -10.8127223     23  1.900                                             
     0     -7.6451159     23  1.900                                             
     1     -4.0811372     23  1.900                                             
     1      2.4879257     23  1.900                                             
     2     -4.0817478      7  1.900                                             
  local pseudopotential read in
  partial core-charges read in
  partial kinetic energy density read in
  atomic valenz-charges read in
  non local Contribution for L=           0  read in
    real space projection operators read in
  non local Contribution for L=           0  read in
    real space projection operators read in
  non local Contribution for L=           1  read in
    real space projection operators read in
  non local Contribution for L=           1  read in
    real space projection operators read in
    PAW grid and wavefunctions read in
 
   number of l-projection  operators is LMAX  =           4
   number of lm-projection operators is LMMAX =           8
 
 POTCAR:    PAW_PBE Ge 05Jan2001                  
   VRHFIN =Ge: s2p2                                                             
   LEXCH  = PE                                                                  
   EATOM  =   104.9960 eV,    7.7170 Ry                                         
                                                                                
   TITEL  = PAW_PBE Ge 05Jan2001                                                
   LULTRA =        F    use ultrasoft PP ?                                      
   IUNSCR =        1    unscreen: 0-lin 1-nonlin 2-no                           
   RPACOR =    2.170    partial core radius                                     
   POMASS =   72.610; ZVAL   =    4.000    mass and valenz                      
   RCORE  =    2.300    outmost cutoff radius                                   
   RWIGS  =    2.300; RWIGS  =    1.217    wigner-seitz radius (au A)           
   ENMAX  =  173.807; ENMIN  =  130.355 eV                                      
   ICORE  =        3    local potential                                         
   LCOR   =        T    correct aug charges                                     
   LPAW   =        T    paw PP                                                  
   EAUG   =  385.843                                                            
   DEXC   =    0.000                                                            
   RMAX   =    2.342    core radius for proj-oper                               
   RAUG   =    1.300    factor for augmentation sphere                          
   RDEP   =    2.318    radius for radial grids                                 
   RDEPT  =    2.103    core radius for aug-charge                              
                                                                                
   Atomic configuration                                                         
   10 entries                                                                   
     n  l   j            E        occ.                                          
     1  0  0.50    -10959.8463   2.0000                                         
     2  0  0.50     -1371.6056   2.0000                                         
     2  1  1.50     -1198.4791   6.0000                                         
     3  0  0.50      -168.4733   2.0000                                         
     3  1  1.50      -115.6019   6.0000                                         
     3  2  2.50       -29.3106  10.0000                                         
     4  0  0.50       -11.7309   2.0000                                         
     4  1  0.50        -3.8952   2.0000                                         
     4  2  1.50        -4.0817   0.0000                                         
     4  3  2.50        -4.0817   0.0000                                         
   Description                                                                  
     l       E           TYP  RCUT    TYP  RCUT                                 
     0    -11.7309493     23  2.300                                             
     0     -7.4578696     23  2.300                                             
     1     -3.8952261     23  2.300                                             
     1      6.1178114     23  2.300                                             
     2     -4.0817478     23  2.300                                             
     3     -1.3605826      7  2.300                                             
  local pseudopotential read in
  partial core-charges read in
  partial kinetic energy density read in
  atomic valenz-charges read in
  non local Contribution for L=           0  read in
    real space projection operators read in
  non local Contribution for L=           0  read in
    real space projection operators read in
  non local Contribution for L=           1  read in
    real space projection operators read in
  non local Contribution for L=           1  read in
    real space projection operators read in
  non local Contribution for L=           2  read in
    real space projection operators read in
    PAW grid and wavefunctions read in
 
   number of l-projection  operators is LMAX  =           5
   number of lm-projection operators is LMMAX =          13
 
 POTCAR:    PAW_PBE H 15Jun2001                   
   VRHFIN =H: ultrasoft test                                                    
   LEXCH  = PE                                                                  
   EATOM  =    12.4884 eV,    0.9179 Ry                                         
                                                                                
   TITEL  = PAW_PBE H 15Jun2001                                                 
   LULTRA =        F    use ultrasoft PP ?                                      
   IUNSCR =        0    unscreen: 0-lin 1-nonlin 2-no                           
   RPACOR =    0.000    partial core radius                                     
   POMASS =    1.000; ZVAL   =    1.000    mass and valenz                      
   RCORE  =    1.100    outmost cutoff radius                                   
   RWIGS  =    0.700; RWIGS  =    0.370    wigner-seitz radius (au A)           
   ENMAX  =  250.000; ENMIN  =  200.000 eV                                      
   RCLOC  =    0.701    cutoff for local pot                                    
   LCOR   =        T    correct aug charges                                     
   LPAW   =        T    paw PP                                                  
   EAUG   =  400.000                                                            
   RMAX   =    1.123    core radius for proj-oper                               
   RAUG   =    1.200    factor for augmentation sphere                          
   RDEP   =    1.112    radius for radial grids                                 
   RDEPT  =    0.926    core radius for aug-charge                              
                                                                                
   Atomic configuration                                                         
    2 entries                                                                   
     n  l   j            E        occ.                                          
     1  0  0.50        -6.4927   1.0000                                         
     2  1  0.50        -3.4015   0.0000                                         
   Description                                                                  
     l       E           TYP  RCUT    TYP  RCUT                                 
     0     -6.4927494     23  1.100                                             
     0      6.8029130     23  1.100                                             
     1     -4.0817478     23  1.100                                             
  local pseudopotential read in
  atomic valenz-charges read in
  non local Contribution for L=           0  read in
    real space projection operators read in
  non local Contribution for L=           0  read in
    real space projection operators read in
  non local Contribution for L=           1  read in
    real space projection operators read in
    PAW grid and wavefunctions read in
 
   number of l-projection  operators is LMAX  =           3
   number of lm-projection operators is LMMAX =           5
 

 ----------------------------------------------------------------------------- 
|                                                                             |
|  ADVICE TO THIS USER RUNNING 'VASP/VAMP'   (HEAR YOUR MASTER'S VOICE ...):  |
|                                                                             |
|      You have a (more or less) 'large supercell' and for larger cells       |
|      it might be more efficient to use real space projection opertators     |
|      So try LREAL= Auto  in the INCAR   file.                               |
|      Mind:          For very  accurate calculation you might also keep the  |
|      reciprocal projection scheme          (i.e. LREAL=.FALSE.)             |
|                                                                             |
 ----------------------------------------------------------------------------- 

  PAW_PBE Si 05Jan2001                  :
 energy of atom  1       EATOM= -103.0669
 kinetic energy error for atom=    0.0012 (will be added to EATOM!!)
  PAW_PBE Ge 05Jan2001                  :
 energy of atom  2       EATOM= -104.9960
 kinetic energy error for atom=    0.0003 (will be added to EATOM!!)
  PAW_PBE H 15Jun2001                   :
 energy of atom  3       EATOM=  -12.4884
 kinetic energy error for atom=    0.0098 (will be added to EATOM!!)
 
 
 POSCAR: SiGeH16                                 
  positions in direct lattice
  No initial velocities read in
 exchange correlation table for  LEXCH =        8
   RHO(1)=    0.500       N(1)  =     2000
   RHO(2)=  100.500       N(2)  =     4000
 


--------------------------------------------------------------------------------------------------------


 ion  position               nearest neighbor table
   1  0.475  0.556  0.385-  18 1.55   5 2.39   3 2.39   4 2.39
   2  0.385  0.515  0.552-  22 1.55  10 2.39   9 2.39   3 2.39
   3  0.369  0.539  0.436-  23 1.55  24 1.55   2 2.39   1 2.39
   4  0.542  0.457  0.396-  17 1.55  16 1.55   6 2.39   1 2.39
   5  0.531  0.648  0.437-  25 1.55  26 1.55   7 2.39   1 2.39
   6  0.557  0.433  0.512-  13 1.55   4 2.39   8 2.39   9 2.39
   7  0.547  0.624  0.554-  19 1.55   5 2.39   8 2.39  10 2.39
   8  0.613  0.525  0.565-  15 1.55  14 1.55   7 2.39   6 2.39
   9  0.451  0.416  0.564-  12 1.55  11 1.55   2 2.39   6 2.39
  10  0.440  0.606  0.605-  20 1.55  21 1.55   2 2.39   7 2.39
  11  0.415  0.357  0.529-   9 1.55
  12  0.461  0.400  0.639-   9 1.55
  13  0.600  0.369  0.520-   6 1.55
  14  0.682  0.536  0.531-   8 1.55
  15  0.623  0.509  0.640-   8 1.55
  16  0.611  0.469  0.363-   4 1.55
  17  0.506  0.398  0.362-   4 1.55
  18  0.465  0.572  0.309-   1 1.55
  19  0.583  0.683  0.588-   7 1.55
  20  0.451  0.590  0.680-  10 1.55
  21  0.397  0.670  0.598-  10 1.55
  22  0.316  0.504  0.586-   2 1.55
  23  0.333  0.479  0.402-   3 1.55
  24  0.326  0.603  0.429-   3 1.55
  25  0.488  0.712  0.430-   5 1.55
  26  0.600  0.659  0.404-   5 1.55
 
  LATTYP: Found a simple cubic cell.
 ALAT       =    20.0000000000
  
  Lattice vectors:
  
 A1 = (  20.0000000000,   0.0000000000,   0.0000000000)
 A2 = (   0.0000000000,  20.0000000000,   0.0000000000)
 A3 = (   0.0000000000,   0.0000000000,  20.0000000000)


Analysis of symmetry for initial positions (statically):
=====================================================================
 Subroutine PRICEL returns:
 Original cell was already a primitive cell.
 

 Routine SETGRP: Setting up the symmetry group for a 
 simple cubic supercell.


 Subroutine GETGRP returns: Found  1 space group operations
 (whereof  1 operations were pure point group operations)
 out of a pool of 48 trial point group operations.


The static configuration has the point symmetry C_1 .


Analysis of symmetry for dynamics (positions and initial velocities):
=====================================================================
 Subroutine PRICEL returns:
 Original cell was already a primitive cell.
 

 Routine SETGRP: Setting up the symmetry group for a 
 simple cubic supercell.


 Subroutine GETGRP returns: Found  1 space group operations
 (whereof  1 operations were pure point group operations)
 out of a pool of 48 trial point group operations.


The dynamic configuration has the point symmetry C_1 .


 Subroutine INISYM returns: Found  1 space group operations
 (whereof  1 operations are pure point group operations),
 and found     1 'primitive' translations

 
 
 KPOINTS: Automatic mesh                          

Automatic generation of k-mesh.
Space group operators:
 irot       det(A)        alpha          n_x          n_y          n_z        tau_x        tau_y        tau_z
    1     1.000000     0.000000     1.000000     0.000000     0.000000     0.000000     0.000000     0.000000
 
 Subroutine IBZKPT returns following result:
 ===========================================
 
 Found      1 irreducible k-points:
 
 Following reciprocal coordinates:
            Coordinates               Weight
  0.000000  0.000000  0.000000      1.000000
 
 Following cartesian coordinates:
            Coordinates               Weight
  0.000000  0.000000  0.000000      1.000000
 


--------------------------------------------------------------------------------------------------------




 Dimension of arrays:
   k-points           NKPTS =      1   k-points in BZ     NKDIM =      1   number of bands    NBANDS=     42
   number of dos      NEDOS =    301   number of ions     NIONS =     26
   non local maximal  LDIM  =      5   non local SUM 2l+1 LMDIM =     13
   total plane-waves  NPLWV = 941192
   max r-space proj   IRMAX =      1   max aug-charges    IRDMAX=   6593
   dimension x,y,z NGX =    98 NGY =   98 NGZ =   98
   dimension x,y,z NGXF=   196 NGYF=  196 NGZF=  196
   support grid    NGXF=   196 NGYF=  196 NGZF=  196
   ions per type =               2   8  16
   NGX,Y,Z   is equivalent  to a cutoff of   8.15,  8.15,  8.15 a.u.
   NGXF,Y,Z  is equivalent  to a cutoff of  16.29, 16.29, 16.29 a.u.

 SYSTEM =  SiGe                                    
 POSCAR =  SiGeH16                                 

 Startparameter for this run:
   NWRITE =      2    write-flag & timer
   PREC   = normal    normal or accurate (medium, high low for compatibility)
   ISTART =      0    job   : 0-new  1-cont  2-samecut
   ICHARG =      2    charge: 1-file 2-atom 10-const
   ISPIN  =      1    spin polarized calculation?
   LNONCOLLINEAR =      F non collinear calculations
   LSORBIT =      F    spin-orbit coupling
   INIWAV =      1    electr: 0-lowe 1-rand  2-diag
   LASPH  =      F    aspherical Exc in radial PAW
   METAGGA=      F    non-selfconsistent MetaGGA calc.

 Electronic Relaxation 1
   ENCUT  =  400.0 eV  29.40 Ry    5.42 a.u.  32.61 32.61 32.61*2*pi/ulx,y,z
   ENINI  =  400.0     initial cutoff
   ENAUG  =  400.0 eV  augmentation charge cutoff
   NELM   =     60;   NELMIN=  2; NELMDL= -5     # of ELM steps 
   EDIFF  = 0.1E-05   stopping-criterion for ELM
   LREAL  =      F    real-space projection
   NLSPLINE    = F    spline interpolate recip. space projectors
   LCOMPAT=      F    compatible to vasp.4.4
   GGA_COMPAT  = T    GGA compatible to vasp.4.4-vasp.4.6
   LMAXPAW     = -100 max onsite density
   LMAXMIX     =    2 max onsite mixed and CHGCAR
   VOSKOWN=      0    Vosko Wilk Nusair interpolation
   ROPT   =    0.00000   0.00000   0.00000
 Ionic relaxation
   EDIFFG = -.2E-01   stopping-criterion for IOM
   NSW    =    200    number of steps for IOM
   NBLOCK =      1;   KBLOCK =    200    inner block; outer block 
   IBRION =      2    ionic relax: 0-MD 1-quasi-New 2-CG
   NFREE  =      1    steps in history (QN), initial steepest desc. (CG)
   ISIF   =      2    stress and relaxation
   IWAVPR =     11    prediction:  0-non 1-charg 2-wave 3-comb
   ISYM   =      2    0-nonsym 1-usesym 2-fastsym
   LCORR  =      T    Harris-Foulkes like correction to forces

   POTIM  = 0.5000    time-step for ionic-motion
   TEIN   =    0.0    initial temperature
   TEBEG  =    0.0;   TEEND  =   0.0 temperature during run
   SMASS  =  -3.00    Nose mass-parameter (am)
   estimated Nose-frequenzy (Omega)   =  0.10E-29 period in steps =****** mass=  -0.914E-26a.u.
   SCALEE = 1.0000    scale energy and forces
   NPACO  =    256;   APACO  = 16.0  distance and # of slots for P.C.
   PSTRESS=    0.0 pullay stress

  Mass of Ions in am
   POMASS =  28.09 72.61  1.00
  Ionic Valenz
   ZVAL   =   4.00  4.00  1.00
  Atomic Wigner-Seitz radii
   RWIGS  =  -1.00 -1.00 -1.00
  virtual crystal weights 
   VCA    =   1.00  1.00  1.00
   NELECT =      56.0000    total number of electrons
   NUPDOWN=      -1.0000    fix difference up-down

 DOS related values:
   EMIN   =  10.00;   EMAX   =-10.00  energy-range for DOS
   EFERMI =   0.00
   ISMEAR =     0;   SIGMA  =   0.20  broadening in eV -4-tet -1-fermi 0-gaus

 Electronic relaxation 2 (details)
   IALGO  =     38    algorithm
   LDIAG  =      T    sub-space diagonalisation (order eigenvalues)
   LSUBROT=      F    optimize rotation matrix (better conditioning)
   TURBO    =      0    0=normal 1=particle mesh
   IRESTART =      0    0=no restart 2=restart with 2 vectors
   NREBOOT  =      0    no. of reboots
   NMIN     =      0    reboot dimension
   EREF     =   0.00    reference energy to select bands
   IMIX   =      4    mixing-type and parameters
     AMIX     =   0.40;   BMIX     =  1.00
     AMIX_MAG =   1.60;   BMIX_MAG =  1.00
     AMIN     =   0.10
     WC   =   100.;   INIMIX=   1;  MIXPRE=   1;  MAXMIX= -45

 Intra band minimization:
   WEIMIN = 0.0010     energy-eigenvalue tresh-hold
   EBREAK =  0.60E-08  absolut break condition
   DEPER  =   0.30     relativ break condition  

   TIME   =   0.40     timestep for ELM

  volume/ion in A,a.u.               =     307.69      2076.41
  Fermi-wavevector in a.u.,A,eV,Ry     =   0.313166  0.591797  1.334361  0.098073
  Thomas-Fermi vector in A             =   1.193276
 
 Write flags
   LWAVE        =      T    write WAVECAR
   LDOWNSAMPLE  =      F    k-point downsampling of WAVECAR
   LCHARG       =      T    write CHGCAR
   LVTOT        =      F    write LOCPOT, total local potential
   LVHAR        =      F    write LOCPOT, Hartree potential only
   LELF         =      F    write electronic localiz. function (ELF)
   LORBIT       =      0    0 simple, 1 ext, 2 COOP (PROOUT), +10 PAW based schemes


 Dipole corrections
   LMONO  =      F    monopole corrections only (constant potential shift)
   LDIPOL =      F    correct potential (dipole corrections)
   IDIPOL =      0    1-x, 2-y, 3-z, 4-all directions 
   EPSILON=  1.0000000 bulk dielectric constant

 Exchange correlation treatment:
   GGA     =    --    GGA type
   LEXCH   =     8    internal setting for exchange type
   VOSKOWN=      0    Vosko Wilk Nusair interpolation
   LHFCALC =     F    Hartree Fock is set to
   LHFONE  =     F    Hartree Fock one center treatment
   AEXX    =    0.0000 exact exchange contribution

 Linear response parameters
   LEPSILON=     F    determine dielectric tensor
   LRPA    =     F    only Hartree local field effects (RPA)
   LNABLA  =     F    use nabla operator in PAW spheres
   LVEL    =     F    velocity operator in full k-point grid
   LINTERFAST=   F  fast interpolation
   KINTER  =     0    interpolate to denser k-point grid
   CSHIFT  =0.1000    complex shift for real part using Kramers Kronig
   OMEGAMAX=  -1.0    maximum frequency
   DEG_THRESHOLD= 0.2000000E-02 threshold for treating states as degnerate
   RTIME   =   -0.100 relaxation time in fs
  (WPLASMAI=    0.000 imaginary part of plasma frequency in eV, 0.658/RTIME)
   DFIELD  = 0.0000000 0.0000000 0.0000000 field for delta impulse in time
 
 Orbital magnetization related:
   ORBITALMAG=     F  switch on orbital magnetization
   LCHIMAG   =     F  perturbation theory with respect to B field
   DQ        =  0.001000  dq finite difference perturbation B field
   LLRAUG    =     F  two centre corrections for induced B field



--------------------------------------------------------------------------------------------------------


 conjugate gradient relaxation of ions
 charge density and potential will be updated during run
 non-spin polarized calculation
 Variant of blocked Davidson
 Davidson routine will perform the subspace rotation
 perform sub-space diagonalisation
    after iterative eigenvector-optimisation
 modified Broyden-mixing scheme, WC =      100.0
 initial mixing is a Kerker type mixing with AMIX =  0.4000 and BMIX =      1.0000
 Hartree-type preconditioning will be used
 using additional bands           14
 reciprocal scheme for non local part
 use partial core corrections
 calculate Harris-corrections to forces 
   (improved forces if not selfconsistent)
 use gradient corrections 
 use of overlap-Matrix (Vanderbilt PP)
 Gauss-broadening in eV      SIGMA  =   0.20


--------------------------------------------------------------------------------------------------------


  energy-cutoff  :      400.00
  volume of cell :     8000.00
      direct lattice vectors                 reciprocal lattice vectors
    20.000000000  0.000000000  0.000000000     0.050000000  0.000000000  0.000000000
     0.000000000 20.000000000  0.000000000     0.000000000  0.050000000  0.000000000
     0.000000000  0.000000000 20.000000000     0.000000000  0.000000000  0.050000000

  length of vectors
    20.000000000 20.000000000 20.000000000     0.050000000  0.050000000  0.050000000


 
 k-points in units of 2pi/SCALE and weight: Automatic mesh                          
   0.00000000  0.00000000  0.00000000       1.000
 
 k-points in reciprocal lattice and weights: Automatic mesh                          
   0.00000000  0.00000000  0.00000000       1.000
 
 position of ions in fractional coordinates (direct lattice) 
   0.47547100  0.55626000  0.38465300
   0.38461900  0.51474100  0.55243500
   0.36907800  0.53906000  0.43641200
   0.54179100  0.45744600  0.39613600
   0.53111600  0.64794100  0.43749600
   0.55736800  0.43311000  0.51215000
   0.54669200  0.62364400  0.55351800
   0.61299700  0.52481700  0.56496600
   0.45095700  0.41593600  0.56388300
   0.44028400  0.60643000  0.60524300
   0.41490100  0.35665000  0.52940300
   0.46117000  0.40042600  0.63910800
   0.60034800  0.36907000  0.51957800
   0.68182700  0.53600700  0.53118700
   0.62280400  0.50903400  0.64018900
   0.61080000  0.46880600  0.36278200
   0.50550800  0.39805500  0.36207700
   0.46538400  0.57201900  0.30946400
   0.58275500  0.68306700  0.58775000
   0.45052500  0.59044300  0.68036400
   0.39732000  0.67044900  0.59753500
   0.31566200  0.50359800  0.58596500
   0.33322800  0.47946500  0.40225200
   0.32629100  0.60324700  0.42912600
   0.48792300  0.71185500  0.43020800
   0.60015100  0.65882400  0.40403700
 
 position of ions in cartesian coordinates  (Angst):
   9.50942000 11.12520000  7.69306000
   7.69238000 10.29482000 11.04870000
   7.38156000 10.78120000  8.72824000
  10.83582000  9.14892000  7.92272000
  10.62232000 12.95882000  8.74992000
  11.14736000  8.66220000 10.24300000
  10.93384000 12.47288000 11.07036000
  12.25994000 10.49634000 11.29932000
   9.01914000  8.31872000 11.27766000
   8.80568000 12.12860000 12.10486000
   8.29802000  7.13300000 10.58806000
   9.22340000  8.00852000 12.78216000
  12.00696000  7.38140000 10.39156000
  13.63654000 10.72014000 10.62374000
  12.45608000 10.18068000 12.80378000
  12.21600000  9.37612000  7.25564000
  10.11016000  7.96110000  7.24154000
   9.30768000 11.44038000  6.18928000
  11.65510000 13.66134000 11.75500000
   9.01050000 11.80886000 13.60728000
   7.94640000 13.40898000 11.95070000
   6.31324000 10.07196000 11.71930000
   6.66456000  9.58930000  8.04504000
   6.52582000 12.06494000  8.58252000
   9.75846000 14.23710000  8.60416000
  12.00302000 13.17648000  8.08074000
 


--------------------------------------------------------------------------------------------------------


 k-point  1 :   0.0000 0.0000 0.0000  plane waves:  145165

 maximum and minimum number of plane-waves per node :     24209    24180

 maximum number of plane-waves:    145165
 maximum index in each direction: 
   IXMAX=   32   IYMAX=   32   IZMAX=   32
   IXMIN=  -32   IYMIN=  -32   IZMIN=  -32


 parallel 3D FFT for wavefunctions:
    minimum data exchange during FFTs selected (reduces bandwidth)
 parallel 3D FFT for charge:
    minimum data exchange during FFTs selected (reduces bandwidth)


 total amount of memory used by VASP MPI-rank0   131440. kBytes
=======================================================================

   base      :      30000. kBytes
   nonl-proj :      17624. kBytes
   fftplans  :      26957. kBytes
   grid      :      48673. kBytes
   one-center:         40. kBytes
   wavefun   :       8146. kBytes
 
     INWAV:  cpu time    0.0000: real time    0.0000
 Broyden mixing: mesh for mixing (old mesh)
   NGX = 65   NGY = 65   NGZ = 65
  (NGX  =196   NGY  =196   NGZ  =196)
  gives a total of 274625 points

 initial charge density was supplied:
 charge density of overlapping atoms calculated
 number of electron      56.0000000 magnetization 
 keeping initial charge density in first step


--------------------------------------------------------------------------------------------------------


 Maximum index for augmentation-charges          565 (set IRDMAX)


--------------------------------------------------------------------------------------------------------


 First call to EWALD:  gamma=   0.089
 Maximum number of real-space cells 3x 3x 3
 Maximum number of reciprocal cells 3x 3x 3

    FEWALD:  cpu time    0.0020: real time    0.0022


--------------------------------------- Iteration      1(   1)  ---------------------------------------


    POTLOK:  cpu time    0.9938: real time    0.9943
    SETDIJ:  cpu time    0.0060: real time    0.0062
     EDDAV:  cpu time    4.4983: real time    4.4964
       DOS:  cpu time    0.0000: real time    0.0002
    --------------------------------------------
      LOOP:  cpu time    5.4982: real time    5.4972

 eigenvalue-minimisations  :   116
 total energy-change (2. order) : 0.2134492E+03  (-0.1044542E+04)
 number of electron      56.0000000 magnetization 
 augmentation part       56.0000000 magnetization 

 Free energy of the ion-electron system (eV)
  ---------------------------------------------------
  alpha Z        PSCENC =         3.06652414
  Ewald energy   TEWEN  =      2629.98113996
  -Hartree energ DENC   =     -3438.33283487
  -exchange      EXHF   =         0.00000000
  -V(xc)+E(xc)   XCENC  =       -45.35412413
  PAW double counting   =       915.55359980     -764.60851948
  entropy T*S    EENTRO =        -0.43052199
  eigenvalues    EBANDS =      -332.18105489
  atomic energy  EATOM  =      1245.75497486
  Solvation  Ediel_sol  =         0.00000000
  ---------------------------------------------------
  free energy    TOTEN  =       213.44918341 eV

  energy without entropy =      213.87970540  energy(sigma->0) =      213.66444441


--------------------------------------------------------------------------------------------------------




--------------------------------------- Iteration      1(   2)  ---------------------------------------


     EDDAV:  cpu time    5.3582: real time    5.3555
       DOS:  cpu time    0.0010: real time    0.0002
    --------------------------------------------
      LOOP:  cpu time    5.3592: real time    5.3557

 eigenvalue-minimisations  :   144
 total energy-change (2. order) :-0.2351098E+03  (-0.2193662E+03)
 number of electron      56.0000000 magnetization 
 augmentation part       56.0000000 magnetization 

 Free energy of the ion-electron system (eV)
  ---------------------------------------------------
  alpha Z        PSCENC =         3.06652414
  Ewald energy   TEWEN  =      2629.98113996
  -Hartree energ DENC   =     -3438.33283487
  -exchange      EXHF   =         0.00000000
  -V(xc)+E(xc)   XCENC  =       -45.35412413
  PAW double counting   =       915.55359980     -764.60851948
  entropy T*S    EENTRO =        -0.00000000
  eigenvalues    EBANDS =      -567.72142357
  atomic energy  EATOM  =      1245.75497486
  Solvation  Ediel_sol  =         0.00000000
  ---------------------------------------------------
  free energy    TOTEN  =       -21.66066328 eV

  energy without entropy =      -21.66066328  energy(sigma->0) =      -21.66066328


--------------------------------------------------------------------------------------------------------




--------------------------------------- Iteration      1(   3)  ---------------------------------------


     EDDAV:  cpu time    4.1334: real time    4.1327
       DOS:  cpu time    0.0010: real time    0.0002
    --------------------------------------------
      LOOP:  cpu time    4.1344: real time    4.1329

 eigenvalue-minimisations  :   104
 total energy-change (2. order) :-0.7591379E+02  (-0.7573342E+02)
 number of electron      56.0000000 magnetization 
 augmentation part       56.0000000 magnetization 

 Free energy of the ion-electron system (eV)
  ---------------------------------------------------
  alpha Z        PSCENC =         3.06652414
  Ewald energy   TEWEN  =      2629.98113996
  -Hartree energ DENC   =     -3438.33283487
  -exchange      EXHF   =         0.00000000
  -V(xc)+E(xc)   XCENC  =       -45.35412413
  PAW double counting   =       915.55359980     -764.60851948
  entropy T*S    EENTRO =        -0.00000000
  eigenvalues    EBANDS =      -643.63521158
  atomic energy  EATOM  =      1245.75497486
  Solvation  Ediel_sol  =         0.00000000
  ---------------------------------------------------
  free energy    TOTEN  =       -97.57445129 eV

  energy without entropy =      -97.57445129  energy(sigma->0) =      -97.57445129


--------------------------------------------------------------------------------------------------------




--------------------------------------- Iteration      1(   4)  ---------------------------------------


     EDDAV:  cpu time    4.3843: real time    4.3823
       DOS:  cpu time    0.0000: real time    0.0002
    --------------------------------------------
      LOOP:  cpu time    4.3843: real time    4.3825

 eigenvalue-minimisations  :   112
 total energy-change (2. order) :-0.4409425E+01  (-0.4393573E+01)
 number of electron      56.0000000 magnetization 
 augmentation part       56.0000000 magnetization 

 Free energy of the ion-electron system (eV)
  ---------------------------------------------------
  alpha Z        PSCENC =         3.06652414
  Ewald energy   TEWEN  =      2629.98113996
  -Hartree energ DENC   =     -3438.33283487
  -exchange      EXHF   =         0.00000000
  -V(xc)+E(xc)   XCENC  =       -45.35412413
  PAW double counting   =       915.55359980     -764.60851948
  entropy T*S    EENTRO =        -0.00000000
  eigenvalues    EBANDS =      -648.04463652
  atomic energy  EATOM  =      1245.75497486
  Solvation  Ediel_sol  =         0.00000000
  ---------------------------------------------------
  free energy    TOTEN  =      -101.98387623 eV

  energy without entropy =     -101.98387623  energy(sigma->0) =     -101.98387623


--------------------------------------------------------------------------------------------------------




--------------------------------------- Iteration      1(   5)  ---------------------------------------


     EDDAV:  cpu time    4.6233: real time    4.6195
       DOS:  cpu time    0.0000: real time    0.0002
    CHARGE:  cpu time    0.2300: real time    0.2301
    MIXING:  cpu time    0.0250: real time    0.0246
    --------------------------------------------
      LOOP:  cpu time    4.8783: real time    4.8745

 eigenvalue-minimisations  :   120
 total energy-change (2. order) :-0.5712562E-01  (-0.5706972E-01)
 number of electron      56.0000026 magnetization 
 augmentation part       -5.1517782 magnetization 

 Broyden mixing:
  rms(total) = 0.13924E+01    rms(broyden)= 0.13923E+01
  rms(prec ) = 0.14883E+01
  weight for this iteration     100.00

 Free energy of the ion-electron system (eV)
  ---------------------------------------------------
  alpha Z        PSCENC =         3.06652414
  Ewald energy   TEWEN  =      2629.98113996
  -Hartree energ DENC   =     -3438.33283487
  -exchange      EXHF   =         0.00000000
  -V(xc)+E(xc)   XCENC  =       -45.35412413
  PAW double counting   =       915.55359980     -764.60851948
  entropy T*S    EENTRO =        -0.00000000
  eigenvalues    EBANDS =      -648.10176214
  atomic energy  EATOM  =      1245.75497486
  Solvation  Ediel_sol  =         0.00000000
  ---------------------------------------------------
  free energy    TOTEN  =      -102.04100185 eV

  energy without entropy =     -102.04100185  energy(sigma->0) =     -102.04100185


--------------------------------------------------------------------------------------------------------




--------------------------------------- Iteration      1(   6)  ---------------------------------------


    POTLOK:  cpu time    0.9409: real time    0.9411
    SETDIJ:  cpu time    0.0060: real time    0.0062
     EDDAV:  cpu time    4.1414: real time    4.1393
       DOS:  cpu time    0.0000: real time    0.0002
    CHARGE:  cpu time    0.2290: real time    0.2288
    MIXING:  cpu time    0.0250: real time    0.0248
    --------------------------------------------
      LOOP:  cpu time    5.3422: real time    5.3404

 eigenvalue-minimisations  :   104
 total energy-change (2. order) : 0.3079239E+01  (-0.1539864E+00)
 number of electron      56.0000025 magnetization 
 augmentation part       -5.1520964 magnetization 

 Broyden mixing:
  rms(total) = 0.80210E+00    rms(broyden)= 0.80210E+00
  rms(prec ) = 0.86107E+00
  weight for this iteration     100.00

 eigenvalues of (default mixing * dielectric matrix)
  average eigenvalue GAMMA=   2.2871
  2.2871

 Free energy of the ion-electron system (eV)
  ---------------------------------------------------
  alpha Z        PSCENC =         3.06652414
  Ewald energy   TEWEN  =      2629.98113996
  -Hartree energ DENC   =     -3468.73204001
  -exchange      EXHF   =         0.00000000
  -V(xc)+E(xc)   XCENC  =       -41.74353686
  PAW double counting   =      1663.02336454    -1513.07104365
  entropy T*S    EENTRO =        -0.00000000
  eigenvalues    EBANDS =      -617.24114605
  atomic energy  EATOM  =      1245.75497486
  Solvation  Ediel_sol  =         0.00000000
  ---------------------------------------------------
  free energy    TOTEN  =       -98.96176306 eV

  energy without entropy =      -98.96176306  energy(sigma->0) =      -98.96176306


--------------------------------------------------------------------------------------------------------




--------------------------------------- Iteration      1(   7)  ---------------------------------------


    POTLOK:  cpu time    0.9449: real time    0.9444
    SETDIJ:  cpu time    0.0060: real time    0.0062
     EDDAV:  cpu time    4.2334: real time    4.2307
       DOS:  cpu time    0.0000: real time    0.0002
    CHARGE:  cpu time    0.2380: real time    0.2374
    MIXING:  cpu time    0.0270: real time    0.0268
    --------------------------------------------
      LOOP:  cpu time    5.4492: real time    5.4458

 eigenvalue-minimisations  :   104
 total energy-change (2. order) : 0.1605464E+01  (-0.3826677E+00)
 number of electron      56.0000023 magnetization 
 augmentation part       -5.1504652 magnetization 

 Broyden mixing:
  rms(total) = 0.11959E+00    rms(broyden)= 0.11944E+00
  rms(prec ) = 0.15097E+00
  weight for this iteration     100.00

 eigenvalues of (default mixing * dielectric matrix)
  average eigenvalue GAMMA=   1.8612
  1.8612  1.8612

 Free energy of the ion-electron system (eV)
  ---------------------------------------------------
  alpha Z        PSCENC =         3.06652414
  Ewald energy   TEWEN  =      2629.98113996
  -Hartree energ DENC   =     -3522.40656273
  -exchange      EXHF   =         0.00000000
  -V(xc)+E(xc)   XCENC  =       -36.08342448
  PAW double counting   =      3214.02950902    -3065.38373036
  entropy T*S    EENTRO =        -0.00000000
  eigenvalues    EBANDS =      -566.31472909
  atomic energy  EATOM  =      1245.75497486
  Solvation  Ediel_sol  =         0.00000000
  ---------------------------------------------------
  free energy    TOTEN  =       -97.35629867 eV

  energy without entropy =      -97.35629867  energy(sigma->0) =      -97.35629867


--------------------------------------------------------------------------------------------------------




--------------------------------------- Iteration      1(   8)  ---------------------------------------


    POTLOK:  cpu time    0.9659: real time    0.9653
    SETDIJ:  cpu time    0.0060: real time    0.0063
     EDDAV:  cpu time    4.3943: real time    4.3913
       DOS:  cpu time    0.0000: real time    0.0002
    CHARGE:  cpu time    0.2300: real time    0.2299
    MIXING:  cpu time    0.0270: real time    0.0269
    --------------------------------------------
      LOOP:  cpu time    5.6231: real time    5.6199

 eigenvalue-minimisations  :   112
 total energy-change (2. order) : 0.5802991E-01  (-0.2526886E-01)
 number of electron      56.0000023 magnetization 
 augmentation part       -5.1400762 magnetization 

 Broyden mixing:
  rms(total) = 0.56961E-01    rms(broyden)= 0.56947E-01
  rms(prec ) = 0.76449E-01
  weight for this iteration     100.00

 eigenvalues of (default mixing * dielectric matrix)
  average eigenvalue GAMMA=   1.9833
  2.6702  1.6399  1.6399

 Free energy of the ion-electron system (eV)
  ---------------------------------------------------
  alpha Z        PSCENC =         3.06652414
  Ewald energy   TEWEN  =      2629.98113996
  -Hartree energ DENC   =     -3531.22765346
  -exchange      EXHF   =         0.00000000
  -V(xc)+E(xc)   XCENC  =       -36.03342964
  PAW double counting   =      3262.10212535    -3113.38130990
  entropy T*S    EENTRO =        -0.00000000
  eigenvalues    EBANDS =      -557.56064008
  atomic energy  EATOM  =      1245.75497486
  Solvation  Ediel_sol  =         0.00000000
  ---------------------------------------------------
  free energy    TOTEN  =       -97.29826877 eV

  energy without entropy =      -97.29826877  energy(sigma->0) =      -97.29826877


--------------------------------------------------------------------------------------------------------




--------------------------------------- Iteration      1(   9)  ---------------------------------------


    POTLOK:  cpu time    0.9669: real time    0.9660
    SETDIJ:  cpu time    0.0060: real time    0.0063
     EDDAV:  cpu time    4.3873: real time    4.3856
       DOS:  cpu time    0.0010: real time    0.0002
    CHARGE:  cpu time    0.2290: real time    0.2291
    MIXING:  cpu time    0.0280: real time    0.0284
    --------------------------------------------
      LOOP:  cpu time    5.6181: real time    5.6156

 eigenvalue-minimisations  :   112
 total energy-change (2. order) : 0.3549461E-01  (-0.6622136E-02)
 number of electron      56.0000023 magnetization 
 augmentation part       -5.1228644 magnetization 

 Broyden mixing:
  rms(total) = 0.30578E-01    rms(broyden)= 0.30577E-01
  rms(prec ) = 0.42392E-01
  weight for this iteration     100.00

 eigenvalues of (default mixing * dielectric matrix)
  average eigenvalue GAMMA=   1.7587
  2.5293  1.8328  1.8328  0.8400

 Free energy of the ion-electron system (eV)
  ---------------------------------------------------
  alpha Z        PSCENC =         3.06652414
  Ewald energy   TEWEN  =      2629.98113996
  -Hartree energ DENC   =     -3542.88124670
  -exchange      EXHF   =         0.00000000
  -V(xc)+E(xc)   XCENC  =       -35.32433924
  PAW double counting   =      3382.22172163    -3233.55877321
  entropy T*S    EENTRO =        -0.00000000
  eigenvalues    EBANDS =      -546.52277560
  atomic energy  EATOM  =      1245.75497486
  Solvation  Ediel_sol  =         0.00000000
  ---------------------------------------------------
  free energy    TOTEN  =       -97.26277416 eV

  energy without entropy =      -97.26277416  energy(sigma->0) =      -97.26277416


--------------------------------------------------------------------------------------------------------




--------------------------------------- Iteration      1(  10)  ---------------------------------------


    POTLOK:  cpu time    0.9669: real time    0.9675
    SETDIJ:  cpu time    0.0060: real time    0.0062
     EDDAV:  cpu time    4.3753: real time    4.3744
       DOS:  cpu time    0.0000: real time    0.0002
    CHARGE:  cpu time    0.2300: real time    0.2298
    MIXING:  cpu time    0.0290: real time    0.0290
    --------------------------------------------
      LOOP:  cpu time    5.6071: real time    5.6072

 eigenvalue-minimisations  :   112
 total energy-change (2. order) :-0.5825251E-03  (-0.2258583E-03)
 number of electron      56.0000023 magnetization 
 augmentation part       -5.1224968 magnetization 

 Broyden mixing:
  rms(total) = 0.12832E-01    rms(broyden)= 0.12832E-01
  rms(prec ) = 0.26391E-01
  weight for this iteration     100.00

 eigenvalues of (default mixing * dielectric matrix)
  average eigenvalue GAMMA=   1.9591
  3.0286  2.5212  1.0040  1.6210  1.6210

 Free energy of the ion-electron system (eV)
  ---------------------------------------------------
  alpha Z        PSCENC =         3.06652414
  Ewald energy   TEWEN  =      2629.98113996
  -Hartree energ DENC   =     -3545.18103317
  -exchange      EXHF   =         0.00000000
  -V(xc)+E(xc)   XCENC  =       -35.31592649
  PAW double counting   =      3316.92332284    -3168.20543854
  entropy T*S    EENTRO =        -0.00000000
  eigenvalues    EBANDS =      -544.28692029
  atomic energy  EATOM  =      1245.75497486
  Solvation  Ediel_sol  =         0.00000000
  ---------------------------------------------------
  free energy    TOTEN  =       -97.26335668 eV

  energy without entropy =      -97.26335668  energy(sigma->0) =      -97.26335668


--------------------------------------------------------------------------------------------------------




--------------------------------------- Iteration      1(  11)  ---------------------------------------


    POTLOK:  cpu time    0.9679: real time    0.9667
    SETDIJ:  cpu time    0.0060: real time    0.0063
     EDDAV:  cpu time    4.1314: real time    4.1301
       DOS:  cpu time    0.0010: real time    0.0004
    CHARGE:  cpu time    0.2300: real time    0.2303
    MIXING:  cpu time    0.0300: real time    0.0294
    --------------------------------------------
      LOOP:  cpu time    5.3662: real time    5.3632

 eigenvalue-minimisations  :   104
 total energy-change (2. order) :-0.2456881E-04  (-0.6893784E-03)
 number of electron      56.0000023 magnetization 
 augmentation part       -5.1208568 magnetization 

 Broyden mixing:
  rms(total) = 0.88401E-02    rms(broyden)= 0.88398E-02
  rms(prec ) = 0.14297E-01
  weight for this iteration     100.00

 eigenvalues of (default mixing * dielectric matrix)
  average eigenvalue GAMMA=   1.9040
  3.3266  2.6331  1.7436  1.7436  0.9440  1.0329

 Free energy of the ion-electron system (eV)
  ---------------------------------------------------
  alpha Z        PSCENC =         3.06652414
  Ewald energy   TEWEN  =      2629.98113996
  -Hartree energ DENC   =     -3552.04802324
  -exchange      EXHF   =         0.00000000
  -V(xc)+E(xc)   XCENC  =       -35.11777543
  PAW double counting   =      3288.07468304    -3139.31848573
  entropy T*S    EENTRO =        -0.00000000
  eigenvalues    EBANDS =      -537.65641885
  atomic energy  EATOM  =      1245.75497486
  Solvation  Ediel_sol  =         0.00000000
  ---------------------------------------------------
  free energy    TOTEN  =       -97.26338125 eV

  energy without entropy =      -97.26338125  energy(sigma->0) =      -97.26338125


--------------------------------------------------------------------------------------------------------




--------------------------------------- Iteration      1(  12)  ---------------------------------------


    POTLOK:  cpu time    0.9689: real time    0.9682
    SETDIJ:  cpu time    0.0060: real time    0.0062
     EDDAV:  cpu time    4.0674: real time    4.0664
       DOS:  cpu time    0.0010: real time    0.0003
    CHARGE:  cpu time    0.2290: real time    0.2290
    MIXING:  cpu time    0.0300: real time    0.0307
    --------------------------------------------
      LOOP:  cpu time    5.3022: real time    5.3009

 eigenvalue-minimisations  :   102
 total energy-change (2. order) :-0.5290875E-02  (-0.1353823E-03)
 number of electron      56.0000023 magnetization 
 augmentation part       -5.1198827 magnetization 

 Broyden mixing:
  rms(total) = 0.49381E-02    rms(broyden)= 0.49380E-02
  rms(prec ) = 0.86527E-02
  weight for this iteration     100.00

 eigenvalues of (default mixing * dielectric matrix)
  average eigenvalue GAMMA=   2.1205
  4.7687  2.5918  2.4072  1.5558  1.5558  0.9821  0.9821

 Free energy of the ion-electron system (eV)
  ---------------------------------------------------
  alpha Z        PSCENC =         3.06652414
  Ewald energy   TEWEN  =      2629.98113996
  -Hartree energ DENC   =     -3554.40586298
  -exchange      EXHF   =         0.00000000
  -V(xc)+E(xc)   XCENC  =       -35.07846429
  PAW double counting   =      3288.01262823    -3139.26143901
  entropy T*S    EENTRO =        -0.00000000
  eigenvalues    EBANDS =      -535.33817304
  atomic energy  EATOM  =      1245.75497486
  Solvation  Ediel_sol  =         0.00000000
  ---------------------------------------------------
  free energy    TOTEN  =       -97.26867212 eV

  energy without entropy =      -97.26867212  energy(sigma->0) =      -97.26867212


--------------------------------------------------------------------------------------------------------




--------------------------------------- Iteration      1(  13)  ---------------------------------------


    POTLOK:  cpu time    0.9689: real time    0.9685
    SETDIJ:  cpu time    0.0060: real time    0.0063
     EDDAV:  cpu time    4.3873: real time    4.3862
       DOS:  cpu time    0.0010: real time    0.0004
    CHARGE:  cpu time    0.2290: real time    0.2296
    MIXING:  cpu time    0.0340: real time    0.0321
    --------------------------------------------
      LOOP:  cpu time    5.6261: real time    5.6232

 eigenvalue-minimisations  :   112
 total energy-change (2. order) :-0.4078888E-02  (-0.1281596E-03)
 number of electron      56.0000023 magnetization 
 augmentation part       -5.1195261 magnetization 

 Broyden mixing:
  rms(total) = 0.32729E-02    rms(broyden)= 0.32728E-02
  rms(prec ) = 0.49464E-02
  weight for this iteration     100.00

 eigenvalues of (default mixing * dielectric matrix)
  average eigenvalue GAMMA=   2.2472
  5.8131  2.9965  2.3360  1.8320  1.8320  0.9917  0.9917  1.1845

 Free energy of the ion-electron system (eV)
  ---------------------------------------------------
  alpha Z        PSCENC =         3.06652414
  Ewald energy   TEWEN  =      2629.98113996
  -Hartree energ DENC   =     -3556.71833087
  -exchange      EXHF   =         0.00000000
  -V(xc)+E(xc)   XCENC  =       -35.03334099
  PAW double counting   =      3293.95076769    -3145.20857393
  entropy T*S    EENTRO =        -0.00000000
  eigenvalues    EBANDS =      -533.06591187
  atomic energy  EATOM  =      1245.75497486
  Solvation  Ediel_sol  =         0.00000000
  ---------------------------------------------------
  free energy    TOTEN  =       -97.27275101 eV

  energy without entropy =      -97.27275101  energy(sigma->0) =      -97.27275101


--------------------------------------------------------------------------------------------------------




--------------------------------------- Iteration      1(  14)  ---------------------------------------


    POTLOK:  cpu time    0.9639: real time    0.9644
    SETDIJ:  cpu time    0.0060: real time    0.0062
     EDDAV:  cpu time    4.3653: real time    4.3636
       DOS:  cpu time    0.0000: real time    0.0004
    CHARGE:  cpu time    0.2300: real time    0.2298
    MIXING:  cpu time    0.0340: real time    0.0340
    --------------------------------------------
      LOOP:  cpu time    5.5991: real time    5.5983

 eigenvalue-minimisations  :   112
 total energy-change (2. order) :-0.4521329E-02  (-0.3934907E-04)
 number of electron      56.0000023 magnetization 
 augmentation part       -5.1188750 magnetization 

 Broyden mixing:
  rms(total) = 0.13549E-02    rms(broyden)= 0.13549E-02
  rms(prec ) = 0.24532E-02
  weight for this iteration     100.00

 eigenvalues of (default mixing * dielectric matrix)
  average eigenvalue GAMMA=   2.3304
  6.6446  3.1755  2.7256  2.0736  1.6426  1.6426  1.1576  0.9558  0.9558

 Free energy of the ion-electron system (eV)
  ---------------------------------------------------
  alpha Z        PSCENC =         3.06652414
  Ewald energy   TEWEN  =      2629.98113996
  -Hartree energ DENC   =     -3557.41800548
  -exchange      EXHF   =         0.00000000
  -V(xc)+E(xc)   XCENC  =       -35.05008626
  PAW double counting   =      3293.82643333    -3145.08325243
  entropy T*S    EENTRO =        -0.00000000
  eigenvalues    EBANDS =      -532.35500047
  atomic energy  EATOM  =      1245.75497486
  Solvation  Ediel_sol  =         0.00000000
  ---------------------------------------------------
  free energy    TOTEN  =       -97.27727234 eV

  energy without entropy =      -97.27727234  energy(sigma->0) =      -97.27727234


--------------------------------------------------------------------------------------------------------




--------------------------------------- Iteration      1(  15)  ---------------------------------------


    POTLOK:  cpu time    0.9619: real time    0.9616
    SETDIJ:  cpu time    0.0060: real time    0.0062
     EDDAV:  cpu time    4.3793: real time    4.3769
       DOS:  cpu time    0.0000: real time    0.0004
    CHARGE:  cpu time    0.2290: real time    0.2293
    MIXING:  cpu time    0.0370: real time    0.0372
    --------------------------------------------
      LOOP:  cpu time    5.6141: real time    5.6116

 eigenvalue-minimisations  :   112
 total energy-change (2. order) :-0.3768835E-02  (-0.4300443E-04)
 number of electron      56.0000023 magnetization 
 augmentation part       -5.1188084 magnetization 

 Broyden mixing:
  rms(total) = 0.11415E-02    rms(broyden)= 0.11415E-02
  rms(prec ) = 0.15737E-02
  weight for this iteration     100.00

 eigenvalues of (default mixing * dielectric matrix)
  average eigenvalue GAMMA=   2.3227
  6.7559  3.8730  2.6052  1.9442  1.9442  1.9505  1.2329  0.9397  0.9907  0.9907

 Free energy of the ion-electron system (eV)
  ---------------------------------------------------
  alpha Z        PSCENC =         3.06652414
  Ewald energy   TEWEN  =      2629.98113996
  -Hartree energ DENC   =     -3557.57271179
  -exchange      EXHF   =         0.00000000
  -V(xc)+E(xc)   XCENC  =       -35.05549559
  PAW double counting   =      3295.92275075    -3147.17915233
  entropy T*S    EENTRO =        -0.00000000
  eigenvalues    EBANDS =      -532.19907117
  atomic energy  EATOM  =      1245.75497486
  Solvation  Ediel_sol  =         0.00000000
  ---------------------------------------------------
  free energy    TOTEN  =       -97.28104118 eV

  energy without entropy =      -97.28104118  energy(sigma->0) =      -97.28104118


--------------------------------------------------------------------------------------------------------




--------------------------------------- Iteration      1(  16)  ---------------------------------------


    POTLOK:  cpu time    0.9599: real time    0.9596
    SETDIJ:  cpu time    0.0070: real time    0.0066
     EDDAV:  cpu time    4.3753: real time    4.3735
       DOS:  cpu time    0.0010: real time    0.0006
    CHARGE:  cpu time    0.2300: real time    0.2303
    MIXING:  cpu time    0.0390: real time    0.0390
    --------------------------------------------
      LOOP:  cpu time    5.6111: real time    5.6096

 eigenvalue-minimisations  :   112
 total energy-change (2. order) :-0.1063001E-02  (-0.6286572E-05)
 number of electron      56.0000023 magnetization 
 augmentation part       -5.1191057 magnetization 

 Broyden mixing:
  rms(total) = 0.50058E-03    rms(broyden)= 0.50057E-03
  rms(prec ) = 0.81720E-03
  weight for this iteration     100.00

 eigenvalues of (default mixing * dielectric matrix)
  average eigenvalue GAMMA=   2.4703
  7.5141  4.8997  2.7002  2.7002  1.8281  1.8281  1.3849  1.3849  0.9876  0.9876
  0.9575

 Free energy of the ion-electron system (eV)
  ---------------------------------------------------
  alpha Z        PSCENC =         3.06652414
  Ewald energy   TEWEN  =      2629.98113996
  -Hartree energ DENC   =     -3557.64943690
  -exchange      EXHF   =         0.00000000
  -V(xc)+E(xc)   XCENC  =       -35.05455947
  PAW double counting   =      3295.21578862    -3146.47136164
  entropy T*S    EENTRO =        -0.00000000
  eigenvalues    EBANDS =      -532.12517375
  atomic energy  EATOM  =      1245.75497486
  Solvation  Ediel_sol  =         0.00000000
  ---------------------------------------------------
  free energy    TOTEN  =       -97.28210418 eV

  energy without entropy =      -97.28210418  energy(sigma->0) =      -97.28210418


--------------------------------------------------------------------------------------------------------




--------------------------------------- Iteration      1(  17)  ---------------------------------------


    POTLOK:  cpu time    0.9589: real time    0.9581
    SETDIJ:  cpu time    0.0060: real time    0.0062
     EDDAV:  cpu time    4.3703: real time    4.3689
       DOS:  cpu time    0.0010: real time    0.0006
    CHARGE:  cpu time    0.2280: real time    0.2285
    MIXING:  cpu time    0.0440: real time    0.0431
    --------------------------------------------
      LOOP:  cpu time    5.6081: real time    5.6054

 eigenvalue-minimisations  :   112
 total energy-change (2. order) :-0.9317274E-03  (-0.7563072E-05)
 number of electron      56.0000023 magnetization 
 augmentation part       -5.1192595 magnetization 

 Broyden mixing:
  rms(total) = 0.29850E-03    rms(broyden)= 0.29847E-03
  rms(prec ) = 0.42936E-03
  weight for this iteration     100.00

 eigenvalues of (default mixing * dielectric matrix)
  average eigenvalue GAMMA=   2.4968
  7.6988  5.4524  2.9152  2.5502  2.2451  1.7475  1.7475  1.3380  1.3380  0.9792
  0.9792  0.9700

 Free energy of the ion-electron system (eV)
  ---------------------------------------------------
  alpha Z        PSCENC =         3.06652414
  Ewald energy   TEWEN  =      2629.98113996
  -Hartree energ DENC   =     -3557.65727523
  -exchange      EXHF   =         0.00000000
  -V(xc)+E(xc)   XCENC  =       -35.05740941
  PAW double counting   =      3293.90191300    -3145.15645763
  entropy T*S    EENTRO =        -0.00000000
  eigenvalues    EBANDS =      -532.11644559
  atomic energy  EATOM  =      1245.75497486
  Solvation  Ediel_sol  =         0.00000000
  ---------------------------------------------------
  free energy    TOTEN  =       -97.28303590 eV

  energy without entropy =      -97.28303590  energy(sigma->0) =      -97.28303590


--------------------------------------------------------------------------------------------------------




--------------------------------------- Iteration      1(  18)  ---------------------------------------


    POTLOK:  cpu time    0.9599: real time    0.9607
    SETDIJ:  cpu time    0.0070: real time    0.0063
     EDDAV:  cpu time    4.1354: real time    4.1331
       DOS:  cpu time    0.0000: real time    0.0006
    CHARGE:  cpu time    0.2320: real time    0.2314
    MIXING:  cpu time    0.0470: real time    0.0477
    --------------------------------------------
      LOOP:  cpu time    5.3812: real time    5.3797

 eigenvalue-minimisations  :   104
 total energy-change (2. order) :-0.2689921E-03  (-0.1073520E-05)
 number of electron      56.0000023 magnetization 
 augmentation part       -5.1192137 magnetization 

 Broyden mixing:
  rms(total) = 0.20417E-03    rms(broyden)= 0.20414E-03
  rms(prec ) = 0.25602E-03
  weight for this iteration     100.00

 eigenvalues of (default mixing * dielectric matrix)
  average eigenvalue GAMMA=   2.5179
  8.2022  5.8847  3.2593  2.5241  2.5241  1.8129  1.8129  1.3763  1.3763  0.9565
  0.9565  1.0233  1.0233

 Free energy of the ion-electron system (eV)
  ---------------------------------------------------
  alpha Z        PSCENC =         3.06652414
  Ewald energy   TEWEN  =      2629.98113996
  -Hartree energ DENC   =     -3557.71559961
  -exchange      EXHF   =         0.00000000
  -V(xc)+E(xc)   XCENC  =       -35.05532310
  PAW double counting   =      3294.30010120    -3145.55551292
  entropy T*S    EENTRO =        -0.00000000
  eigenvalues    EBANDS =      -532.05960944
  atomic energy  EATOM  =      1245.75497486
  Solvation  Ediel_sol  =         0.00000000
  ---------------------------------------------------
  free energy    TOTEN  =       -97.28330490 eV

  energy without entropy =      -97.28330490  energy(sigma->0) =      -97.28330490


--------------------------------------------------------------------------------------------------------




--------------------------------------- Iteration      1(  19)  ---------------------------------------


    POTLOK:  cpu time    0.9689: real time    0.9684
    SETDIJ:  cpu time    0.0060: real time    0.0063
     EDDAV:  cpu time    3.8874: real time    3.8864
       DOS:  cpu time    0.0010: real time    0.0005
    CHARGE:  cpu time    0.2300: real time    0.2297
    MIXING:  cpu time    0.0540: real time    0.0537
    --------------------------------------------
      LOOP:  cpu time    5.1472: real time    5.1450

 eigenvalue-minimisations  :    96
 total energy-change (2. order) :-0.9454090E-04  (-0.2438665E-06)
 number of electron      56.0000023 magnetization 
 augmentation part       -5.1192132 magnetization 

 Broyden mixing:
  rms(total) = 0.10953E-03    rms(broyden)= 0.10953E-03
  rms(prec ) = 0.14563E-03
  weight for this iteration     100.00

 eigenvalues of (default mixing * dielectric matrix)
  average eigenvalue GAMMA=   2.5429
  8.4859  6.1857  3.6490  2.6814  2.2824  2.2824  1.7223  1.7223  1.3329  1.3329
  0.9593  0.9593  1.0021  1.0021

 Free energy of the ion-electron system (eV)
  ---------------------------------------------------
  alpha Z        PSCENC =         3.06652414
  Ewald energy   TEWEN  =      2629.98113996
  -Hartree energ DENC   =     -3557.71562624
  -exchange      EXHF   =         0.00000000
  -V(xc)+E(xc)   XCENC  =       -35.05563831
  PAW double counting   =      3294.10811499    -3145.36357550
  entropy T*S    EENTRO =        -0.00000000
  eigenvalues    EBANDS =      -532.05931335
  atomic energy  EATOM  =      1245.75497486
  Solvation  Ediel_sol  =         0.00000000
  ---------------------------------------------------
  free energy    TOTEN  =       -97.28339944 eV

  energy without entropy =      -97.28339944  energy(sigma->0) =      -97.28339944


--------------------------------------------------------------------------------------------------------




--------------------------------------- Iteration      1(  20)  ---------------------------------------


    POTLOK:  cpu time    0.9639: real time    0.9634
    SETDIJ:  cpu time    0.0060: real time    0.0064
     EDDAV:  cpu time    3.6394: real time    3.6375
       DOS:  cpu time    0.0000: real time    0.0007
    CHARGE:  cpu time    0.2300: real time    0.2300
    MIXING:  cpu time    0.0600: real time    0.0600
    --------------------------------------------
      LOOP:  cpu time    4.8993: real time    4.8980

 eigenvalue-minimisations  :    88
 total energy-change (2. order) :-0.4635056E-04  (-0.1021706E-06)
 number of electron      56.0000023 magnetization 
 augmentation part       -5.1191926 magnetization 

 Broyden mixing:
  rms(total) = 0.64218E-04    rms(broyden)= 0.64217E-04
  rms(prec ) = 0.82975E-04
  weight for this iteration     100.00

 eigenvalues of (default mixing * dielectric matrix)
  average eigenvalue GAMMA=   2.5774
  8.5729  6.5773  4.2001  3.0085  2.5507  2.1364  1.8790  1.8790  1.4103  1.4103
  1.1232  0.9983  0.9983  0.9926  0.9248

 Free energy of the ion-electron system (eV)
  ---------------------------------------------------
  alpha Z        PSCENC =         3.06652414
  Ewald energy   TEWEN  =      2629.98113996
  -Hartree energ DENC   =     -3557.71821839
  -exchange      EXHF   =         0.00000000
  -V(xc)+E(xc)   XCENC  =       -35.05648298
  PAW double counting   =      3294.04906779    -3145.30441768
  entropy T*S    EENTRO =        -0.00000000
  eigenvalues    EBANDS =      -532.05603350
  atomic energy  EATOM  =      1245.75497486
  Solvation  Ediel_sol  =         0.00000000
  ---------------------------------------------------
  free energy    TOTEN  =       -97.28344579 eV

  energy without entropy =      -97.28344579  energy(sigma->0) =      -97.28344579


--------------------------------------------------------------------------------------------------------




--------------------------------------- Iteration      1(  21)  ---------------------------------------


    POTLOK:  cpu time    0.9559: real time    0.9556
    SETDIJ:  cpu time    0.0060: real time    0.0063
     EDDAV:  cpu time    3.6444: real time    3.6425
       DOS:  cpu time    0.0000: real time    0.0003
    CHARGE:  cpu time    0.2300: real time    0.2412
    MIXING:  cpu time    0.0670: real time    0.0670
    --------------------------------------------
      LOOP:  cpu time    4.9033: real time    4.9131

 eigenvalue-minimisations  :    88
 total energy-change (2. order) :-0.1742657E-04  (-0.5331521E-07)
 number of electron      56.0000023 magnetization 
 augmentation part       -5.1191945 magnetization 

 Broyden mixing:
  rms(total) = 0.31520E-04    rms(broyden)= 0.31517E-04
  rms(prec ) = 0.42535E-04
  weight for this iteration     100.00

 eigenvalues of (default mixing * dielectric matrix)
  average eigenvalue GAMMA=   2.5479
  8.6407  6.7493  4.3615  3.0989  2.4250  2.4250  1.8109  1.8109  1.6181  1.6181
  1.1317  1.1317  1.0228  0.9744  0.9744  0.9728

 Free energy of the ion-electron system (eV)
  ---------------------------------------------------
  alpha Z        PSCENC =         3.06652414
  Ewald energy   TEWEN  =      2629.98113996
  -Hartree energ DENC   =     -3557.72005190
  -exchange      EXHF   =         0.00000000
  -V(xc)+E(xc)   XCENC  =       -35.05642839
  PAW double counting   =      3294.14030596    -3145.39564235
  entropy T*S    EENTRO =        -0.00000000
  eigenvalues    EBANDS =      -532.05428550
  atomic energy  EATOM  =      1245.75497486
  Solvation  Ediel_sol  =         0.00000000
  ---------------------------------------------------
  free energy    TOTEN  =       -97.28346321 eV

  energy without entropy =      -97.28346321  energy(sigma->0) =      -97.28346321


--------------------------------------------------------------------------------------------------------




--------------------------------------- Iteration      1(  22)  ---------------------------------------


    POTLOK:  cpu time    1.1178: real time    1.3491
    SETDIJ:  cpu time    0.0070: real time    0.0062
     EDDAV:  cpu time    3.6514: real time    3.6507
       DOS:  cpu time    0.0010: real time    0.0004
    CHARGE:  cpu time    0.2370: real time    0.2373
    MIXING:  cpu time    0.0730: real time    0.0732
    --------------------------------------------
      LOOP:  cpu time    5.0872: real time    5.3168

 eigenvalue-minimisations  :    88
 total energy-change (2. order) :-0.5591167E-05  (-0.1407514E-07)
 number of electron      56.0000023 magnetization 
 augmentation part       -5.1192092 magnetization 

 Broyden mixing:
  rms(total) = 0.19876E-04    rms(broyden)= 0.19875E-04
  rms(prec ) = 0.27427E-04
  weight for this iteration     100.00

 eigenvalues of (default mixing * dielectric matrix)
  average eigenvalue GAMMA=   2.5794
  8.8526  6.7988  4.8594  3.2510  2.5870  2.5870  1.9406  1.9406  1.9968  1.4585
  1.4585  1.1169  1.1169  0.9736  0.9736  0.9689  0.9689

 Free energy of the ion-electron system (eV)
  ---------------------------------------------------
  alpha Z        PSCENC =         3.06652414
  Ewald energy   TEWEN  =      2629.98113996
  -Hartree energ DENC   =     -3557.71838021
  -exchange      EXHF   =         0.00000000
  -V(xc)+E(xc)   XCENC  =       -35.05631833
  PAW double counting   =      3294.12024525    -3145.37554113
  entropy T*S    EENTRO =        -0.00000000
  eigenvalues    EBANDS =      -532.05611335
  atomic energy  EATOM  =      1245.75497486
  Solvation  Ediel_sol  =         0.00000000
  ---------------------------------------------------
  free energy    TOTEN  =       -97.28346881 eV

  energy without entropy =      -97.28346881  energy(sigma->0) =      -97.28346881


--------------------------------------------------------------------------------------------------------




--------------------------------------- Iteration      1(  23)  ---------------------------------------


    POTLOK:  cpu time    0.9649: real time    0.9641
    SETDIJ:  cpu time    0.0060: real time    0.0062
     EDDAV:  cpu time    3.4005: real time    3.3987
       DOS:  cpu time    0.0000: real time    0.0003
    CHARGE:  cpu time    0.2320: real time    0.2306
    MIXING:  cpu time    0.0810: real time    0.0806
    --------------------------------------------
      LOOP:  cpu time    4.6843: real time    4.6805

 eigenvalue-minimisations  :    80
 total energy-change (2. order) :-0.3168194E-05  (-0.6300935E-08)
 number of electron      56.0000023 magnetization 
 augmentation part       -5.1192095 magnetization 

 Broyden mixing:
  rms(total) = 0.95834E-05    rms(broyden)= 0.95821E-05
  rms(prec ) = 0.13266E-04
  weight for this iteration     100.00

 eigenvalues of (default mixing * dielectric matrix)
  average eigenvalue GAMMA=   2.6103
  8.8951  6.9717  5.2452  3.6168  2.8128  2.8128  2.2150  1.8789  1.8789  1.6666
  1.6666  1.1747  1.1747  0.9659  0.9659  0.9937  1.0253  1.0253

 Free energy of the ion-electron system (eV)
  ---------------------------------------------------
  alpha Z        PSCENC =         3.06652414
  Ewald energy   TEWEN  =      2629.98113996
  -Hartree energ DENC   =     -3557.72038127
  -exchange      EXHF   =         0.00000000
  -V(xc)+E(xc)   XCENC  =       -35.05634454
  PAW double counting   =      3294.10386928    -3145.35918482
  entropy T*S    EENTRO =        -0.00000000
  eigenvalues    EBANDS =      -532.05406960
  atomic energy  EATOM  =      1245.75497486
  Solvation  Ediel_sol  =         0.00000000
  ---------------------------------------------------
  free energy    TOTEN  =       -97.28347197 eV

  energy without entropy =      -97.28347197  energy(sigma->0) =      -97.28347197


--------------------------------------------------------------------------------------------------------




--------------------------------------- Iteration      1(  24)  ---------------------------------------


    POTLOK:  cpu time    0.9699: real time    0.9706
    SETDIJ:  cpu time    0.0060: real time    0.0062
     EDDAV:  cpu time    3.6504: real time    3.6473
       DOS:  cpu time    0.0000: real time    0.0003
    CHARGE:  cpu time    0.2320: real time    0.2315
    MIXING:  cpu time    0.0860: real time    0.0868
    --------------------------------------------
      LOOP:  cpu time    4.9442: real time    4.9428

 eigenvalue-minimisations  :    88
 total energy-change (2. order) :-0.1434463E-05  (-0.2539116E-08)
 number of electron      56.0000023 magnetization 
 augmentation part       -5.1192065 magnetization 

 Broyden mixing:
  rms(total) = 0.41175E-05    rms(broyden)= 0.41173E-05
  rms(prec ) = 0.59616E-05
  weight for this iteration     100.00

 eigenvalues of (default mixing * dielectric matrix)
  average eigenvalue GAMMA=   2.6390
  8.9584  7.1650  5.8079  4.0075  3.0950  2.5496  2.3654  2.3654  1.8599  1.8599
  1.4515  1.4515  1.1507  1.1507  0.9965  0.9965  0.9691  0.9691  0.9714

 Free energy of the ion-electron system (eV)
  ---------------------------------------------------
  alpha Z        PSCENC =         3.06652414
  Ewald energy   TEWEN  =      2629.98113996
  -Hartree energ DENC   =     -3557.72122462
  -exchange      EXHF   =         0.00000000
  -V(xc)+E(xc)   XCENC  =       -35.05635885
  PAW double counting   =      3294.09679634    -3145.35212240
  entropy T*S    EENTRO =        -0.00000000
  eigenvalues    EBANDS =      -532.05320284
  atomic energy  EATOM  =      1245.75497486
  Solvation  Ediel_sol  =         0.00000000
  ---------------------------------------------------
  free energy    TOTEN  =       -97.28347341 eV

  energy without entropy =      -97.28347341  energy(sigma->0) =      -97.28347341


--------------------------------------------------------------------------------------------------------




--------------------------------------- Iteration      1(  25)  ---------------------------------------


    POTLOK:  cpu time    0.9759: real time    0.9755
    SETDIJ:  cpu time    0.0220: real time    0.0221
     EDDAV:  cpu time    3.4045: real time    3.4020
       DOS:  cpu time    0.0000: real time    0.0002
    --------------------------------------------
      LOOP:  cpu time    4.4023: real time    4.3997

 eigenvalue-minimisations  :    80
 total energy-change (2. order) :-0.4658762E-06  (-0.5249436E-09)
 number of electron      56.0000023 magnetization 
 augmentation part       -5.1192065 magnetization 

 Free energy of the ion-electron system (eV)
  ---------------------------------------------------
  alpha Z        PSCENC =         3.06652414
  Ewald energy   TEWEN  =      2629.98113996
  -Hartree energ DENC   =     -3557.72117890
  -exchange      EXHF   =         0.00000000
  -V(xc)+E(xc)   XCENC  =       -35.05636742
  PAW double counting   =      3294.09431270    -3145.34963376
  entropy T*S    EENTRO =        -0.00000000
  eigenvalues    EBANDS =      -532.05324546
  atomic energy  EATOM  =      1245.75497486
  Solvation  Ediel_sol  =         0.00000000
  ---------------------------------------------------
  free energy    TOTEN  =       -97.28347387 eV

  energy without entropy =      -97.28347387  energy(sigma->0) =      -97.28347387


--------------------------------------------------------------------------------------------------------




 average (electrostatic) potential at core
  the test charge radii are     0.9892  1.1631  0.5201
  (the norm of the test charge is              1.0000)
       1 -93.4685       2 -93.4685       3 -40.3804       4 -40.4213       5 -40.4213
       6 -40.4614       7 -40.4614       8 -40.4626       9 -40.4212      10 -40.4212
      11 -41.0552      12 -41.0545      13 -41.0386      14 -41.0466      15 -41.0461
      16 -41.0550      17 -41.0562      18 -40.6716      19 -41.0390      20 -41.0544
      21 -41.0552      22 -40.6717      23 -41.0645      24 -41.0646      25 -41.0551
      26 -41.0546
 
 
 
 E-fermi :  -5.3300     XC(G=0):  -0.6119     alpha+bet : -0.3225


 k-point     1 :       0.0000    0.0000    0.0000
  band No.  band energies     occupation 
      1     -15.5275      2.00000
      2     -14.6291      2.00000
      3     -14.3972      2.00000
      4     -14.2592      2.00000
      5     -13.4115      2.00000
      6     -13.4113      2.00000
      7     -11.9489      2.00000
      8     -11.7526      2.00000
      9     -11.4757      2.00000
     10     -10.5922      2.00000
     11      -8.9783      2.00000
     12      -8.6392      2.00000
     13      -8.6388      2.00000
     14      -8.6387      2.00000
     15      -8.1702      2.00000
     16      -8.1657      2.00000
     17      -8.1615      2.00000
     18      -7.8528      2.00000
     19      -7.8473      2.00000
     20      -7.8428      2.00000
     21      -6.7421      2.00000
     22      -6.7417      2.00000
     23      -6.4358      2.00000
     24      -6.4199      2.00000
     25      -6.4147      2.00000
     26      -6.3185      2.00000
     27      -6.3120      2.00000
     28      -6.3012      2.00000
     29      -1.6170      0.00000
     30      -1.1582      0.00000
     31      -1.1531      0.00000
     32      -1.1267      0.00000
     33      -1.0761      0.00000
     34      -1.0435      0.00000
     35      -1.0429      0.00000
     36      -0.9832      0.00000
     37      -0.9352      0.00000
     38      -0.7337      0.00000
     39      -0.2353      0.00000
     40      -0.2120      0.00000
     41      -0.1104      0.00000
     42      -0.0634      0.00000


--------------------------------------------------------------------------------------------------------


 soft charge-density along one line, spin component           1
         0         1         2         3         4         5         6         7         8         9
 total charge-density along one line
 
 pseudopotential strength for first ion, spin component:           1
 19.622  27.384  -0.001   0.004   0.000  -0.002   0.008   0.001
 27.384  38.220  -0.001   0.006   0.001  -0.002   0.011   0.001
 -0.001  -0.001   4.360   0.000   0.000   8.134   0.000   0.000
  0.004   0.006   0.000   4.360  -0.000   0.000   8.133  -0.000
  0.000   0.001   0.000  -0.000   4.360   0.000  -0.000   8.134
 -0.002  -0.002   8.134   0.000   0.000  15.184   0.000   0.000
  0.008   0.011   0.000   8.133  -0.000   0.000  15.182  -0.000
  0.001   0.001   0.000  -0.000   8.134   0.000  -0.000  15.184
 total augmentation occupancy for first ion, spin component:           1
  5.508  -2.014   0.074  -0.352  -0.047  -0.022   0.105   0.013
 -2.014   0.807  -0.044   0.212   0.029   0.010  -0.046  -0.006
  0.074  -0.044   2.794  -0.103  -0.014  -0.601   0.036   0.005
 -0.352   0.212  -0.103   3.267   0.068   0.036  -0.767  -0.024
 -0.047   0.029  -0.014   0.068   2.779   0.005  -0.024  -0.596
 -0.022   0.010  -0.601   0.036   0.005   0.137  -0.010  -0.001
  0.105  -0.046   0.036  -0.767  -0.024  -0.010   0.183   0.007
  0.013  -0.006   0.005  -0.024  -0.596  -0.001   0.007   0.135


------------------------ aborting loop because EDIFF is reached ----------------------------------------


    CHARGE:  cpu time    0.2300: real time    0.2291
    FORLOC:  cpu time    0.1270: real time    0.1270
    FORNL :  cpu time    0.8719: real time    0.8721
    STRESS:  cpu time    2.9675: real time    2.9662
    FORCOR:  cpu time    1.0118: real time    1.0105
    FORHAR:  cpu time    0.3509: real time    0.3513
    MIXING:  cpu time    0.0930: real time    0.0927
    OFIELD:  cpu time    0.0000: real time    0.0000

  FORCE on cell =-STRESS in cart. coord.  units (eV):
  Direction    XX          YY          ZZ          XY          YZ          ZX
  --------------------------------------------------------------------------------------
  Alpha Z     3.06652     3.06652     3.06652
  Ewald     876.64706   876.62235   876.71007    -0.21850     0.02563    -0.50464
  Hartree  1185.98682  1185.45240  1186.28152    -0.15579    -0.12443    -0.64747
  E(xc)    -183.27911  -183.35939  -183.24530     0.01085    -0.02779    -0.02762
  Local   -2525.38306 -2524.89328 -2525.71124     0.38375     0.07460     1.12907
  n-local   205.21252   205.69086   205.01055    -0.06451     0.16565     0.16523
  augment    -0.16051    -0.17123    -0.15479     0.00144    -0.00365    -0.00330
  Kinetic   440.70836   440.47088   440.80971     0.03210    -0.08221    -0.08304
  Fock        0.00000     0.00000     0.00000     0.00000     0.00000     0.00000
  -------------------------------------------------------------------------------------
  Total       2.79858     2.87912     2.76704    -0.01065     0.02781     0.02823
  in kB       0.56048     0.57661     0.55416    -0.00213     0.00557     0.00565
  external pressure =        0.56 kB  Pullay stress =        0.00 kB


 VOLUME and BASIS-vectors are now :
 -----------------------------------------------------------------------------
  energy-cutoff  :      400.00
[...]
    SETDIJ:  cpu time    0.0060: real time    0.0062
     EDDAV:  cpu time    4.6143: real time    4.6128
       DOS:  cpu time    0.0000: real time    0.0002
    CHARGE:  cpu time    0.2300: real time    0.2299
    MIXING:  cpu time    0.0250: real time    0.0251
    --------------------------------------------
      LOOP:  cpu time    5.8461: real time    5.8457

 eigenvalue-minimisations  :   120
 total energy-change (2. order) : 0.1482836E-04  (-0.5580718E-05)
 number of electron      56.0000012 magnetization 
 augmentation part       -5.1022370 magnetization 

 Broyden mixing:
  rms(total) = 0.22338E-02    rms(broyden)= 0.22338E-02
  rms(prec ) = 0.23786E-02
  weight for this iteration     100.00

 eigenvalues of (default mixing * dielectric matrix)
  average eigenvalue GAMMA=   1.6085
  1.0147  2.2023

 Free energy of the ion-electron system (eV)
  ---------------------------------------------------
  alpha Z        PSCENC =         3.06652414
  Ewald energy   TEWEN  =      2555.09671381
  -Hartree energ DENC   =     -3484.70336691
  -exchange      EXHF   =         0.00000000
  -V(xc)+E(xc)   XCENC  =       -35.54415629
  PAW double counting   =      3174.83324065    -3025.95531310
  entropy T*S    EENTRO =        -0.00000000
  eigenvalues    EBANDS =      -530.00918156
  atomic energy  EATOM  =      1245.75497486
  Solvation  Ediel_sol  =         0.00000000
  ---------------------------------------------------
  free energy    TOTEN  =       -97.46056437 eV

  energy without entropy =      -97.46056437  energy(sigma->0) =      -97.46056437


--------------------------------------------------------------------------------------------------------




--------------------------------------- Iteration     14(   4)  ---------------------------------------


    POTLOK:  cpu time    0.9659: real time    0.9657
    SETDIJ:  cpu time    0.0060: real time    0.0063
     EDDAV:  cpu time    4.3753: real time    4.3734
       DOS:  cpu time    0.0000: real time    0.0003
    CHARGE:  cpu time    0.2280: real time    0.2282
    MIXING:  cpu time    0.0360: real time    0.0361
    --------------------------------------------
      LOOP:  cpu time    5.6111: real time    5.6099

 eigenvalue-minimisations  :   112
 total energy-change (2. order) :-0.3199134E-06  (-0.2635667E-05)
 number of electron      56.0000012 magnetization 
 augmentation part       -5.1018905 magnetization 

 Broyden mixing:
  rms(total) = 0.48526E-03    rms(broyden)= 0.48513E-03
  rms(prec ) = 0.54236E-03
  weight for this iteration     100.00

 eigenvalues of (default mixing * dielectric matrix)
  average eigenvalue GAMMA=   1.5165
  2.3568  1.0963  1.0963

 Free energy of the ion-electron system (eV)
  ---------------------------------------------------
  alpha Z        PSCENC =         3.06652414
  Ewald energy   TEWEN  =      2555.09671381
  -Hartree energ DENC   =     -3484.72178896
  -exchange      EXHF   =         0.00000000
  -V(xc)+E(xc)   XCENC  =       -35.54423767
  PAW double counting   =      3176.31134215    -3027.43510689
  entropy T*S    EENTRO =        -0.00000000
  eigenvalues    EBANDS =      -529.98898614
  atomic energy  EATOM  =      1245.75497486
  Solvation  Ediel_sol  =         0.00000000
  ---------------------------------------------------
  free energy    TOTEN  =       -97.46056469 eV

  energy without entropy =      -97.46056469  energy(sigma->0) =      -97.46056469


--------------------------------------------------------------------------------------------------------




--------------------------------------- Iteration     14(   5)  ---------------------------------------


    POTLOK:  cpu time    0.9689: real time    0.9690
    SETDIJ:  cpu time    0.0060: real time    0.0062
     EDDAV:  cpu time    4.3843: real time    4.3841
       DOS:  cpu time    0.0010: real time    0.0002
    --------------------------------------------
      LOOP:  cpu time    5.3602: real time    5.3594

 eigenvalue-minimisations  :   112
 total energy-change (2. order) : 0.5191885E-06  (-0.3766660E-06)
 number of electron      56.0000012 magnetization 
 augmentation part       -5.1018905 magnetization 

 Free energy of the ion-electron system (eV)
  ---------------------------------------------------
  alpha Z        PSCENC =         3.06652414
  Ewald energy   TEWEN  =      2555.09671381
  -Hartree energ DENC   =     -3484.71675459
  -exchange      EXHF   =         0.00000000
  -V(xc)+E(xc)   XCENC  =       -35.54378088
  PAW double counting   =      3176.73408960    -3027.85772093
  entropy T*S    EENTRO =        -0.00000000
  eigenvalues    EBANDS =      -529.99461019
  atomic energy  EATOM  =      1245.75497486
  Solvation  Ediel_sol  =         0.00000000
  ---------------------------------------------------
  free energy    TOTEN  =       -97.46056417 eV

  energy without entropy =      -97.46056417  energy(sigma->0) =      -97.46056417


--------------------------------------------------------------------------------------------------------




 average (electrostatic) potential at core
  the test charge radii are     0.9892  1.1631  0.5201
  (the norm of the test charge is              1.0000)
       1 -93.5230       2 -93.5230       3 -40.4074       4 -40.4521       5 -40.4521
       6 -40.5356       7 -40.5354       8 -40.4979       9 -40.4521      10 -40.4521
      11 -40.9971      12 -40.9974      13 -41.0329      14 -41.0022      15 -41.0030
      16 -40.9973      17 -40.9973      18 -40.9289      19 -41.0325      20 -40.9980
      21 -40.9972      22 -40.9285      23 -40.9974      24 -40.9971      25 -40.9978
      26 -40.9972
 
 
 
 E-fermi :  -5.3164     XC(G=0):  -0.6195     alpha+bet : -0.3225


 k-point     1 :       0.0000    0.0000    0.0000
  band No.  band energies     occupation 
      1     -15.3056      2.00000
      2     -14.4188      2.00000
      3     -14.3113      2.00000
      4     -14.2203      2.00000
      5     -13.3488      2.00000
      6     -13.3467      2.00000
      7     -11.9598      2.00000
      8     -11.8004      2.00000
      9     -11.5800      2.00000
     10     -10.7107      2.00000
     11      -8.9594      2.00000
     12      -8.5261      2.00000
     13      -8.5132      2.00000
     14      -8.5042      2.00000
     15      -8.0892      2.00000
     16      -8.0653      2.00000
     17      -8.0419      2.00000
     18      -7.9342      2.00000
     19      -7.8548      2.00000
     20      -7.7898      2.00000
     21      -6.7861      2.00000
     22      -6.7762      2.00000
     23      -6.4609      2.00000
     24      -6.4041      2.00000
     25      -6.3648      2.00000
     26      -6.3365      2.00000
     27      -6.3006      2.00000
     28      -6.2876      2.00000
     29      -1.5932      0.00000
     30      -1.4191      0.00000
     31      -1.3774      0.00000
     32      -1.1966      0.00000
     33      -1.1771      0.00000
     34      -1.1614      0.00000
     35      -1.1574      0.00000
     36      -1.1108      0.00000
     37      -0.9873      0.00000
     38      -0.8336      0.00000
     39      -0.2501      0.00000
     40      -0.2184      0.00000
     41      -0.1028      0.00000
     42      -0.0717      0.00000


--------------------------------------------------------------------------------------------------------


 soft charge-density along one line, spin component           1
         0         1         2         3         4         5         6         7         8         9
 total charge-density along one line
 
 pseudopotential strength for first ion, spin component:           1
 19.630  27.395  -0.001   0.004   0.001  -0.001   0.007   0.001
 27.395  38.235  -0.001   0.005   0.001  -0.002   0.010   0.001
 -0.001  -0.001   4.362   0.000   0.000   8.137   0.000   0.000
  0.004   0.005   0.000   4.362   0.000   0.000   8.137  -0.000
  0.001   0.001   0.000   0.000   4.362   0.000  -0.000   8.137
 -0.001  -0.002   8.137   0.000   0.000  15.189   0.000   0.000
  0.007   0.010   0.000   8.137  -0.000   0.000  15.189  -0.000
  0.001   0.001   0.000  -0.000   8.137   0.000  -0.000  15.189
 total augmentation occupancy for first ion, spin component:           1
  5.580  -2.050   0.111  -0.532  -0.081  -0.034   0.165   0.025
 -2.050   0.822  -0.062   0.298   0.046   0.015  -0.073  -0.011
  0.111  -0.062   2.754  -0.148  -0.023  -0.591   0.048   0.008
 -0.532   0.298  -0.148   3.431   0.109   0.048  -0.813  -0.036
 -0.081   0.046  -0.023   0.109   2.733   0.008  -0.036  -0.584
 -0.034   0.015  -0.591   0.048   0.008   0.134  -0.014  -0.002
  0.165  -0.073   0.048  -0.813  -0.036  -0.014   0.196   0.010
  0.025  -0.011   0.008  -0.036  -0.584  -0.002   0.010   0.132


------------------------ aborting loop because EDIFF is reached ----------------------------------------


    CHARGE:  cpu time    0.2300: real time    0.2300
    FORLOC:  cpu time    0.1270: real time    0.1267
    FORNL :  cpu time    0.8709: real time    0.8696
    STRESS:  cpu time    3.1175: real time    3.1162
    FORCOR:  cpu time    0.9988: real time    0.9992
    FORHAR:  cpu time    0.3509: real time    0.3509
    MIXING:  cpu time    0.0270: real time    0.0270
    OFIELD:  cpu time    0.0000: real time    0.0000

  FORCE on cell =-STRESS in cart. coord.  units (eV):
  Direction    XX          YY          ZZ          XY          YZ          ZX
  --------------------------------------------------------------------------------------
  Alpha Z     3.06652     3.06652     3.06652
  Ewald     852.34964   848.90618   853.83926     0.09224    -0.75851    -1.38221
  Hartree  1162.38529  1157.97646  1164.33549     0.24096    -1.13266    -1.74655
  E(xc)    -182.31946  -182.41224  -182.28319     0.01208    -0.03129    -0.02945
  Local   -2476.08752 -2468.03888 -2479.61496    -0.36039     1.96063     3.19998
  n-local   202.23257   202.55210   202.09973    -0.04309     0.11064     0.10743
  augment    -0.35994    -0.31429    -0.37455    -0.00543     0.01475     0.01329
  Kinetic   437.81255   437.21836   438.07124     0.08064    -0.21076    -0.21315
  Fock        0.00000     0.00000     0.00000     0.00000     0.00000     0.00000
  -------------------------------------------------------------------------------------
  Total      -0.92033    -1.04578    -0.86046     0.01699    -0.04719    -0.05064
  in kB      -0.18432    -0.20944    -0.17233     0.00340    -0.00945    -0.01014
  external pressure =       -0.19 kB  Pullay stress =        0.00 kB


 VOLUME and BASIS-vectors are now :
 -----------------------------------------------------------------------------
  energy-cutoff  :      400.00
  volume of cell :     8000.00
      direct lattice vectors                 reciprocal lattice vectors
    20.000000000  0.000000000  0.000000000     0.050000000  0.000000000  0.000000000
     0.000000000 20.000000000  0.000000000     0.000000000  0.050000000  0.000000000
     0.000000000  0.000000000 20.000000000     0.000000000  0.000000000  0.050000000

  length of vectors
    20.000000000 20.000000000 20.000000000     0.050000000  0.050000000  0.050000000


 FORCES acting on ions
    electron-ion (+dipol)            ewald-force                    non-local-force                 convergence-correction
 -----------------------------------------------------------------------------------------------
   0.112E+02 -.179E+02 0.850E+02   -.114E+02 0.183E+02 -.868E+02   0.254E+00 -.382E+00 0.183E+01   -.887E-03 -.402E-03 0.164E-02
   0.778E+02 0.127E+02 -.382E+02   -.795E+02 -.130E+02 0.390E+02   0.169E+01 0.270E+00 -.811E+00   0.795E-03 0.391E-03 -.160E-02
   0.866E+02 -.507E+01 0.458E+02   -.872E+02 0.511E+01 -.462E+02   0.669E+00 -.398E-01 0.352E+00   0.278E-03 -.253E-04 0.197E-03
   -.368E+02 0.534E+02 0.727E+02   0.371E+02 -.537E+02 -.736E+02   -.206E+00 0.303E+00 0.862E+00   -.553E-03 0.634E-03 0.321E-03
   -.292E+02 -.821E+02 0.434E+02   0.294E+02 0.828E+02 -.441E+02   -.153E+00 -.653E+00 0.653E+00   -.460E-03 -.752E-03 0.261E-04
   -.502E+02 0.743E+02 -.877E+01   0.506E+02 -.749E+02 0.884E+01   -.408E+00 0.594E+00 -.745E-01   -.617E-03 -.522E-03 -.450E-03
   -.422E+02 -.690E+02 -.399E+02   0.425E+02 0.695E+02 0.402E+02   -.344E+00 -.550E+00 -.322E+00   -.666E-03 0.609E-03 -.205E-03
   -.850E+02 0.500E+01 -.450E+02   0.859E+02 -.505E+01 0.455E+02   -.923E+00 0.535E-01 -.485E+00   -.854E-03 0.672E-04 -.453E-03
   0.268E+02 0.823E+02 -.446E+02   -.274E+02 -.829E+02 0.451E+02   0.512E+00 0.632E+00 -.465E+00   -.224E-03 0.799E-03 -.371E-03
   0.344E+02 -.533E+02 -.739E+02   -.350E+02 0.536E+02 0.746E+02   0.565E+00 -.325E+00 -.672E+00   -.133E-03 -.590E-03 -.666E-03
   0.200E+02 0.393E+02 0.577E+01   -.211E+02 -.412E+02 -.684E+01   0.116E+01 0.195E+01 0.107E+01   0.968E-04 0.289E-03 0.734E-04
   0.105E+01 0.216E+02 -.389E+02   -.744E+00 -.221E+02 0.414E+02   -.310E+00 0.567E+00 -.243E+01   -.763E-04 0.404E-05 -.200E-03
   -.252E+02 0.381E+02 -.418E+01   0.265E+02 -.402E+02 0.439E+01   -.134E+01 0.206E+01 -.217E+00   -.124E-03 0.987E-05 -.637E-04
   -.435E+02 -.363E+01 0.539E+01   0.458E+02 0.399E+01 -.644E+01   -.226E+01 -.355E+00 0.105E+01   -.172E-03 0.656E-05 -.570E-04
   -.198E+02 0.736E+01 -.389E+02   0.201E+02 -.787E+01 0.413E+02   -.371E+00 0.509E+00 -.244E+01   -.145E-03 0.199E-04 -.113E-03
   -.349E+02 0.523E+01 0.272E+02   0.371E+02 -.491E+01 -.284E+02   -.223E+01 -.311E+00 0.112E+01   -.195E-03 -.542E-04 0.405E-04
   0.810E+01 0.341E+02 0.276E+02   -.923E+01 -.360E+02 -.287E+02   0.112E+01 0.194E+01 0.113E+01   0.585E-04 0.266E-03 0.156E-03
   0.684E+01 -.980E+01 0.465E+02   -.726E+01 0.104E+02 -.493E+02   0.426E+00 -.590E+00 0.283E+01   -.148E-03 -.531E-04 0.213E-03
   -.211E+02 -.355E+02 -.202E+02   0.222E+02 0.374E+02 0.213E+02   -.112E+01 -.192E+01 -.108E+01   -.122E-03 0.464E-05 -.653E-04
   0.245E+01 -.334E+01 -.442E+02   -.215E+01 0.287E+01 0.466E+02   -.303E+00 0.458E+00 -.245E+01   -.784E-04 0.724E-04 -.182E-03
   0.242E+02 -.359E+02 -.106E+02   -.256E+02 0.380E+02 0.104E+02   0.139E+01 -.208E+01 0.189E+00   0.130E-03 -.278E-03 -.502E-04
   0.430E+02 0.688E+01 -.205E+02   -.456E+02 -.729E+01 0.217E+02   0.262E+01 0.412E+00 -.122E+01   0.104E-03 0.589E-04 -.245E-03
   0.308E+02 0.235E+02 0.226E+02   -.320E+02 -.254E+02 -.237E+02   0.122E+01 0.188E+01 0.112E+01   0.369E-04 0.372E-03 0.123E-03
   0.336E+02 -.273E+02 0.116E+02   -.351E+02 0.293E+02 -.119E+02   0.144E+01 -.204E+01 0.274E+00   0.804E-04 -.382E-03 -.405E-04
   0.123E+02 -.411E+02 0.113E+02   -.137E+02 0.432E+02 -.115E+02   0.135E+01 -.210E+01 0.258E+00   0.925E-04 -.297E-03 0.337E-04
   -.335E+02 -.197E+02 0.219E+02   0.357E+02 0.201E+02 -.230E+02   -.222E+01 -.419E+00 0.109E+01   -.196E-03 0.160E-04 0.562E-04
 -----------------------------------------------------------------------------------------------
   -.221E+01 0.131E+00 -.116E+01   -.142E-13 -.139E-12 -.426E-13   0.221E+01 -.132E+00 0.117E+01   -.398E-02 0.264E-03 -.188E-02
 
 
 POSITION                                       TOTAL-FORCE (eV/Angst)
 -----------------------------------------------------------------------------------
      9.50281     11.13317      7.65414         0.000792     -0.000501      0.002177
      7.65586     10.28930     11.06498         0.002599      0.000297     -0.001014
      7.37911     10.78119      8.72692        -0.004352      0.000211     -0.001996
     10.84030      9.14800      7.87394         0.001473     -0.001885     -0.007116
     10.62553     12.98027      8.70587         0.001100      0.004720     -0.005694
     11.17563      8.61922     10.24779        -0.009789      0.000917     -0.005127
     10.95745     12.51278     11.09300        -0.009707      0.000395     -0.005245
     12.32642     10.49248     11.33439         0.002631     -0.000287      0.001774
      8.98271      8.29922     11.30411        -0.004406     -0.004393      0.004063
      8.76805     12.13147     12.13618        -0.004790      0.001768      0.005444
      8.26038      7.08796     10.64081        -0.001873      0.007935     -0.001913
      9.17412      7.95052     12.81038        -0.002615      0.005306      0.005728
     12.02597      7.31462     10.38547        -0.010581      0.012000     -0.002645
     13.72402     10.71187     10.68389         0.016469      0.001942     -0.004328
     12.55565     10.17822     12.84213         0.005239     -0.002887      0.016082
     12.22216      9.34355      7.18165         0.001989      0.007374     -0.003243
     10.14001      7.94694      7.16970        -0.003773      0.007183      0.001775
      9.28331     11.43661      6.19936        -0.000058     -0.003041      0.013386
     11.66643     13.72646     11.77734        -0.009099     -0.010615     -0.007574
      8.95604     11.84444     13.65585        -0.001688     -0.007522      0.003142
      7.90547     13.42394     12.01652        -0.001210     -0.006625     -0.004764
      6.30823     10.07727     11.69385         0.010711      0.002171     -0.007410
      6.62556      9.60895      8.02897         0.011041     -0.005366      0.004652
      6.48898     12.04940      8.55863         0.010100      0.003887      0.006674
      9.78520     14.28293      8.54543        -0.003041     -0.007660     -0.000848
     12.00402     13.23721      8.02706         0.002839     -0.005325     -0.005978
 -----------------------------------------------------------------------------------
    total drift:                                0.001860     -0.000069      0.002245


--------------------------------------------------------------------------------------------------------



  FREE ENERGIE OF THE ION-ELECTRON SYSTEM (eV)
  ---------------------------------------------------
  free  energy   TOTEN  =       -97.46056417 eV

  energy  without entropy=      -97.46056417  energy(sigma->0) =      -97.46056417
 
 d Force = 0.1134061E-02[ 0.242E-03, 0.203E-02]  d Energy = 0.1149741E-02-0.157E-04
 d Force =-0.2078059E+01[-0.208E+01,-0.208E+01]  d Ewald  =-0.2078058E+01-0.109E-05


--------------------------------------------------------------------------------------------------------


    POTLOK:  cpu time    0.9749: real time    0.9763


--------------------------------------------------------------------------------------------------------


 Conjugate gradient step on ions:
 trial-energy change:   -0.001150  1 .order   -0.001134   -0.002026   -0.000242
  (g-gl).g = 0.176E-02      g.g   = 0.180E-02  gl.gl    = 0.204E-02
 g(Force)  = 0.180E-02   g(Stress)= 0.000E+00 ortho     = 0.288E-04
 gamma     =   0.86408
 trial     =   1.10954
 opt step  =   1.25160  (harmonic =   1.26005) maximal distance =0.00503288
 next E    =   -97.460580   (d E  =  -0.00117)


--------------------------------------------------------------------------------------------------------


  
 reached required accuracy - stopping structural energy minimisation
 writing wavefunctions
     LOOP+:  cpu time   34.2628: real time   34.7241
    4ORBIT:  cpu time    0.0000: real time    0.0000

 total amount of memory used by VASP MPI-rank0   131440. kBytes
=======================================================================

   base      :      30000. kBytes
   nonl-proj :      17624. kBytes
   fftplans  :      26957. kBytes
   grid      :      48673. kBytes
   one-center:         40. kBytes
   wavefun   :       8146. kBytes
 
  
  
 General timing and accounting informations for this job:
 ========================================================
  
                  Total CPU time used (sec):      991.731
                            User time (sec):      972.279
                          System time (sec):       19.452
                         Elapsed time (sec):      995.821
  
                   Maximum memory used (kb):      185368.
                   Average memory used (kb):           0.
  
                          Minor page faults:      5202895
                          Major page faults:           11
                 Voluntary context switches:         6251
