 vasp.5.4.4.18Apr17-6-g9f103f2a35 (build Nov 06 2017 19:16:10) complex          
  
 executed on           IFC91_ompi date 2018.07.12  02:13:41
 running on   12 total cores
 distrk:  each k-point on   12 cores,    1 groups
 distr:  one band on NCORES_PER_BAND=   6 cores,    2 groups


--------------------------------------------------------------------------------------------------------


 INCAR:
 POTCAR:    PAW_PBE Si 05Jan2001                  
 POTCAR:    PAW_PBE Ge 05Jan2001                  
 POTCAR:    PAW_PBE H 15Jun2001                   
 POTCAR:    PAW_PBE Si 05Jan2001                  
   VRHFIN =Si: s2p2                                                             
   LEXCH  = PE                                                                  
   EATOM  =   103.0669 eV,    7.5752 Ry                                         
                                                                                
   TITEL  = PAW_PBE Si 05Jan2001                                                
   LULTRA =        F    use ultrasoft PP ?                                      
   IUNSCR =        1    unscreen: 0-lin 1-nonlin 2-no                           
   RPACOR =    1.500    partial core radius                                     
   POMASS =   28.085; ZVAL   =    4.000    mass and valenz                      
   RCORE  =    1.900    outmost cutoff radius                                   
   RWIGS  =    2.480; RWIGS  =    1.312    wigner-seitz radius (au A)           
   ENMAX  =  245.345; ENMIN  =  184.009 eV                                      
   ICORE  =        2    local potential                                         
   LCOR   =        T    correct aug charges                                     
   LPAW   =        T    paw PP                                                  
   EAUG   =  322.069                                                            
   DEXC   =    0.000                                                            
   RMAX   =    1.950    core radius for proj-oper                               
   RAUG   =    1.300    factor for augmentation sphere                          
   RDEP   =    1.993    radius for radial grids                                 
   RDEPT  =    1.837    core radius for aug-charge                              
                                                                                
   Atomic configuration                                                         
    6 entries                                                                   
     n  l   j            E        occ.                                          
     1  0  0.50     -1785.8828   2.0000                                         
     2  0  0.50      -139.4969   2.0000                                         
     2  1  1.50       -95.5546   6.0000                                         
     3  0  0.50       -10.8127   2.0000                                         
     3  1  0.50        -4.0811   2.0000                                         
     3  2  1.50        -4.0817   0.0000                                         
   Description                                                                  
     l       E           TYP  RCUT    TYP  RCUT                                 
     0    -10.8127223     23  1.900                                             
     0     -7.6451159     23  1.900                                             
     1     -4.0811372     23  1.900                                             
     1      2.4879257     23  1.900                                             
     2     -4.0817478      7  1.900                                             
  local pseudopotential read in
  partial core-charges read in
  partial kinetic energy density read in
  atomic valenz-charges read in
  non local Contribution for L=           0  read in
    real space projection operators read in
  non local Contribution for L=           0  read in
    real space projection operators read in
  non local Contribution for L=           1  read in
    real space projection operators read in
  non local Contribution for L=           1  read in
    real space projection operators read in
    PAW grid and wavefunctions read in
 
   number of l-projection  operators is LMAX  =           4
   number of lm-projection operators is LMMAX =           8
 
 POTCAR:    PAW_PBE Ge 05Jan2001                  
   VRHFIN =Ge: s2p2                                                             
   LEXCH  = PE                                                                  
   EATOM  =   104.9960 eV,    7.7170 Ry                                         
                                                                                
   TITEL  = PAW_PBE Ge 05Jan2001                                                
   LULTRA =        F    use ultrasoft PP ?                                      
   IUNSCR =        1    unscreen: 0-lin 1-nonlin 2-no                           
   RPACOR =    2.170    partial core radius                                     
   POMASS =   72.610; ZVAL   =    4.000    mass and valenz                      
   RCORE  =    2.300    outmost cutoff radius                                   
   RWIGS  =    2.300; RWIGS  =    1.217    wigner-seitz radius (au A)           
   ENMAX  =  173.807; ENMIN  =  130.355 eV                                      
   ICORE  =        3    local potential                                         
   LCOR   =        T    correct aug charges                                     
   LPAW   =        T    paw PP                                                  
   EAUG   =  385.843                                                            
   DEXC   =    0.000                                                            
   RMAX   =    2.342    core radius for proj-oper                               
   RAUG   =    1.300    factor for augmentation sphere                          
   RDEP   =    2.318    radius for radial grids                                 
   RDEPT  =    2.103    core radius for aug-charge                              
                                                                                
   Atomic configuration                                                         
   10 entries                                                                   
     n  l   j            E        occ.                                          
     1  0  0.50    -10959.8463   2.0000                                         
     2  0  0.50     -1371.6056   2.0000                                         
     2  1  1.50     -1198.4791   6.0000                                         
     3  0  0.50      -168.4733   2.0000                                         
     3  1  1.50      -115.6019   6.0000                                         
     3  2  2.50       -29.3106  10.0000                                         
     4  0  0.50       -11.7309   2.0000                                         
     4  1  0.50        -3.8952   2.0000                                         
     4  2  1.50        -4.0817   0.0000                                         
     4  3  2.50        -4.0817   0.0000                                         
   Description                                                                  
     l       E           TYP  RCUT    TYP  RCUT                                 
     0    -11.7309493     23  2.300                                             
     0     -7.4578696     23  2.300                                             
     1     -3.8952261     23  2.300                                             
     1      6.1178114     23  2.300                                             
     2     -4.0817478     23  2.300                                             
     3     -1.3605826      7  2.300                                             
  local pseudopotential read in
  partial core-charges read in
  partial kinetic energy density read in
  atomic valenz-charges read in
  non local Contribution for L=           0  read in
    real space projection operators read in
  non local Contribution for L=           0  read in
    real space projection operators read in
  non local Contribution for L=           1  read in
    real space projection operators read in
  non local Contribution for L=           1  read in
    real space projection operators read in
  non local Contribution for L=           2  read in
    real space projection operators read in
    PAW grid and wavefunctions read in
 
   number of l-projection  operators is LMAX  =           5
   number of lm-projection operators is LMMAX =          13
 
 POTCAR:    PAW_PBE H 15Jun2001                   
   VRHFIN =H: ultrasoft test                                                    
   LEXCH  = PE                                                                  
   EATOM  =    12.4884 eV,    0.9179 Ry                                         
                                                                                
   TITEL  = PAW_PBE H 15Jun2001                                                 
   LULTRA =        F    use ultrasoft PP ?                                      
   IUNSCR =        0    unscreen: 0-lin 1-nonlin 2-no                           
   RPACOR =    0.000    partial core radius                                     
   POMASS =    1.000; ZVAL   =    1.000    mass and valenz                      
   RCORE  =    1.100    outmost cutoff radius                                   
   RWIGS  =    0.700; RWIGS  =    0.370    wigner-seitz radius (au A)           
   ENMAX  =  250.000; ENMIN  =  200.000 eV                                      
   RCLOC  =    0.701    cutoff for local pot                                    
   LCOR   =        T    correct aug charges                                     
   LPAW   =        T    paw PP                                                  
   EAUG   =  400.000                                                            
   RMAX   =    1.123    core radius for proj-oper                               
   RAUG   =    1.200    factor for augmentation sphere                          
   RDEP   =    1.112    radius for radial grids                                 
   RDEPT  =    0.926    core radius for aug-charge                              
                                                                                
   Atomic configuration                                                         
    2 entries                                                                   
     n  l   j            E        occ.                                          
     1  0  0.50        -6.4927   1.0000                                         
     2  1  0.50        -3.4015   0.0000                                         
   Description                                                                  
     l       E           TYP  RCUT    TYP  RCUT                                 
     0     -6.4927494     23  1.100                                             
     0      6.8029130     23  1.100                                             
     1     -4.0817478     23  1.100                                             
  local pseudopotential read in
  atomic valenz-charges read in
  non local Contribution for L=           0  read in
    real space projection operators read in
  non local Contribution for L=           0  read in
    real space projection operators read in
  non local Contribution for L=           1  read in
    real space projection operators read in
    PAW grid and wavefunctions read in
 
   number of l-projection  operators is LMAX  =           3
   number of lm-projection operators is LMMAX =           5
 

 ----------------------------------------------------------------------------- 
|                                                                             |
|  ADVICE TO THIS USER RUNNING 'VASP/VAMP'   (HEAR YOUR MASTER'S VOICE ...):  |
|                                                                             |
|      You have a (more or less) 'large supercell' and for larger cells       |
|      it might be more efficient to use real space projection opertators     |
|      So try LREAL= Auto  in the INCAR   file.                               |
|      Mind:          For very  accurate calculation you might also keep the  |
|      reciprocal projection scheme          (i.e. LREAL=.FALSE.)             |
|                                                                             |
 ----------------------------------------------------------------------------- 

  PAW_PBE Si 05Jan2001                  :
 energy of atom  1       EATOM= -103.0669
 kinetic energy error for atom=    0.0012 (will be added to EATOM!!)
  PAW_PBE Ge 05Jan2001                  :
 energy of atom  2       EATOM= -104.9960
 kinetic energy error for atom=    0.0003 (will be added to EATOM!!)
  PAW_PBE H 15Jun2001                   :
 energy of atom  3       EATOM=  -12.4884
 kinetic energy error for atom=    0.0098 (will be added to EATOM!!)
 
 
 POSCAR: SiGeH16                                 
  positions in direct lattice
  No initial velocities read in
 exchange correlation table for  LEXCH =        8
   RHO(1)=    0.500       N(1)  =     2000
   RHO(2)=  100.500       N(2)  =     4000
 


--------------------------------------------------------------------------------------------------------


 ion  position               nearest neighbor table
   1  0.475  0.556  0.385-  18 1.55   5 2.39   2 2.39   3 2.39
   2  0.369  0.539  0.436-  23 1.55  24 1.55   6 2.39   1 2.39
   3  0.542  0.457  0.396-  17 1.55  16 1.55   7 2.39   1 2.39
   4  0.547  0.624  0.554-  19 1.55   5 2.39   8 2.39  10 2.39
   5  0.531  0.648  0.437-  25 1.55  26 1.55   4 2.39   1 2.39
   6  0.385  0.515  0.552-  22 1.55  10 2.39   9 2.39   2 2.39
   7  0.557  0.433  0.512-  13 1.55   3 2.39   8 2.39   9 2.39
   8  0.613  0.525  0.565-  15 1.55  14 1.55   4 2.39   7 2.39
   9  0.451  0.416  0.564-  12 1.55  11 1.55   6 2.39   7 2.39
  10  0.440  0.606  0.605-  20 1.55  21 1.55   6 2.39   4 2.39
  11  0.415  0.357  0.529-   9 1.55
  12  0.461  0.400  0.639-   9 1.55
  13  0.600  0.369  0.520-   7 1.55
  14  0.682  0.536  0.531-   8 1.55
  15  0.623  0.509  0.640-   8 1.55
  16  0.611  0.469  0.363-   3 1.55
  17  0.506  0.398  0.362-   3 1.55
  18  0.465  0.572  0.309-   1 1.55
  19  0.583  0.683  0.588-   4 1.55
  20  0.451  0.590  0.680-  10 1.55
  21  0.397  0.670  0.598-  10 1.55
  22  0.316  0.504  0.586-   6 1.55
  23  0.333  0.479  0.402-   2 1.55
  24  0.326  0.603  0.429-   2 1.55
  25  0.488  0.712  0.430-   5 1.55
  26  0.600  0.659  0.404-   5 1.55
 
  LATTYP: Found a simple cubic cell.
 ALAT       =    20.0000000000
  
  Lattice vectors:
  
 A1 = (  20.0000000000,   0.0000000000,   0.0000000000)
 A2 = (   0.0000000000,  20.0000000000,   0.0000000000)
 A3 = (   0.0000000000,   0.0000000000,  20.0000000000)


Analysis of symmetry for initial positions (statically):
=====================================================================
 Subroutine PRICEL returns:
 Original cell was already a primitive cell.
 

 Routine SETGRP: Setting up the symmetry group for a 
 simple cubic supercell.


 Subroutine GETGRP returns: Found  1 space group operations
 (whereof  1 operations were pure point group operations)
 out of a pool of 48 trial point group operations.


The static configuration has the point symmetry C_1 .


Analysis of symmetry for dynamics (positions and initial velocities):
=====================================================================
 Subroutine PRICEL returns:
 Original cell was already a primitive cell.
 

 Routine SETGRP: Setting up the symmetry group for a 
 simple cubic supercell.


 Subroutine GETGRP returns: Found  1 space group operations
 (whereof  1 operations were pure point group operations)
 out of a pool of 48 trial point group operations.


The dynamic configuration has the point symmetry C_1 .


 Subroutine INISYM returns: Found  1 space group operations
 (whereof  1 operations are pure point group operations),
 and found     1 'primitive' translations

 
 
 KPOINTS: Automatic mesh                          

Automatic generation of k-mesh.
Space group operators:
 irot       det(A)        alpha          n_x          n_y          n_z        tau_x        tau_y        tau_z
    1     1.000000     0.000000     1.000000     0.000000     0.000000     0.000000     0.000000     0.000000
 
 Subroutine IBZKPT returns following result:
 ===========================================
 
 Found      1 irreducible k-points:
 
 Following reciprocal coordinates:
            Coordinates               Weight
  0.000000  0.000000  0.000000      1.000000
 
 Following cartesian coordinates:
            Coordinates               Weight
  0.000000  0.000000  0.000000      1.000000
 


--------------------------------------------------------------------------------------------------------




 Dimension of arrays:
   k-points           NKPTS =      1   k-points in BZ     NKDIM =      1   number of bands    NBANDS=     42
   number of dos      NEDOS =    301   number of ions     NIONS =     26
   non local maximal  LDIM  =      5   non local SUM 2l+1 LMDIM =     13
   total plane-waves  NPLWV = 941192
   max r-space proj   IRMAX =      1   max aug-charges    IRDMAX=   6593
   dimension x,y,z NGX =    98 NGY =   98 NGZ =   98
   dimension x,y,z NGXF=   196 NGYF=  196 NGZF=  196
   support grid    NGXF=   196 NGYF=  196 NGZF=  196
   ions per type =               4   6  16
   NGX,Y,Z   is equivalent  to a cutoff of   8.15,  8.15,  8.15 a.u.
   NGXF,Y,Z  is equivalent  to a cutoff of  16.29, 16.29, 16.29 a.u.

 SYSTEM =  SiGe                                    
 POSCAR =  SiGeH16                                 

 Startparameter for this run:
   NWRITE =      2    write-flag & timer
   PREC   = normal    normal or accurate (medium, high low for compatibility)
   ISTART =      0    job   : 0-new  1-cont  2-samecut
   ICHARG =      2    charge: 1-file 2-atom 10-const
   ISPIN  =      1    spin polarized calculation?
   LNONCOLLINEAR =      F non collinear calculations
   LSORBIT =      F    spin-orbit coupling
   INIWAV =      1    electr: 0-lowe 1-rand  2-diag
   LASPH  =      F    aspherical Exc in radial PAW
   METAGGA=      F    non-selfconsistent MetaGGA calc.

 Electronic Relaxation 1
   ENCUT  =  400.0 eV  29.40 Ry    5.42 a.u.  32.61 32.61 32.61*2*pi/ulx,y,z
   ENINI  =  400.0     initial cutoff
   ENAUG  =  400.0 eV  augmentation charge cutoff
   NELM   =     60;   NELMIN=  2; NELMDL= -5     # of ELM steps 
   EDIFF  = 0.1E-05   stopping-criterion for ELM
   LREAL  =      F    real-space projection
   NLSPLINE    = F    spline interpolate recip. space projectors
   LCOMPAT=      F    compatible to vasp.4.4
   GGA_COMPAT  = T    GGA compatible to vasp.4.4-vasp.4.6
   LMAXPAW     = -100 max onsite density
   LMAXMIX     =    2 max onsite mixed and CHGCAR
   VOSKOWN=      0    Vosko Wilk Nusair interpolation
   ROPT   =    0.00000   0.00000   0.00000
 Ionic relaxation
   EDIFFG = -.2E-01   stopping-criterion for IOM
   NSW    =    200    number of steps for IOM
   NBLOCK =      1;   KBLOCK =    200    inner block; outer block 
   IBRION =      2    ionic relax: 0-MD 1-quasi-New 2-CG
   NFREE  =      1    steps in history (QN), initial steepest desc. (CG)
   ISIF   =      2    stress and relaxation
   IWAVPR =     11    prediction:  0-non 1-charg 2-wave 3-comb
   ISYM   =      2    0-nonsym 1-usesym 2-fastsym
   LCORR  =      T    Harris-Foulkes like correction to forces

   POTIM  = 0.5000    time-step for ionic-motion
   TEIN   =    0.0    initial temperature
   TEBEG  =    0.0;   TEEND  =   0.0 temperature during run
   SMASS  =  -3.00    Nose mass-parameter (am)
   estimated Nose-frequenzy (Omega)   =  0.10E-29 period in steps =****** mass=  -0.914E-26a.u.
   SCALEE = 1.0000    scale energy and forces
   NPACO  =    256;   APACO  = 16.0  distance and # of slots for P.C.
   PSTRESS=    0.0 pullay stress

  Mass of Ions in am
   POMASS =  28.09 72.61  1.00
  Ionic Valenz
   ZVAL   =   4.00  4.00  1.00
  Atomic Wigner-Seitz radii
   RWIGS  =  -1.00 -1.00 -1.00
  virtual crystal weights 
   VCA    =   1.00  1.00  1.00
   NELECT =      56.0000    total number of electrons
   NUPDOWN=      -1.0000    fix difference up-down

 DOS related values:
   EMIN   =  10.00;   EMAX   =-10.00  energy-range for DOS
   EFERMI =   0.00
   ISMEAR =     0;   SIGMA  =   0.20  broadening in eV -4-tet -1-fermi 0-gaus

 Electronic relaxation 2 (details)
   IALGO  =     38    algorithm
   LDIAG  =      T    sub-space diagonalisation (order eigenvalues)
   LSUBROT=      F    optimize rotation matrix (better conditioning)
   TURBO    =      0    0=normal 1=particle mesh
   IRESTART =      0    0=no restart 2=restart with 2 vectors
   NREBOOT  =      0    no. of reboots
   NMIN     =      0    reboot dimension
   EREF     =   0.00    reference energy to select bands
   IMIX   =      4    mixing-type and parameters
     AMIX     =   0.40;   BMIX     =  1.00
     AMIX_MAG =   1.60;   BMIX_MAG =  1.00
     AMIN     =   0.10
     WC   =   100.;   INIMIX=   1;  MIXPRE=   1;  MAXMIX= -45

 Intra band minimization:
   WEIMIN = 0.0010     energy-eigenvalue tresh-hold
   EBREAK =  0.60E-08  absolut break condition
   DEPER  =   0.30     relativ break condition  

   TIME   =   0.40     timestep for ELM

  volume/ion in A,a.u.               =     307.69      2076.41
  Fermi-wavevector in a.u.,A,eV,Ry     =   0.313166  0.591797  1.334361  0.098073
  Thomas-Fermi vector in A             =   1.193276
 
 Write flags
   LWAVE        =      T    write WAVECAR
   LDOWNSAMPLE  =      F    k-point downsampling of WAVECAR
   LCHARG       =      T    write CHGCAR
   LVTOT        =      F    write LOCPOT, total local potential
   LVHAR        =      F    write LOCPOT, Hartree potential only
   LELF         =      F    write electronic localiz. function (ELF)
   LORBIT       =      0    0 simple, 1 ext, 2 COOP (PROOUT), +10 PAW based schemes


 Dipole corrections
   LMONO  =      F    monopole corrections only (constant potential shift)
   LDIPOL =      F    correct potential (dipole corrections)
   IDIPOL =      0    1-x, 2-y, 3-z, 4-all directions 
   EPSILON=  1.0000000 bulk dielectric constant

 Exchange correlation treatment:
   GGA     =    --    GGA type
   LEXCH   =     8    internal setting for exchange type
   VOSKOWN=      0    Vosko Wilk Nusair interpolation
   LHFCALC =     F    Hartree Fock is set to
   LHFONE  =     F    Hartree Fock one center treatment
   AEXX    =    0.0000 exact exchange contribution

 Linear response parameters
   LEPSILON=     F    determine dielectric tensor
   LRPA    =     F    only Hartree local field effects (RPA)
   LNABLA  =     F    use nabla operator in PAW spheres
   LVEL    =     F    velocity operator in full k-point grid
   LINTERFAST=   F  fast interpolation
   KINTER  =     0    interpolate to denser k-point grid
   CSHIFT  =0.1000    complex shift for real part using Kramers Kronig
   OMEGAMAX=  -1.0    maximum frequency
   DEG_THRESHOLD= 0.2000000E-02 threshold for treating states as degnerate
   RTIME   =   -0.100 relaxation time in fs
  (WPLASMAI=    0.000 imaginary part of plasma frequency in eV, 0.658/RTIME)
   DFIELD  = 0.0000000 0.0000000 0.0000000 field for delta impulse in time
 
 Orbital magnetization related:
   ORBITALMAG=     F  switch on orbital magnetization
   LCHIMAG   =     F  perturbation theory with respect to B field
   DQ        =  0.001000  dq finite difference perturbation B field
   LLRAUG    =     F  two centre corrections for induced B field



--------------------------------------------------------------------------------------------------------


 conjugate gradient relaxation of ions
 charge density and potential will be updated during run
 non-spin polarized calculation
 Variant of blocked Davidson
 Davidson routine will perform the subspace rotation
 perform sub-space diagonalisation
    after iterative eigenvector-optimisation
 modified Broyden-mixing scheme, WC =      100.0
 initial mixing is a Kerker type mixing with AMIX =  0.4000 and BMIX =      1.0000
 Hartree-type preconditioning will be used
 using additional bands           14
 reciprocal scheme for non local part
 use partial core corrections
 calculate Harris-corrections to forces 
   (improved forces if not selfconsistent)
 use gradient corrections 
 use of overlap-Matrix (Vanderbilt PP)
 Gauss-broadening in eV      SIGMA  =   0.20


--------------------------------------------------------------------------------------------------------


  energy-cutoff  :      400.00
  volume of cell :     8000.00
      direct lattice vectors                 reciprocal lattice vectors
    20.000000000  0.000000000  0.000000000     0.050000000  0.000000000  0.000000000
     0.000000000 20.000000000  0.000000000     0.000000000  0.050000000  0.000000000
     0.000000000  0.000000000 20.000000000     0.000000000  0.000000000  0.050000000

  length of vectors
    20.000000000 20.000000000 20.000000000     0.050000000  0.050000000  0.050000000


 
 k-points in units of 2pi/SCALE and weight: Automatic mesh                          
   0.00000000  0.00000000  0.00000000       1.000
 
 k-points in reciprocal lattice and weights: Automatic mesh                          
   0.00000000  0.00000000  0.00000000       1.000
 
 position of ions in fractional coordinates (direct lattice) 
   0.47547100  0.55626000  0.38465300
   0.36907800  0.53906000  0.43641200
   0.54179100  0.45744600  0.39613600
   0.54669200  0.62364400  0.55351800
   0.53111600  0.64794100  0.43749600
   0.38461900  0.51474100  0.55243500
   0.55736800  0.43311000  0.51215000
   0.61299700  0.52481700  0.56496600
   0.45095700  0.41593600  0.56388300
   0.44028400  0.60643000  0.60524300
   0.41490100  0.35665000  0.52940300
   0.46117000  0.40042600  0.63910800
   0.60034800  0.36907000  0.51957800
   0.68182700  0.53600700  0.53118700
   0.62280400  0.50903400  0.64018900
   0.61080000  0.46880600  0.36278200
   0.50550800  0.39805500  0.36207700
   0.46538400  0.57201900  0.30946400
   0.58275500  0.68306700  0.58775000
   0.45052500  0.59044300  0.68036400
   0.39732000  0.67044900  0.59753500
   0.31566200  0.50359800  0.58596500
   0.33322800  0.47946500  0.40225200
   0.32629100  0.60324700  0.42912600
   0.48792300  0.71185500  0.43020800
   0.60015100  0.65882400  0.40403700
 
 position of ions in cartesian coordinates  (Angst):
   9.50942000 11.12520000  7.69306000
   7.38156000 10.78120000  8.72824000
  10.83582000  9.14892000  7.92272000
  10.93384000 12.47288000 11.07036000
  10.62232000 12.95882000  8.74992000
   7.69238000 10.29482000 11.04870000
  11.14736000  8.66220000 10.24300000
  12.25994000 10.49634000 11.29932000
   9.01914000  8.31872000 11.27766000
   8.80568000 12.12860000 12.10486000
   8.29802000  7.13300000 10.58806000
   9.22340000  8.00852000 12.78216000
  12.00696000  7.38140000 10.39156000
  13.63654000 10.72014000 10.62374000
  12.45608000 10.18068000 12.80378000
  12.21600000  9.37612000  7.25564000
  10.11016000  7.96110000  7.24154000
   9.30768000 11.44038000  6.18928000
  11.65510000 13.66134000 11.75500000
   9.01050000 11.80886000 13.60728000
   7.94640000 13.40898000 11.95070000
   6.31324000 10.07196000 11.71930000
   6.66456000  9.58930000  8.04504000
   6.52582000 12.06494000  8.58252000
   9.75846000 14.23710000  8.60416000
  12.00302000 13.17648000  8.08074000
 


--------------------------------------------------------------------------------------------------------


 k-point  1 :   0.0000 0.0000 0.0000  plane waves:  145165

 maximum and minimum number of plane-waves per node :     24209    24180

 maximum number of plane-waves:    145165
 maximum index in each direction: 
   IXMAX=   32   IYMAX=   32   IZMAX=   32
   IXMIN=  -32   IYMIN=  -32   IZMIN=  -32


 parallel 3D FFT for wavefunctions:
    minimum data exchange during FFTs selected (reduces bandwidth)
 parallel 3D FFT for charge:
    minimum data exchange during FFTs selected (reduces bandwidth)


 total amount of memory used by VASP MPI-rank0   131440. kBytes
=======================================================================

   base      :      30000. kBytes
   nonl-proj :      17624. kBytes
   fftplans  :      26957. kBytes
   grid      :      48673. kBytes
   one-center:         40. kBytes
   wavefun   :       8146. kBytes
 
     INWAV:  cpu time    0.0000: real time    0.0000
 Broyden mixing: mesh for mixing (old mesh)
   NGX = 65   NGY = 65   NGZ = 65
  (NGX  =196   NGY  =196   NGZ  =196)
  gives a total of 274625 points

 initial charge density was supplied:
 charge density of overlapping atoms calculated
 number of electron      56.0000000 magnetization 
 keeping initial charge density in first step


--------------------------------------------------------------------------------------------------------


 Maximum index for augmentation-charges          565 (set IRDMAX)


--------------------------------------------------------------------------------------------------------


 First call to EWALD:  gamma=   0.089
 Maximum number of real-space cells 3x 3x 3
 Maximum number of reciprocal cells 3x 3x 3

    FEWALD:  cpu time    0.0020: real time    0.0022


--------------------------------------- Iteration      1(   1)  ---------------------------------------


    POTLOK:  cpu time    0.9938: real time    0.9966
    SETDIJ:  cpu time    0.0060: real time    0.0062
     EDDAV:  cpu time    4.2414: real time    4.2464
       DOS:  cpu time    0.0010: real time    0.0003
    --------------------------------------------
      LOOP:  cpu time    5.2422: real time    5.2495

 eigenvalue-minimisations  :   116
 total energy-change (2. order) : 0.2068007E+03  (-0.1047210E+04)
 number of electron      56.0000000 magnetization 
 augmentation part       56.0000000 magnetization 

 Free energy of the ion-electron system (eV)
  ---------------------------------------------------
  alpha Z        PSCENC =         2.51538199
  Ewald energy   TEWEN  =      2629.98113996
  -Hartree energ DENC   =     -3440.36206904
  -exchange      EXHF   =         0.00000000
  -V(xc)+E(xc)   XCENC  =       -49.26095708
  PAW double counting   =       915.51080863     -758.35430496
  entropy T*S    EENTRO =        -0.42970186
  eigenvalues    EBANDS =      -334.69473740
  atomic energy  EATOM  =      1241.89512738
  Solvation  Ediel_sol  =         0.00000000
  ---------------------------------------------------
  free energy    TOTEN  =       206.80068762 eV

  energy without entropy =      207.23038947  energy(sigma->0) =      207.01553854


--------------------------------------------------------------------------------------------------------




--------------------------------------- Iteration      1(   2)  ---------------------------------------


     EDDAV:  cpu time    4.8133: real time    4.8212
       DOS:  cpu time    0.0000: real time    0.0002
    --------------------------------------------
      LOOP:  cpu time    4.8133: real time    4.8214

 eigenvalue-minimisations  :   136
 total energy-change (2. order) :-0.2301731E+03  (-0.2163343E+03)
 number of electron      56.0000000 magnetization 
 augmentation part       56.0000000 magnetization 

 Free energy of the ion-electron system (eV)
  ---------------------------------------------------
  alpha Z        PSCENC =         2.51538199
  Ewald energy   TEWEN  =      2629.98113996
  -Hartree energ DENC   =     -3440.36206904
  -exchange      EXHF   =         0.00000000
  -V(xc)+E(xc)   XCENC  =       -49.26095708
  PAW double counting   =       915.51080863     -758.35430496
  entropy T*S    EENTRO =        -0.00000000
  eigenvalues    EBANDS =      -565.29755341
  atomic energy  EATOM  =      1241.89512738
  Solvation  Ediel_sol  =         0.00000000
  ---------------------------------------------------
  free energy    TOTEN  =       -23.37242653 eV

  energy without entropy =      -23.37242653  energy(sigma->0) =      -23.37242653


--------------------------------------------------------------------------------------------------------




--------------------------------------- Iteration      1(   3)  ---------------------------------------


     EDDAV:  cpu time    4.1114: real time    4.1156
       DOS:  cpu time    0.0000: real time    0.0002
    --------------------------------------------
      LOOP:  cpu time    4.1114: real time    4.1158

 eigenvalue-minimisations  :   112
 total energy-change (2. order) :-0.7668577E+02  (-0.7650625E+02)
 number of electron      56.0000000 magnetization 
 augmentation part       56.0000000 magnetization 

 Free energy of the ion-electron system (eV)
  ---------------------------------------------------
  alpha Z        PSCENC =         2.51538199
  Ewald energy   TEWEN  =      2629.98113996
  -Hartree energ DENC   =     -3440.36206904
  -exchange      EXHF   =         0.00000000
  -V(xc)+E(xc)   XCENC  =       -49.26095708
  PAW double counting   =       915.51080863     -758.35430496
  entropy T*S    EENTRO =        -0.00000000
  eigenvalues    EBANDS =      -641.98332076
  atomic energy  EATOM  =      1241.89512738
  Solvation  Ediel_sol  =         0.00000000
  ---------------------------------------------------
  free energy    TOTEN  =      -100.05819388 eV

  energy without entropy =     -100.05819388  energy(sigma->0) =     -100.05819388


--------------------------------------------------------------------------------------------------------




--------------------------------------- Iteration      1(   4)  ---------------------------------------


     EDDAV:  cpu time    3.8754: real time    3.8814
       DOS:  cpu time    0.0000: real time    0.0002
    --------------------------------------------
      LOOP:  cpu time    3.8754: real time    3.8816

 eigenvalue-minimisations  :   104
 total energy-change (2. order) :-0.4491050E+01  (-0.4474843E+01)
 number of electron      56.0000000 magnetization 
 augmentation part       56.0000000 magnetization 

 Free energy of the ion-electron system (eV)
  ---------------------------------------------------
  alpha Z        PSCENC =         2.51538199
  Ewald energy   TEWEN  =      2629.98113996
  -Hartree energ DENC   =     -3440.36206904
  -exchange      EXHF   =         0.00000000
  -V(xc)+E(xc)   XCENC  =       -49.26095708
  PAW double counting   =       915.51080863     -758.35430496
  entropy T*S    EENTRO =        -0.00000000
  eigenvalues    EBANDS =      -646.47437072
  atomic energy  EATOM  =      1241.89512738
  Solvation  Ediel_sol  =         0.00000000
  ---------------------------------------------------
  free energy    TOTEN  =      -104.54924385 eV

  energy without entropy =     -104.54924385  energy(sigma->0) =     -104.54924385


--------------------------------------------------------------------------------------------------------




--------------------------------------- Iteration      1(   5)  ---------------------------------------


     EDDAV:  cpu time    4.5603: real time    4.5663
       DOS:  cpu time    0.0000: real time    0.0002
    CHARGE:  cpu time    0.2310: real time    0.2311
    MIXING:  cpu time    0.0240: real time    0.0235
    --------------------------------------------
      LOOP:  cpu time    4.8153: real time    4.8211

 eigenvalue-minimisations  :   128
 total energy-change (2. order) :-0.7033715E-01  (-0.7025541E-01)
 number of electron      56.0000017 magnetization 
 augmentation part       -4.3482893 magnetization 

 Broyden mixing:
  rms(total) = 0.14511E+01    rms(broyden)= 0.14510E+01
  rms(prec ) = 0.15472E+01
  weight for this iteration     100.00

 Free energy of the ion-electron system (eV)
  ---------------------------------------------------
  alpha Z        PSCENC =         2.51538199
  Ewald energy   TEWEN  =      2629.98113996
  -Hartree energ DENC   =     -3440.36206904
  -exchange      EXHF   =         0.00000000
  -V(xc)+E(xc)   XCENC  =       -49.26095708
  PAW double counting   =       915.51080863     -758.35430496
  entropy T*S    EENTRO =        -0.00000000
  eigenvalues    EBANDS =      -646.54470787
  atomic energy  EATOM  =      1241.89512738
  Solvation  Ediel_sol  =         0.00000000
  ---------------------------------------------------
  free energy    TOTEN  =      -104.61958099 eV

  energy without entropy =     -104.61958099  energy(sigma->0) =     -104.61958099


--------------------------------------------------------------------------------------------------------




--------------------------------------- Iteration      1(   6)  ---------------------------------------


    POTLOK:  cpu time    0.9429: real time    0.9447
    SETDIJ:  cpu time    0.0060: real time    0.0061
     EDDAV:  cpu time    4.1344: real time    4.1327
       DOS:  cpu time    0.0000: real time    0.0002
    CHARGE:  cpu time    0.2300: real time    0.2294
    MIXING:  cpu time    0.0240: real time    0.0244
    --------------------------------------------
      LOOP:  cpu time    5.3372: real time    5.3374

 eigenvalue-minimisations  :   112
 total energy-change (2. order) : 0.3159090E+01  (-0.1584003E+00)
 number of electron      56.0000016 magnetization 
 augmentation part       -4.3484762 magnetization 

 Broyden mixing:
  rms(total) = 0.83922E+00    rms(broyden)= 0.83922E+00
  rms(prec ) = 0.89807E+00
  weight for this iteration     100.00

 eigenvalues of (default mixing * dielectric matrix)
  average eigenvalue GAMMA=   2.2998
  2.2998

 Free energy of the ion-electron system (eV)
  ---------------------------------------------------
  alpha Z        PSCENC =         2.51538199
  Ewald energy   TEWEN  =      2629.98113996
  -Hartree energ DENC   =     -3471.28179804
  -exchange      EXHF   =         0.00000000
  -V(xc)+E(xc)   XCENC  =       -45.63637922
  PAW double counting   =      1753.56299605    -1597.28534635
  entropy T*S    EENTRO =        -0.00000000
  eigenvalues    EBANDS =      -615.21161307
  atomic energy  EATOM  =      1241.89512738
  Solvation  Ediel_sol  =         0.00000000
  ---------------------------------------------------
  free energy    TOTEN  =      -101.46049130 eV

  energy without entropy =     -101.46049130  energy(sigma->0) =     -101.46049130


--------------------------------------------------------------------------------------------------------




--------------------------------------- Iteration      1(   7)  ---------------------------------------


    POTLOK:  cpu time    0.9459: real time    0.9452
    SETDIJ:  cpu time    0.0060: real time    0.0061
     EDDAV:  cpu time    3.9704: real time    3.9687
       DOS:  cpu time    0.0000: real time    0.0003
    CHARGE:  cpu time    0.2320: real time    0.2321
    MIXING:  cpu time    0.0260: real time    0.0251
    --------------------------------------------
      LOOP:  cpu time    5.1802: real time    5.1774

 eigenvalue-minimisations  :   104
 total energy-change (2. order) : 0.1652244E+01  (-0.4007753E+00)
 number of electron      56.0000014 magnetization 
 augmentation part       -4.3466786 magnetization 

 Broyden mixing:
  rms(total) = 0.12125E+00    rms(broyden)= 0.12110E+00
  rms(prec ) = 0.15240E+00
  weight for this iteration     100.00

 eigenvalues of (default mixing * dielectric matrix)
  average eigenvalue GAMMA=   1.8369
  1.7065  1.9673

 Free energy of the ion-electron system (eV)
  ---------------------------------------------------
  alpha Z        PSCENC =         2.51538199
  Ewald energy   TEWEN  =      2629.98113996
  -Hartree energ DENC   =     -3526.23425765
  -exchange      EXHF   =         0.00000000
  -V(xc)+E(xc)   XCENC  =       -39.90851088
  PAW double counting   =      3555.29903284    -3400.19104436
  entropy T*S    EENTRO =        -0.00000000
  eigenvalues    EBANDS =      -563.16511621
  atomic energy  EATOM  =      1241.89512738
  Solvation  Ediel_sol  =         0.00000000
  ---------------------------------------------------
  free energy    TOTEN  =       -99.80824694 eV

  energy without entropy =      -99.80824694  energy(sigma->0) =      -99.80824694


--------------------------------------------------------------------------------------------------------




--------------------------------------- Iteration      1(   8)  ---------------------------------------


    POTLOK:  cpu time    0.9589: real time    0.9594
    SETDIJ:  cpu time    0.0070: real time    0.0073
     EDDAV:  cpu time    4.1554: real time    4.1542
       DOS:  cpu time    0.0010: real time    0.0002
    CHARGE:  cpu time    0.2340: real time    0.2331
    MIXING:  cpu time    0.0260: real time    0.0261
    --------------------------------------------
      LOOP:  cpu time    5.3822: real time    5.3804

 eigenvalue-minimisations  :   112
 total energy-change (2. order) : 0.5342643E-01  (-0.2620542E-01)
 number of electron      56.0000014 magnetization 
 augmentation part       -4.3408640 magnetization 

 Broyden mixing:
  rms(total) = 0.60373E-01    rms(broyden)= 0.60359E-01
  rms(prec ) = 0.79817E-01
  weight for this iteration     100.00

 eigenvalues of (default mixing * dielectric matrix)
  average eigenvalue GAMMA=   1.9681
  2.6484  1.6279  1.6279

 Free energy of the ion-electron system (eV)
  ---------------------------------------------------
  alpha Z        PSCENC =         2.51538199
  Ewald energy   TEWEN  =      2629.98113996
  -Hartree energ DENC   =     -3534.30747311
  -exchange      EXHF   =         0.00000000
  -V(xc)+E(xc)   XCENC  =       -39.91599319
  PAW double counting   =      3579.73210768    -3424.54216472
  entropy T*S    EENTRO =        -0.00000000
  eigenvalues    EBANDS =      -555.11294651
  atomic energy  EATOM  =      1241.89512738
  Solvation  Ediel_sol  =         0.00000000
  ---------------------------------------------------
  free energy    TOTEN  =       -99.75482051 eV

  energy without entropy =      -99.75482051  energy(sigma->0) =      -99.75482051


--------------------------------------------------------------------------------------------------------




--------------------------------------- Iteration      1(   9)  ---------------------------------------


    POTLOK:  cpu time    0.9559: real time    0.9561
    SETDIJ:  cpu time    0.0060: real time    0.0061
     EDDAV:  cpu time    4.1134: real time    4.1585
       DOS:  cpu time    0.0010: real time    0.0002
    CHARGE:  cpu time    0.2300: real time    0.2308
    MIXING:  cpu time    0.0280: real time    0.0273
    --------------------------------------------
      LOOP:  cpu time    5.3342: real time    5.3789

 eigenvalue-minimisations  :   112
 total energy-change (2. order) : 0.3617443E-01  (-0.7221979E-02)
 number of electron      56.0000014 magnetization 
 augmentation part       -4.3259765 magnetization 

 Broyden mixing:
  rms(total) = 0.32284E-01    rms(broyden)= 0.32283E-01
  rms(prec ) = 0.43960E-01
  weight for this iteration     100.00

 eigenvalues of (default mixing * dielectric matrix)
  average eigenvalue GAMMA=   1.7499
  2.5028  1.8273  1.8273  0.8422

 Free energy of the ion-electron system (eV)
  ---------------------------------------------------
  alpha Z        PSCENC =         2.51538199
  Ewald energy   TEWEN  =      2629.98113996
  -Hartree energ DENC   =     -3546.14750427
  -exchange      EXHF   =         0.00000000
  -V(xc)+E(xc)   XCENC  =       -39.21732384
  PAW double counting   =      3714.37639343    -3559.23059811
  entropy T*S    EENTRO =        -0.00000000
  eigenvalues    EBANDS =      -543.89126263
  atomic energy  EATOM  =      1241.89512738
  Solvation  Ediel_sol  =         0.00000000
  ---------------------------------------------------
  free energy    TOTEN  =       -99.71864608 eV

  energy without entropy =      -99.71864608  energy(sigma->0) =      -99.71864608


--------------------------------------------------------------------------------------------------------




--------------------------------------- Iteration      1(  10)  ---------------------------------------


    POTLOK:  cpu time    0.9619: real time    0.9613
    SETDIJ:  cpu time    0.0060: real time    0.0062
     EDDAV:  cpu time    4.1274: real time    4.1261
       DOS:  cpu time    0.0010: real time    0.0002
    CHARGE:  cpu time    0.2310: real time    0.2318
    MIXING:  cpu time    0.0290: real time    0.0286
    --------------------------------------------
      LOOP:  cpu time    5.3562: real time    5.3543

 eigenvalue-minimisations  :   112
 total energy-change (2. order) :-0.4036369E-03  (-0.2751120E-03)
 number of electron      56.0000014 magnetization 
 augmentation part       -4.3252064 magnetization 

 Broyden mixing:
  rms(total) = 0.14560E-01    rms(broyden)= 0.14560E-01
  rms(prec ) = 0.28034E-01
  weight for this iteration     100.00

 eigenvalues of (default mixing * dielectric matrix)
  average eigenvalue GAMMA=   1.8978
  2.8468  2.3568  1.0371  1.6241  1.6241

 Free energy of the ion-electron system (eV)
  ---------------------------------------------------
  alpha Z        PSCENC =         2.51538199
  Ewald energy   TEWEN  =      2629.98113996
  -Hartree energ DENC   =     -3548.24871751
  -exchange      EXHF   =         0.00000000
  -V(xc)+E(xc)   XCENC  =       -39.21361125
  PAW double counting   =      3645.14619397    -3489.95168244
  entropy T*S    EENTRO =        -0.00000000
  eigenvalues    EBANDS =      -541.84288182
  atomic energy  EATOM  =      1241.89512738
  Solvation  Ediel_sol  =         0.00000000
  ---------------------------------------------------
  free energy    TOTEN  =       -99.71904972 eV

  energy without entropy =      -99.71904972  energy(sigma->0) =      -99.71904972


--------------------------------------------------------------------------------------------------------




--------------------------------------- Iteration      1(  11)  ---------------------------------------


    POTLOK:  cpu time    0.9689: real time    0.9679
    SETDIJ:  cpu time    0.0060: real time    0.0061
     EDDAV:  cpu time    3.9044: real time    3.9034
       DOS:  cpu time    0.0010: real time    0.0002
    CHARGE:  cpu time    0.2310: real time    0.2318
    MIXING:  cpu time    0.0300: real time    0.0298
    --------------------------------------------
      LOOP:  cpu time    5.1412: real time    5.1393

 eigenvalue-minimisations  :   104
 total energy-change (2. order) : 0.2289151E-03  (-0.6933244E-03)
 number of electron      56.0000014 magnetization 
 augmentation part       -4.3239189 magnetization 

 Broyden mixing:
  rms(total) = 0.80488E-02    rms(broyden)= 0.80484E-02
  rms(prec ) = 0.14331E-01
  weight for this iteration     100.00

 eigenvalues of (default mixing * dielectric matrix)
  average eigenvalue GAMMA=   1.8768
  3.2660  2.5767  1.7323  1.7323  1.0586  0.8948

 Free energy of the ion-electron system (eV)
  ---------------------------------------------------
  alpha Z        PSCENC =         2.51538199
  Ewald energy   TEWEN  =      2629.98113996
  -Hartree energ DENC   =     -3555.15831386
  -exchange      EXHF   =         0.00000000
  -V(xc)+E(xc)   XCENC  =       -39.01317068
  PAW double counting   =      3610.00538303    -3454.77048861
  entropy T*S    EENTRO =        -0.00000000
  eigenvalues    EBANDS =      -535.17388001
  atomic energy  EATOM  =      1241.89512738
  Solvation  Ediel_sol  =         0.00000000
  ---------------------------------------------------
  free energy    TOTEN  =       -99.71882080 eV

  energy without entropy =      -99.71882080  energy(sigma->0) =      -99.71882080


--------------------------------------------------------------------------------------------------------




--------------------------------------- Iteration      1(  12)  ---------------------------------------


    POTLOK:  cpu time    0.9818: real time    0.9816
    SETDIJ:  cpu time    0.0060: real time    0.0061
     EDDAV:  cpu time    3.8824: real time    3.8907
       DOS:  cpu time    0.0000: real time    0.0003
    CHARGE:  cpu time    0.2320: real time    0.2314
    MIXING:  cpu time    0.0310: real time    0.0309
    --------------------------------------------
      LOOP:  cpu time    5.1332: real time    5.1409

 eigenvalue-minimisations  :   104
 total energy-change (2. order) :-0.4527693E-02  (-0.1142587E-03)
 number of electron      56.0000014 magnetization 
 augmentation part       -4.3232284 magnetization 

 Broyden mixing:
  rms(total) = 0.54233E-02    rms(broyden)= 0.54233E-02
  rms(prec ) = 0.95057E-02
  weight for this iteration     100.00

 eigenvalues of (default mixing * dielectric matrix)
  average eigenvalue GAMMA=   2.0868
  4.5884  2.5462  2.4093  1.5636  1.5636  0.9684  0.9684

 Free energy of the ion-electron system (eV)
  ---------------------------------------------------
  alpha Z        PSCENC =         2.51538199
  Ewald energy   TEWEN  =      2629.98113996
  -Hartree energ DENC   =     -3557.51176855
  -exchange      EXHF   =         0.00000000
  -V(xc)+E(xc)   XCENC  =       -38.97385591
  PAW double counting   =      3603.08812135    -3447.85187916
  entropy T*S    EENTRO =        -0.00000000
  eigenvalues    EBANDS =      -532.86561556
  atomic energy  EATOM  =      1241.89512738
  Solvation  Ediel_sol  =         0.00000000
  ---------------------------------------------------
  free energy    TOTEN  =       -99.72334850 eV

  energy without entropy =      -99.72334850  energy(sigma->0) =      -99.72334850


--------------------------------------------------------------------------------------------------------




--------------------------------------- Iteration      1(  13)  ---------------------------------------


    POTLOK:  cpu time    0.9689: real time    0.9697
    SETDIJ:  cpu time    0.0060: real time    0.0061
     EDDAV:  cpu time    4.1234: real time    4.1207
       DOS:  cpu time    0.0000: real time    0.0002
    CHARGE:  cpu time    0.2310: real time    0.2315
    MIXING:  cpu time    0.0330: real time    0.0328
    --------------------------------------------
      LOOP:  cpu time    5.3622: real time    5.3610

 eigenvalue-minimisations  :   112
 total energy-change (2. order) :-0.4593283E-02  (-0.1638434E-03)
 number of electron      56.0000014 magnetization 
 augmentation part       -4.3229243 magnetization 

 Broyden mixing:
  rms(total) = 0.33060E-02    rms(broyden)= 0.33059E-02
  rms(prec ) = 0.50519E-02
  weight for this iteration     100.00

 eigenvalues of (default mixing * dielectric matrix)
  average eigenvalue GAMMA=   2.2017
  5.6838  2.9173  2.3020  1.8030  1.8030  0.9653  0.9653  1.1743

 Free energy of the ion-electron system (eV)
  ---------------------------------------------------
  alpha Z        PSCENC =         2.51538199
  Ewald energy   TEWEN  =      2629.98113996
  -Hartree energ DENC   =     -3560.14850498
  -exchange      EXHF   =         0.00000000
  -V(xc)+E(xc)   XCENC  =       -38.92600557
  PAW double counting   =      3608.21328473    -3452.98574606
  entropy T*S    EENTRO =        -0.00000000
  eigenvalues    EBANDS =      -530.27261922
  atomic energy  EATOM  =      1241.89512738
  Solvation  Ediel_sol  =         0.00000000
  ---------------------------------------------------
  free energy    TOTEN  =       -99.72794178 eV

  energy without entropy =      -99.72794178  energy(sigma->0) =      -99.72794178


--------------------------------------------------------------------------------------------------------




--------------------------------------- Iteration      1(  14)  ---------------------------------------


    POTLOK:  cpu time    0.9659: real time    0.9661
    SETDIJ:  cpu time    0.0070: real time    0.0064
     EDDAV:  cpu time    4.3603: real time    4.3585
       DOS:  cpu time    0.0000: real time    0.0002
    CHARGE:  cpu time    0.2390: real time    0.2387
    MIXING:  cpu time    0.0340: real time    0.0340
    --------------------------------------------
      LOOP:  cpu time    5.6061: real time    5.6039

 eigenvalue-minimisations  :   120
 total energy-change (2. order) :-0.4137570E-02  (-0.3295501E-04)
 number of electron      56.0000014 magnetization 
 augmentation part       -4.3224016 magnetization 

 Broyden mixing:
  rms(total) = 0.15039E-02    rms(broyden)= 0.15039E-02
  rms(prec ) = 0.26719E-02
  weight for this iteration     100.00

 eigenvalues of (default mixing * dielectric matrix)
  average eigenvalue GAMMA=   2.3108
  6.5919  2.8547  2.8547  2.2091  1.6377  1.6377  1.0898  0.9608  0.9608

 Free energy of the ion-electron system (eV)
  ---------------------------------------------------
  alpha Z        PSCENC =         2.51538199
  Ewald energy   TEWEN  =      2629.98113996
  -Hartree energ DENC   =     -3560.84173137
  -exchange      EXHF   =         0.00000000
  -V(xc)+E(xc)   XCENC  =       -38.93993023
  PAW double counting   =      3607.47987062    -3452.25219540
  entropy T*S    EENTRO =        -0.00000000
  eigenvalues    EBANDS =      -529.56974231
  atomic energy  EATOM  =      1241.89512738
  Solvation  Ediel_sol  =         0.00000000
  ---------------------------------------------------
  free energy    TOTEN  =       -99.73207935 eV

  energy without entropy =      -99.73207935  energy(sigma->0) =      -99.73207935


--------------------------------------------------------------------------------------------------------




--------------------------------------- Iteration      1(  15)  ---------------------------------------


    POTLOK:  cpu time    0.9669: real time    0.9656
    SETDIJ:  cpu time    0.0060: real time    0.0061
     EDDAV:  cpu time    3.8884: real time    3.8872
       DOS:  cpu time    0.0000: real time    0.0002
    CHARGE:  cpu time    0.2330: real time    0.2323
    MIXING:  cpu time    0.0360: real time    0.0361
    --------------------------------------------
      LOOP:  cpu time    5.1302: real time    5.1276

 eigenvalue-minimisations  :   104
 total energy-change (2. order) :-0.4258626E-02  (-0.4991536E-04)
 number of electron      56.0000014 magnetization 
 augmentation part       -4.3222370 magnetization 

 Broyden mixing:
  rms(total) = 0.13162E-02    rms(broyden)= 0.13161E-02
  rms(prec ) = 0.17580E-02
  weight for this iteration     100.00

 eigenvalues of (default mixing * dielectric matrix)
  average eigenvalue GAMMA=   2.3067
  6.7278  3.8038  2.6052  1.9413  1.9413  1.8890  1.2716  0.9332  0.9771  0.9771

 Free energy of the ion-electron system (eV)
  ---------------------------------------------------
  alpha Z        PSCENC =         2.51538199
  Ewald energy   TEWEN  =      2629.98113996
  -Hartree energ DENC   =     -3561.07053018
  -exchange      EXHF   =         0.00000000
  -V(xc)+E(xc)   XCENC  =       -38.94720142
  PAW double counting   =      3611.15015465    -3455.92217992
  entropy T*S    EENTRO =        -0.00000000
  eigenvalues    EBANDS =      -529.33823044
  atomic energy  EATOM  =      1241.89512738
  Solvation  Ediel_sol  =         0.00000000
  ---------------------------------------------------
  free energy    TOTEN  =       -99.73633797 eV

  energy without entropy =      -99.73633797  energy(sigma->0) =      -99.73633797


--------------------------------------------------------------------------------------------------------




--------------------------------------- Iteration      1(  16)  ---------------------------------------


    POTLOK:  cpu time    0.9599: real time    0.9598
    SETDIJ:  cpu time    0.0070: real time    0.0062
     EDDAV:  cpu time    4.1184: real time    4.1174
       DOS:  cpu time    0.0000: real time    0.0003
    CHARGE:  cpu time    0.2310: real time    0.2309
    MIXING:  cpu time    0.0390: real time    0.0388
    --------------------------------------------
      LOOP:  cpu time    5.3552: real time    5.3534

 eigenvalue-minimisations  :   112
 total energy-change (2. order) :-0.1017758E-02  (-0.5574307E-05)
 number of electron      56.0000014 magnetization 
 augmentation part       -4.3224368 magnetization 

 Broyden mixing:
  rms(total) = 0.60972E-03    rms(broyden)= 0.60970E-03
  rms(prec ) = 0.93632E-03
  weight for this iteration     100.00

 eigenvalues of (default mixing * dielectric matrix)
  average eigenvalue GAMMA=   2.4253
  7.3916  4.6863  2.6431  2.6431  1.8147  1.8147  1.3946  1.3946  0.9639  0.9639
  0.9681

 Free energy of the ion-electron system (eV)
  ---------------------------------------------------
  alpha Z        PSCENC =         2.51538199
  Ewald energy   TEWEN  =      2629.98113996
  -Hartree energ DENC   =     -3561.17636574
  -exchange      EXHF   =         0.00000000
  -V(xc)+E(xc)   XCENC  =       -38.94476007
  PAW double counting   =      3611.01258329    -3455.78414023
  entropy T*S    EENTRO =        -0.00000000
  eigenvalues    EBANDS =      -529.23632232
  atomic energy  EATOM  =      1241.89512738
  Solvation  Ediel_sol  =         0.00000000
  ---------------------------------------------------
  free energy    TOTEN  =       -99.73735573 eV

  energy without entropy =      -99.73735573  energy(sigma->0) =      -99.73735573


--------------------------------------------------------------------------------------------------------




--------------------------------------- Iteration      1(  17)  ---------------------------------------


    POTLOK:  cpu time    0.9599: real time    0.9595
    SETDIJ:  cpu time    0.0070: real time    0.0061
     EDDAV:  cpu time    3.8904: real time    3.8899
       DOS:  cpu time    0.0010: real time    0.0002
    CHARGE:  cpu time    0.2260: real time    0.2268
    MIXING:  cpu time    0.0430: real time    0.0424
    --------------------------------------------
      LOOP:  cpu time    5.1272: real time    5.1249

 eigenvalue-minimisations  :   104
 total energy-change (2. order) :-0.1044686E-02  (-0.8823768E-05)
 number of electron      56.0000014 magnetization 
 augmentation part       -4.3226076 magnetization 

 Broyden mixing:
  rms(total) = 0.31378E-03    rms(broyden)= 0.31375E-03
  rms(prec ) = 0.45246E-03
  weight for this iteration     100.00

 eigenvalues of (default mixing * dielectric matrix)
  average eigenvalue GAMMA=   2.4065
  7.5418  5.0431  2.6624  2.6624  1.9553  1.9553  1.5165  1.5165  1.1407  0.9664
  0.9664  0.9519

 Free energy of the ion-electron system (eV)
  ---------------------------------------------------
  alpha Z        PSCENC =         2.51538199
  Ewald energy   TEWEN  =      2629.98113996
  -Hartree energ DENC   =     -3561.18414695
  -exchange      EXHF   =         0.00000000
  -V(xc)+E(xc)   XCENC  =       -38.94796803
  PAW double counting   =      3609.39432628    -3454.16467347
  entropy T*S    EENTRO =        -0.00000000
  eigenvalues    EBANDS =      -529.22758758
  atomic energy  EATOM  =      1241.89512738
  Solvation  Ediel_sol  =         0.00000000
  ---------------------------------------------------
  free energy    TOTEN  =       -99.73840042 eV

  energy without entropy =      -99.73840042  energy(sigma->0) =      -99.73840042


--------------------------------------------------------------------------------------------------------




--------------------------------------- Iteration      1(  18)  ---------------------------------------


    POTLOK:  cpu time    1.4048: real time    1.4057
    SETDIJ:  cpu time    0.0070: real time    0.0074
     EDDAV:  cpu time    3.8934: real time    3.8906
       DOS:  cpu time    0.0000: real time    0.0002
    CHARGE:  cpu time    0.2320: real time    0.2326
    MIXING:  cpu time    0.0480: real time    0.0471
    --------------------------------------------
      LOOP:  cpu time    5.5851: real time    5.5837

 eigenvalue-minimisations  :   104
 total energy-change (2. order) :-0.2590757E-03  (-0.8268949E-06)
 number of electron      56.0000014 magnetization 
 augmentation part       -4.3225789 magnetization 

 Broyden mixing:
  rms(total) = 0.16270E-03    rms(broyden)= 0.16267E-03
  rms(prec ) = 0.24794E-03
  weight for this iteration     100.00

 eigenvalues of (default mixing * dielectric matrix)
  average eigenvalue GAMMA=   2.4834
  8.1510  5.7685  3.1683  2.6225  2.3690  1.7737  1.7737  1.3794  1.3794  0.9987
  0.9987  0.9504  0.9504

 Free energy of the ion-electron system (eV)
  ---------------------------------------------------
  alpha Z        PSCENC =         2.51538199
  Ewald energy   TEWEN  =      2629.98113996
  -Hartree energ DENC   =     -3561.22401537
  -exchange      EXHF   =         0.00000000
  -V(xc)+E(xc)   XCENC  =       -38.94711146
  PAW double counting   =      3609.43955059    -3454.21045698
  entropy T*S    EENTRO =        -0.00000000
  eigenvalues    EBANDS =      -529.18827560
  atomic energy  EATOM  =      1241.89512738
  Solvation  Ediel_sol  =         0.00000000
  ---------------------------------------------------
  free energy    TOTEN  =       -99.73865949 eV

  energy without entropy =      -99.73865949  energy(sigma->0) =      -99.73865949


--------------------------------------------------------------------------------------------------------




--------------------------------------- Iteration      1(  19)  ---------------------------------------


    POTLOK:  cpu time    0.9689: real time    0.9684
    SETDIJ:  cpu time    0.0060: real time    0.0062
     EDDAV:  cpu time    3.9044: real time    3.9025
       DOS:  cpu time    0.0000: real time    0.0002
    CHARGE:  cpu time    0.2340: real time    0.2342
    MIXING:  cpu time    0.0530: real time    0.0532
    --------------------------------------------
      LOOP:  cpu time    5.1662: real time    5.1647

 eigenvalue-minimisations  :   104
 total energy-change (2. order) :-0.1533113E-03  (-0.5523629E-06)
 number of electron      56.0000014 magnetization 
 augmentation part       -4.3226033 magnetization 

 Broyden mixing:
  rms(total) = 0.14503E-03    rms(broyden)= 0.14502E-03
  rms(prec ) = 0.18493E-03
  weight for this iteration     100.00

 eigenvalues of (default mixing * dielectric matrix)
  average eigenvalue GAMMA=   2.4744
  8.3457  6.0529  3.3214  2.6873  2.0783  2.0783  1.7355  1.7355  1.3867  1.3867
  0.9914  0.9914  0.9255  0.9255

 Free energy of the ion-electron system (eV)
  ---------------------------------------------------
  alpha Z        PSCENC =         2.51538199
  Ewald energy   TEWEN  =      2629.98113996
  -Hartree energ DENC   =     -3561.23395687
  -exchange      EXHF   =         0.00000000
  -V(xc)+E(xc)   XCENC  =       -38.94640698
  PAW double counting   =      3609.30137510    -3454.07246768
  entropy T*S    EENTRO =        -0.00000000
  eigenvalues    EBANDS =      -529.17900571
  atomic energy  EATOM  =      1241.89512738
  Solvation  Ediel_sol  =         0.00000000
  ---------------------------------------------------
  free energy    TOTEN  =       -99.73881281 eV

  energy without entropy =      -99.73881281  energy(sigma->0) =      -99.73881281


--------------------------------------------------------------------------------------------------------




--------------------------------------- Iteration      1(  20)  ---------------------------------------


    POTLOK:  cpu time    0.9689: real time    0.9674
    SETDIJ:  cpu time    0.0060: real time    0.0062
     EDDAV:  cpu time    3.4405: real time    3.4388
       DOS:  cpu time    0.0000: real time    0.0003
    CHARGE:  cpu time    0.2480: real time    0.2475
    MIXING:  cpu time    0.0610: real time    0.0602
    --------------------------------------------
      LOOP:  cpu time    4.7243: real time    4.7204

 eigenvalue-minimisations  :    88
 total energy-change (2. order) :-0.5052188E-04  (-0.8301154E-07)
 number of electron      56.0000014 magnetization 
 augmentation part       -4.3225913 magnetization 

 Broyden mixing:
  rms(total) = 0.54545E-04    rms(broyden)= 0.54545E-04
  rms(prec ) = 0.81058E-04
  weight for this iteration     100.00

 eigenvalues of (default mixing * dielectric matrix)
  average eigenvalue GAMMA=   2.5319
  8.6187  6.4271  4.0965  2.8915  2.5705  1.8192  1.8192  1.8916  1.4001  1.4001
  1.2205  0.9824  0.9824  0.9630  0.8960

 Free energy of the ion-electron system (eV)
  ---------------------------------------------------
  alpha Z        PSCENC =         2.51538199
  Ewald energy   TEWEN  =      2629.98113996
  -Hartree energ DENC   =     -3561.23682749
  -exchange      EXHF   =         0.00000000
  -V(xc)+E(xc)   XCENC  =       -38.94724713
  PAW double counting   =      3609.19002981    -3453.96104191
  entropy T*S    EENTRO =        -0.00000000
  eigenvalues    EBANDS =      -529.17542594
  atomic energy  EATOM  =      1241.89512738
  Solvation  Ediel_sol  =         0.00000000
  ---------------------------------------------------
  free energy    TOTEN  =       -99.73886333 eV

  energy without entropy =      -99.73886333  energy(sigma->0) =      -99.73886333


--------------------------------------------------------------------------------------------------------




--------------------------------------- Iteration      1(  21)  ---------------------------------------


    POTLOK:  cpu time    0.9759: real time    0.9761
    SETDIJ:  cpu time    0.0060: real time    0.0061
     EDDAV:  cpu time    3.2015: real time    3.2000
       DOS:  cpu time    0.0000: real time    0.0002
    CHARGE:  cpu time    0.2320: real time    0.2308
    MIXING:  cpu time    0.0670: real time    0.0672
    --------------------------------------------
      LOOP:  cpu time    4.4823: real time    4.4805

 eigenvalue-minimisations  :    80
 total energy-change (2. order) :-0.2822722E-04  (-0.9218036E-07)
 number of electron      56.0000014 magnetization 
 augmentation part       -4.3225766 magnetization 

 Broyden mixing:
  rms(total) = 0.43663E-04    rms(broyden)= 0.43661E-04
  rms(prec ) = 0.57512E-04
  weight for this iteration     100.00

 eigenvalues of (default mixing * dielectric matrix)
  average eigenvalue GAMMA=   2.5073
  8.5376  6.6707  4.1349  2.9001  2.6442  2.0501  2.0501  1.7224  1.7224  1.5586
  1.2127  1.0204  1.0204  0.9367  0.9367  0.9992

 Free energy of the ion-electron system (eV)
  ---------------------------------------------------
  alpha Z        PSCENC =         2.51538199
  Ewald energy   TEWEN  =      2629.98113996
  -Hartree energ DENC   =     -3561.24445031
  -exchange      EXHF   =         0.00000000
  -V(xc)+E(xc)   XCENC  =       -38.94720732
  PAW double counting   =      3609.30377440    -3454.07489275
  entropy T*S    EENTRO =        -0.00000000
  eigenvalues    EBANDS =      -529.16776491
  atomic energy  EATOM  =      1241.89512738
  Solvation  Ediel_sol  =         0.00000000
  ---------------------------------------------------
  free energy    TOTEN  =       -99.73889155 eV

  energy without entropy =      -99.73889155  energy(sigma->0) =      -99.73889155


--------------------------------------------------------------------------------------------------------




--------------------------------------- Iteration      1(  22)  ---------------------------------------


    POTLOK:  cpu time    0.9579: real time    0.9583
    SETDIJ:  cpu time    0.0070: real time    0.0061
     EDDAV:  cpu time    3.4345: real time    3.4333
       DOS:  cpu time    0.0000: real time    0.0003
    CHARGE:  cpu time    0.2330: real time    0.2331
    MIXING:  cpu time    0.0750: real time    0.0745
    --------------------------------------------
      LOOP:  cpu time    4.7073: real time    4.7056

 eigenvalue-minimisations  :    88
 total energy-change (2. order) :-0.7370532E-05  (-0.1752775E-07)
 number of electron      56.0000014 magnetization 
 augmentation part       -4.3225870 magnetization 

 Broyden mixing:
  rms(total) = 0.20100E-04    rms(broyden)= 0.20099E-04
  rms(prec ) = 0.27308E-04
  weight for this iteration     100.00

 eigenvalues of (default mixing * dielectric matrix)
  average eigenvalue GAMMA=   2.5401
  8.8231  6.7837  4.7295  3.2618  2.6087  2.6087  1.8690  1.8690  1.6604  1.6604
  1.2408  1.2408  0.9925  0.9859  0.9859  0.9312  0.9312

 Free energy of the ion-electron system (eV)
  ---------------------------------------------------
  alpha Z        PSCENC =         2.51538199
  Ewald energy   TEWEN  =      2629.98113996
  -Hartree energ DENC   =     -3561.24312530
  -exchange      EXHF   =         0.00000000
  -V(xc)+E(xc)   XCENC  =       -38.94707295
  PAW double counting   =      3609.34472269    -3454.11577156
  entropy T*S    EENTRO =        -0.00000000
  eigenvalues    EBANDS =      -529.16930114
  atomic energy  EATOM  =      1241.89512738
  Solvation  Ediel_sol  =         0.00000000
  ---------------------------------------------------
  free energy    TOTEN  =       -99.73889893 eV

  energy without entropy =      -99.73889893  energy(sigma->0) =      -99.73889893


--------------------------------------------------------------------------------------------------------




--------------------------------------- Iteration      1(  23)  ---------------------------------------


    POTLOK:  cpu time    0.9619: real time    0.9616
    SETDIJ:  cpu time    0.0070: real time    0.0062
     EDDAV:  cpu time    3.2035: real time    3.2027
       DOS:  cpu time    0.0010: real time    0.0002
    CHARGE:  cpu time    0.2300: real time    0.2302
    MIXING:  cpu time    0.0810: real time    0.0812
    --------------------------------------------
      LOOP:  cpu time    4.4843: real time    4.4821

 eigenvalue-minimisations  :    80
 total energy-change (2. order) :-0.3788706E-05  (-0.1070988E-07)
 number of electron      56.0000014 magnetization 
 augmentation part       -4.3225949 magnetization 

 Broyden mixing:
  rms(total) = 0.15497E-04    rms(broyden)= 0.15496E-04
  rms(prec ) = 0.19862E-04
  weight for this iteration     100.00

 eigenvalues of (default mixing * dielectric matrix)
  average eigenvalue GAMMA=   2.5040
  8.8753  6.8338  4.8022  3.1778  2.6835  2.6835  1.9241  1.9241  1.6328  1.6328
  1.6648  1.1141  1.1141  1.1247  0.9301  0.9502  1.0023  1.0023

 Free energy of the ion-electron system (eV)
  ---------------------------------------------------
  alpha Z        PSCENC =         2.51538199
  Ewald energy   TEWEN  =      2629.98113996
  -Hartree energ DENC   =     -3561.24223067
  -exchange      EXHF   =         0.00000000
  -V(xc)+E(xc)   XCENC  =       -38.94719938
  PAW double counting   =      3609.31421931    -3454.08522311
  entropy T*S    EENTRO =        -0.00000000
  eigenvalues    EBANDS =      -529.17011819
  atomic energy  EATOM  =      1241.89512738
  Solvation  Ediel_sol  =         0.00000000
  ---------------------------------------------------
  free energy    TOTEN  =       -99.73890271 eV

  energy without entropy =      -99.73890271  energy(sigma->0) =      -99.73890271


--------------------------------------------------------------------------------------------------------




--------------------------------------- Iteration      1(  24)  ---------------------------------------


    POTLOK:  cpu time    0.9669: real time    0.9658
    SETDIJ:  cpu time    0.0060: real time    0.0063
     EDDAV:  cpu time    3.4365: real time    3.4352
       DOS:  cpu time    0.0000: real time    0.0003
    CHARGE:  cpu time    0.2330: real time    0.2323
    MIXING:  cpu time    0.0870: real time    0.0875
    --------------------------------------------
      LOOP:  cpu time    4.7293: real time    4.7274

 eigenvalue-minimisations  :    88
 total energy-change (2. order) :-0.1907726E-05  (-0.2693541E-08)
 number of electron      56.0000014 magnetization 
 augmentation part       -4.3225928 magnetization 

 Broyden mixing:
  rms(total) = 0.54419E-05    rms(broyden)= 0.54418E-05
  rms(prec ) = 0.78689E-05
  weight for this iteration     100.00

 eigenvalues of (default mixing * dielectric matrix)
  average eigenvalue GAMMA=   2.5688
  8.8631  7.1521  5.5388  3.9261  2.9837  2.4543  2.4543  1.8683  1.8683  1.6726
  1.6726  1.2191  1.2191  1.0925  0.9839  0.9839  0.9403  0.9403  0.9739

 Free energy of the ion-electron system (eV)
  ---------------------------------------------------
  alpha Z        PSCENC =         2.51538199
  Ewald energy   TEWEN  =      2629.98113996
  -Hartree energ DENC   =     -3561.24300229
  -exchange      EXHF   =         0.00000000
  -V(xc)+E(xc)   XCENC  =       -38.94721393
  PAW double counting   =      3609.27759468    -3454.04863267
  entropy T*S    EENTRO =        -0.00000000
  eigenvalues    EBANDS =      -529.16929974
  atomic energy  EATOM  =      1241.89512738
  Solvation  Ediel_sol  =         0.00000000
  ---------------------------------------------------
  free energy    TOTEN  =       -99.73890462 eV

  energy without entropy =      -99.73890462  energy(sigma->0) =      -99.73890462


--------------------------------------------------------------------------------------------------------




--------------------------------------- Iteration      1(  25)  ---------------------------------------


    POTLOK:  cpu time    1.1068: real time    1.1064
    SETDIJ:  cpu time    0.0060: real time    0.0062
     EDDAV:  cpu time    3.2015: real time    3.1989
       DOS:  cpu time    0.0000: real time    0.0002
    --------------------------------------------
      LOOP:  cpu time    4.3143: real time    4.3117

 eigenvalue-minimisations  :    80
 total energy-change (2. order) :-0.7109179E-06  (-0.1408834E-08)
 number of electron      56.0000014 magnetization 
 augmentation part       -4.3225928 magnetization 

 Free energy of the ion-electron system (eV)
  ---------------------------------------------------
  alpha Z        PSCENC =         2.51538199
  Ewald energy   TEWEN  =      2629.98113996
  -Hartree energ DENC   =     -3561.24403097
  -exchange      EXHF   =         0.00000000
  -V(xc)+E(xc)   XCENC  =       -38.94718269
  PAW double counting   =      3609.28392218    -3454.05497125
  entropy T*S    EENTRO =        -0.00000000
  eigenvalues    EBANDS =      -529.16829193
  atomic energy  EATOM  =      1241.89512738
  Solvation  Ediel_sol  =         0.00000000
  ---------------------------------------------------
  free energy    TOTEN  =       -99.73890533 eV

  energy without entropy =      -99.73890533  energy(sigma->0) =      -99.73890533


--------------------------------------------------------------------------------------------------------




 average (electrostatic) potential at core
  the test charge radii are     0.9892  1.1631  0.5201
  (the norm of the test charge is              1.0000)
       1 -93.3932       2 -93.4562       3 -93.4562       4 -93.4714       5 -40.3940
       6 -40.4229       7 -40.4229       8 -40.4289       9 -40.4762      10 -40.4289
      11 -41.0474      12 -41.0561      13 -41.0534      14 -41.0568      15 -41.0602
      16 -40.6978      17 -40.6929      18 -40.6954      19 -40.6748      20 -41.0602
      21 -41.0565      22 -41.0536      23 -40.6921      24 -40.6978      25 -41.0706
      26 -41.0707
 
 
 
 E-fermi :  -5.3797     XC(G=0):  -0.6101     alpha+bet : -0.3306


 k-point     1 :       0.0000    0.0000    0.0000
  band No.  band energies     occupation 
      1     -15.3989      2.00000
      2     -14.4467      2.00000
      3     -14.3959      2.00000
      4     -13.9800      2.00000
      5     -13.2080      2.00000
      6     -12.9756      2.00000
      7     -11.7425      2.00000
      8     -11.7137      2.00000
      9     -11.3682      2.00000
     10     -10.4961      2.00000
     11      -8.9733      2.00000
     12      -8.6382      2.00000
     13      -8.6321      2.00000
     14      -8.6216      2.00000
     15      -8.1891      2.00000
     16      -8.1810      2.00000
     17      -8.1665      2.00000
     18      -7.8581      2.00000
     19      -7.8562      2.00000
     20      -7.8467      2.00000
     21      -6.7677      2.00000
     22      -6.7533      2.00000
     23      -6.4598      2.00000
     24      -6.4579      2.00000
     25      -6.4299      2.00000
     26      -6.3560      2.00000
     27      -6.3429      2.00000
     28      -6.3285      2.00000
     29      -1.6750      0.00000
     30      -1.3386      0.00000
     31      -1.2455      0.00000
     32      -1.1702      0.00000
     33      -1.1418      0.00000
     34      -1.1207      0.00000
     35      -1.0134      0.00000
     36      -0.9684      0.00000
     37      -0.8904      0.00000
     38      -0.6307      0.00000
     39      -0.3578      0.00000
     40      -0.2610      0.00000
     41      -0.2208      0.00000
     42      -0.1169      0.00000


--------------------------------------------------------------------------------------------------------


 soft charge-density along one line, spin component           1
         0         1         2         3         4         5         6         7         8         9
 total charge-density along one line
 
 pseudopotential strength for first ion, spin component:           1
 19.613  27.370   0.002   0.003   0.001   0.003   0.005   0.003
 27.370  38.201   0.002   0.004   0.002   0.004   0.008   0.004
  0.002   0.002   4.359   0.000   0.000   8.131   0.000   0.001
  0.003   0.004   0.000   4.359   0.000   0.000   8.131   0.000
  0.001   0.002   0.000   0.000   4.358   0.001   0.000   8.130
  0.003   0.004   8.131   0.000   0.001  15.178   0.001   0.001
  0.005   0.008   0.000   8.131   0.000   0.001  15.177   0.001
  0.003   0.004   0.001   0.000   8.130   0.001   0.001  15.177
 total augmentation occupancy for first ion, spin component:           1
  5.560  -2.039   0.050  -0.338  -0.055  -0.014   0.101   0.017
 -2.039   0.811  -0.035   0.204   0.031   0.008  -0.045  -0.007
  0.050  -0.035   2.837  -0.113  -0.031  -0.615   0.039   0.009
 -0.338   0.204  -0.113   3.285   0.048   0.039  -0.776  -0.019
 -0.055   0.031  -0.031   0.048   2.844   0.009  -0.019  -0.615
 -0.014   0.008  -0.615   0.039   0.009   0.140  -0.011  -0.002
  0.101  -0.045   0.039  -0.776  -0.019  -0.011   0.186   0.006
  0.017  -0.007   0.009  -0.019  -0.615  -0.002   0.006   0.139


------------------------ aborting loop because EDIFF is reached ----------------------------------------


    CHARGE:  cpu time    0.2460: real time    0.2456
    FORLOC:  cpu time    0.1260: real time    0.1263
    FORNL :  cpu time    0.8279: real time    0.8263
    STRESS:  cpu time    2.8996: real time    2.8976
    FORCOR:  cpu time    1.0018: real time    1.0016
    FORHAR:  cpu time    0.3529: real time    0.3522
    MIXING:  cpu time    0.0940: real time    0.0938
    OFIELD:  cpu time    0.0000: real time    0.0000

  FORCE on cell =-STRESS in cart. coord.  units (eV):
  Direction    XX          YY          ZZ          XY          YZ          ZX
  --------------------------------------------------------------------------------------
  Alpha Z     2.51538     2.51538     2.51538
  Ewald     876.64706   876.62235   876.71007    -0.21850     0.02563    -0.50464
  Hartree  1186.99493  1186.65161  1187.59715    -0.24579     0.37487    -0.20708
  E(xc)    -180.27311  -180.19087  -180.28199     0.07719     0.07036     0.04196
  Local   -2546.74170 -2546.32327 -2547.32527     0.51154    -0.36391     0.75598
  n-local   239.14872   238.73331   239.08445    -0.40881    -0.39565    -0.26096
  augment   -13.81672   -13.81579   -13.82871     0.00276     0.00429    -0.00061
  Kinetic   435.00704   435.17599   434.94468     0.19017     0.23177     0.12234
  Fock        0.00000     0.00000     0.00000     0.00000     0.00000     0.00000
  -------------------------------------------------------------------------------------
  Total      -0.51839    -0.63130    -0.58424    -0.09145    -0.05264    -0.05301
  in kB      -0.10382    -0.12643    -0.11701    -0.01831    -0.01054    -0.01062
  external pressure =       -0.12 kB  Pullay stress =        0.00 kB


 VOLUME and BASIS-vectors are now :
 -----------------------------------------------------------------------------
  energy-cutoff  :      400.00
[...]
    SETDIJ:  cpu time    0.0070: real time    0.0073
     EDDAV:  cpu time    4.3503: real time    4.3549
       DOS:  cpu time    0.0000: real time    0.0002
    CHARGE:  cpu time    0.2330: real time    0.2323
    MIXING:  cpu time    0.0230: real time    0.0254
    --------------------------------------------
      LOOP:  cpu time    5.5922: real time    5.6013

 eigenvalue-minimisations  :   120
 total energy-change (2. order) :-0.2939208E-04  (-0.3665525E-04)
 number of electron      56.0000000 magnetization 
 augmentation part       -4.3104629 magnetization 

 Broyden mixing:
  rms(total) = 0.16345E-02    rms(broyden)= 0.16341E-02
  rms(prec ) = 0.17494E-02
  weight for this iteration     100.00

 eigenvalues of (default mixing * dielectric matrix)
  average eigenvalue GAMMA=   1.0952
  1.0952

 Free energy of the ion-electron system (eV)
  ---------------------------------------------------
  alpha Z        PSCENC =         2.51538199
  Ewald energy   TEWEN  =      2596.44185279
  -Hartree energ DENC   =     -3528.32063524
  -exchange      EXHF   =         0.00000000
  -V(xc)+E(xc)   XCENC  =       -38.84873272
  PAW double counting   =      3676.27220908    -3521.02373903
  entropy T*S    EENTRO =        -0.00000000
  eigenvalues    EBANDS =      -528.90055739
  atomic energy  EATOM  =      1241.89512738
  Solvation  Ediel_sol  =         0.00000000
  ---------------------------------------------------
  free energy    TOTEN  =       -99.96909313 eV

  energy without entropy =      -99.96909313  energy(sigma->0) =      -99.96909313


--------------------------------------------------------------------------------------------------------




--------------------------------------- Iteration     18(   3)  ---------------------------------------


    POTLOK:  cpu time    0.9659: real time    0.9658
    SETDIJ:  cpu time    0.0140: real time    0.0137
     EDDAV:  cpu time    4.3463: real time    4.3457
       DOS:  cpu time    0.0010: real time    0.0002
    CHARGE:  cpu time    0.2320: real time    0.2324
    MIXING:  cpu time    0.0250: real time    0.0251
    --------------------------------------------
      LOOP:  cpu time    5.5842: real time    5.5830

 eigenvalue-minimisations  :   120
 total energy-change (2. order) : 0.2087853E-05  (-0.1067485E-05)
 number of electron      56.0000000 magnetization 
 augmentation part       -4.3104016 magnetization 

 Broyden mixing:
  rms(total) = 0.88200E-03    rms(broyden)= 0.88197E-03
  rms(prec ) = 0.94109E-03
  weight for this iteration     100.00

 eigenvalues of (default mixing * dielectric matrix)
  average eigenvalue GAMMA=   1.5907
  1.0527  2.1287

 Free energy of the ion-electron system (eV)
  ---------------------------------------------------
  alpha Z        PSCENC =         2.51538199
  Ewald energy   TEWEN  =      2596.44185279
  -Hartree energ DENC   =     -3528.32754497
  -exchange      EXHF   =         0.00000000
  -V(xc)+E(xc)   XCENC  =       -38.84873468
  PAW double counting   =      3676.55470759    -3521.30656216
  entropy T*S    EENTRO =        -0.00000000
  eigenvalues    EBANDS =      -528.89331899
  atomic energy  EATOM  =      1241.89512738
  Solvation  Ediel_sol  =         0.00000000
  ---------------------------------------------------
  free energy    TOTEN  =       -99.96909105 eV

  energy without entropy =      -99.96909105  energy(sigma->0) =      -99.96909105


--------------------------------------------------------------------------------------------------------




--------------------------------------- Iteration     18(   4)  ---------------------------------------


    POTLOK:  cpu time    0.9679: real time    0.9674
    SETDIJ:  cpu time    0.0070: real time    0.0061
     EDDAV:  cpu time    4.1184: real time    4.1196
       DOS:  cpu time    0.0000: real time    0.0002
    --------------------------------------------
      LOOP:  cpu time    5.0932: real time    5.0933

 eigenvalue-minimisations  :   112
 total energy-change (2. order) :-0.8677034E-08  (-0.4315013E-06)
 number of electron      56.0000000 magnetization 
 augmentation part       -4.3104016 magnetization 

 Free energy of the ion-electron system (eV)
  ---------------------------------------------------
  alpha Z        PSCENC =         2.51538199
  Ewald energy   TEWEN  =      2596.44185279
  -Hartree energ DENC   =     -3528.33319448
  -exchange      EXHF   =         0.00000000
  -V(xc)+E(xc)   XCENC  =       -38.84859310
  PAW double counting   =      3676.83824000    -3521.59034444
  entropy T*S    EENTRO =        -0.00000000
  eigenvalues    EBANDS =      -528.88756120
  atomic energy  EATOM  =      1241.89512738
  Solvation  Ediel_sol  =         0.00000000
  ---------------------------------------------------
  free energy    TOTEN  =       -99.96909105 eV

  energy without entropy =      -99.96909105  energy(sigma->0) =      -99.96909105


--------------------------------------------------------------------------------------------------------




 average (electrostatic) potential at core
  the test charge radii are     0.9892  1.1631  0.5201
  (the norm of the test charge is              1.0000)
       1 -93.3450       2 -93.3576       3 -93.3577       4 -93.5006       5 -40.3963
       6 -40.4605       7 -40.4607       8 -40.4404       9 -40.4845      10 -40.4403
      11 -40.9846      12 -40.9853      13 -41.0170      14 -40.9843      15 -40.9840
      16 -40.8602      17 -40.8575      18 -40.8941      19 -40.9169      20 -40.9844
      21 -40.9847      22 -41.0165      23 -40.8573      24 -40.8596      25 -40.9898
      26 -40.9896
 
 
 
 E-fermi :  -5.2975     XC(G=0):  -0.6110     alpha+bet : -0.3306


 k-point     1 :       0.0000    0.0000    0.0000
  band No.  band energies     occupation 
      1     -15.2253      2.00000
      2     -14.2969      2.00000
      3     -14.2889      2.00000
      4     -14.0318      2.00000
      5     -13.2063      2.00000
      6     -13.0332      2.00000
      7     -11.8002      2.00000
      8     -11.7849      2.00000
      9     -11.4733      2.00000
     10     -10.6266      2.00000
     11      -8.9846      2.00000
     12      -8.6697      2.00000
     13      -8.6000      2.00000
     14      -8.4999      2.00000
     15      -8.2197      2.00000
     16      -8.1193      2.00000
     17      -8.0405      2.00000
     18      -7.9603      2.00000
     19      -7.8366      2.00000
     20      -7.8158      2.00000
     21      -6.8379      2.00000
     22      -6.7738      2.00000
     23      -6.4982      2.00000
     24      -6.4760      2.00000
     25      -6.3742      2.00000
     26      -6.3732      2.00000
     27      -6.3244      2.00000
     28      -6.2720      2.00000
     29      -1.6386      0.00000
     30      -1.3691      0.00000
     31      -1.3556      0.00000
     32      -1.3339      0.00000
     33      -1.2584      0.00000
     34      -1.2010      0.00000
     35      -1.0604      0.00000
     36      -0.9440      0.00000
     37      -0.9236      0.00000
     38      -0.5743      0.00000
     39      -0.3457      0.00000
     40      -0.2326      0.00000
     41      -0.1642      0.00000
     42      -0.0899      0.00000


--------------------------------------------------------------------------------------------------------


 soft charge-density along one line, spin component           1
         0         1         2         3         4         5         6         7         8         9
 total charge-density along one line
 
 pseudopotential strength for first ion, spin component:           1
 19.615  27.374   0.001   0.003   0.001   0.002   0.006   0.003
 27.374  38.205   0.002   0.005   0.002   0.003   0.008   0.004
  0.001   0.002   4.361   0.000   0.000   8.136   0.000   0.000
  0.003   0.005   0.000   4.362   0.000   0.000   8.136   0.000
  0.001   0.002   0.000   0.000   4.361   0.000   0.000   8.135
  0.002   0.003   8.136   0.000   0.000  15.186   0.000   0.001
  0.006   0.008   0.000   8.136   0.000   0.000  15.187   0.001
  0.003   0.004   0.000   0.000   8.135   0.001   0.001  15.186
 total augmentation occupancy for first ion, spin component:           1
  5.905  -2.226   0.008  -0.483  -0.109   0.000   0.152   0.035
 -2.226   0.900  -0.018   0.275   0.056   0.002  -0.069  -0.015
  0.008  -0.018   2.927  -0.185  -0.090  -0.644   0.060   0.025
 -0.483   0.275  -0.185   3.504   0.024   0.060  -0.841  -0.012
 -0.109   0.056  -0.090   0.024   2.989   0.025  -0.012  -0.659
  0.000   0.002  -0.644   0.060   0.025   0.148  -0.017  -0.007
  0.152  -0.069   0.060  -0.841  -0.012  -0.017   0.205   0.004
  0.035  -0.015   0.025  -0.012  -0.659  -0.007   0.004   0.152


------------------------ aborting loop because EDIFF is reached ----------------------------------------


    CHARGE:  cpu time    0.2310: real time    0.2315
    FORLOC:  cpu time    0.1270: real time    0.1266
    FORNL :  cpu time    0.8279: real time    0.8265
    STRESS:  cpu time    2.9006: real time    2.9009
    FORCOR:  cpu time    1.0038: real time    1.0026
    FORHAR:  cpu time    0.3519: real time    0.3519
    MIXING:  cpu time    0.0260: real time    0.0258
    OFIELD:  cpu time    0.0000: real time    0.0000

  FORCE on cell =-STRESS in cart. coord.  units (eV):
  Direction    XX          YY          ZZ          XY          YZ          ZX
  --------------------------------------------------------------------------------------
  Alpha Z     2.51538     2.51538     2.51538
  Ewald     865.28032   863.93731   867.22255    -0.21878     3.12969     1.42597
  Hartree  1175.39156  1175.33336  1177.60676     0.87694     3.82686     1.99105
  E(xc)    -180.16738  -180.09380  -180.21637     0.07711     0.08810     0.04105
  Local   -2523.57994 -2522.06262 -2527.37153    -0.62835    -7.09937    -3.39500
  n-local   238.18166   237.84158   237.85015    -0.35998    -0.35820    -0.30576
  augment   -14.01686   -14.03130   -13.95786    -0.01778    -0.02898    -0.00188
  Kinetic   435.35986   435.47306   435.47044     0.24105     0.41835     0.26873
  Fock        0.00000     0.00000     0.00000     0.00000     0.00000     0.00000
  -------------------------------------------------------------------------------------
  Total      -1.03540    -1.08701    -0.88048    -0.02979    -0.02355     0.02415
  in kB      -0.20736    -0.21770    -0.17634    -0.00597    -0.00472     0.00484
  external pressure =       -0.20 kB  Pullay stress =        0.00 kB


 VOLUME and BASIS-vectors are now :
 -----------------------------------------------------------------------------
  energy-cutoff  :      400.00
  volume of cell :     8000.00
      direct lattice vectors                 reciprocal lattice vectors
    20.000000000  0.000000000  0.000000000     0.050000000  0.000000000  0.000000000
     0.000000000 20.000000000  0.000000000     0.000000000  0.050000000  0.000000000
     0.000000000  0.000000000 20.000000000     0.000000000  0.000000000  0.050000000

  length of vectors
    20.000000000 20.000000000 20.000000000     0.050000000  0.050000000  0.050000000


 FORCES acting on ions
    electron-ion (+dipol)            ewald-force                    non-local-force                 convergence-correction
 -----------------------------------------------------------------------------------------------
   0.108E+02 -.198E+02 0.863E+02   -.114E+02 0.194E+02 -.879E+02   0.576E+00 0.430E+00 0.159E+01   0.543E-03 0.137E-02 -.429E-03
   0.870E+02 -.435E+01 0.436E+02   -.885E+02 0.463E+01 -.451E+02   0.158E+01 -.292E+00 0.153E+01   0.376E-03 0.127E-02 -.969E-03
   -.367E+02 0.542E+02 0.723E+02   0.372E+02 -.549E+02 -.743E+02   -.553E+00 0.712E+00 0.202E+01   0.352E-03 0.126E-02 -.962E-03
   -.418E+02 -.683E+02 -.404E+02   0.426E+02 0.697E+02 0.411E+02   -.834E+00 -.141E+01 -.737E+00   -.798E-03 -.461E-03 -.245E-02
   -.291E+02 -.838E+02 0.457E+02   0.293E+02 0.845E+02 -.460E+02   -.234E+00 -.642E+00 0.299E+00   -.593E-03 -.675E-03 -.114E-02
   0.808E+02 0.133E+02 -.415E+02   -.815E+02 -.134E+02 0.414E+02   0.739E+00 0.545E-01 0.755E-01   0.199E-04 -.445E-03 -.537E-03
   -.511E+02 0.756E+02 -.107E+02   0.515E+02 -.761E+02 0.104E+02   -.349E+00 0.569E+00 0.329E+00   -.558E-03 -.168E-03 -.413E-03
   -.866E+02 0.676E+01 -.462E+02   0.874E+02 -.650E+01 0.467E+02   -.775E+00 -.258E+00 -.484E+00   -.882E-03 0.352E-04 -.108E-02
   0.284E+02 0.821E+02 -.454E+02   -.287E+02 -.830E+02 0.459E+02   0.293E+00 0.860E+00 -.488E+00   -.132E-03 -.314E-03 0.960E-04
   0.373E+02 -.519E+02 -.750E+02   -.374E+02 0.526E+02 0.757E+02   0.703E-01 -.658E+00 -.681E+00   0.114E-03 -.428E-03 -.130E-02
   0.200E+02 0.393E+02 0.544E+01   -.211E+02 -.412E+02 -.649E+01   0.117E+01 0.196E+01 0.105E+01   0.628E-04 0.970E-04 0.849E-04
   0.978E+00 0.212E+02 -.390E+02   -.659E+00 -.218E+02 0.414E+02   -.320E+00 0.528E+00 -.244E+01   -.788E-04 -.821E-04 -.161E-03
   -.261E+02 0.379E+02 -.420E+01   0.275E+02 -.400E+02 0.441E+01   -.140E+01 0.202E+01 -.224E+00   -.910E-04 -.173E-03 -.192E-05
   -.440E+02 -.360E+01 0.518E+01   0.463E+02 0.395E+01 -.621E+01   -.226E+01 -.347E+00 0.103E+01   0.136E-04 0.294E-04 -.380E-03
   -.199E+02 0.788E+01 -.392E+02   0.203E+02 -.842E+01 0.416E+02   -.372E+00 0.546E+00 -.242E+01   -.943E-04 -.159E-03 0.639E-04
   -.367E+02 0.474E+01 0.287E+02   0.393E+02 -.431E+01 -.300E+02   -.261E+01 -.431E+00 0.132E+01   0.140E-04 0.208E-03 -.234E-03
   0.869E+01 0.359E+02 0.288E+02   -.100E+02 -.381E+02 -.302E+02   0.132E+01 0.228E+01 0.134E+01   0.111E-03 0.967E-04 -.193E-03
   0.618E+01 -.104E+02 0.472E+02   -.654E+01 0.110E+02 -.500E+02   0.358E+00 -.631E+00 0.281E+01   0.131E-03 0.160E-03 0.242E-03
   -.226E+02 -.373E+02 -.210E+02   0.239E+02 0.395E+02 0.222E+02   -.136E+01 -.226E+01 -.125E+01   -.823E-04 -.594E-05 -.330E-03
   0.284E+01 -.294E+01 -.443E+02   -.257E+01 0.244E+01 0.467E+02   -.270E+00 0.498E+00 -.245E+01   -.474E-04 -.178E-03 0.560E-04
   0.243E+02 -.360E+02 -.108E+02   -.257E+02 0.380E+02 0.106E+02   0.140E+01 -.208E+01 0.181E+00   -.126E-03 0.961E-04 -.348E-03
   0.412E+02 0.619E+01 -.200E+02   -.434E+02 -.651E+01 0.210E+02   0.221E+01 0.320E+00 -.106E+01   -.782E-04 -.179E-03 -.143E-05
   0.321E+02 0.248E+02 0.235E+02   -.335E+02 -.271E+02 -.248E+02   0.143E+01 0.223E+01 0.131E+01   -.634E-04 0.184E-03 -.152E-03
   0.346E+02 -.291E+02 0.121E+02   -.362E+02 0.315E+02 -.125E+02   0.164E+01 -.244E+01 0.328E+00   0.646E-04 0.191E-03 -.243E-03
   0.125E+02 -.415E+02 0.118E+02   -.139E+02 0.436E+02 -.121E+02   0.136E+01 -.209E+01 0.295E+00   0.117E-03 -.372E-03 -.226E-03
   -.337E+02 -.199E+02 0.226E+02   0.359E+02 0.203E+02 -.237E+02   -.221E+01 -.407E+00 0.113E+01   -.429E-03 -.107E-03 -.988E-04
 -----------------------------------------------------------------------------------------------
   -.584E+00 0.935E+00 -.440E+01   -.497E-13 0.462E-13 0.213E-13   0.585E+00 -.935E+00 0.441E+01   -.214E-02 0.125E-02 -.111E-01
 
 
 POSITION                                       TOTAL-FORCE (eV/Angst)
 -----------------------------------------------------------------------------------
      9.49556     11.09422      7.69687        -0.002735     -0.006008      0.000668
      7.38652     10.77802      8.69254         0.014658     -0.008628      0.002564
     10.81749      9.15673      7.89247        -0.013613      0.005174      0.009157
     10.95593     12.50934     11.09149         0.002719     -0.000018      0.011749
     10.61688     12.94496      8.75400        -0.002748     -0.006907      0.001569
      7.64975     10.29783     11.03300         0.011163      0.005190     -0.001616
     11.16803      8.63532     10.21263        -0.003268      0.012133      0.001683
     12.28850     10.52277     11.31734        -0.004170     -0.002952      0.002222
      8.99680      8.26383     11.29279         0.000912      0.002051      0.000362
      8.81564     12.16378     12.12723         0.000836     -0.005547      0.001045
      8.27063      7.04869     10.64077         0.002937      0.004042      0.003671
      9.19456      7.93765     12.80298        -0.001090     -0.001732     -0.000907
     12.05329      7.35588     10.35205         0.003672      0.001933     -0.005594
     13.69135     10.73998     10.67400        -0.006616      0.003286      0.001879
     12.51783     10.18522     12.82095        -0.002122      0.001029     -0.002296
     12.14080      9.37733      7.22481        -0.001406      0.002049     -0.003578
     10.14599      8.00078      7.21359         0.003336      0.009380      0.002756
      9.31032     11.41999      6.24238        -0.002029      0.001607     -0.011634
     11.65534     13.67324     11.73364        -0.005796     -0.009368     -0.005458
      8.98504     11.85431     13.64477         0.001232     -0.000932     -0.003069
      7.94874     13.45398     12.01347         0.006769     -0.002966     -0.000860
      6.25373     10.09648     11.70433        -0.002964      0.005000     -0.003784
      6.66369      9.64629      8.02565         0.006360      0.007821      0.002130
      6.55752     12.01531      8.52674         0.000751      0.000765     -0.004287
      9.77210     14.24165      8.57219        -0.003734     -0.007762      0.000894
     11.98737     13.19443      8.05569        -0.003055     -0.008639      0.000736
 -----------------------------------------------------------------------------------
    total drift:                               -0.000624      0.001070      0.000345


--------------------------------------------------------------------------------------------------------



  FREE ENERGIE OF THE ION-ELECTRON SYSTEM (eV)
  ---------------------------------------------------
  free  energy   TOTEN  =       -99.96909105 eV

  energy  without entropy=      -99.96909105  energy(sigma->0) =      -99.96909105
 
 d Force = 0.1780460E-03[ 0.799E-05, 0.348E-03]  d Energy = 0.1804088E-03-0.236E-05
 d Force =-0.3773836E+00[-0.377E+00,-0.377E+00]  d Ewald  =-0.3773835E+00-0.343E-07


--------------------------------------------------------------------------------------------------------


    POTLOK:  cpu time    0.9729: real time    0.9730


--------------------------------------------------------------------------------------------------------


 Conjugate gradient step on ions:
 trial-energy change:   -0.000180  1 .order   -0.000178   -0.000348   -0.000008
  (g-gl).g = 0.201E-03      g.g   = 0.264E-03  gl.gl    = 0.697E-03
 g(Force)  = 0.264E-03   g(Stress)= 0.000E+00 ortho     = 0.119E-05
 gamma     =   0.28888
 trial     =   1.31611
 opt step  =   1.34701  (harmonic =   1.34701) maximal distance =0.00124379
 next E    =   -99.969089   (d E  =  -0.00018)


--------------------------------------------------------------------------------------------------------


  
 reached required accuracy - stopping structural energy minimisation
 writing wavefunctions
     LOOP+:  cpu time   27.6858: real time   28.1458
    4ORBIT:  cpu time    0.0000: real time    0.0000

 total amount of memory used by VASP MPI-rank0   131440. kBytes
=======================================================================

   base      :      30000. kBytes
   nonl-proj :      17624. kBytes
   fftplans  :      26957. kBytes
   grid      :      48673. kBytes
   one-center:         40. kBytes
   wavefun   :       8146. kBytes
 
  
  
 General timing and accounting informations for this job:
 ========================================================
  
                  Total CPU time used (sec):     1094.146
                            User time (sec):     1071.558
                          System time (sec):       22.588
                         Elapsed time (sec):     1099.080
  
                   Maximum memory used (kb):      184312.
                   Average memory used (kb):           0.
  
                          Minor page faults:      5971284
                          Major page faults:           11
                 Voluntary context switches:         9383
