 vasp.5.4.4.18Apr17-6-g9f103f2a35 (build Nov 06 2017 19:16:10) complex          
  
 executed on           IFC91_ompi date 2018.07.10  20:44:34
 running on   12 total cores
 distrk:  each k-point on   12 cores,    1 groups
 distr:  one band on NCORES_PER_BAND=   6 cores,    2 groups


--------------------------------------------------------------------------------------------------------


 INCAR:
 POTCAR:    PAW_PBE Si 05Jan2001                  
 POTCAR:    PAW_PBE Ge 05Jan2001                  
 POTCAR:    PAW_PBE H 15Jun2001                   
 POTCAR:    PAW_PBE Si 05Jan2001                  
   VRHFIN =Si: s2p2                                                             
   LEXCH  = PE                                                                  
   EATOM  =   103.0669 eV,    7.5752 Ry                                         
                                                                                
   TITEL  = PAW_PBE Si 05Jan2001                                                
   LULTRA =        F    use ultrasoft PP ?                                      
   IUNSCR =        1    unscreen: 0-lin 1-nonlin 2-no                           
   RPACOR =    1.500    partial core radius                                     
   POMASS =   28.085; ZVAL   =    4.000    mass and valenz                      
   RCORE  =    1.900    outmost cutoff radius                                   
   RWIGS  =    2.480; RWIGS  =    1.312    wigner-seitz radius (au A)           
   ENMAX  =  245.345; ENMIN  =  184.009 eV                                      
   ICORE  =        2    local potential                                         
   LCOR   =        T    correct aug charges                                     
   LPAW   =        T    paw PP                                                  
   EAUG   =  322.069                                                            
   DEXC   =    0.000                                                            
   RMAX   =    1.950    core radius for proj-oper                               
   RAUG   =    1.300    factor for augmentation sphere                          
   RDEP   =    1.993    radius for radial grids                                 
   RDEPT  =    1.837    core radius for aug-charge                              
                                                                                
   Atomic configuration                                                         
    6 entries                                                                   
     n  l   j            E        occ.                                          
     1  0  0.50     -1785.8828   2.0000                                         
     2  0  0.50      -139.4969   2.0000                                         
     2  1  1.50       -95.5546   6.0000                                         
     3  0  0.50       -10.8127   2.0000                                         
     3  1  0.50        -4.0811   2.0000                                         
     3  2  1.50        -4.0817   0.0000                                         
   Description                                                                  
     l       E           TYP  RCUT    TYP  RCUT                                 
     0    -10.8127223     23  1.900                                             
     0     -7.6451159     23  1.900                                             
     1     -4.0811372     23  1.900                                             
     1      2.4879257     23  1.900                                             
     2     -4.0817478      7  1.900                                             
  local pseudopotential read in
  partial core-charges read in
  partial kinetic energy density read in
  atomic valenz-charges read in
  non local Contribution for L=           0  read in
    real space projection operators read in
  non local Contribution for L=           0  read in
    real space projection operators read in
  non local Contribution for L=           1  read in
    real space projection operators read in
  non local Contribution for L=           1  read in
    real space projection operators read in
    PAW grid and wavefunctions read in
 
   number of l-projection  operators is LMAX  =           4
   number of lm-projection operators is LMMAX =           8
 
 POTCAR:    PAW_PBE Ge 05Jan2001                  
   VRHFIN =Ge: s2p2                                                             
   LEXCH  = PE                                                                  
   EATOM  =   104.9960 eV,    7.7170 Ry                                         
                                                                                
   TITEL  = PAW_PBE Ge 05Jan2001                                                
   LULTRA =        F    use ultrasoft PP ?                                      
   IUNSCR =        1    unscreen: 0-lin 1-nonlin 2-no                           
   RPACOR =    2.170    partial core radius                                     
   POMASS =   72.610; ZVAL   =    4.000    mass and valenz                      
   RCORE  =    2.300    outmost cutoff radius                                   
   RWIGS  =    2.300; RWIGS  =    1.217    wigner-seitz radius (au A)           
   ENMAX  =  173.807; ENMIN  =  130.355 eV                                      
   ICORE  =        3    local potential                                         
   LCOR   =        T    correct aug charges                                     
   LPAW   =        T    paw PP                                                  
   EAUG   =  385.843                                                            
   DEXC   =    0.000                                                            
   RMAX   =    2.342    core radius for proj-oper                               
   RAUG   =    1.300    factor for augmentation sphere                          
   RDEP   =    2.318    radius for radial grids                                 
   RDEPT  =    2.103    core radius for aug-charge                              
                                                                                
   Atomic configuration                                                         
   10 entries                                                                   
     n  l   j            E        occ.                                          
     1  0  0.50    -10959.8463   2.0000                                         
     2  0  0.50     -1371.6056   2.0000                                         
     2  1  1.50     -1198.4791   6.0000                                         
     3  0  0.50      -168.4733   2.0000                                         
     3  1  1.50      -115.6019   6.0000                                         
     3  2  2.50       -29.3106  10.0000                                         
     4  0  0.50       -11.7309   2.0000                                         
     4  1  0.50        -3.8952   2.0000                                         
     4  2  1.50        -4.0817   0.0000                                         
     4  3  2.50        -4.0817   0.0000                                         
   Description                                                                  
     l       E           TYP  RCUT    TYP  RCUT                                 
     0    -11.7309493     23  2.300                                             
     0     -7.4578696     23  2.300                                             
     1     -3.8952261     23  2.300                                             
     1      6.1178114     23  2.300                                             
     2     -4.0817478     23  2.300                                             
     3     -1.3605826      7  2.300                                             
  local pseudopotential read in
  partial core-charges read in
  partial kinetic energy density read in
  atomic valenz-charges read in
  non local Contribution for L=           0  read in
    real space projection operators read in
  non local Contribution for L=           0  read in
    real space projection operators read in
  non local Contribution for L=           1  read in
    real space projection operators read in
  non local Contribution for L=           1  read in
    real space projection operators read in
  non local Contribution for L=           2  read in
    real space projection operators read in
    PAW grid and wavefunctions read in
 
   number of l-projection  operators is LMAX  =           5
   number of lm-projection operators is LMMAX =          13
 
 POTCAR:    PAW_PBE H 15Jun2001                   
   VRHFIN =H: ultrasoft test                                                    
   LEXCH  = PE                                                                  
   EATOM  =    12.4884 eV,    0.9179 Ry                                         
                                                                                
   TITEL  = PAW_PBE H 15Jun2001                                                 
   LULTRA =        F    use ultrasoft PP ?                                      
   IUNSCR =        0    unscreen: 0-lin 1-nonlin 2-no                           
   RPACOR =    0.000    partial core radius                                     
   POMASS =    1.000; ZVAL   =    1.000    mass and valenz                      
   RCORE  =    1.100    outmost cutoff radius                                   
   RWIGS  =    0.700; RWIGS  =    0.370    wigner-seitz radius (au A)           
   ENMAX  =  250.000; ENMIN  =  200.000 eV                                      
   RCLOC  =    0.701    cutoff for local pot                                    
   LCOR   =        T    correct aug charges                                     
   LPAW   =        T    paw PP                                                  
   EAUG   =  400.000                                                            
   RMAX   =    1.123    core radius for proj-oper                               
   RAUG   =    1.200    factor for augmentation sphere                          
   RDEP   =    1.112    radius for radial grids                                 
   RDEPT  =    0.926    core radius for aug-charge                              
                                                                                
   Atomic configuration                                                         
    2 entries                                                                   
     n  l   j            E        occ.                                          
     1  0  0.50        -6.4927   1.0000                                         
     2  1  0.50        -3.4015   0.0000                                         
   Description                                                                  
     l       E           TYP  RCUT    TYP  RCUT                                 
     0     -6.4927494     23  1.100                                             
     0      6.8029130     23  1.100                                             
     1     -4.0817478     23  1.100                                             
  local pseudopotential read in
  atomic valenz-charges read in
  non local Contribution for L=           0  read in
    real space projection operators read in
  non local Contribution for L=           0  read in
    real space projection operators read in
  non local Contribution for L=           1  read in
    real space projection operators read in
    PAW grid and wavefunctions read in
 
   number of l-projection  operators is LMAX  =           3
   number of lm-projection operators is LMMAX =           5
 

 ----------------------------------------------------------------------------- 
|                                                                             |
|  ADVICE TO THIS USER RUNNING 'VASP/VAMP'   (HEAR YOUR MASTER'S VOICE ...):  |
|                                                                             |
|      You have a (more or less) 'large supercell' and for larger cells       |
|      it might be more efficient to use real space projection opertators     |
|      So try LREAL= Auto  in the INCAR   file.                               |
|      Mind:          For very  accurate calculation you might also keep the  |
|      reciprocal projection scheme          (i.e. LREAL=.FALSE.)             |
|                                                                             |
 ----------------------------------------------------------------------------- 

  PAW_PBE Si 05Jan2001                  :
 energy of atom  1       EATOM= -103.0669
 kinetic energy error for atom=    0.0012 (will be added to EATOM!!)
  PAW_PBE Ge 05Jan2001                  :
 energy of atom  2       EATOM= -104.9960
 kinetic energy error for atom=    0.0003 (will be added to EATOM!!)
  PAW_PBE H 15Jun2001                   :
 energy of atom  3       EATOM=  -12.4884
 kinetic energy error for atom=    0.0098 (will be added to EATOM!!)
 
 
 POSCAR: SiGeH16                                 
  positions in direct lattice
  No initial velocities read in
 exchange correlation table for  LEXCH =        8
   RHO(1)=    0.500       N(1)  =     2000
   RHO(2)=  100.500       N(2)  =     4000
 


--------------------------------------------------------------------------------------------------------


 ion  position               nearest neighbor table
   1  0.475  0.556  0.385-  18 1.55   6 2.39   4 2.39   5 2.39
   2  0.613  0.525  0.565-  15 1.55  14 1.55   9 2.39   8 2.39
   3  0.451  0.416  0.564-  12 1.55  11 1.55   7 2.39   8 2.39
   4  0.369  0.539  0.436-  23 1.55  24 1.55   7 2.39   1 2.39
   5  0.542  0.457  0.396-  17 1.55  16 1.55   8 2.39   1 2.39
   6  0.531  0.648  0.437-  25 1.55  26 1.55   9 2.39   1 2.39
   7  0.385  0.515  0.552-  22 1.55  10 2.39   3 2.39   4 2.39
   8  0.557  0.433  0.512-  13 1.55   5 2.39   2 2.39   3 2.39
   9  0.547  0.624  0.554-  19 1.55   6 2.39   2 2.39  10 2.39
  10  0.440  0.606  0.605-  20 1.55  21 1.55   7 2.39   9 2.39
  11  0.415  0.357  0.529-   3 1.55
  12  0.461  0.400  0.639-   3 1.55
  13  0.600  0.369  0.520-   8 1.55
  14  0.682  0.536  0.531-   2 1.55
  15  0.623  0.509  0.640-   2 1.55
  16  0.611  0.469  0.363-   5 1.55
  17  0.506  0.398  0.362-   5 1.55
  18  0.465  0.572  0.309-   1 1.55
  19  0.583  0.683  0.588-   9 1.55
  20  0.451  0.590  0.680-  10 1.55
  21  0.397  0.670  0.598-  10 1.55
  22  0.316  0.504  0.586-   7 1.55
  23  0.333  0.479  0.402-   4 1.55
  24  0.326  0.603  0.429-   4 1.55
  25  0.488  0.712  0.430-   6 1.55
  26  0.600  0.659  0.404-   6 1.55
 
  LATTYP: Found a simple cubic cell.
 ALAT       =    20.0000000000
  
  Lattice vectors:
  
 A1 = (  20.0000000000,   0.0000000000,   0.0000000000)
 A2 = (   0.0000000000,  20.0000000000,   0.0000000000)
 A3 = (   0.0000000000,   0.0000000000,  20.0000000000)


Analysis of symmetry for initial positions (statically):
=====================================================================
 Subroutine PRICEL returns:
 Original cell was already a primitive cell.
 

 Routine SETGRP: Setting up the symmetry group for a 
 simple cubic supercell.


 Subroutine GETGRP returns: Found  1 space group operations
 (whereof  1 operations were pure point group operations)
 out of a pool of 48 trial point group operations.


The static configuration has the point symmetry C_1 .


Analysis of symmetry for dynamics (positions and initial velocities):
=====================================================================
 Subroutine PRICEL returns:
 Original cell was already a primitive cell.
 

 Routine SETGRP: Setting up the symmetry group for a 
 simple cubic supercell.


 Subroutine GETGRP returns: Found  1 space group operations
 (whereof  1 operations were pure point group operations)
 out of a pool of 48 trial point group operations.


The dynamic configuration has the point symmetry C_1 .


 Subroutine INISYM returns: Found  1 space group operations
 (whereof  1 operations are pure point group operations),
 and found     1 'primitive' translations

 
 
 KPOINTS: Automatic mesh                          

Automatic generation of k-mesh.
Space group operators:
 irot       det(A)        alpha          n_x          n_y          n_z        tau_x        tau_y        tau_z
    1     1.000000     0.000000     1.000000     0.000000     0.000000     0.000000     0.000000     0.000000
 
 Subroutine IBZKPT returns following result:
 ===========================================
 
 Found      1 irreducible k-points:
 
 Following reciprocal coordinates:
            Coordinates               Weight
  0.000000  0.000000  0.000000      1.000000
 
 Following cartesian coordinates:
            Coordinates               Weight
  0.000000  0.000000  0.000000      1.000000
 


--------------------------------------------------------------------------------------------------------




 Dimension of arrays:
   k-points           NKPTS =      1   k-points in BZ     NKDIM =      1   number of bands    NBANDS=     42
   number of dos      NEDOS =    301   number of ions     NIONS =     26
   non local maximal  LDIM  =      5   non local SUM 2l+1 LMDIM =     13
   total plane-waves  NPLWV = 941192
   max r-space proj   IRMAX =      1   max aug-charges    IRDMAX=   6593
   dimension x,y,z NGX =    98 NGY =   98 NGZ =   98
   dimension x,y,z NGXF=   196 NGYF=  196 NGZF=  196
   support grid    NGXF=   196 NGYF=  196 NGZF=  196
   ions per type =               3   7  16
   NGX,Y,Z   is equivalent  to a cutoff of   8.15,  8.15,  8.15 a.u.
   NGXF,Y,Z  is equivalent  to a cutoff of  16.29, 16.29, 16.29 a.u.

 SYSTEM =  SiGe                                    
 POSCAR =  SiGeH16                                 

 Startparameter for this run:
   NWRITE =      2    write-flag & timer
   PREC   = normal    normal or accurate (medium, high low for compatibility)
   ISTART =      0    job   : 0-new  1-cont  2-samecut
   ICHARG =      2    charge: 1-file 2-atom 10-const
   ISPIN  =      1    spin polarized calculation?
   LNONCOLLINEAR =      F non collinear calculations
   LSORBIT =      F    spin-orbit coupling
   INIWAV =      1    electr: 0-lowe 1-rand  2-diag
   LASPH  =      F    aspherical Exc in radial PAW
   METAGGA=      F    non-selfconsistent MetaGGA calc.

 Electronic Relaxation 1
   ENCUT  =  400.0 eV  29.40 Ry    5.42 a.u.  32.61 32.61 32.61*2*pi/ulx,y,z
   ENINI  =  400.0     initial cutoff
   ENAUG  =  400.0 eV  augmentation charge cutoff
   NELM   =     60;   NELMIN=  2; NELMDL= -5     # of ELM steps 
   EDIFF  = 0.1E-05   stopping-criterion for ELM
   LREAL  =      F    real-space projection
   NLSPLINE    = F    spline interpolate recip. space projectors
   LCOMPAT=      F    compatible to vasp.4.4
   GGA_COMPAT  = T    GGA compatible to vasp.4.4-vasp.4.6
   LMAXPAW     = -100 max onsite density
   LMAXMIX     =    2 max onsite mixed and CHGCAR
   VOSKOWN=      0    Vosko Wilk Nusair interpolation
   ROPT   =    0.00000   0.00000   0.00000
 Ionic relaxation
   EDIFFG = -.2E-01   stopping-criterion for IOM
   NSW    =    200    number of steps for IOM
   NBLOCK =      1;   KBLOCK =    200    inner block; outer block 
   IBRION =      2    ionic relax: 0-MD 1-quasi-New 2-CG
   NFREE  =      1    steps in history (QN), initial steepest desc. (CG)
   ISIF   =      2    stress and relaxation
   IWAVPR =     11    prediction:  0-non 1-charg 2-wave 3-comb
   ISYM   =      2    0-nonsym 1-usesym 2-fastsym
   LCORR  =      T    Harris-Foulkes like correction to forces

   POTIM  = 0.5000    time-step for ionic-motion
   TEIN   =    0.0    initial temperature
   TEBEG  =    0.0;   TEEND  =   0.0 temperature during run
   SMASS  =  -3.00    Nose mass-parameter (am)
   estimated Nose-frequenzy (Omega)   =  0.10E-29 period in steps =****** mass=  -0.914E-26a.u.
   SCALEE = 1.0000    scale energy and forces
   NPACO  =    256;   APACO  = 16.0  distance and # of slots for P.C.
   PSTRESS=    0.0 pullay stress

  Mass of Ions in am
   POMASS =  28.09 72.61  1.00
  Ionic Valenz
   ZVAL   =   4.00  4.00  1.00
  Atomic Wigner-Seitz radii
   RWIGS  =  -1.00 -1.00 -1.00
  virtual crystal weights 
   VCA    =   1.00  1.00  1.00
   NELECT =      56.0000    total number of electrons
   NUPDOWN=      -1.0000    fix difference up-down

 DOS related values:
   EMIN   =  10.00;   EMAX   =-10.00  energy-range for DOS
   EFERMI =   0.00
   ISMEAR =     0;   SIGMA  =   0.20  broadening in eV -4-tet -1-fermi 0-gaus

 Electronic relaxation 2 (details)
   IALGO  =     38    algorithm
   LDIAG  =      T    sub-space diagonalisation (order eigenvalues)
   LSUBROT=      F    optimize rotation matrix (better conditioning)
   TURBO    =      0    0=normal 1=particle mesh
   IRESTART =      0    0=no restart 2=restart with 2 vectors
   NREBOOT  =      0    no. of reboots
   NMIN     =      0    reboot dimension
   EREF     =   0.00    reference energy to select bands
   IMIX   =      4    mixing-type and parameters
     AMIX     =   0.40;   BMIX     =  1.00
     AMIX_MAG =   1.60;   BMIX_MAG =  1.00
     AMIN     =   0.10
     WC   =   100.;   INIMIX=   1;  MIXPRE=   1;  MAXMIX= -45

 Intra band minimization:
   WEIMIN = 0.0010     energy-eigenvalue tresh-hold
   EBREAK =  0.60E-08  absolut break condition
   DEPER  =   0.30     relativ break condition  

   TIME   =   0.40     timestep for ELM

  volume/ion in A,a.u.               =     307.69      2076.41
  Fermi-wavevector in a.u.,A,eV,Ry     =   0.313166  0.591797  1.334361  0.098073
  Thomas-Fermi vector in A             =   1.193276
 
 Write flags
   LWAVE        =      T    write WAVECAR
   LDOWNSAMPLE  =      F    k-point downsampling of WAVECAR
   LCHARG       =      T    write CHGCAR
   LVTOT        =      F    write LOCPOT, total local potential
   LVHAR        =      F    write LOCPOT, Hartree potential only
   LELF         =      F    write electronic localiz. function (ELF)
   LORBIT       =      0    0 simple, 1 ext, 2 COOP (PROOUT), +10 PAW based schemes


 Dipole corrections
   LMONO  =      F    monopole corrections only (constant potential shift)
   LDIPOL =      F    correct potential (dipole corrections)
   IDIPOL =      0    1-x, 2-y, 3-z, 4-all directions 
   EPSILON=  1.0000000 bulk dielectric constant

 Exchange correlation treatment:
   GGA     =    --    GGA type
   LEXCH   =     8    internal setting for exchange type
   VOSKOWN=      0    Vosko Wilk Nusair interpolation
   LHFCALC =     F    Hartree Fock is set to
   LHFONE  =     F    Hartree Fock one center treatment
   AEXX    =    0.0000 exact exchange contribution

 Linear response parameters
   LEPSILON=     F    determine dielectric tensor
   LRPA    =     F    only Hartree local field effects (RPA)
   LNABLA  =     F    use nabla operator in PAW spheres
   LVEL    =     F    velocity operator in full k-point grid
   LINTERFAST=   F  fast interpolation
   KINTER  =     0    interpolate to denser k-point grid
   CSHIFT  =0.1000    complex shift for real part using Kramers Kronig
   OMEGAMAX=  -1.0    maximum frequency
   DEG_THRESHOLD= 0.2000000E-02 threshold for treating states as degnerate
   RTIME   =   -0.100 relaxation time in fs
  (WPLASMAI=    0.000 imaginary part of plasma frequency in eV, 0.658/RTIME)
   DFIELD  = 0.0000000 0.0000000 0.0000000 field for delta impulse in time
 
 Orbital magnetization related:
   ORBITALMAG=     F  switch on orbital magnetization
   LCHIMAG   =     F  perturbation theory with respect to B field
   DQ        =  0.001000  dq finite difference perturbation B field
   LLRAUG    =     F  two centre corrections for induced B field



--------------------------------------------------------------------------------------------------------


 conjugate gradient relaxation of ions
 charge density and potential will be updated during run
 non-spin polarized calculation
 Variant of blocked Davidson
 Davidson routine will perform the subspace rotation
 perform sub-space diagonalisation
    after iterative eigenvector-optimisation
 modified Broyden-mixing scheme, WC =      100.0
 initial mixing is a Kerker type mixing with AMIX =  0.4000 and BMIX =      1.0000
 Hartree-type preconditioning will be used
 using additional bands           14
 reciprocal scheme for non local part
 use partial core corrections
 calculate Harris-corrections to forces 
   (improved forces if not selfconsistent)
 use gradient corrections 
 use of overlap-Matrix (Vanderbilt PP)
 Gauss-broadening in eV      SIGMA  =   0.20


--------------------------------------------------------------------------------------------------------


  energy-cutoff  :      400.00
  volume of cell :     8000.00
      direct lattice vectors                 reciprocal lattice vectors
    20.000000000  0.000000000  0.000000000     0.050000000  0.000000000  0.000000000
     0.000000000 20.000000000  0.000000000     0.000000000  0.050000000  0.000000000
     0.000000000  0.000000000 20.000000000     0.000000000  0.000000000  0.050000000

  length of vectors
    20.000000000 20.000000000 20.000000000     0.050000000  0.050000000  0.050000000


 
 k-points in units of 2pi/SCALE and weight: Automatic mesh                          
   0.00000000  0.00000000  0.00000000       1.000
 
 k-points in reciprocal lattice and weights: Automatic mesh                          
   0.00000000  0.00000000  0.00000000       1.000
 
 position of ions in fractional coordinates (direct lattice) 
   0.47547100  0.55626000  0.38465300
   0.61299700  0.52481700  0.56496600
   0.45095700  0.41593600  0.56388300
   0.36907800  0.53906000  0.43641200
   0.54179100  0.45744600  0.39613600
   0.53111600  0.64794100  0.43749600
   0.38461900  0.51474100  0.55243500
   0.55736800  0.43311000  0.51215000
   0.54669200  0.62364400  0.55351800
   0.44028400  0.60643000  0.60524300
   0.41490100  0.35665000  0.52940300
   0.46117000  0.40042600  0.63910800
   0.60034800  0.36907000  0.51957800
   0.68182700  0.53600700  0.53118700
   0.62280400  0.50903400  0.64018900
   0.61080000  0.46880600  0.36278200
   0.50550800  0.39805500  0.36207700
   0.46538400  0.57201900  0.30946400
   0.58275500  0.68306700  0.58775000
   0.45052500  0.59044300  0.68036400
   0.39732000  0.67044900  0.59753500
   0.31566200  0.50359800  0.58596500
   0.33322800  0.47946500  0.40225200
   0.32629100  0.60324700  0.42912600
   0.48792300  0.71185500  0.43020800
   0.60015100  0.65882400  0.40403700
 
 position of ions in cartesian coordinates  (Angst):
   9.50942000 11.12520000  7.69306000
  12.25994000 10.49634000 11.29932000
   9.01914000  8.31872000 11.27766000
   7.38156000 10.78120000  8.72824000
  10.83582000  9.14892000  7.92272000
  10.62232000 12.95882000  8.74992000
   7.69238000 10.29482000 11.04870000
  11.14736000  8.66220000 10.24300000
  10.93384000 12.47288000 11.07036000
   8.80568000 12.12860000 12.10486000
   8.29802000  7.13300000 10.58806000
   9.22340000  8.00852000 12.78216000
  12.00696000  7.38140000 10.39156000
  13.63654000 10.72014000 10.62374000
  12.45608000 10.18068000 12.80378000
  12.21600000  9.37612000  7.25564000
  10.11016000  7.96110000  7.24154000
   9.30768000 11.44038000  6.18928000
  11.65510000 13.66134000 11.75500000
   9.01050000 11.80886000 13.60728000
   7.94640000 13.40898000 11.95070000
   6.31324000 10.07196000 11.71930000
   6.66456000  9.58930000  8.04504000
   6.52582000 12.06494000  8.58252000
   9.75846000 14.23710000  8.60416000
  12.00302000 13.17648000  8.08074000
 


--------------------------------------------------------------------------------------------------------


 k-point  1 :   0.0000 0.0000 0.0000  plane waves:  145165

 maximum and minimum number of plane-waves per node :     24209    24180

 maximum number of plane-waves:    145165
 maximum index in each direction: 
   IXMAX=   32   IYMAX=   32   IZMAX=   32
   IXMIN=  -32   IYMIN=  -32   IZMIN=  -32


 parallel 3D FFT for wavefunctions:
    minimum data exchange during FFTs selected (reduces bandwidth)
 parallel 3D FFT for charge:
    minimum data exchange during FFTs selected (reduces bandwidth)


 total amount of memory used by VASP MPI-rank0   131440. kBytes
=======================================================================

   base      :      30000. kBytes
   nonl-proj :      17624. kBytes
   fftplans  :      26957. kBytes
   grid      :      48673. kBytes
   one-center:         40. kBytes
   wavefun   :       8146. kBytes
 
     INWAV:  cpu time    0.0000: real time    0.0000
 Broyden mixing: mesh for mixing (old mesh)
   NGX = 65   NGY = 65   NGZ = 65
  (NGX  =196   NGY  =196   NGZ  =196)
  gives a total of 274625 points

 initial charge density was supplied:
 charge density of overlapping atoms calculated
 number of electron      56.0000000 magnetization 
 keeping initial charge density in first step


--------------------------------------------------------------------------------------------------------


 Maximum index for augmentation-charges          565 (set IRDMAX)


--------------------------------------------------------------------------------------------------------


 First call to EWALD:  gamma=   0.089
 Maximum number of real-space cells 3x 3x 3
 Maximum number of reciprocal cells 3x 3x 3

    FEWALD:  cpu time    0.0020: real time    0.0022


--------------------------------------- Iteration      1(   1)  ---------------------------------------


    POTLOK:  cpu time    0.9918: real time    0.9934
    SETDIJ:  cpu time    0.0060: real time    0.0062
     EDDAV:  cpu time    4.3443: real time    4.3417
       DOS:  cpu time    0.0000: real time    0.0003
    --------------------------------------------
      LOOP:  cpu time    5.3422: real time    5.3416

 eigenvalue-minimisations  :   116
 total energy-change (2. order) : 0.2104511E+03  (-0.1045750E+04)
 number of electron      56.0000000 magnetization 
 augmentation part       56.0000000 magnetization 

 Free energy of the ion-electron system (eV)
  ---------------------------------------------------
  alpha Z        PSCENC =         2.79095307
  Ewald energy   TEWEN  =      2629.98113996
  -Hartree energ DENC   =     -3439.29775943
  -exchange      EXHF   =         0.00000000
  -V(xc)+E(xc)   XCENC  =       -47.28668453
  PAW double counting   =       915.53220421     -761.48141222
  entropy T*S    EENTRO =        -0.43901842
  eigenvalues    EBANDS =      -333.17336928
  atomic energy  EATOM  =      1243.82505112
  Solvation  Ediel_sol  =         0.00000000
  ---------------------------------------------------
  free energy    TOTEN  =       210.45110448 eV

  energy without entropy =      210.89012290  energy(sigma->0) =      210.67061369


--------------------------------------------------------------------------------------------------------




--------------------------------------- Iteration      1(   2)  ---------------------------------------


     EDDAV:  cpu time    4.9522: real time    4.9509
       DOS:  cpu time    0.0000: real time    0.0003
    --------------------------------------------
      LOOP:  cpu time    4.9522: real time    4.9511

 eigenvalue-minimisations  :   136
 total energy-change (2. order) :-0.2328032E+03  (-0.2171040E+03)
 number of electron      56.0000000 magnetization 
 augmentation part       56.0000000 magnetization 

 Free energy of the ion-electron system (eV)
  ---------------------------------------------------
  alpha Z        PSCENC =         2.79095307
  Ewald energy   TEWEN  =      2629.98113996
  -Hartree energ DENC   =     -3439.29775943
  -exchange      EXHF   =         0.00000000
  -V(xc)+E(xc)   XCENC  =       -47.28668453
  PAW double counting   =       915.53220421     -761.48141222
  entropy T*S    EENTRO =        -0.00000000
  eigenvalues    EBANDS =      -566.41560187
  atomic energy  EATOM  =      1243.82505112
  Solvation  Ediel_sol  =         0.00000000
  ---------------------------------------------------
  free energy    TOTEN  =       -22.35210970 eV

  energy without entropy =      -22.35210970  energy(sigma->0) =      -22.35210970


--------------------------------------------------------------------------------------------------------




--------------------------------------- Iteration      1(   3)  ---------------------------------------


     EDDAV:  cpu time    4.2294: real time    4.2277
       DOS:  cpu time    0.0000: real time    0.0002
    --------------------------------------------
      LOOP:  cpu time    4.2294: real time    4.2279

 eigenvalue-minimisations  :   112
 total energy-change (2. order) :-0.7667927E+02  (-0.7649604E+02)
 number of electron      56.0000000 magnetization 
 augmentation part       56.0000000 magnetization 

 Free energy of the ion-electron system (eV)
  ---------------------------------------------------
  alpha Z        PSCENC =         2.79095307
  Ewald energy   TEWEN  =      2629.98113996
  -Hartree energ DENC   =     -3439.29775943
  -exchange      EXHF   =         0.00000000
  -V(xc)+E(xc)   XCENC  =       -47.28668453
  PAW double counting   =       915.53220421     -761.48141222
  entropy T*S    EENTRO =        -0.00000000
  eigenvalues    EBANDS =      -643.09487656
  atomic energy  EATOM  =      1243.82505112
  Solvation  Ediel_sol  =         0.00000000
  ---------------------------------------------------
  free energy    TOTEN  =       -99.03138438 eV

  energy without entropy =      -99.03138438  energy(sigma->0) =      -99.03138438


--------------------------------------------------------------------------------------------------------




--------------------------------------- Iteration      1(   4)  ---------------------------------------


     EDDAV:  cpu time    3.9964: real time    3.9945
       DOS:  cpu time    0.0010: real time    0.0002
    --------------------------------------------
      LOOP:  cpu time    3.9974: real time    3.9947

 eigenvalue-minimisations  :   104
 total energy-change (2. order) :-0.4374853E+01  (-0.4358223E+01)
 number of electron      56.0000000 magnetization 
 augmentation part       56.0000000 magnetization 

 Free energy of the ion-electron system (eV)
  ---------------------------------------------------
  alpha Z        PSCENC =         2.79095307
  Ewald energy   TEWEN  =      2629.98113996
  -Hartree energ DENC   =     -3439.29775943
  -exchange      EXHF   =         0.00000000
  -V(xc)+E(xc)   XCENC  =       -47.28668453
  PAW double counting   =       915.53220421     -761.48141222
  entropy T*S    EENTRO =        -0.00000000
  eigenvalues    EBANDS =      -647.46972973
  atomic energy  EATOM  =      1243.82505112
  Solvation  Ediel_sol  =         0.00000000
  ---------------------------------------------------
  free energy    TOTEN  =      -103.40623756 eV

  energy without entropy =     -103.40623756  energy(sigma->0) =     -103.40623756


--------------------------------------------------------------------------------------------------------




--------------------------------------- Iteration      1(   5)  ---------------------------------------


     EDDAV:  cpu time    4.4573: real time    4.4557
       DOS:  cpu time    0.0000: real time    0.0002
    CHARGE:  cpu time    0.2420: real time    0.2412
    MIXING:  cpu time    0.0230: real time    0.0232
    --------------------------------------------
      LOOP:  cpu time    4.7223: real time    4.7202

 eigenvalue-minimisations  :   120
 total energy-change (2. order) :-0.6559346E-01  (-0.6551124E-01)
 number of electron      56.0000024 magnetization 
 augmentation part       -4.7563034 magnetization 

 Broyden mixing:
  rms(total) = 0.14281E+01    rms(broyden)= 0.14280E+01
  rms(prec ) = 0.15243E+01
  weight for this iteration     100.00

 Free energy of the ion-electron system (eV)
  ---------------------------------------------------
  alpha Z        PSCENC =         2.79095307
  Ewald energy   TEWEN  =      2629.98113996
  -Hartree energ DENC   =     -3439.29775943
  -exchange      EXHF   =         0.00000000
  -V(xc)+E(xc)   XCENC  =       -47.28668453
  PAW double counting   =       915.53220421     -761.48141222
  entropy T*S    EENTRO =        -0.00000000
  eigenvalues    EBANDS =      -647.53532319
  atomic energy  EATOM  =      1243.82505112
  Solvation  Ediel_sol  =         0.00000000
  ---------------------------------------------------
  free energy    TOTEN  =      -103.47183101 eV

  energy without entropy =     -103.47183101  energy(sigma->0) =     -103.47183101


--------------------------------------------------------------------------------------------------------




--------------------------------------- Iteration      1(   6)  ---------------------------------------


    POTLOK:  cpu time    0.9399: real time    0.9406
    SETDIJ:  cpu time    0.0060: real time    0.0061
     EDDAV:  cpu time    4.1694: real time    4.1662
       DOS:  cpu time    0.0000: real time    0.0003
    CHARGE:  cpu time    0.2300: real time    0.2303
    MIXING:  cpu time    0.0250: real time    0.0244
    --------------------------------------------
      LOOP:  cpu time    5.3702: real time    5.3679

 eigenvalue-minimisations  :   110
 total energy-change (2. order) : 0.3137203E+01  (-0.1562346E+00)
 number of electron      56.0000023 magnetization 
 augmentation part       -4.7552673 magnetization 

 Broyden mixing:
  rms(total) = 0.82336E+00    rms(broyden)= 0.82336E+00
  rms(prec ) = 0.88236E+00
  weight for this iteration     100.00

 eigenvalues of (default mixing * dielectric matrix)
  average eigenvalue GAMMA=   2.2922
  2.2922

 Free energy of the ion-electron system (eV)
  ---------------------------------------------------
  alpha Z        PSCENC =         2.79095307
  Ewald energy   TEWEN  =      2629.98113996
  -Hartree energ DENC   =     -3469.97572404
  -exchange      EXHF   =         0.00000000
  -V(xc)+E(xc)   XCENC  =       -43.66480100
  PAW double counting   =      1710.85814923    -1557.73197600
  entropy T*S    EENTRO =        -0.00000000
  eigenvalues    EBANDS =      -616.41742016
  atomic energy  EATOM  =      1243.82505112
  Solvation  Ediel_sol  =         0.00000000
  ---------------------------------------------------
  free energy    TOTEN  =      -100.33462781 eV

  energy without entropy =     -100.33462781  energy(sigma->0) =     -100.33462781


--------------------------------------------------------------------------------------------------------




--------------------------------------- Iteration      1(   7)  ---------------------------------------


    POTLOK:  cpu time    0.9469: real time    0.9474
    SETDIJ:  cpu time    0.0060: real time    0.0063
     EDDAV:  cpu time    4.0874: real time    4.0845
       DOS:  cpu time    0.0000: real time    0.0003
    CHARGE:  cpu time    0.2290: real time    0.2294
    MIXING:  cpu time    0.0260: real time    0.0255
    --------------------------------------------
      LOOP:  cpu time    5.2952: real time    5.2934

 eigenvalue-minimisations  :   104
 total energy-change (2. order) : 0.1634851E+01  (-0.3933312E+00)
 number of electron      56.0000021 magnetization 
 augmentation part       -4.7531675 magnetization 

 Broyden mixing:
  rms(total) = 0.12125E+00    rms(broyden)= 0.12110E+00
  rms(prec ) = 0.15267E+00
  weight for this iteration     100.00

 eigenvalues of (default mixing * dielectric matrix)
  average eigenvalue GAMMA=   1.8655
  1.8655  1.8655

 Free energy of the ion-electron system (eV)
  ---------------------------------------------------
  alpha Z        PSCENC =         2.79095307
  Ewald energy   TEWEN  =      2629.98113996
  -Hartree energ DENC   =     -3524.25896177
  -exchange      EXHF   =         0.00000000
  -V(xc)+E(xc)   XCENC  =       -37.96248951
  PAW double counting   =      3385.41176664    -3233.51008321
  entropy T*S    EENTRO =        -0.00000000
  eigenvalues    EBANDS =      -564.97715348
  atomic energy  EATOM  =      1243.82505112
  Solvation  Ediel_sol  =         0.00000000
  ---------------------------------------------------
  free energy    TOTEN  =       -98.69977717 eV

  energy without entropy =      -98.69977717  energy(sigma->0) =      -98.69977717


--------------------------------------------------------------------------------------------------------




--------------------------------------- Iteration      1(   8)  ---------------------------------------


    POTLOK:  cpu time    0.9479: real time    0.9476
    SETDIJ:  cpu time    0.0060: real time    0.0062
     EDDAV:  cpu time    4.2394: real time    4.2368
       DOS:  cpu time    0.0000: real time    0.0003
    CHARGE:  cpu time    0.2300: real time    0.2304
    MIXING:  cpu time    0.0260: real time    0.0258
    --------------------------------------------
      LOOP:  cpu time    5.4492: real time    5.4470

 eigenvalue-minimisations  :   112
 total energy-change (2. order) : 0.5683947E-01  (-0.2702761E-01)
 number of electron      56.0000021 magnetization 
 augmentation part       -4.7444851 magnetization 

 Broyden mixing:
  rms(total) = 0.59156E-01    rms(broyden)= 0.59142E-01
  rms(prec ) = 0.78271E-01
  weight for this iteration     100.00

 eigenvalues of (default mixing * dielectric matrix)
  average eigenvalue GAMMA=   1.9722
  2.6614  1.6276  1.6276

 Free energy of the ion-electron system (eV)
  ---------------------------------------------------
  alpha Z        PSCENC =         2.79095307
  Ewald energy   TEWEN  =      2629.98113996
  -Hartree energ DENC   =     -3532.86337539
  -exchange      EXHF   =         0.00000000
  -V(xc)+E(xc)   XCENC  =       -37.94791841
  PAW double counting   =      3417.36410697    -3265.38704676
  entropy T*S    EENTRO =        -0.00000000
  eigenvalues    EBANDS =      -556.40584826
  atomic energy  EATOM  =      1243.82505112
  Solvation  Ediel_sol  =         0.00000000
  ---------------------------------------------------
  free energy    TOTEN  =       -98.64293770 eV

  energy without entropy =      -98.64293770  energy(sigma->0) =      -98.64293770


--------------------------------------------------------------------------------------------------------




--------------------------------------- Iteration      1(   9)  ---------------------------------------


    POTLOK:  cpu time    0.9549: real time    0.9550
    SETDIJ:  cpu time    0.0060: real time    0.0062
     EDDAV:  cpu time    4.2374: real time    4.2351
       DOS:  cpu time    0.0010: real time    0.0003
    CHARGE:  cpu time    0.2300: real time    0.2301
    MIXING:  cpu time    0.0270: real time    0.0270
    --------------------------------------------
      LOOP:  cpu time    5.4562: real time    5.4536

 eigenvalue-minimisations  :   112
 total energy-change (2. order) : 0.3559369E-01  (-0.6643843E-02)
 number of electron      56.0000022 magnetization 
 augmentation part       -4.7289337 magnetization 

 Broyden mixing:
  rms(total) = 0.32175E-01    rms(broyden)= 0.32174E-01
  rms(prec ) = 0.44020E-01
  weight for this iteration     100.00

 eigenvalues of (default mixing * dielectric matrix)
  average eigenvalue GAMMA=   1.7623
  2.5125  1.8400  1.8400  0.8567

 Free energy of the ion-electron system (eV)
  ---------------------------------------------------
  alpha Z        PSCENC =         2.79095307
  Ewald energy   TEWEN  =      2629.98113996
  -Hartree energ DENC   =     -3544.42368832
  -exchange      EXHF   =         0.00000000
  -V(xc)+E(xc)   XCENC  =       -37.23113343
  PAW double counting   =      3553.24221594    -3401.32203635
  entropy T*S    EENTRO =        -0.00000000
  eigenvalues    EBANDS =      -545.46984599
  atomic energy  EATOM  =      1243.82505112
  Solvation  Ediel_sol  =         0.00000000
  ---------------------------------------------------
  free energy    TOTEN  =       -98.60734402 eV

  energy without entropy =      -98.60734402  energy(sigma->0) =      -98.60734402


--------------------------------------------------------------------------------------------------------




--------------------------------------- Iteration      1(  10)  ---------------------------------------


    POTLOK:  cpu time    0.9569: real time    0.9577
    SETDIJ:  cpu time    0.0060: real time    0.0062
     EDDAV:  cpu time    4.2394: real time    4.2497
       DOS:  cpu time    0.0010: real time    0.0003
    CHARGE:  cpu time    0.2300: real time    0.2305
    MIXING:  cpu time    0.0280: real time    0.0283
    --------------------------------------------
      LOOP:  cpu time    5.4612: real time    5.4727

 eigenvalue-minimisations  :   112
 total energy-change (2. order) :-0.1444198E-03  (-0.2509855E-03)
 number of electron      56.0000022 magnetization 
 augmentation part       -4.7284301 magnetization 

 Broyden mixing:
  rms(total) = 0.13649E-01    rms(broyden)= 0.13649E-01
  rms(prec ) = 0.27185E-01
  weight for this iteration     100.00

 eigenvalues of (default mixing * dielectric matrix)
  average eigenvalue GAMMA=   1.9030
  2.9002  2.3689  1.0570  1.5945  1.5945

 Free energy of the ion-electron system (eV)
  ---------------------------------------------------
  alpha Z        PSCENC =         2.79095307
  Ewald energy   TEWEN  =      2629.98113996
  -Hartree energ DENC   =     -3546.74515782
  -exchange      EXHF   =         0.00000000
  -V(xc)+E(xc)   XCENC  =       -37.22847330
  PAW double counting   =      3485.25911036    -3333.28551572
  entropy T*S    EENTRO =        -0.00000000
  eigenvalues    EBANDS =      -543.20459610
  atomic energy  EATOM  =      1243.82505112
  Solvation  Ediel_sol  =         0.00000000
  ---------------------------------------------------
  free energy    TOTEN  =       -98.60748844 eV

  energy without entropy =      -98.60748844  energy(sigma->0) =      -98.60748844


--------------------------------------------------------------------------------------------------------




--------------------------------------- Iteration      1(  11)  ---------------------------------------


    POTLOK:  cpu time    0.9689: real time    0.9688
    SETDIJ:  cpu time    0.0060: real time    0.0062
     EDDAV:  cpu time    4.0114: real time    4.0094
       DOS:  cpu time    0.0000: real time    0.0002
    CHARGE:  cpu time    0.2300: real time    0.2296
    MIXING:  cpu time    0.0290: real time    0.0293
    --------------------------------------------
      LOOP:  cpu time    5.2452: real time    5.2436

 eigenvalue-minimisations  :   104
 total energy-change (2. order) : 0.1751804E-03  (-0.6543255E-03)
 number of electron      56.0000022 magnetization 
 augmentation part       -4.7266913 magnetization 

 Broyden mixing:
  rms(total) = 0.85112E-02    rms(broyden)= 0.85109E-02
  rms(prec ) = 0.14506E-01
  weight for this iteration     100.00

 eigenvalues of (default mixing * dielectric matrix)
  average eigenvalue GAMMA=   1.8900
  3.3008  2.5996  1.7404  1.7404  1.0402  0.9186

 Free energy of the ion-electron system (eV)
  ---------------------------------------------------
  alpha Z        PSCENC =         2.79095307
  Ewald energy   TEWEN  =      2629.98113996
  -Hartree energ DENC   =     -3553.51298309
  -exchange      EXHF   =         0.00000000
  -V(xc)+E(xc)   XCENC  =       -37.03190455
  PAW double counting   =      3454.00018431    -3301.98949977
  entropy T*S    EENTRO =        -0.00000000
  eigenvalues    EBANDS =      -536.67025431
  atomic energy  EATOM  =      1243.82505112
  Solvation  Ediel_sol  =         0.00000000
  ---------------------------------------------------
  free energy    TOTEN  =       -98.60731326 eV

  energy without entropy =      -98.60731326  energy(sigma->0) =      -98.60731326


--------------------------------------------------------------------------------------------------------




--------------------------------------- Iteration      1(  12)  ---------------------------------------


    POTLOK:  cpu time    0.9699: real time    0.9688
    SETDIJ:  cpu time    0.0060: real time    0.0063
     EDDAV:  cpu time    3.9444: real time    3.9429
       DOS:  cpu time    0.0000: real time    0.0002
    CHARGE:  cpu time    0.2290: real time    0.2293
    MIXING:  cpu time    0.0310: real time    0.0311
    --------------------------------------------
      LOOP:  cpu time    5.1812: real time    5.1786

 eigenvalue-minimisations  :   102
 total energy-change (2. order) :-0.4902174E-02  (-0.1294665E-03)
 number of electron      56.0000022 magnetization 
 augmentation part       -4.7257319 magnetization 

 Broyden mixing:
  rms(total) = 0.55973E-02    rms(broyden)= 0.55973E-02
  rms(prec ) = 0.93707E-02
  weight for this iteration     100.00

 eigenvalues of (default mixing * dielectric matrix)
  average eigenvalue GAMMA=   2.1016
  4.6623  2.5032  2.5032  1.5388  1.5388  0.9823  0.9823

 Free energy of the ion-electron system (eV)
  ---------------------------------------------------
  alpha Z        PSCENC =         2.79095307
  Ewald energy   TEWEN  =      2629.98113996
  -Hartree energ DENC   =     -3555.96682470
  -exchange      EXHF   =         0.00000000
  -V(xc)+E(xc)   XCENC  =       -36.99303658
  PAW double counting   =      3448.44506646    -3296.43351858
  entropy T*S    EENTRO =        -0.00000000
  eigenvalues    EBANDS =      -534.26104618
  atomic energy  EATOM  =      1243.82505112
  Solvation  Ediel_sol  =         0.00000000
  ---------------------------------------------------
  free energy    TOTEN  =       -98.61221543 eV

  energy without entropy =      -98.61221543  energy(sigma->0) =      -98.61221543


--------------------------------------------------------------------------------------------------------




--------------------------------------- Iteration      1(  13)  ---------------------------------------


    POTLOK:  cpu time    0.9689: real time    0.9700
    SETDIJ:  cpu time    0.0060: real time    0.0062
     EDDAV:  cpu time    4.2424: real time    4.2408
       DOS:  cpu time    0.0010: real time    0.0002
    CHARGE:  cpu time    0.2300: real time    0.2301
    MIXING:  cpu time    0.0320: real time    0.0324
    --------------------------------------------
      LOOP:  cpu time    5.4792: real time    5.4796

 eigenvalue-minimisations  :   112
 total energy-change (2. order) :-0.4416470E-02  (-0.1527608E-03)
 number of electron      56.0000022 magnetization 
 augmentation part       -4.7255777 magnetization 

 Broyden mixing:
  rms(total) = 0.35416E-02    rms(broyden)= 0.35415E-02
  rms(prec ) = 0.51957E-02
  weight for this iteration     100.00

 eigenvalues of (default mixing * dielectric matrix)
  average eigenvalue GAMMA=   2.1966
  5.5947  2.9659  2.2165  1.8402  1.8402  0.9771  0.9771  1.1613

 Free energy of the ion-electron system (eV)
  ---------------------------------------------------
  alpha Z        PSCENC =         2.79095307
  Ewald energy   TEWEN  =      2629.98113996
  -Hartree energ DENC   =     -3558.48247819
  -exchange      EXHF   =         0.00000000
  -V(xc)+E(xc)   XCENC  =       -36.94160469
  PAW double counting   =      3455.30712023    -3303.30449491
  entropy T*S    EENTRO =        -0.00000000
  eigenvalues    EBANDS =      -531.79231848
  atomic energy  EATOM  =      1243.82505112
  Solvation  Ediel_sol  =         0.00000000
  ---------------------------------------------------
  free energy    TOTEN  =       -98.61663190 eV

  energy without entropy =      -98.61663190  energy(sigma->0) =      -98.61663190


--------------------------------------------------------------------------------------------------------




--------------------------------------- Iteration      1(  14)  ---------------------------------------


    POTLOK:  cpu time    0.9659: real time    0.9646
    SETDIJ:  cpu time    0.0060: real time    0.0061
     EDDAV:  cpu time    4.2404: real time    4.2384
       DOS:  cpu time    0.0000: real time    0.0002
    CHARGE:  cpu time    0.2310: real time    0.2307
    MIXING:  cpu time    0.0340: real time    0.0337
    --------------------------------------------
      LOOP:  cpu time    5.4772: real time    5.4737

 eigenvalue-minimisations  :   112
 total energy-change (2. order) :-0.4165179E-02  (-0.3232998E-04)
 number of electron      56.0000022 magnetization 
 augmentation part       -4.7251414 magnetization 

 Broyden mixing:
  rms(total) = 0.14723E-02    rms(broyden)= 0.14723E-02
  rms(prec ) = 0.26190E-02
  weight for this iteration     100.00

 eigenvalues of (default mixing * dielectric matrix)
  average eigenvalue GAMMA=   2.2778
  6.5585  2.9880  2.5824  2.1557  1.5802  1.5802  1.1199  0.9678  0.9678

 Free energy of the ion-electron system (eV)
  ---------------------------------------------------
  alpha Z        PSCENC =         2.79095307
  Ewald energy   TEWEN  =      2629.98113996
  -Hartree energ DENC   =     -3559.11506344
  -exchange      EXHF   =         0.00000000
  -V(xc)+E(xc)   XCENC  =       -36.95949288
  PAW double counting   =      3453.82958135    -3301.82584202
  entropy T*S    EENTRO =        -0.00000000
  eigenvalues    EBANDS =      -531.14712424
  atomic energy  EATOM  =      1243.82505112
  Solvation  Ediel_sol  =         0.00000000
  ---------------------------------------------------
  free energy    TOTEN  =       -98.62079708 eV

  energy without entropy =      -98.62079708  energy(sigma->0) =      -98.62079708


--------------------------------------------------------------------------------------------------------




--------------------------------------- Iteration      1(  15)  ---------------------------------------


    POTLOK:  cpu time    0.9649: real time    0.9637
    SETDIJ:  cpu time    0.0060: real time    0.0061
     EDDAV:  cpu time    4.2274: real time    4.2273
       DOS:  cpu time    0.0000: real time    0.0002
    CHARGE:  cpu time    0.2300: real time    0.2293
    MIXING:  cpu time    0.0360: real time    0.0360
    --------------------------------------------
      LOOP:  cpu time    5.4642: real time    5.4628

 eigenvalue-minimisations  :   112
 total energy-change (2. order) :-0.3823411E-02  (-0.4033338E-04)
 number of electron      56.0000022 magnetization 
 augmentation part       -4.7248510 magnetization 

 Broyden mixing:
  rms(total) = 0.12563E-02    rms(broyden)= 0.12562E-02
  rms(prec ) = 0.17741E-02
  weight for this iteration     100.00

 eigenvalues of (default mixing * dielectric matrix)
  average eigenvalue GAMMA=   2.3301
  6.7156  3.8648  2.6104  2.0910  2.0910  1.6910  1.2721  0.9531  1.0059  1.0059

 Free energy of the ion-electron system (eV)
  ---------------------------------------------------
  alpha Z        PSCENC =         2.79095307
  Ewald energy   TEWEN  =      2629.98113996
  -Hartree energ DENC   =     -3559.34991950
  -exchange      EXHF   =         0.00000000
  -V(xc)+E(xc)   XCENC  =       -36.96539095
  PAW double counting   =      3456.60130725    -3304.59810154
  entropy T*S    EENTRO =        -0.00000000
  eigenvalues    EBANDS =      -530.90965990
  atomic energy  EATOM  =      1243.82505112
  Solvation  Ediel_sol  =         0.00000000
  ---------------------------------------------------
  free energy    TOTEN  =       -98.62462049 eV

  energy without entropy =      -98.62462049  energy(sigma->0) =      -98.62462049


--------------------------------------------------------------------------------------------------------




--------------------------------------- Iteration      1(  16)  ---------------------------------------


    POTLOK:  cpu time    0.9589: real time    0.9594
    SETDIJ:  cpu time    0.0060: real time    0.0061
     EDDAV:  cpu time    4.1994: real time    4.2316
       DOS:  cpu time    0.0000: real time    0.0005
    CHARGE:  cpu time    0.2000: real time    0.2250
    MIXING:  cpu time    0.0370: real time    0.0429
    --------------------------------------------
      LOOP:  cpu time    5.4012: real time    5.4656

 eigenvalue-minimisations  :   112
 total energy-change (2. order) :-0.1477622E-02  (-0.1059577E-04)
 number of electron      56.0000022 magnetization 
 augmentation part       -4.7250930 magnetization 

 Broyden mixing:
  rms(total) = 0.57507E-03    rms(broyden)= 0.57507E-03
  rms(prec ) = 0.88154E-03
  weight for this iteration     100.00

 eigenvalues of (default mixing * dielectric matrix)
  average eigenvalue GAMMA=   2.4305
  7.4014  4.7529  2.6439  2.6439  1.8193  1.8193  1.3547  1.3547  0.9794  0.9794
  0.9867

 Free energy of the ion-electron system (eV)
  ---------------------------------------------------
  alpha Z        PSCENC =         2.79095307
  Ewald energy   TEWEN  =      2629.98113996
  -Hartree energ DENC   =     -3559.45967529
  -exchange      EXHF   =         0.00000000
  -V(xc)+E(xc)   XCENC  =       -36.96360831
  PAW double counting   =      3456.63862600    -3304.63489808
  entropy T*S    EENTRO =        -0.00000000
  eigenvalues    EBANDS =      -530.80368658
  atomic energy  EATOM  =      1243.82505112
  Solvation  Ediel_sol  =         0.00000000
  ---------------------------------------------------
  free energy    TOTEN  =       -98.62609811 eV

  energy without entropy =      -98.62609811  energy(sigma->0) =      -98.62609811


--------------------------------------------------------------------------------------------------------




--------------------------------------- Iteration      1(  17)  ---------------------------------------


    POTLOK:  cpu time    0.9579: real time    0.9569
    SETDIJ:  cpu time    0.0060: real time    0.0061
     EDDAV:  cpu time    4.2364: real time    4.2350
       DOS:  cpu time    0.0000: real time    0.0002
    CHARGE:  cpu time    0.2300: real time    0.2288
    MIXING:  cpu time    0.0440: real time    0.0434
    --------------------------------------------
      LOOP:  cpu time    5.4742: real time    5.4704

 eigenvalue-minimisations  :   112
 total energy-change (2. order) :-0.8914629E-03  (-0.6953606E-05)
 number of electron      56.0000022 magnetization 
 augmentation part       -4.7252558 magnetization 

 Broyden mixing:
  rms(total) = 0.34824E-03    rms(broyden)= 0.34821E-03
  rms(prec ) = 0.47384E-03
  weight for this iteration     100.00

 eigenvalues of (default mixing * dielectric matrix)
  average eigenvalue GAMMA=   2.4613
  7.6043  5.2384  2.5869  2.5869  2.0437  1.8701  1.8701  1.5319  1.2484  0.9869
  0.9869  0.9807

 Free energy of the ion-electron system (eV)
  ---------------------------------------------------
  alpha Z        PSCENC =         2.79095307
  Ewald energy   TEWEN  =      2629.98113996
  -Hartree energ DENC   =     -3559.46328421
  -exchange      EXHF   =         0.00000000
  -V(xc)+E(xc)   XCENC  =       -36.96693209
  PAW double counting   =      3455.24046988    -3303.23542613
  entropy T*S    EENTRO =        -0.00000000
  eigenvalues    EBANDS =      -530.79896116
  atomic energy  EATOM  =      1243.82505112
  Solvation  Ediel_sol  =         0.00000000
  ---------------------------------------------------
  free energy    TOTEN  =       -98.62698957 eV

  energy without entropy =      -98.62698957  energy(sigma->0) =      -98.62698957


--------------------------------------------------------------------------------------------------------




--------------------------------------- Iteration      1(  18)  ---------------------------------------


    POTLOK:  cpu time    0.9619: real time    0.9626
    SETDIJ:  cpu time    0.0060: real time    0.0061
     EDDAV:  cpu time    4.0074: real time    4.0049
       DOS:  cpu time    0.0000: real time    0.0002
    CHARGE:  cpu time    0.2300: real time    0.2297
    MIXING:  cpu time    0.0570: real time    0.0564
    --------------------------------------------
      LOOP:  cpu time    5.2622: real time    5.2600

 eigenvalue-minimisations  :   104
 total energy-change (2. order) :-0.3212387E-03  (-0.1183372E-05)
 number of electron      56.0000022 magnetization 
 augmentation part       -4.7252359 magnetization 

 Broyden mixing:
  rms(total) = 0.19129E-03    rms(broyden)= 0.19127E-03
  rms(prec ) = 0.25087E-03
  weight for this iteration     100.00

 eigenvalues of (default mixing * dielectric matrix)
  average eigenvalue GAMMA=   2.4962
  8.1299  5.8569  3.1966  2.6244  2.3903  1.7972  1.7972  1.3549  1.3549  1.0088
  1.0088  0.9656  0.9656

 Free energy of the ion-electron system (eV)
  ---------------------------------------------------
  alpha Z        PSCENC =         2.79095307
  Ewald energy   TEWEN  =      2629.98113996
  -Hartree energ DENC   =     -3559.50729377
  -exchange      EXHF   =         0.00000000
  -V(xc)+E(xc)   XCENC  =       -36.96575833
  PAW double counting   =      3455.47990472    -3303.47555457
  entropy T*S    EENTRO =        -0.00000000
  eigenvalues    EBANDS =      -530.75575301
  atomic energy  EATOM  =      1243.82505112
  Solvation  Ediel_sol  =         0.00000000
  ---------------------------------------------------
  free energy    TOTEN  =       -98.62731081 eV

  energy without entropy =      -98.62731081  energy(sigma->0) =      -98.62731081


--------------------------------------------------------------------------------------------------------




--------------------------------------- Iteration      1(  19)  ---------------------------------------


    POTLOK:  cpu time    0.9649: real time    0.9659
    SETDIJ:  cpu time    0.0070: real time    0.0061
     EDDAV:  cpu time    4.0004: real time    3.9990
       DOS:  cpu time    0.0000: real time    0.0002
    CHARGE:  cpu time    0.2300: real time    0.2307
    MIXING:  cpu time    0.0530: real time    0.0527
    --------------------------------------------
      LOOP:  cpu time    5.2552: real time    5.2546

 eigenvalue-minimisations  :   104
 total energy-change (2. order) :-0.1047338E-03  (-0.3466222E-06)
 number of electron      56.0000022 magnetization 
 augmentation part       -4.7252679 magnetization 

 Broyden mixing:
  rms(total) = 0.15226E-03    rms(broyden)= 0.15225E-03
  rms(prec ) = 0.18851E-03
  weight for this iteration     100.00

 eigenvalues of (default mixing * dielectric matrix)
  average eigenvalue GAMMA=   2.4756
  8.3699  5.9870  3.3168  2.6746  2.1155  2.1155  1.7136  1.7136  1.4318  1.2949
  1.0187  1.0187  0.9437  0.9437

 Free energy of the ion-electron system (eV)
  ---------------------------------------------------
  alpha Z        PSCENC =         2.79095307
  Ewald energy   TEWEN  =      2629.98113996
  -Hartree energ DENC   =     -3559.51055298
  -exchange      EXHF   =         0.00000000
  -V(xc)+E(xc)   XCENC  =       -36.96533000
  PAW double counting   =      3455.29856275    -3303.29419945
  entropy T*S    EENTRO =        -0.00000000
  eigenvalues    EBANDS =      -530.75304001
  atomic energy  EATOM  =      1243.82505112
  Solvation  Ediel_sol  =         0.00000000
  ---------------------------------------------------
  free energy    TOTEN  =       -98.62741555 eV

  energy without entropy =      -98.62741555  energy(sigma->0) =      -98.62741555


--------------------------------------------------------------------------------------------------------




--------------------------------------- Iteration      1(  20)  ---------------------------------------


    POTLOK:  cpu time    0.9669: real time    0.9658
    SETDIJ:  cpu time    0.0060: real time    0.0061
     EDDAV:  cpu time    3.5395: real time    3.5367
       DOS:  cpu time    0.0000: real time    0.0002
    CHARGE:  cpu time    0.2310: real time    0.2308
    MIXING:  cpu time    0.0590: real time    0.0592
    --------------------------------------------
      LOOP:  cpu time    4.8023: real time    4.7989

 eigenvalue-minimisations  :    88
 total energy-change (2. order) :-0.4474387E-04  (-0.6994113E-07)
 number of electron      56.0000022 magnetization 
 augmentation part       -4.7252589 magnetization 

 Broyden mixing:
  rms(total) = 0.56421E-04    rms(broyden)= 0.56421E-04
  rms(prec ) = 0.81577E-04
  weight for this iteration     100.00

 eigenvalues of (default mixing * dielectric matrix)
  average eigenvalue GAMMA=   2.5293
  8.6278  6.4186  4.0453  2.8919  2.5216  1.8778  1.8778  1.6584  1.6584  1.2252
  1.2252  1.0032  1.0032  0.9804  0.9250

 Free energy of the ion-electron system (eV)
  ---------------------------------------------------
  alpha Z        PSCENC =         2.79095307
  Ewald energy   TEWEN  =      2629.98113996
  -Hartree energ DENC   =     -3559.51050158
  -exchange      EXHF   =         0.00000000
  -V(xc)+E(xc)   XCENC  =       -36.96629391
  PAW double counting   =      3455.14929648    -3303.14482171
  entropy T*S    EENTRO =        -0.00000000
  eigenvalues    EBANDS =      -530.75228372
  atomic energy  EATOM  =      1243.82505112
  Solvation  Ediel_sol  =         0.00000000
  ---------------------------------------------------
  free energy    TOTEN  =       -98.62746029 eV

  energy without entropy =      -98.62746029  energy(sigma->0) =      -98.62746029


--------------------------------------------------------------------------------------------------------




--------------------------------------- Iteration      1(  21)  ---------------------------------------


    POTLOK:  cpu time    0.9599: real time    0.9600
    SETDIJ:  cpu time    0.0060: real time    0.0061
     EDDAV:  cpu time    3.5325: real time    3.5302
       DOS:  cpu time    0.0010: real time    0.0003
    CHARGE:  cpu time    0.2410: real time    0.2414
    MIXING:  cpu time    0.0660: real time    0.0664
    --------------------------------------------
      LOOP:  cpu time    4.8063: real time    4.8044

 eigenvalue-minimisations  :    88
 total energy-change (2. order) :-0.2620380E-04  (-0.7801169E-07)
 number of electron      56.0000022 magnetization 
 augmentation part       -4.7252460 magnetization 

 Broyden mixing:
  rms(total) = 0.37284E-04    rms(broyden)= 0.37282E-04
  rms(prec ) = 0.50631E-04
  weight for this iteration     100.00

 eigenvalues of (default mixing * dielectric matrix)
  average eigenvalue GAMMA=   2.5105
  8.5599  6.6342  4.0750  2.8476  2.5625  2.0916  2.0916  1.7406  1.7406  1.5604
  1.1800  1.1800  0.9988  0.9988  0.9536  0.9536

 Free energy of the ion-electron system (eV)
  ---------------------------------------------------
  alpha Z        PSCENC =         2.79095307
  Ewald energy   TEWEN  =      2629.98113996
  -Hartree energ DENC   =     -3559.51859930
  -exchange      EXHF   =         0.00000000
  -V(xc)+E(xc)   XCENC  =       -36.96619055
  PAW double counting   =      3455.24274214    -3303.23839392
  entropy T*S    EENTRO =        -0.00000000
  eigenvalues    EBANDS =      -530.74418902
  atomic energy  EATOM  =      1243.82505112
  Solvation  Ediel_sol  =         0.00000000
  ---------------------------------------------------
  free energy    TOTEN  =       -98.62748649 eV

  energy without entropy =      -98.62748649  energy(sigma->0) =      -98.62748649


--------------------------------------------------------------------------------------------------------




--------------------------------------- Iteration      1(  22)  ---------------------------------------


    POTLOK:  cpu time    0.9559: real time    0.9549
    SETDIJ:  cpu time    0.0070: real time    0.0062
     EDDAV:  cpu time    3.5255: real time    3.5334
       DOS:  cpu time    0.0000: real time    0.0003
    CHARGE:  cpu time    0.2310: real time    0.2306
    MIXING:  cpu time    0.0730: real time    0.0730
    --------------------------------------------
      LOOP:  cpu time    4.7923: real time    4.7984

 eigenvalue-minimisations  :    88
 total energy-change (2. order) :-0.7998852E-05  (-0.1736445E-07)
 number of electron      56.0000022 magnetization 
 augmentation part       -4.7252554 magnetization 

 Broyden mixing:
  rms(total) = 0.15567E-04    rms(broyden)= 0.15566E-04
  rms(prec ) = 0.23976E-04
  weight for this iteration     100.00

 eigenvalues of (default mixing * dielectric matrix)
  average eigenvalue GAMMA=   2.5463
  8.7877  6.8062  4.7515  3.2742  2.6030  2.6030  1.9013  1.9013  1.6574  1.6574
  1.2254  1.2254  0.9951  0.9951  1.0116  0.9457  0.9457

 Free energy of the ion-electron system (eV)
  ---------------------------------------------------
  alpha Z        PSCENC =         2.79095307
  Ewald energy   TEWEN  =      2629.98113996
  -Hartree energ DENC   =     -3559.51770714
  -exchange      EXHF   =         0.00000000
  -V(xc)+E(xc)   XCENC  =       -36.96607400
  PAW double counting   =      3455.25949112    -3303.25508067
  entropy T*S    EENTRO =        -0.00000000
  eigenvalues    EBANDS =      -530.74526795
  atomic energy  EATOM  =      1243.82505112
  Solvation  Ediel_sol  =         0.00000000
  ---------------------------------------------------
  free energy    TOTEN  =       -98.62749449 eV

  energy without entropy =      -98.62749449  energy(sigma->0) =      -98.62749449


--------------------------------------------------------------------------------------------------------




--------------------------------------- Iteration      1(  23)  ---------------------------------------


    POTLOK:  cpu time    0.9589: real time    0.9585
    SETDIJ:  cpu time    0.0060: real time    0.0061
     EDDAV:  cpu time    3.4745: real time    3.5249
       DOS:  cpu time    0.0010: real time    0.0003
    CHARGE:  cpu time    0.2310: real time    0.2312
    MIXING:  cpu time    0.0790: real time    0.0794
    --------------------------------------------
      LOOP:  cpu time    4.7503: real time    4.8004

 eigenvalue-minimisations  :    88
 total energy-change (2. order) :-0.3578331E-05  (-0.1024782E-07)
 number of electron      56.0000022 magnetization 
 augmentation part       -4.7252583 magnetization 

 Broyden mixing:
  rms(total) = 0.10426E-04    rms(broyden)= 0.10426E-04
  rms(prec ) = 0.14741E-04
  weight for this iteration     100.00

 eigenvalues of (default mixing * dielectric matrix)
  average eigenvalue GAMMA=   2.5381
  8.8442  6.8879  4.9323  3.2900  2.6457  2.6457  1.9285  1.9285  1.8002  1.7125
  1.7125  1.2003  1.2003  1.0248  1.0248  0.9844  0.9844  0.9385

 Free energy of the ion-electron system (eV)
  ---------------------------------------------------
  alpha Z        PSCENC =         2.79095307
  Ewald energy   TEWEN  =      2629.98113996
  -Hartree energ DENC   =     -3559.51810694
  -exchange      EXHF   =         0.00000000
  -V(xc)+E(xc)   XCENC  =       -36.96618415
  PAW double counting   =      3455.24964494    -3303.24521346
  entropy T*S    EENTRO =        -0.00000000
  eigenvalues    EBANDS =      -530.74478260
  atomic energy  EATOM  =      1243.82505112
  Solvation  Ediel_sol  =         0.00000000
  ---------------------------------------------------
  free energy    TOTEN  =       -98.62749807 eV

  energy without entropy =      -98.62749807  energy(sigma->0) =      -98.62749807


--------------------------------------------------------------------------------------------------------




--------------------------------------- Iteration      1(  24)  ---------------------------------------


    POTLOK:  cpu time    0.9669: real time    0.9662
    SETDIJ:  cpu time    0.0070: real time    0.0061
     EDDAV:  cpu time    3.5905: real time    3.5890
       DOS:  cpu time    0.0000: real time    0.0003
    CHARGE:  cpu time    0.2300: real time    0.2302
    MIXING:  cpu time    0.0860: real time    0.0857
    --------------------------------------------
      LOOP:  cpu time    4.8803: real time    4.8776

 eigenvalue-minimisations  :    88
 total energy-change (2. order) :-0.2065535E-05  (-0.3175911E-08)
 number of electron      56.0000022 magnetization 
 augmentation part       -4.7252577 magnetization 

 Broyden mixing:
  rms(total) = 0.34645E-05    rms(broyden)= 0.34642E-05
  rms(prec ) = 0.60249E-05
  weight for this iteration     100.00

 eigenvalues of (default mixing * dielectric matrix)
  average eigenvalue GAMMA=   2.5806
  8.8599  7.1709  5.5685  3.9460  2.9869  2.4940  2.3869  1.8676  1.8676  1.7023
  1.7023  1.2214  1.2214  1.1371  0.9981  0.9981  0.9536  0.9536  0.9965

 Free energy of the ion-electron system (eV)
  ---------------------------------------------------
  alpha Z        PSCENC =         2.79095307
  Ewald energy   TEWEN  =      2629.98113996
  -Hartree energ DENC   =     -3559.51886866
  -exchange      EXHF   =         0.00000000
  -V(xc)+E(xc)   XCENC  =       -36.96616020
  PAW double counting   =      3455.23371743    -3303.22931090
  entropy T*S    EENTRO =        -0.00000000
  eigenvalues    EBANDS =      -530.74402196
  atomic energy  EATOM  =      1243.82505112
  Solvation  Ediel_sol  =         0.00000000
  ---------------------------------------------------
  free energy    TOTEN  =       -98.62750014 eV

  energy without entropy =      -98.62750014  energy(sigma->0) =      -98.62750014


--------------------------------------------------------------------------------------------------------




--------------------------------------- Iteration      1(  25)  ---------------------------------------


    POTLOK:  cpu time    1.0358: real time    1.0386
    SETDIJ:  cpu time    0.0070: real time    0.0070
     EDDAV:  cpu time    3.5615: real time    3.5584
       DOS:  cpu time    0.0000: real time    0.0003
    --------------------------------------------
      LOOP:  cpu time    4.6043: real time    4.6043

 eigenvalue-minimisations  :    88
 total energy-change (2. order) :-0.5878019E-06  (-0.1011877E-08)
 number of electron      56.0000022 magnetization 
 augmentation part       -4.7252577 magnetization 

 Free energy of the ion-electron system (eV)
  ---------------------------------------------------
  alpha Z        PSCENC =         2.79095307
  Ewald energy   TEWEN  =      2629.98113996
  -Hartree energ DENC   =     -3559.51936363
  -exchange      EXHF   =         0.00000000
  -V(xc)+E(xc)   XCENC  =       -36.96613460
  PAW double counting   =      3455.23360204    -3303.22919710
  entropy T*S    EENTRO =        -0.00000000
  eigenvalues    EBANDS =      -530.74355158
  atomic energy  EATOM  =      1243.82505112
  Solvation  Ediel_sol  =         0.00000000
  ---------------------------------------------------
  free energy    TOTEN  =       -98.62750073 eV

  energy without entropy =      -98.62750073  energy(sigma->0) =      -98.62750073


--------------------------------------------------------------------------------------------------------




 average (electrostatic) potential at core
  the test charge radii are     0.9892  1.1631  0.5201
  (the norm of the test charge is              1.0000)
       1 -93.4671       2 -93.4968       3 -93.4968       4 -40.4295       5 -40.4360
       6 -40.4296       7 -40.4191       8 -40.3788       9 -40.4191      10 -40.4768
      11 -40.6906      12 -40.6857      13 -41.0625      14 -40.6910      15 -40.6858
      16 -41.0623      17 -41.0630      18 -40.6718      19 -41.0503      20 -41.0481
      21 -41.0577      22 -41.0500      23 -41.0575      24 -41.0621      25 -41.0617
      26 -41.0573
 
 
 
 E-fermi :  -5.3357     XC(G=0):  -0.6111     alpha+bet : -0.3265


 k-point     1 :       0.0000    0.0000    0.0000
  band No.  band energies     occupation 
      1     -15.4632      2.00000
      2     -14.5726      2.00000
      3     -14.4481      2.00000
      4     -14.1683      2.00000
      5     -13.2520      2.00000
      6     -12.9814      2.00000
      7     -11.9053      2.00000
      8     -11.7202      2.00000
      9     -11.4829      2.00000
     10     -10.5941      2.00000
     11      -8.9886      2.00000
     12      -8.6414      2.00000
     13      -8.6349      2.00000
     14      -8.6248      2.00000
     15      -8.1974      2.00000
     16      -8.1843      2.00000
     17      -8.1704      2.00000
     18      -7.8581      2.00000
     19      -7.8534      2.00000
     20      -7.8482      2.00000
     21      -6.7547      2.00000
     22      -6.7412      2.00000
     23      -6.4435      2.00000
     24      -6.4367      2.00000
     25      -6.4269      2.00000
     26      -6.3335      2.00000
     27      -6.3271      2.00000
     28      -6.3186      2.00000
     29      -1.6026      0.00000
     30      -1.2497      0.00000
     31      -1.2332      0.00000
     32      -1.1866      0.00000
     33      -1.1418      0.00000
     34      -1.1027      0.00000
     35      -1.0135      0.00000
     36      -0.8521      0.00000
     37      -0.8387      0.00000
     38      -0.7197      0.00000
     39      -0.3112      0.00000
     40      -0.1938      0.00000
     41      -0.1548      0.00000
     42      -0.1109      0.00000


--------------------------------------------------------------------------------------------------------


 soft charge-density along one line, spin component           1
         0         1         2         3         4         5         6         7         8         9
 total charge-density along one line
 
 pseudopotential strength for first ion, spin component:           1
 19.622  27.384  -0.001   0.004   0.001  -0.002   0.008   0.001
 27.384  38.220  -0.001   0.006   0.001  -0.002   0.010   0.001
 -0.001  -0.001   4.360   0.000   0.000   8.134   0.000   0.000
  0.004   0.006   0.000   4.360  -0.000   0.000   8.133  -0.000
  0.001   0.001   0.000  -0.000   4.360   0.000  -0.000   8.134
 -0.002  -0.002   8.134   0.000   0.000  15.184   0.000   0.000
  0.008   0.010   0.000   8.133  -0.000   0.000  15.182  -0.000
  0.001   0.001   0.000  -0.000   8.134   0.000  -0.000  15.184
 total augmentation occupancy for first ion, spin component:           1
  5.511  -2.016   0.074  -0.351  -0.047  -0.022   0.105   0.014
 -2.016   0.808  -0.044   0.212   0.028   0.010  -0.045  -0.006
  0.074  -0.044   2.794  -0.104  -0.014  -0.601   0.036   0.005
 -0.351   0.212  -0.104   3.269   0.066   0.036  -0.768  -0.023
 -0.047   0.028  -0.014   0.066   2.782   0.005  -0.023  -0.597
 -0.022   0.010  -0.601   0.036   0.005   0.137  -0.010  -0.001
  0.105  -0.045   0.036  -0.768  -0.023  -0.010   0.184   0.007
  0.014  -0.006   0.005  -0.023  -0.597  -0.001   0.007   0.135


------------------------ aborting loop because EDIFF is reached ----------------------------------------


    CHARGE:  cpu time    0.2320: real time    0.2317
    FORLOC:  cpu time    0.1260: real time    0.1261
    FORNL :  cpu time    0.8489: real time    0.8488
    STRESS:  cpu time    3.0435: real time    3.0477
    FORCOR:  cpu time    0.9958: real time    0.9999
    FORHAR:  cpu time    0.3519: real time    0.3504
    MIXING:  cpu time    0.0920: real time    0.0923
    OFIELD:  cpu time    0.0000: real time    0.0000

  FORCE on cell =-STRESS in cart. coord.  units (eV):
  Direction    XX          YY          ZZ          XY          YZ          ZX
  --------------------------------------------------------------------------------------
  Alpha Z     2.79095     2.79095     2.79095
  Ewald     876.64706   876.62235   876.71007    -0.21850     0.02563    -0.50464
  Hartree  1186.47059  1186.33063  1186.71819    -0.10248    -0.39991    -0.21072
  E(xc)    -181.87065  -181.90482  -181.63485     0.04228    -0.03217     0.02017
  Local   -2535.99893 -2535.84566 -2536.20209     0.33642     0.34933     0.73208
  n-local   222.08861   222.27154   220.86459    -0.22654     0.20476    -0.12990
  augment    -6.96339    -6.96868    -6.94109     0.00494    -0.00235     0.00134
  Kinetic   437.91410   437.80064   438.55369     0.13988    -0.12655     0.08109
  Fock        0.00000     0.00000     0.00000     0.00000     0.00000     0.00000
  -------------------------------------------------------------------------------------
  Total       1.07834     1.09696     0.85946    -0.02400     0.01873    -0.01058
  in kB       0.21596     0.21969     0.17213    -0.00481     0.00375    -0.00212
  external pressure =        0.20 kB  Pullay stress =        0.00 kB


 VOLUME and BASIS-vectors are now :
 -----------------------------------------------------------------------------
  energy-cutoff  :      400.00
[...]
    SETDIJ:  cpu time    0.0060: real time    0.0062
     EDDAV:  cpu time    4.4653: real time    4.4627
       DOS:  cpu time    0.0000: real time    0.0003
    CHARGE:  cpu time    0.2300: real time    0.2294
    MIXING:  cpu time    0.0240: real time    0.0241
    --------------------------------------------
      LOOP:  cpu time    5.7061: real time    5.7026

 eigenvalue-minimisations  :   120
 total energy-change (2. order) :-0.2480162E-04  (-0.3065946E-04)
 number of electron      56.0000021 magnetization 
 augmentation part       -4.7096983 magnetization 

 Broyden mixing:
  rms(total) = 0.15655E-02    rms(broyden)= 0.15650E-02
  rms(prec ) = 0.16759E-02
  weight for this iteration     100.00

 eigenvalues of (default mixing * dielectric matrix)
  average eigenvalue GAMMA=   1.0311
  1.0311

 Free energy of the ion-electron system (eV)
  ---------------------------------------------------
  alpha Z        PSCENC =         2.79095307
  Ewald energy   TEWEN  =      2572.07266084
  -Hartree energ DENC   =     -3503.05072330
  -exchange      EXHF   =         0.00000000
  -V(xc)+E(xc)   XCENC  =       -37.12071165
  PAW double counting   =      3432.75557910    -3280.67886290
  entropy T*S    EENTRO =        -0.00000000
  eigenvalues    EBANDS =      -529.44361678
  atomic energy  EATOM  =      1243.82505112
  Solvation  Ediel_sol  =         0.00000000
  ---------------------------------------------------
  free energy    TOTEN  =       -98.84967050 eV

  energy without entropy =      -98.84967050  energy(sigma->0) =      -98.84967050


--------------------------------------------------------------------------------------------------------




--------------------------------------- Iteration     19(   3)  ---------------------------------------


    POTLOK:  cpu time    0.9729: real time    0.9717
    SETDIJ:  cpu time    0.0060: real time    0.0062
     EDDAV:  cpu time    4.4633: real time    4.4618
       DOS:  cpu time    0.0000: real time    0.0003
    CHARGE:  cpu time    0.2300: real time    0.2297
    MIXING:  cpu time    0.0250: real time    0.0251
    --------------------------------------------
      LOOP:  cpu time    5.6971: real time    5.6948

 eigenvalue-minimisations  :   120
 total energy-change (2. order) : 0.2470329E-05  (-0.9009754E-06)
 number of electron      56.0000021 magnetization 
 augmentation part       -4.7096219 magnetization 

 Broyden mixing:
  rms(total) = 0.88460E-03    rms(broyden)= 0.88457E-03
  rms(prec ) = 0.94793E-03
  weight for this iteration     100.00

 eigenvalues of (default mixing * dielectric matrix)
  average eigenvalue GAMMA=   1.5719
  1.0396  2.1041

 Free energy of the ion-electron system (eV)
  ---------------------------------------------------
  alpha Z        PSCENC =         2.79095307
  Ewald energy   TEWEN  =      2572.07266084
  -Hartree energ DENC   =     -3503.05177411
  -exchange      EXHF   =         0.00000000
  -V(xc)+E(xc)   XCENC  =       -37.12112389
  PAW double counting   =      3432.82448705    -3280.74794316
  entropy T*S    EENTRO =        -0.00000000
  eigenvalues    EBANDS =      -529.44197894
  atomic energy  EATOM  =      1243.82505112
  Solvation  Ediel_sol  =         0.00000000
  ---------------------------------------------------
  free energy    TOTEN  =       -98.84966803 eV

  energy without entropy =      -98.84966803  energy(sigma->0) =      -98.84966803


--------------------------------------------------------------------------------------------------------




--------------------------------------- Iteration     19(   4)  ---------------------------------------


    POTLOK:  cpu time    0.9809: real time    0.9799
    SETDIJ:  cpu time    0.0060: real time    0.0062
     EDDAV:  cpu time    4.2833: real time    4.2823
       DOS:  cpu time    0.0000: real time    0.0003
    --------------------------------------------
      LOOP:  cpu time    5.2702: real time    5.2687

 eigenvalue-minimisations  :   112
 total energy-change (2. order) : 0.8575498E-06  (-0.4650869E-06)
 number of electron      56.0000021 magnetization 
 augmentation part       -4.7096219 magnetization 

 Free energy of the ion-electron system (eV)
  ---------------------------------------------------
  alpha Z        PSCENC =         2.79095307
  Ewald energy   TEWEN  =      2572.07266084
  -Hartree energ DENC   =     -3503.05092202
  -exchange      EXHF   =         0.00000000
  -V(xc)+E(xc)   XCENC  =       -37.12142731
  PAW double counting   =      3432.88181406    -3280.80544325
  entropy T*S    EENTRO =        -0.00000000
  eigenvalues    EBANDS =      -529.44235368
  atomic energy  EATOM  =      1243.82505112
  Solvation  Ediel_sol  =         0.00000000
  ---------------------------------------------------
  free energy    TOTEN  =       -98.84966717 eV

  energy without entropy =      -98.84966717  energy(sigma->0) =      -98.84966717


--------------------------------------------------------------------------------------------------------




 average (electrostatic) potential at core
  the test charge radii are     0.9892  1.1631  0.5201
  (the norm of the test charge is              1.0000)
       1 -93.5054       2 -93.4335       3 -93.4337       4 -40.4446       5 -40.4448
       6 -40.4448       7 -40.4655       8 -40.4126       9 -40.4655      10 -40.4896
      11 -40.8707      12 -40.8681      13 -41.0135      14 -40.8704      15 -40.8669
      16 -40.9911      17 -40.9910      18 -40.9184      19 -41.0186      20 -40.9876
      21 -40.9889      22 -41.0184      23 -40.9880      24 -40.9877      25 -40.9890
      26 -40.9876
 
 
 
 E-fermi :  -5.3072     XC(G=0):  -0.6141     alpha+bet : -0.3265


 k-point     1 :       0.0000    0.0000    0.0000
  band No.  band energies     occupation 
      1     -15.2696      2.00000
      2     -14.3828      2.00000
      3     -14.2980      2.00000
      4     -14.1500      2.00000
      5     -13.2184      2.00000
      6     -13.0373      2.00000
      7     -11.9386      2.00000
      8     -11.7847      2.00000
      9     -11.5671      2.00000
     10     -10.7255      2.00000
     11      -8.9365      2.00000
     12      -8.6591      2.00000
     13      -8.5876      2.00000
     14      -8.5037      2.00000
     15      -8.2459      2.00000
     16      -8.1215      2.00000
     17      -8.0410      2.00000
     18      -7.9331      2.00000
     19      -7.8220      2.00000
     20      -7.7696      2.00000
     21      -6.8087      2.00000
     22      -6.7566      2.00000
     23      -6.4321      2.00000
     24      -6.3921      2.00000
     25      -6.3845      2.00000
     26      -6.3570      2.00000
     27      -6.3175      2.00000
     28      -6.2809      2.00000
     29      -1.5667      0.00000
     30      -1.4402      0.00000
     31      -1.3446      0.00000
     32      -1.2745      0.00000
     33      -1.2097      0.00000
     34      -1.1903      0.00000
     35      -1.1528      0.00000
     36      -0.8874      0.00000
     37      -0.8430      0.00000
     38      -0.7831      0.00000
     39      -0.2688      0.00000
     40      -0.1806      0.00000
     41      -0.1624      0.00000
     42      -0.0786      0.00000


--------------------------------------------------------------------------------------------------------


 soft charge-density along one line, spin component           1
         0         1         2         3         4         5         6         7         8         9
 total charge-density along one line
 
 pseudopotential strength for first ion, spin component:           1
 19.628  27.392  -0.001   0.004   0.000  -0.001   0.007   0.001
 27.392  38.232  -0.001   0.005   0.001  -0.002   0.010   0.001
 -0.001  -0.001   4.362  -0.000   0.000   8.137   0.000   0.000
  0.004   0.005  -0.000   4.362   0.000   0.000   8.137  -0.000
  0.000   0.001   0.000   0.000   4.362   0.000  -0.000   8.137
 -0.001  -0.002   8.137   0.000   0.000  15.188   0.000   0.000
  0.007   0.010   0.000   8.137  -0.000   0.000  15.188  -0.000
  0.001   0.001   0.000  -0.000   8.137   0.000  -0.000  15.188
 total augmentation occupancy for first ion, spin component:           1
  5.595  -2.059   0.105  -0.523  -0.067  -0.032   0.162   0.020
 -2.059   0.827  -0.059   0.293   0.038   0.014  -0.071  -0.009
  0.105  -0.059   2.758  -0.154  -0.019  -0.592   0.051   0.006
 -0.523   0.293  -0.154   3.440   0.099   0.051  -0.816  -0.032
 -0.067   0.038  -0.019   0.099   2.740   0.006  -0.032  -0.586
 -0.032   0.014  -0.592   0.051   0.006   0.134  -0.014  -0.002
  0.162  -0.071   0.051  -0.816  -0.032  -0.014   0.197   0.009
  0.020  -0.009   0.006  -0.032  -0.586  -0.002   0.009   0.133


------------------------ aborting loop because EDIFF is reached ----------------------------------------


    CHARGE:  cpu time    0.2350: real time    0.2351
    FORLOC:  cpu time    0.1420: real time    0.1421
    FORNL :  cpu time    0.9279: real time    0.9269
    STRESS:  cpu time    3.0785: real time    3.0770
    FORCOR:  cpu time    1.0078: real time    1.0072
    FORHAR:  cpu time    0.3519: real time    0.3522
    MIXING:  cpu time    0.0260: real time    0.0256
    OFIELD:  cpu time    0.0000: real time    0.0000

  FORCE on cell =-STRESS in cart. coord.  units (eV):
  Direction    XX          YY          ZZ          XY          YZ          ZX
  --------------------------------------------------------------------------------------
  Alpha Z     2.79095     2.79095     2.79095
  Ewald     856.76878   855.07718   860.22503     1.22305    -2.97200     1.44101
  Hartree  1166.16462  1164.20932  1172.66735     1.57716    -3.20129     1.59418
  E(xc)    -181.41187  -181.45495  -181.13665     0.05352    -0.04866     0.03110
  Local   -2494.77095 -2491.05593 -2505.12520    -2.88536     6.32041    -3.13125
  n-local   219.88213   220.01297   219.07367    -0.16133     0.20302    -0.13183
  augment    -7.11117    -7.09512    -7.23381    -0.02076     0.02143    -0.01393
  Kinetic   436.78784   436.62797   437.79760     0.19544    -0.34661     0.22756
  Fock        0.00000     0.00000     0.00000     0.00000     0.00000     0.00000
  -------------------------------------------------------------------------------------
  Total      -0.89968    -0.88761    -0.94106    -0.01828    -0.02369     0.01685
  in kB      -0.18018    -0.17776    -0.18847    -0.00366    -0.00474     0.00337
  external pressure =       -0.18 kB  Pullay stress =        0.00 kB


 VOLUME and BASIS-vectors are now :
 -----------------------------------------------------------------------------
  energy-cutoff  :      400.00
  volume of cell :     8000.00
      direct lattice vectors                 reciprocal lattice vectors
    20.000000000  0.000000000  0.000000000     0.050000000  0.000000000  0.000000000
     0.000000000 20.000000000  0.000000000     0.000000000  0.050000000  0.000000000
     0.000000000  0.000000000 20.000000000     0.000000000  0.000000000  0.050000000

  length of vectors
    20.000000000 20.000000000 20.000000000     0.050000000  0.050000000  0.050000000


 FORCES acting on ions
    electron-ion (+dipol)            ewald-force                    non-local-force                 convergence-correction
 -----------------------------------------------------------------------------------------------
   0.119E+02 -.185E+02 0.856E+02   -.121E+02 0.188E+02 -.874E+02   0.210E+00 -.328E+00 0.178E+01   0.136E-02 -.208E-02 0.127E-02
   -.839E+02 0.490E+01 -.445E+02   0.861E+02 -.499E+01 0.457E+02   -.224E+01 0.909E-01 -.114E+01   0.106E-02 -.952E-03 -.213E-02
   0.277E+02 0.798E+02 -.438E+02   -.285E+02 -.819E+02 0.449E+02   0.776E+00 0.212E+01 -.111E+01   0.448E-03 -.137E-02 -.228E-02
   0.868E+02 -.497E+01 0.442E+02   -.875E+02 0.509E+01 -.449E+02   0.667E+00 -.122E+00 0.691E+00   0.109E-02 -.111E-02 0.465E-03
   -.368E+02 0.540E+02 0.733E+02   0.370E+02 -.542E+02 -.742E+02   -.195E+00 0.281E+00 0.904E+00   0.607E-03 -.999E-03 0.122E-02
   -.287E+02 -.825E+02 0.434E+02   0.289E+02 0.832E+02 -.441E+02   -.147E+00 -.668E+00 0.685E+00   0.563E-03 -.140E-02 0.463E-03
   0.813E+02 0.117E+02 -.387E+02   -.817E+02 -.121E+02 0.391E+02   0.453E+00 0.451E+00 -.400E+00   0.498E-03 -.898E-03 -.562E-03
   -.503E+02 0.748E+02 -.750E+01   0.506E+02 -.753E+02 0.795E+01   -.305E+00 0.457E+00 -.435E+00   0.403E-03 -.639E-03 -.191E-02
   -.412E+02 -.707E+02 -.395E+02   0.418E+02 0.709E+02 0.399E+02   -.585E+00 -.247E+00 -.408E+00   0.614E-03 -.793E-03 -.513E-03
   0.359E+02 -.526E+02 -.734E+02   -.363E+02 0.532E+02 0.742E+02   0.396E+00 -.582E+00 -.779E+00   0.640E-04 -.717E-04 -.353E-03
   0.206E+02 0.410E+02 0.674E+01   -.219E+02 -.433E+02 -.804E+01   0.135E+01 0.230E+01 0.130E+01   0.162E-03 -.140E-03 -.329E-03
   0.109E+01 0.222E+02 -.408E+02   -.737E+00 -.228E+02 0.436E+02   -.353E+00 0.653E+00 -.287E+01   0.126E-04 -.313E-03 -.293E-03
   -.258E+02 0.384E+02 -.399E+01   0.272E+02 -.404E+02 0.418E+01   -.137E+01 0.204E+01 -.191E+00   -.118E-03 0.170E-03 -.342E-03
   -.456E+02 -.352E+01 0.629E+01   0.483E+02 0.390E+01 -.756E+01   -.265E+01 -.387E+00 0.127E+01   0.685E-04 -.210E-03 -.305E-03
   -.205E+02 0.768E+01 -.409E+02   0.210E+02 -.827E+01 0.438E+02   -.444E+00 0.591E+00 -.287E+01   0.280E-03 -.130E-03 -.276E-03
   -.351E+02 0.548E+01 0.272E+02   0.373E+02 -.518E+01 -.283E+02   -.224E+01 -.299E+00 0.110E+01   -.204E-03 -.249E-03 0.404E-03
   0.796E+01 0.344E+02 0.275E+02   -.908E+01 -.363E+02 -.286E+02   0.111E+01 0.195E+01 0.112E+01   0.288E-03 0.860E-04 0.412E-03
   0.633E+01 -.987E+01 0.466E+02   -.671E+01 0.105E+02 -.494E+02   0.380E+00 -.593E+00 0.283E+01   0.206E-03 -.316E-03 0.165E-03
   -.216E+02 -.356E+02 -.200E+02   0.227E+02 0.376E+02 0.211E+02   -.114E+01 -.192E+01 -.106E+01   0.890E-04 -.365E-04 0.654E-05
   0.267E+01 -.352E+01 -.440E+02   -.239E+01 0.307E+01 0.465E+02   -.287E+00 0.451E+00 -.246E+01   0.482E-05 0.677E-07 -.112E-04
   0.242E+02 -.358E+02 -.102E+02   -.256E+02 0.379E+02 0.100E+02   0.140E+01 -.208E+01 0.225E+00   -.253E-04 0.427E-04 -.619E-05
   0.412E+02 0.659E+01 -.196E+02   -.434E+02 -.693E+01 0.206E+02   0.221E+01 0.340E+00 -.103E+01   -.203E-05 -.103E-03 -.216E-05
   0.307E+02 0.234E+02 0.225E+02   -.319E+02 -.252E+02 -.236E+02   0.122E+01 0.188E+01 0.112E+01   0.183E-03 -.369E-03 0.113E-03
   0.335E+02 -.272E+02 0.110E+02   -.350E+02 0.293E+02 -.113E+02   0.144E+01 -.205E+01 0.230E+00   0.757E-05 -.447E-04 0.103E-03
   0.124E+02 -.413E+02 0.109E+02   -.137E+02 0.434E+02 -.111E+02   0.135E+01 -.211E+01 0.229E+00   0.314E-04 -.145E-04 0.104E-03
   -.335E+02 -.198E+02 0.221E+02   0.357E+02 0.203E+02 -.232E+02   -.222E+01 -.424E+00 0.110E+01   0.260E-03 -.301E-03 0.110E-03
 -----------------------------------------------------------------------------------------------
   0.121E+01 -.180E+01 0.163E+00   -.639E-13 -.355E-13 0.853E-13   -.121E+01 0.181E+01 -.158E+00   0.795E-02 -.122E-01 -.448E-02
 
 
 POSITION                                       TOTAL-FORCE (eV/Angst)
 -----------------------------------------------------------------------------------
      9.50169     11.13707      7.64033        -0.002573      0.003825     -0.004862
     12.29621     10.48977     11.32778        -0.011169     -0.002320      0.008062
      9.01126      8.28231     11.30589         0.006809      0.009934      0.009035
      7.36983     10.78158      8.69046         0.001109      0.002540     -0.002210
     10.83241      9.15437      7.89266        -0.003859      0.005914     -0.002438
     10.62664     12.97017      8.71206        -0.002675     -0.000086     -0.002360
      7.66555     10.25752     11.07217         0.005062      0.000179     -0.002899
     11.15140      8.65582     10.27738        -0.003006      0.004479      0.007782
     10.97818     12.48354     11.09416        -0.002159     -0.004722     -0.002944
      8.79290     12.14713     12.15725         0.000163     -0.000333      0.003435
      8.33112      7.12135     10.64812         0.001705     -0.005531     -0.001259
      9.19057      7.95379     12.75720        -0.002157      0.000308     -0.009877
     12.01952      7.36301     10.40021         0.004636     -0.006909      0.003118
     13.63425     10.68475     10.68367         0.004109     -0.003744     -0.000900
     12.51915     10.19059     12.77936         0.000828      0.001965     -0.009158
     12.22119      9.34229      7.21220         0.000834      0.002954      0.003402
     10.14014      7.94379      7.19822        -0.003073      0.000098      0.003222
      9.30587     11.44274      6.18263         0.000219     -0.000575      0.009614
     11.70297     13.69522     11.76271         0.006360      0.001500     -0.002090
      8.97121     11.86643     13.67964        -0.000002      0.000190     -0.001224
      7.92839     13.43534     12.01787        -0.000170      0.000419      0.000385
      6.26366     10.04012     11.72633        -0.003920     -0.005524     -0.002237
      6.61478      9.61068      7.99272         0.004427     -0.001804     -0.003815
      6.47872     12.05149      8.54836         0.001631      0.002534      0.002099
      9.78926     14.27618      8.57022        -0.003084     -0.000555      0.001862
     12.00252     13.23095      8.02874        -0.000045     -0.004736     -0.003744
 -----------------------------------------------------------------------------------
    total drift:                                0.001389     -0.001136      0.000369


--------------------------------------------------------------------------------------------------------



  FREE ENERGIE OF THE ION-ELECTRON SYSTEM (eV)
  ---------------------------------------------------
  free  energy   TOTEN  =       -98.84966717 eV

  energy  without entropy=      -98.84966717  energy(sigma->0) =      -98.84966717
 
 d Force = 0.9846601E-04[-0.495E-04, 0.246E-03]  d Energy = 0.9886696E-04-0.401E-06
 d Force =-0.3186222E+00[-0.319E+00,-0.319E+00]  d Ewald  =-0.3186221E+00-0.879E-07


--------------------------------------------------------------------------------------------------------


    POTLOK:  cpu time    0.9759: real time    0.9746


--------------------------------------------------------------------------------------------------------


 Conjugate gradient step on ions:
 trial-energy change:   -0.000099  1 .order   -0.000098   -0.000246    0.000049
  (g-gl).g = 0.202E-03      g.g   = 0.203E-03  gl.gl    = 0.551E-03
 g(Force)  = 0.203E-03   g(Stress)= 0.000E+00 ortho     =-0.668E-07
 gamma     =   0.36556
 trial     =   1.21687
 opt step  =   1.01344  (harmonic =   1.01344) maximal distance =0.00114294
 next E    =   -98.849671   (d E  =  -0.00010)


--------------------------------------------------------------------------------------------------------


  
 reached required accuracy - stopping structural energy minimisation
 writing wavefunctions
     LOOP+:  cpu time   28.4347: real time   28.8934
    4ORBIT:  cpu time    0.0000: real time    0.0000

 total amount of memory used by VASP MPI-rank0   131440. kBytes
=======================================================================

   base      :      30000. kBytes
   nonl-proj :      17624. kBytes
   fftplans  :      26957. kBytes
   grid      :      48673. kBytes
   one-center:         40. kBytes
   wavefun   :       8146. kBytes
 
  
  
 General timing and accounting informations for this job:
 ========================================================
  
                  Total CPU time used (sec):     1126.691
                            User time (sec):     1104.381
                          System time (sec):       22.310
                         Elapsed time (sec):     1130.792
  
                   Maximum memory used (kb):      184856.
                   Average memory used (kb):           0.
  
                          Minor page faults:      5972025
                          Major page faults:            5
                 Voluntary context switches:        10281
