 vasp.5.4.4.18Apr17-6-g9f103f2a35 (build Nov 06 2017 19:16:10) complex          
  
 executed on           IFC91_ompi date 2018.07.11  16:32:26
 running on   12 total cores
 distrk:  each k-point on   12 cores,    1 groups
 distr:  one band on NCORES_PER_BAND=   6 cores,    2 groups


--------------------------------------------------------------------------------------------------------


 INCAR:
 POTCAR:    PAW_PBE Si 05Jan2001                  
 POTCAR:    PAW_PBE Ge 05Jan2001                  
 POTCAR:    PAW_PBE H 15Jun2001                   
 POTCAR:    PAW_PBE Si 05Jan2001                  
   VRHFIN =Si: s2p2                                                             
   LEXCH  = PE                                                                  
   EATOM  =   103.0669 eV,    7.5752 Ry                                         
                                                                                
   TITEL  = PAW_PBE Si 05Jan2001                                                
   LULTRA =        F    use ultrasoft PP ?                                      
   IUNSCR =        1    unscreen: 0-lin 1-nonlin 2-no                           
   RPACOR =    1.500    partial core radius                                     
   POMASS =   28.085; ZVAL   =    4.000    mass and valenz                      
   RCORE  =    1.900    outmost cutoff radius                                   
   RWIGS  =    2.480; RWIGS  =    1.312    wigner-seitz radius (au A)           
   ENMAX  =  245.345; ENMIN  =  184.009 eV                                      
   ICORE  =        2    local potential                                         
   LCOR   =        T    correct aug charges                                     
   LPAW   =        T    paw PP                                                  
   EAUG   =  322.069                                                            
   DEXC   =    0.000                                                            
   RMAX   =    1.950    core radius for proj-oper                               
   RAUG   =    1.300    factor for augmentation sphere                          
   RDEP   =    1.993    radius for radial grids                                 
   RDEPT  =    1.837    core radius for aug-charge                              
                                                                                
   Atomic configuration                                                         
    6 entries                                                                   
     n  l   j            E        occ.                                          
     1  0  0.50     -1785.8828   2.0000                                         
     2  0  0.50      -139.4969   2.0000                                         
     2  1  1.50       -95.5546   6.0000                                         
     3  0  0.50       -10.8127   2.0000                                         
     3  1  0.50        -4.0811   2.0000                                         
     3  2  1.50        -4.0817   0.0000                                         
   Description                                                                  
     l       E           TYP  RCUT    TYP  RCUT                                 
     0    -10.8127223     23  1.900                                             
     0     -7.6451159     23  1.900                                             
     1     -4.0811372     23  1.900                                             
     1      2.4879257     23  1.900                                             
     2     -4.0817478      7  1.900                                             
  local pseudopotential read in
  partial core-charges read in
  partial kinetic energy density read in
  atomic valenz-charges read in
  non local Contribution for L=           0  read in
    real space projection operators read in
  non local Contribution for L=           0  read in
    real space projection operators read in
  non local Contribution for L=           1  read in
    real space projection operators read in
  non local Contribution for L=           1  read in
    real space projection operators read in
    PAW grid and wavefunctions read in
 
   number of l-projection  operators is LMAX  =           4
   number of lm-projection operators is LMMAX =           8
 
 POTCAR:    PAW_PBE Ge 05Jan2001                  
   VRHFIN =Ge: s2p2                                                             
   LEXCH  = PE                                                                  
   EATOM  =   104.9960 eV,    7.7170 Ry                                         
                                                                                
   TITEL  = PAW_PBE Ge 05Jan2001                                                
   LULTRA =        F    use ultrasoft PP ?                                      
   IUNSCR =        1    unscreen: 0-lin 1-nonlin 2-no                           
   RPACOR =    2.170    partial core radius                                     
   POMASS =   72.610; ZVAL   =    4.000    mass and valenz                      
   RCORE  =    2.300    outmost cutoff radius                                   
   RWIGS  =    2.300; RWIGS  =    1.217    wigner-seitz radius (au A)           
   ENMAX  =  173.807; ENMIN  =  130.355 eV                                      
   ICORE  =        3    local potential                                         
   LCOR   =        T    correct aug charges                                     
   LPAW   =        T    paw PP                                                  
   EAUG   =  385.843                                                            
   DEXC   =    0.000                                                            
   RMAX   =    2.342    core radius for proj-oper                               
   RAUG   =    1.300    factor for augmentation sphere                          
   RDEP   =    2.318    radius for radial grids                                 
   RDEPT  =    2.103    core radius for aug-charge                              
                                                                                
   Atomic configuration                                                         
   10 entries                                                                   
     n  l   j            E        occ.                                          
     1  0  0.50    -10959.8463   2.0000                                         
     2  0  0.50     -1371.6056   2.0000                                         
     2  1  1.50     -1198.4791   6.0000                                         
     3  0  0.50      -168.4733   2.0000                                         
     3  1  1.50      -115.6019   6.0000                                         
     3  2  2.50       -29.3106  10.0000                                         
     4  0  0.50       -11.7309   2.0000                                         
     4  1  0.50        -3.8952   2.0000                                         
     4  2  1.50        -4.0817   0.0000                                         
     4  3  2.50        -4.0817   0.0000                                         
   Description                                                                  
     l       E           TYP  RCUT    TYP  RCUT                                 
     0    -11.7309493     23  2.300                                             
     0     -7.4578696     23  2.300                                             
     1     -3.8952261     23  2.300                                             
     1      6.1178114     23  2.300                                             
     2     -4.0817478     23  2.300                                             
     3     -1.3605826      7  2.300                                             
  local pseudopotential read in
  partial core-charges read in
  partial kinetic energy density read in
  atomic valenz-charges read in
  non local Contribution for L=           0  read in
    real space projection operators read in
  non local Contribution for L=           0  read in
    real space projection operators read in
  non local Contribution for L=           1  read in
    real space projection operators read in
  non local Contribution for L=           1  read in
    real space projection operators read in
  non local Contribution for L=           2  read in
    real space projection operators read in
    PAW grid and wavefunctions read in
 
   number of l-projection  operators is LMAX  =           5
   number of lm-projection operators is LMMAX =          13
 
 POTCAR:    PAW_PBE H 15Jun2001                   
   VRHFIN =H: ultrasoft test                                                    
   LEXCH  = PE                                                                  
   EATOM  =    12.4884 eV,    0.9179 Ry                                         
                                                                                
   TITEL  = PAW_PBE H 15Jun2001                                                 
   LULTRA =        F    use ultrasoft PP ?                                      
   IUNSCR =        0    unscreen: 0-lin 1-nonlin 2-no                           
   RPACOR =    0.000    partial core radius                                     
   POMASS =    1.000; ZVAL   =    1.000    mass and valenz                      
   RCORE  =    1.100    outmost cutoff radius                                   
   RWIGS  =    0.700; RWIGS  =    0.370    wigner-seitz radius (au A)           
   ENMAX  =  250.000; ENMIN  =  200.000 eV                                      
   RCLOC  =    0.701    cutoff for local pot                                    
   LCOR   =        T    correct aug charges                                     
   LPAW   =        T    paw PP                                                  
   EAUG   =  400.000                                                            
   RMAX   =    1.123    core radius for proj-oper                               
   RAUG   =    1.200    factor for augmentation sphere                          
   RDEP   =    1.112    radius for radial grids                                 
   RDEPT  =    0.926    core radius for aug-charge                              
                                                                                
   Atomic configuration                                                         
    2 entries                                                                   
     n  l   j            E        occ.                                          
     1  0  0.50        -6.4927   1.0000                                         
     2  1  0.50        -3.4015   0.0000                                         
   Description                                                                  
     l       E           TYP  RCUT    TYP  RCUT                                 
     0     -6.4927494     23  1.100                                             
     0      6.8029130     23  1.100                                             
     1     -4.0817478     23  1.100                                             
  local pseudopotential read in
  atomic valenz-charges read in
  non local Contribution for L=           0  read in
    real space projection operators read in
  non local Contribution for L=           0  read in
    real space projection operators read in
  non local Contribution for L=           1  read in
    real space projection operators read in
    PAW grid and wavefunctions read in
 
   number of l-projection  operators is LMAX  =           3
   number of lm-projection operators is LMMAX =           5
 

 ----------------------------------------------------------------------------- 
|                                                                             |
|  ADVICE TO THIS USER RUNNING 'VASP/VAMP'   (HEAR YOUR MASTER'S VOICE ...):  |
|                                                                             |
|      You have a (more or less) 'large supercell' and for larger cells       |
|      it might be more efficient to use real space projection opertators     |
|      So try LREAL= Auto  in the INCAR   file.                               |
|      Mind:          For very  accurate calculation you might also keep the  |
|      reciprocal projection scheme          (i.e. LREAL=.FALSE.)             |
|                                                                             |
 ----------------------------------------------------------------------------- 

  PAW_PBE Si 05Jan2001                  :
 energy of atom  1       EATOM= -103.0669
 kinetic energy error for atom=    0.0012 (will be added to EATOM!!)
  PAW_PBE Ge 05Jan2001                  :
 energy of atom  2       EATOM= -104.9960
 kinetic energy error for atom=    0.0003 (will be added to EATOM!!)
  PAW_PBE H 15Jun2001                   :
 energy of atom  3       EATOM=  -12.4884
 kinetic energy error for atom=    0.0098 (will be added to EATOM!!)
 
 
 POSCAR: SiGeH16                                 
  positions in direct lattice
  No initial velocities read in
 exchange correlation table for  LEXCH =        8
   RHO(1)=    0.500       N(1)  =     2000
   RHO(2)=  100.500       N(2)  =     4000
 


--------------------------------------------------------------------------------------------------------


 ion  position               nearest neighbor table
   1  0.475  0.556  0.385-  18 1.55   4 2.39   2 2.39   3 2.39
   2  0.369  0.539  0.436-  23 1.55  24 1.55   5 2.39   1 2.39
   3  0.542  0.457  0.396-  17 1.55  16 1.55   6 2.39   1 2.39
   4  0.531  0.648  0.437-  25 1.55  26 1.55   7 2.39   1 2.39
   5  0.385  0.515  0.552-  22 1.55  10 2.39   9 2.39   2 2.39
   6  0.557  0.433  0.512-  13 1.55   3 2.39   8 2.39   9 2.39
   7  0.547  0.624  0.554-  19 1.55   4 2.39   8 2.39  10 2.39
   8  0.613  0.525  0.565-  15 1.55  14 1.55   7 2.39   6 2.39
   9  0.451  0.416  0.564-  12 1.55  11 1.55   5 2.39   6 2.39
  10  0.440  0.606  0.605-  20 1.55  21 1.55   5 2.39   7 2.39
  11  0.415  0.357  0.529-   9 1.55
  12  0.461  0.400  0.639-   9 1.55
  13  0.600  0.369  0.520-   6 1.55
  14  0.682  0.536  0.531-   8 1.55
  15  0.623  0.509  0.640-   8 1.55
  16  0.611  0.469  0.363-   3 1.55
  17  0.506  0.398  0.362-   3 1.55
  18  0.465  0.572  0.309-   1 1.55
  19  0.583  0.683  0.588-   7 1.55
  20  0.451  0.590  0.680-  10 1.55
  21  0.397  0.670  0.598-  10 1.55
  22  0.316  0.504  0.586-   5 1.55
  23  0.333  0.479  0.402-   2 1.55
  24  0.326  0.603  0.429-   2 1.55
  25  0.488  0.712  0.430-   4 1.55
  26  0.600  0.659  0.404-   4 1.55
 
  LATTYP: Found a simple cubic cell.
 ALAT       =    20.0000000000
  
  Lattice vectors:
  
 A1 = (  20.0000000000,   0.0000000000,   0.0000000000)
 A2 = (   0.0000000000,  20.0000000000,   0.0000000000)
 A3 = (   0.0000000000,   0.0000000000,  20.0000000000)


Analysis of symmetry for initial positions (statically):
=====================================================================
 Subroutine PRICEL returns:
 Original cell was already a primitive cell.
 

 Routine SETGRP: Setting up the symmetry group for a 
 simple cubic supercell.


 Subroutine GETGRP returns: Found  1 space group operations
 (whereof  1 operations were pure point group operations)
 out of a pool of 48 trial point group operations.


The static configuration has the point symmetry C_1 .


Analysis of symmetry for dynamics (positions and initial velocities):
=====================================================================
 Subroutine PRICEL returns:
 Original cell was already a primitive cell.
 

 Routine SETGRP: Setting up the symmetry group for a 
 simple cubic supercell.


 Subroutine GETGRP returns: Found  1 space group operations
 (whereof  1 operations were pure point group operations)
 out of a pool of 48 trial point group operations.


The dynamic configuration has the point symmetry C_1 .


 Subroutine INISYM returns: Found  1 space group operations
 (whereof  1 operations are pure point group operations),
 and found     1 'primitive' translations

 
 
 KPOINTS: Automatic mesh                          

Automatic generation of k-mesh.
Space group operators:
 irot       det(A)        alpha          n_x          n_y          n_z        tau_x        tau_y        tau_z
    1     1.000000     0.000000     1.000000     0.000000     0.000000     0.000000     0.000000     0.000000
 
 Subroutine IBZKPT returns following result:
 ===========================================
 
 Found      1 irreducible k-points:
 
 Following reciprocal coordinates:
            Coordinates               Weight
  0.000000  0.000000  0.000000      1.000000
 
 Following cartesian coordinates:
            Coordinates               Weight
  0.000000  0.000000  0.000000      1.000000
 


--------------------------------------------------------------------------------------------------------




 Dimension of arrays:
   k-points           NKPTS =      1   k-points in BZ     NKDIM =      1   number of bands    NBANDS=     42
   number of dos      NEDOS =    301   number of ions     NIONS =     26
   non local maximal  LDIM  =      5   non local SUM 2l+1 LMDIM =     13
   total plane-waves  NPLWV = 941192
   max r-space proj   IRMAX =      1   max aug-charges    IRDMAX=   6593
   dimension x,y,z NGX =    98 NGY =   98 NGZ =   98
   dimension x,y,z NGXF=   196 NGYF=  196 NGZF=  196
   support grid    NGXF=   196 NGYF=  196 NGZF=  196
   ions per type =               4   6  16
   NGX,Y,Z   is equivalent  to a cutoff of   8.15,  8.15,  8.15 a.u.
   NGXF,Y,Z  is equivalent  to a cutoff of  16.29, 16.29, 16.29 a.u.

 SYSTEM =  SiGe                                    
 POSCAR =  SiGeH16                                 

 Startparameter for this run:
   NWRITE =      2    write-flag & timer
   PREC   = normal    normal or accurate (medium, high low for compatibility)
   ISTART =      0    job   : 0-new  1-cont  2-samecut
   ICHARG =      2    charge: 1-file 2-atom 10-const
   ISPIN  =      1    spin polarized calculation?
   LNONCOLLINEAR =      F non collinear calculations
   LSORBIT =      F    spin-orbit coupling
   INIWAV =      1    electr: 0-lowe 1-rand  2-diag
   LASPH  =      F    aspherical Exc in radial PAW
   METAGGA=      F    non-selfconsistent MetaGGA calc.

 Electronic Relaxation 1
   ENCUT  =  400.0 eV  29.40 Ry    5.42 a.u.  32.61 32.61 32.61*2*pi/ulx,y,z
   ENINI  =  400.0     initial cutoff
   ENAUG  =  400.0 eV  augmentation charge cutoff
   NELM   =     60;   NELMIN=  2; NELMDL= -5     # of ELM steps 
   EDIFF  = 0.1E-05   stopping-criterion for ELM
   LREAL  =      F    real-space projection
   NLSPLINE    = F    spline interpolate recip. space projectors
   LCOMPAT=      F    compatible to vasp.4.4
   GGA_COMPAT  = T    GGA compatible to vasp.4.4-vasp.4.6
   LMAXPAW     = -100 max onsite density
   LMAXMIX     =    2 max onsite mixed and CHGCAR
   VOSKOWN=      0    Vosko Wilk Nusair interpolation
   ROPT   =    0.00000   0.00000   0.00000
 Ionic relaxation
   EDIFFG = -.2E-01   stopping-criterion for IOM
   NSW    =    200    number of steps for IOM
   NBLOCK =      1;   KBLOCK =    200    inner block; outer block 
   IBRION =      2    ionic relax: 0-MD 1-quasi-New 2-CG
   NFREE  =      1    steps in history (QN), initial steepest desc. (CG)
   ISIF   =      2    stress and relaxation
   IWAVPR =     11    prediction:  0-non 1-charg 2-wave 3-comb
   ISYM   =      2    0-nonsym 1-usesym 2-fastsym
   LCORR  =      T    Harris-Foulkes like correction to forces

   POTIM  = 0.5000    time-step for ionic-motion
   TEIN   =    0.0    initial temperature
   TEBEG  =    0.0;   TEEND  =   0.0 temperature during run
   SMASS  =  -3.00    Nose mass-parameter (am)
   estimated Nose-frequenzy (Omega)   =  0.10E-29 period in steps =****** mass=  -0.914E-26a.u.
   SCALEE = 1.0000    scale energy and forces
   NPACO  =    256;   APACO  = 16.0  distance and # of slots for P.C.
   PSTRESS=    0.0 pullay stress

  Mass of Ions in am
   POMASS =  28.09 72.61  1.00
  Ionic Valenz
   ZVAL   =   4.00  4.00  1.00
  Atomic Wigner-Seitz radii
   RWIGS  =  -1.00 -1.00 -1.00
  virtual crystal weights 
   VCA    =   1.00  1.00  1.00
   NELECT =      56.0000    total number of electrons
   NUPDOWN=      -1.0000    fix difference up-down

 DOS related values:
   EMIN   =  10.00;   EMAX   =-10.00  energy-range for DOS
   EFERMI =   0.00
   ISMEAR =     0;   SIGMA  =   0.20  broadening in eV -4-tet -1-fermi 0-gaus

 Electronic relaxation 2 (details)
   IALGO  =     38    algorithm
   LDIAG  =      T    sub-space diagonalisation (order eigenvalues)
   LSUBROT=      F    optimize rotation matrix (better conditioning)
   TURBO    =      0    0=normal 1=particle mesh
   IRESTART =      0    0=no restart 2=restart with 2 vectors
   NREBOOT  =      0    no. of reboots
   NMIN     =      0    reboot dimension
   EREF     =   0.00    reference energy to select bands
   IMIX   =      4    mixing-type and parameters
     AMIX     =   0.40;   BMIX     =  1.00
     AMIX_MAG =   1.60;   BMIX_MAG =  1.00
     AMIN     =   0.10
     WC   =   100.;   INIMIX=   1;  MIXPRE=   1;  MAXMIX= -45

 Intra band minimization:
   WEIMIN = 0.0010     energy-eigenvalue tresh-hold
   EBREAK =  0.60E-08  absolut break condition
   DEPER  =   0.30     relativ break condition  

   TIME   =   0.40     timestep for ELM

  volume/ion in A,a.u.               =     307.69      2076.41
  Fermi-wavevector in a.u.,A,eV,Ry     =   0.313166  0.591797  1.334361  0.098073
  Thomas-Fermi vector in A             =   1.193276
 
 Write flags
   LWAVE        =      T    write WAVECAR
   LDOWNSAMPLE  =      F    k-point downsampling of WAVECAR
   LCHARG       =      T    write CHGCAR
   LVTOT        =      F    write LOCPOT, total local potential
   LVHAR        =      F    write LOCPOT, Hartree potential only
   LELF         =      F    write electronic localiz. function (ELF)
   LORBIT       =      0    0 simple, 1 ext, 2 COOP (PROOUT), +10 PAW based schemes


 Dipole corrections
   LMONO  =      F    monopole corrections only (constant potential shift)
   LDIPOL =      F    correct potential (dipole corrections)
   IDIPOL =      0    1-x, 2-y, 3-z, 4-all directions 
   EPSILON=  1.0000000 bulk dielectric constant

 Exchange correlation treatment:
   GGA     =    --    GGA type
   LEXCH   =     8    internal setting for exchange type
   VOSKOWN=      0    Vosko Wilk Nusair interpolation
   LHFCALC =     F    Hartree Fock is set to
   LHFONE  =     F    Hartree Fock one center treatment
   AEXX    =    0.0000 exact exchange contribution

 Linear response parameters
   LEPSILON=     F    determine dielectric tensor
   LRPA    =     F    only Hartree local field effects (RPA)
   LNABLA  =     F    use nabla operator in PAW spheres
   LVEL    =     F    velocity operator in full k-point grid
   LINTERFAST=   F  fast interpolation
   KINTER  =     0    interpolate to denser k-point grid
   CSHIFT  =0.1000    complex shift for real part using Kramers Kronig
   OMEGAMAX=  -1.0    maximum frequency
   DEG_THRESHOLD= 0.2000000E-02 threshold for treating states as degnerate
   RTIME   =   -0.100 relaxation time in fs
  (WPLASMAI=    0.000 imaginary part of plasma frequency in eV, 0.658/RTIME)
   DFIELD  = 0.0000000 0.0000000 0.0000000 field for delta impulse in time
 
 Orbital magnetization related:
   ORBITALMAG=     F  switch on orbital magnetization
   LCHIMAG   =     F  perturbation theory with respect to B field
   DQ        =  0.001000  dq finite difference perturbation B field
   LLRAUG    =     F  two centre corrections for induced B field



--------------------------------------------------------------------------------------------------------


 conjugate gradient relaxation of ions
 charge density and potential will be updated during run
 non-spin polarized calculation
 Variant of blocked Davidson
 Davidson routine will perform the subspace rotation
 perform sub-space diagonalisation
    after iterative eigenvector-optimisation
 modified Broyden-mixing scheme, WC =      100.0
 initial mixing is a Kerker type mixing with AMIX =  0.4000 and BMIX =      1.0000
 Hartree-type preconditioning will be used
 using additional bands           14
 reciprocal scheme for non local part
 use partial core corrections
 calculate Harris-corrections to forces 
   (improved forces if not selfconsistent)
 use gradient corrections 
 use of overlap-Matrix (Vanderbilt PP)
 Gauss-broadening in eV      SIGMA  =   0.20


--------------------------------------------------------------------------------------------------------


  energy-cutoff  :      400.00
  volume of cell :     8000.00
      direct lattice vectors                 reciprocal lattice vectors
    20.000000000  0.000000000  0.000000000     0.050000000  0.000000000  0.000000000
     0.000000000 20.000000000  0.000000000     0.000000000  0.050000000  0.000000000
     0.000000000  0.000000000 20.000000000     0.000000000  0.000000000  0.050000000

  length of vectors
    20.000000000 20.000000000 20.000000000     0.050000000  0.050000000  0.050000000


 
 k-points in units of 2pi/SCALE and weight: Automatic mesh                          
   0.00000000  0.00000000  0.00000000       1.000
 
 k-points in reciprocal lattice and weights: Automatic mesh                          
   0.00000000  0.00000000  0.00000000       1.000
 
 position of ions in fractional coordinates (direct lattice) 
   0.47547100  0.55626000  0.38465300
   0.36907800  0.53906000  0.43641200
   0.54179100  0.45744600  0.39613600
   0.53111600  0.64794100  0.43749600
   0.38461900  0.51474100  0.55243500
   0.55736800  0.43311000  0.51215000
   0.54669200  0.62364400  0.55351800
   0.61299700  0.52481700  0.56496600
   0.45095700  0.41593600  0.56388300
   0.44028400  0.60643000  0.60524300
   0.41490100  0.35665000  0.52940300
   0.46117000  0.40042600  0.63910800
   0.60034800  0.36907000  0.51957800
   0.68182700  0.53600700  0.53118700
   0.62280400  0.50903400  0.64018900
   0.61080000  0.46880600  0.36278200
   0.50550800  0.39805500  0.36207700
   0.46538400  0.57201900  0.30946400
   0.58275500  0.68306700  0.58775000
   0.45052500  0.59044300  0.68036400
   0.39732000  0.67044900  0.59753500
   0.31566200  0.50359800  0.58596500
   0.33322800  0.47946500  0.40225200
   0.32629100  0.60324700  0.42912600
   0.48792300  0.71185500  0.43020800
   0.60015100  0.65882400  0.40403700
 
 position of ions in cartesian coordinates  (Angst):
   9.50942000 11.12520000  7.69306000
   7.38156000 10.78120000  8.72824000
  10.83582000  9.14892000  7.92272000
  10.62232000 12.95882000  8.74992000
   7.69238000 10.29482000 11.04870000
  11.14736000  8.66220000 10.24300000
  10.93384000 12.47288000 11.07036000
  12.25994000 10.49634000 11.29932000
   9.01914000  8.31872000 11.27766000
   8.80568000 12.12860000 12.10486000
   8.29802000  7.13300000 10.58806000
   9.22340000  8.00852000 12.78216000
  12.00696000  7.38140000 10.39156000
  13.63654000 10.72014000 10.62374000
  12.45608000 10.18068000 12.80378000
  12.21600000  9.37612000  7.25564000
  10.11016000  7.96110000  7.24154000
   9.30768000 11.44038000  6.18928000
  11.65510000 13.66134000 11.75500000
   9.01050000 11.80886000 13.60728000
   7.94640000 13.40898000 11.95070000
   6.31324000 10.07196000 11.71930000
   6.66456000  9.58930000  8.04504000
   6.52582000 12.06494000  8.58252000
   9.75846000 14.23710000  8.60416000
  12.00302000 13.17648000  8.08074000
 


--------------------------------------------------------------------------------------------------------


 k-point  1 :   0.0000 0.0000 0.0000  plane waves:  145165

 maximum and minimum number of plane-waves per node :     24209    24180

 maximum number of plane-waves:    145165
 maximum index in each direction: 
   IXMAX=   32   IYMAX=   32   IZMAX=   32
   IXMIN=  -32   IYMIN=  -32   IZMIN=  -32


 parallel 3D FFT for wavefunctions:
    minimum data exchange during FFTs selected (reduces bandwidth)
 parallel 3D FFT for charge:
    minimum data exchange during FFTs selected (reduces bandwidth)


 total amount of memory used by VASP MPI-rank0   131440. kBytes
=======================================================================

   base      :      30000. kBytes
   nonl-proj :      17624. kBytes
   fftplans  :      26957. kBytes
   grid      :      48673. kBytes
   one-center:         40. kBytes
   wavefun   :       8146. kBytes
 
     INWAV:  cpu time    0.0000: real time    0.0000
 Broyden mixing: mesh for mixing (old mesh)
   NGX = 65   NGY = 65   NGZ = 65
  (NGX  =196   NGY  =196   NGZ  =196)
  gives a total of 274625 points

 initial charge density was supplied:
 charge density of overlapping atoms calculated
 number of electron      56.0000000 magnetization 
 keeping initial charge density in first step


--------------------------------------------------------------------------------------------------------


 Maximum index for augmentation-charges          558 (set IRDMAX)


--------------------------------------------------------------------------------------------------------


 First call to EWALD:  gamma=   0.089
 Maximum number of real-space cells 3x 3x 3
 Maximum number of reciprocal cells 3x 3x 3

    FEWALD:  cpu time    0.0020: real time    0.0023


--------------------------------------- Iteration      1(   1)  ---------------------------------------


    POTLOK:  cpu time    0.9928: real time    0.9938
    SETDIJ:  cpu time    0.0060: real time    0.0063
     EDDAV:  cpu time    4.2164: real time    4.2148
       DOS:  cpu time    0.0000: real time    0.0003
    --------------------------------------------
      LOOP:  cpu time    5.2152: real time    5.2153

 eigenvalue-minimisations  :   116
 total energy-change (2. order) : 0.2070726E+03  (-0.1046983E+04)
 number of electron      56.0000000 magnetization 
 augmentation part       56.0000000 magnetization 

 Free energy of the ion-electron system (eV)
  ---------------------------------------------------
  alpha Z        PSCENC =         2.51538199
  Ewald energy   TEWEN  =      2629.98113996
  -Hartree energ DENC   =     -3440.31297307
  -exchange      EXHF   =         0.00000000
  -V(xc)+E(xc)   XCENC  =       -49.24410366
  PAW double counting   =       915.51080863     -758.35430496
  entropy T*S    EENTRO =        -0.42549546
  eigenvalues    EBANDS =      -334.49300380
  atomic energy  EATOM  =      1241.89512738
  Solvation  Ediel_sol  =         0.00000000
  ---------------------------------------------------
  free energy    TOTEN  =       207.07257700 eV

  energy without entropy =      207.49807246  energy(sigma->0) =      207.28532473


--------------------------------------------------------------------------------------------------------




--------------------------------------- Iteration      1(   2)  ---------------------------------------


     EDDAV:  cpu time    5.0142: real time    5.0132
       DOS:  cpu time    0.0000: real time    0.0003
    --------------------------------------------
      LOOP:  cpu time    5.0142: real time    5.0135

 eigenvalue-minimisations  :   144
 total energy-change (2. order) :-0.2325293E+03  (-0.2179564E+03)
 number of electron      56.0000000 magnetization 
 augmentation part       56.0000000 magnetization 

 Free energy of the ion-electron system (eV)
  ---------------------------------------------------
  alpha Z        PSCENC =         2.51538199
  Ewald energy   TEWEN  =      2629.98113996
  -Hartree energ DENC   =     -3440.31297307
  -exchange      EXHF   =         0.00000000
  -V(xc)+E(xc)   XCENC  =       -49.24410366
  PAW double counting   =       915.51080863     -758.35430496
  entropy T*S    EENTRO =        -0.00000000
  eigenvalues    EBANDS =      -567.44775514
  atomic energy  EATOM  =      1241.89512738
  Solvation  Ediel_sol  =         0.00000000
  ---------------------------------------------------
  free energy    TOTEN  =       -25.45667887 eV

  energy without entropy =      -25.45667887  energy(sigma->0) =      -25.45667887


--------------------------------------------------------------------------------------------------------




--------------------------------------- Iteration      1(   3)  ---------------------------------------


     EDDAV:  cpu time    4.1104: real time    4.1083
       DOS:  cpu time    0.0000: real time    0.0002
    --------------------------------------------
      LOOP:  cpu time    4.1104: real time    4.1085

 eigenvalue-minimisations  :   112
 total energy-change (2. order) :-0.7493879E+02  (-0.7477114E+02)
 number of electron      56.0000000 magnetization 
 augmentation part       56.0000000 magnetization 

 Free energy of the ion-electron system (eV)
  ---------------------------------------------------
  alpha Z        PSCENC =         2.51538199
  Ewald energy   TEWEN  =      2629.98113996
  -Hartree energ DENC   =     -3440.31297307
  -exchange      EXHF   =         0.00000000
  -V(xc)+E(xc)   XCENC  =       -49.24410366
  PAW double counting   =       915.51080863     -758.35430496
  entropy T*S    EENTRO =        -0.00000000
  eigenvalues    EBANDS =      -642.38654194
  atomic energy  EATOM  =      1241.89512738
  Solvation  Ediel_sol  =         0.00000000
  ---------------------------------------------------
  free energy    TOTEN  =      -100.39546567 eV

  energy without entropy =     -100.39546567  energy(sigma->0) =     -100.39546567


--------------------------------------------------------------------------------------------------------




--------------------------------------- Iteration      1(   4)  ---------------------------------------


     EDDAV:  cpu time    3.8834: real time    3.8827
       DOS:  cpu time    0.0000: real time    0.0002
    --------------------------------------------
      LOOP:  cpu time    3.8834: real time    3.8829

 eigenvalue-minimisations  :   104
 total energy-change (2. order) :-0.4289654E+01  (-0.4272538E+01)
 number of electron      56.0000000 magnetization 
 augmentation part       56.0000000 magnetization 

 Free energy of the ion-electron system (eV)
  ---------------------------------------------------
  alpha Z        PSCENC =         2.51538199
  Ewald energy   TEWEN  =      2629.98113996
  -Hartree energ DENC   =     -3440.31297307
  -exchange      EXHF   =         0.00000000
  -V(xc)+E(xc)   XCENC  =       -49.24410366
  PAW double counting   =       915.51080863     -758.35430496
  entropy T*S    EENTRO =        -0.00000000
  eigenvalues    EBANDS =      -646.67619615
  atomic energy  EATOM  =      1241.89512738
  Solvation  Ediel_sol  =         0.00000000
  ---------------------------------------------------
  free energy    TOTEN  =      -104.68511989 eV

  energy without entropy =     -104.68511989  energy(sigma->0) =     -104.68511989


--------------------------------------------------------------------------------------------------------




--------------------------------------- Iteration      1(   5)  ---------------------------------------


     EDDAV:  cpu time    4.7843: real time    4.7825
       DOS:  cpu time    0.0010: real time    0.0002
    CHARGE:  cpu time    0.2280: real time    0.2282
    MIXING:  cpu time    0.0420: real time    0.0421
    --------------------------------------------
      LOOP:  cpu time    5.0552: real time    5.0531

 eigenvalue-minimisations  :   136
 total energy-change (2. order) :-0.6868969E-01  (-0.6863704E-01)
 number of electron      56.0000026 magnetization 
 augmentation part       -4.3592156 magnetization 

 Broyden mixing:
  rms(total) = 0.14594E+01    rms(broyden)= 0.14593E+01
  rms(prec ) = 0.15556E+01
  weight for this iteration     100.00

 Free energy of the ion-electron system (eV)
  ---------------------------------------------------
  alpha Z        PSCENC =         2.51538199
  Ewald energy   TEWEN  =      2629.98113996
  -Hartree energ DENC   =     -3440.31297307
  -exchange      EXHF   =         0.00000000
  -V(xc)+E(xc)   XCENC  =       -49.24410366
  PAW double counting   =       915.51080863     -758.35430496
  entropy T*S    EENTRO =        -0.00000000
  eigenvalues    EBANDS =      -646.74488584
  atomic energy  EATOM  =      1241.89512738
  Solvation  Ediel_sol  =         0.00000000
  ---------------------------------------------------
  free energy    TOTEN  =      -104.75380958 eV

  energy without entropy =     -104.75380958  energy(sigma->0) =     -104.75380958


--------------------------------------------------------------------------------------------------------




--------------------------------------- Iteration      1(   6)  ---------------------------------------


    POTLOK:  cpu time    0.9299: real time    0.9440
    SETDIJ:  cpu time    0.0060: real time    0.0063
     EDDAV:  cpu time    4.1924: real time    4.2116
       DOS:  cpu time    0.0000: real time    0.0004
    CHARGE:  cpu time    0.2320: real time    0.2312
    MIXING:  cpu time    0.0250: real time    0.0255
    --------------------------------------------
      LOOP:  cpu time    5.3852: real time    5.4191

 eigenvalue-minimisations  :   112
 total energy-change (2. order) : 0.3178645E+01  (-0.1617157E+00)
 number of electron      56.0000025 magnetization 
 augmentation part       -4.3580299 magnetization 

 Broyden mixing:
  rms(total) = 0.84260E+00    rms(broyden)= 0.84260E+00
  rms(prec ) = 0.90150E+00
  weight for this iteration     100.00

 eigenvalues of (default mixing * dielectric matrix)
  average eigenvalue GAMMA=   2.2951
  2.2951

 Free energy of the ion-electron system (eV)
  ---------------------------------------------------
  alpha Z        PSCENC =         2.51538199
  Ewald energy   TEWEN  =      2629.98113996
  -Hartree energ DENC   =     -3471.22727834
  -exchange      EXHF   =         0.00000000
  -V(xc)+E(xc)   XCENC  =       -45.61767996
  PAW double counting   =      1759.06552042    -1602.77375936
  entropy T*S    EENTRO =        -0.00000000
  eigenvalues    EBANDS =      -615.41361630
  atomic energy  EATOM  =      1241.89512738
  Solvation  Ediel_sol  =         0.00000000
  ---------------------------------------------------
  free energy    TOTEN  =      -101.57516421 eV

  energy without entropy =     -101.57516421  energy(sigma->0) =     -101.57516421


--------------------------------------------------------------------------------------------------------




--------------------------------------- Iteration      1(   7)  ---------------------------------------


    POTLOK:  cpu time    0.9669: real time    0.9661
    SETDIJ:  cpu time    0.0060: real time    0.0062
     EDDAV:  cpu time    4.1164: real time    4.1148
       DOS:  cpu time    0.0010: real time    0.0003
    CHARGE:  cpu time    0.2270: real time    0.2276
    MIXING:  cpu time    0.0260: real time    0.0259
    --------------------------------------------
      LOOP:  cpu time    5.3432: real time    5.3409

 eigenvalue-minimisations  :   112
 total energy-change (2. order) : 0.1657795E+01  (-0.4012330E+00)
 number of electron      56.0000023 magnetization 
 augmentation part       -4.3534384 magnetization 

 Broyden mixing:
  rms(total) = 0.12058E+00    rms(broyden)= 0.12042E+00
  rms(prec ) = 0.15191E+00
  weight for this iteration     100.00

 eigenvalues of (default mixing * dielectric matrix)
  average eigenvalue GAMMA=   1.8331
  1.6956  1.9707

 Free energy of the ion-electron system (eV)
  ---------------------------------------------------
  alpha Z        PSCENC =         2.51538199
  Ewald energy   TEWEN  =      2629.98113996
  -Hartree energ DENC   =     -3526.09922955
  -exchange      EXHF   =         0.00000000
  -V(xc)+E(xc)   XCENC  =       -39.89681767
  PAW double counting   =      3567.35143007    -3412.21568609
  entropy T*S    EENTRO =        -0.00000000
  eigenvalues    EBANDS =      -563.44871514
  atomic energy  EATOM  =      1241.89512738
  Solvation  Ediel_sol  =         0.00000000
  ---------------------------------------------------
  free energy    TOTEN  =       -99.91736905 eV

  energy without entropy =      -99.91736905  energy(sigma->0) =      -99.91736905


--------------------------------------------------------------------------------------------------------




--------------------------------------- Iteration      1(   8)  ---------------------------------------


    POTLOK:  cpu time    0.9479: real time    0.9484
    SETDIJ:  cpu time    0.0070: real time    0.0062
     EDDAV:  cpu time    4.1074: real time    4.1060
       DOS:  cpu time    0.0000: real time    0.0004
    CHARGE:  cpu time    0.2290: real time    0.2285
    MIXING:  cpu time    0.0250: real time    0.0258
    --------------------------------------------
      LOOP:  cpu time    5.3162: real time    5.3153

 eigenvalue-minimisations  :   112
 total energy-change (2. order) : 0.5350942E-01  (-0.2659196E-01)
 number of electron      56.0000023 magnetization 
 augmentation part       -4.3486551 magnetization 

 Broyden mixing:
  rms(total) = 0.60375E-01    rms(broyden)= 0.60361E-01
  rms(prec ) = 0.79978E-01
  weight for this iteration     100.00

 eigenvalues of (default mixing * dielectric matrix)
  average eigenvalue GAMMA=   1.9617
  2.6417  1.6217  1.6217

 Free energy of the ion-electron system (eV)
  ---------------------------------------------------
  alpha Z        PSCENC =         2.51538199
  Ewald energy   TEWEN  =      2629.98113996
  -Hartree energ DENC   =     -3534.25313556
  -exchange      EXHF   =         0.00000000
  -V(xc)+E(xc)   XCENC  =       -39.89049190
  PAW double counting   =      3587.32751134    -3432.11871779
  entropy T*S    EENTRO =        -0.00000000
  eigenvalues    EBANDS =      -555.32067505
  atomic energy  EATOM  =      1241.89512738
  Solvation  Ediel_sol  =         0.00000000
  ---------------------------------------------------
  free energy    TOTEN  =       -99.86385963 eV

  energy without entropy =      -99.86385963  energy(sigma->0) =      -99.86385963


--------------------------------------------------------------------------------------------------------




--------------------------------------- Iteration      1(   9)  ---------------------------------------


    POTLOK:  cpu time    0.9549: real time    0.9545
    SETDIJ:  cpu time    0.0060: real time    0.0062
     EDDAV:  cpu time    4.1094: real time    4.1074
       DOS:  cpu time    0.0010: real time    0.0004
    CHARGE:  cpu time    0.2290: real time    0.2294
    MIXING:  cpu time    0.0270: real time    0.0272
    --------------------------------------------
      LOOP:  cpu time    5.3272: real time    5.3251

 eigenvalue-minimisations  :   112
 total energy-change (2. order) : 0.3643731E-01  (-0.7521453E-02)
 number of electron      56.0000023 magnetization 
 augmentation part       -4.3339229 magnetization 

 Broyden mixing:
  rms(total) = 0.31841E-01    rms(broyden)= 0.31840E-01
  rms(prec ) = 0.43567E-01
  weight for this iteration     100.00

 eigenvalues of (default mixing * dielectric matrix)
  average eigenvalue GAMMA=   1.7506
  2.5092  1.8241  1.8241  0.8449

 Free energy of the ion-electron system (eV)
  ---------------------------------------------------
  alpha Z        PSCENC =         2.51538199
  Ewald energy   TEWEN  =      2629.98113996
  -Hartree energ DENC   =     -3546.17354270
  -exchange      EXHF   =         0.00000000
  -V(xc)+E(xc)   XCENC  =       -39.19390516
  PAW double counting   =      3722.25518960    -3567.09098136
  entropy T*S    EENTRO =        -0.00000000
  eigenvalues    EBANDS =      -544.01583204
  atomic energy  EATOM  =      1241.89512738
  Solvation  Ediel_sol  =         0.00000000
  ---------------------------------------------------
  free energy    TOTEN  =       -99.82742232 eV

  energy without entropy =      -99.82742232  energy(sigma->0) =      -99.82742232


--------------------------------------------------------------------------------------------------------




--------------------------------------- Iteration      1(  10)  ---------------------------------------


    POTLOK:  cpu time    0.9569: real time    0.9570
    SETDIJ:  cpu time    0.0070: real time    0.0061
     EDDAV:  cpu time    4.1054: real time    4.1049
       DOS:  cpu time    0.0010: real time    0.0005
    CHARGE:  cpu time    0.2290: real time    0.2288
    MIXING:  cpu time    0.0280: real time    0.0284
    --------------------------------------------
      LOOP:  cpu time    5.3272: real time    5.3257

 eigenvalue-minimisations  :   112
 total energy-change (2. order) :-0.2925224E-03  (-0.2939850E-03)
 number of electron      56.0000023 magnetization 
 augmentation part       -4.3330131 magnetization 

 Broyden mixing:
  rms(total) = 0.14738E-01    rms(broyden)= 0.14738E-01
  rms(prec ) = 0.28115E-01
  weight for this iteration     100.00

 eigenvalues of (default mixing * dielectric matrix)
  average eigenvalue GAMMA=   1.8774
  2.8299  2.2856  1.0473  1.6120  1.6120

 Free energy of the ion-electron system (eV)
  ---------------------------------------------------
  alpha Z        PSCENC =         2.51538199
  Ewald energy   TEWEN  =      2629.98113996
  -Hartree energ DENC   =     -3548.28429883
  -exchange      EXHF   =         0.00000000
  -V(xc)+E(xc)   XCENC  =       -39.18298947
  PAW double counting   =      3657.80157869    -3502.59043467
  entropy T*S    EENTRO =        -0.00000000
  eigenvalues    EBANDS =      -541.96321989
  atomic energy  EATOM  =      1241.89512738
  Solvation  Ediel_sol  =         0.00000000
  ---------------------------------------------------
  free energy    TOTEN  =       -99.82771484 eV

  energy without entropy =      -99.82771484  energy(sigma->0) =      -99.82771484


--------------------------------------------------------------------------------------------------------




--------------------------------------- Iteration      1(  11)  ---------------------------------------


    POTLOK:  cpu time    0.9649: real time    0.9644
    SETDIJ:  cpu time    0.0060: real time    0.0062
     EDDAV:  cpu time    3.8454: real time    3.8911
       DOS:  cpu time    0.0000: real time    0.0002
    CHARGE:  cpu time    0.2310: real time    0.2297
    MIXING:  cpu time    0.0290: real time    0.0293
    --------------------------------------------
      LOOP:  cpu time    5.0762: real time    5.1210

 eigenvalue-minimisations  :   104
 total energy-change (2. order) : 0.7459987E-04  (-0.6514055E-03)
 number of electron      56.0000023 magnetization 
 augmentation part       -4.3317749 magnetization 

 Broyden mixing:
  rms(total) = 0.78321E-02    rms(broyden)= 0.78318E-02
  rms(prec ) = 0.14436E-01
  weight for this iteration     100.00

 eigenvalues of (default mixing * dielectric matrix)
  average eigenvalue GAMMA=   1.8837
  3.2805  2.5967  1.7293  1.7293  1.0593  0.9070

 Free energy of the ion-electron system (eV)
  ---------------------------------------------------
  alpha Z        PSCENC =         2.51538199
  Ewald energy   TEWEN  =      2629.98113996
  -Hartree energ DENC   =     -3554.98944159
  -exchange      EXHF   =         0.00000000
  -V(xc)+E(xc)   XCENC  =       -38.99021002
  PAW double counting   =      3624.93277380    -3469.68140902
  entropy T*S    EENTRO =        -0.00000000
  eigenvalues    EBANDS =      -535.49100274
  atomic energy  EATOM  =      1241.89512738
  Solvation  Ediel_sol  =         0.00000000
  ---------------------------------------------------
  free energy    TOTEN  =       -99.82764024 eV

  energy without entropy =      -99.82764024  energy(sigma->0) =      -99.82764024


--------------------------------------------------------------------------------------------------------




--------------------------------------- Iteration      1(  12)  ---------------------------------------


    POTLOK:  cpu time    0.9679: real time    0.9679
    SETDIJ:  cpu time    0.0060: real time    0.0062
     EDDAV:  cpu time    3.9014: real time    3.8996
       DOS:  cpu time    0.0000: real time    0.0003
    CHARGE:  cpu time    0.2280: real time    0.2281
    MIXING:  cpu time    0.0310: real time    0.0309
    --------------------------------------------
      LOOP:  cpu time    5.1342: real time    5.1329

 eigenvalue-minimisations  :   104
 total energy-change (2. order) :-0.4604346E-02  (-0.1293970E-03)
 number of electron      56.0000023 magnetization 
 augmentation part       -4.3311209 magnetization 

 Broyden mixing:
  rms(total) = 0.52685E-02    rms(broyden)= 0.52685E-02
  rms(prec ) = 0.92948E-02
  weight for this iteration     100.00

 eigenvalues of (default mixing * dielectric matrix)
  average eigenvalue GAMMA=   2.1440
  4.9070  2.6459  2.3838  1.5746  1.5746  0.9610  0.9610

 Free energy of the ion-electron system (eV)
  ---------------------------------------------------
  alpha Z        PSCENC =         2.51538199
  Ewald energy   TEWEN  =      2629.98113996
  -Hartree energ DENC   =     -3557.60394428
  -exchange      EXHF   =         0.00000000
  -V(xc)+E(xc)   XCENC  =       -38.94719767
  PAW double counting   =      3614.22660890    -3458.97126682
  entropy T*S    EENTRO =        -0.00000000
  eigenvalues    EBANDS =      -532.92809404
  atomic energy  EATOM  =      1241.89512738
  Solvation  Ediel_sol  =         0.00000000
  ---------------------------------------------------
  free energy    TOTEN  =       -99.83224459 eV

  energy without entropy =      -99.83224459  energy(sigma->0) =      -99.83224459


--------------------------------------------------------------------------------------------------------




--------------------------------------- Iteration      1(  13)  ---------------------------------------


    POTLOK:  cpu time    0.9669: real time    0.9681
    SETDIJ:  cpu time    0.0070: real time    0.0065
     EDDAV:  cpu time    4.0784: real time    4.0987
       DOS:  cpu time    0.0000: real time    0.0002
    CHARGE:  cpu time    0.2300: real time    0.2295
    MIXING:  cpu time    0.0330: real time    0.0327
    --------------------------------------------
      LOOP:  cpu time    5.3152: real time    5.3357

 eigenvalue-minimisations  :   112
 total energy-change (2. order) :-0.4425785E-02  (-0.1705428E-03)
 number of electron      56.0000023 magnetization 
 augmentation part       -4.3307351 magnetization 

 Broyden mixing:
  rms(total) = 0.33056E-02    rms(broyden)= 0.33055E-02
  rms(prec ) = 0.49651E-02
  weight for this iteration     100.00

 eigenvalues of (default mixing * dielectric matrix)
  average eigenvalue GAMMA=   2.2326
  5.7908  2.9182  2.3417  1.8219  1.8219  1.2327  0.9670  0.9670

 Free energy of the ion-electron system (eV)
  ---------------------------------------------------
  alpha Z        PSCENC =         2.51538199
  Ewald energy   TEWEN  =      2629.98113996
  -Hartree energ DENC   =     -3560.26284629
  -exchange      EXHF   =         0.00000000
  -V(xc)+E(xc)   XCENC  =       -38.89922491
  PAW double counting   =      3618.68516174    -3463.43935708
  entropy T*S    EENTRO =        -0.00000000
  eigenvalues    EBANDS =      -530.31205317
  atomic energy  EATOM  =      1241.89512738
  Solvation  Ediel_sol  =         0.00000000
  ---------------------------------------------------
  free energy    TOTEN  =       -99.83667037 eV

  energy without entropy =      -99.83667037  energy(sigma->0) =      -99.83667037


--------------------------------------------------------------------------------------------------------




--------------------------------------- Iteration      1(  14)  ---------------------------------------


    POTLOK:  cpu time    0.9619: real time    0.9633
    SETDIJ:  cpu time    0.0060: real time    0.0063
     EDDAV:  cpu time    4.0964: real time    4.1014
       DOS:  cpu time    0.0000: real time    0.0002
    CHARGE:  cpu time    0.2290: real time    0.2288
    MIXING:  cpu time    0.0330: real time    0.0337
    --------------------------------------------
      LOOP:  cpu time    5.3262: real time    5.3337

 eigenvalue-minimisations  :   112
 total energy-change (2. order) :-0.4985663E-02  (-0.4629584E-04)
 number of electron      56.0000023 magnetization 
 augmentation part       -4.3301559 magnetization 

 Broyden mixing:
  rms(total) = 0.15572E-02    rms(broyden)= 0.15571E-02
  rms(prec ) = 0.25859E-02
  weight for this iteration     100.00

 eigenvalues of (default mixing * dielectric matrix)
  average eigenvalue GAMMA=   2.3687
  6.7483  3.1579  2.7651  2.3283  1.6596  1.6596  1.0722  0.9638  0.9638

 Free energy of the ion-electron system (eV)
  ---------------------------------------------------
  alpha Z        PSCENC =         2.51538199
  Ewald energy   TEWEN  =      2629.98113996
  -Hartree energ DENC   =     -3560.90632963
  -exchange      EXHF   =         0.00000000
  -V(xc)+E(xc)   XCENC  =       -38.91663881
  PAW double counting   =      3618.59846512    -3463.35320791
  entropy T*S    EENTRO =        -0.00000000
  eigenvalues    EBANDS =      -529.65559412
  atomic energy  EATOM  =      1241.89512738
  Solvation  Ediel_sol  =         0.00000000
  ---------------------------------------------------
  free energy    TOTEN  =       -99.84165604 eV

  energy without entropy =      -99.84165604  energy(sigma->0) =      -99.84165604


--------------------------------------------------------------------------------------------------------




--------------------------------------- Iteration      1(  15)  ---------------------------------------


    POTLOK:  cpu time    0.9599: real time    0.9612
    SETDIJ:  cpu time    0.0060: real time    0.0061
     EDDAV:  cpu time    4.0904: real time    4.0964
       DOS:  cpu time    0.0000: real time    0.0002
    CHARGE:  cpu time    0.2270: real time    0.2289
    MIXING:  cpu time    0.0360: real time    0.0358
    --------------------------------------------
      LOOP:  cpu time    5.3192: real time    5.3288

 eigenvalue-minimisations  :   112
 total energy-change (2. order) :-0.3874899E-02  (-0.4691865E-04)
 number of electron      56.0000023 magnetization 
 augmentation part       -4.3300760 magnetization 

 Broyden mixing:
  rms(total) = 0.12982E-02    rms(broyden)= 0.12982E-02
  rms(prec ) = 0.16868E-02
  weight for this iteration     100.00

 eigenvalues of (default mixing * dielectric matrix)
  average eigenvalue GAMMA=   2.3220
  6.7591  3.9424  2.6050  2.1491  1.8232  1.8232  1.2031  0.9368  0.9890  0.9890

 Free energy of the ion-electron system (eV)
  ---------------------------------------------------
  alpha Z        PSCENC =         2.51538199
  Ewald energy   TEWEN  =      2629.98113996
  -Hartree energ DENC   =     -3561.06908333
  -exchange      EXHF   =         0.00000000
  -V(xc)+E(xc)   XCENC  =       -38.92372546
  PAW double counting   =      3621.88887876    -3466.64207929
  entropy T*S    EENTRO =        -0.00000000
  eigenvalues    EBANDS =      -529.49117095
  atomic energy  EATOM  =      1241.89512738
  Solvation  Ediel_sol  =         0.00000000
  ---------------------------------------------------
  free energy    TOTEN  =       -99.84553093 eV

  energy without entropy =      -99.84553093  energy(sigma->0) =      -99.84553093


--------------------------------------------------------------------------------------------------------




--------------------------------------- Iteration      1(  16)  ---------------------------------------


    POTLOK:  cpu time    0.9559: real time    0.9578
    SETDIJ:  cpu time    0.0060: real time    0.0062
     EDDAV:  cpu time    4.1014: real time    4.1081
       DOS:  cpu time    0.0010: real time    0.0002
    CHARGE:  cpu time    0.2300: real time    0.2302
    MIXING:  cpu time    0.0390: real time    0.0388
    --------------------------------------------
      LOOP:  cpu time    5.3332: real time    5.3415

 eigenvalue-minimisations  :   112
 total energy-change (2. order) :-0.7305105E-03  (-0.3681980E-05)
 number of electron      56.0000023 magnetization 
 augmentation part       -4.3302880 magnetization 

 Broyden mixing:
  rms(total) = 0.58765E-03    rms(broyden)= 0.58761E-03
  rms(prec ) = 0.89571E-03
  weight for this iteration     100.00

 eigenvalues of (default mixing * dielectric matrix)
  average eigenvalue GAMMA=   2.4459
  7.3823  4.7635  2.6589  2.6589  1.8239  1.8239  1.6573  1.2195  0.9725  0.9725
  0.9714

 Free energy of the ion-electron system (eV)
  ---------------------------------------------------
  alpha Z        PSCENC =         2.51538199
  Ewald energy   TEWEN  =      2629.98113996
  -Hartree energ DENC   =     -3561.17508098
  -exchange      EXHF   =         0.00000000
  -V(xc)+E(xc)   XCENC  =       -38.91973695
  PAW double counting   =      3621.99466501    -3466.74763589
  entropy T*S    EENTRO =        -0.00000000
  eigenvalues    EBANDS =      -529.39012198
  atomic energy  EATOM  =      1241.89512738
  Solvation  Ediel_sol  =         0.00000000
  ---------------------------------------------------
  free energy    TOTEN  =       -99.84626144 eV

  energy without entropy =      -99.84626144  energy(sigma->0) =      -99.84626144


--------------------------------------------------------------------------------------------------------




--------------------------------------- Iteration      1(  17)  ---------------------------------------


    POTLOK:  cpu time    0.9539: real time    0.9566
    SETDIJ:  cpu time    0.0070: real time    0.0063
     EDDAV:  cpu time    3.8064: real time    3.8112
       DOS:  cpu time    0.0000: real time    0.0002
    CHARGE:  cpu time    0.2300: real time    0.2296
    MIXING:  cpu time    0.0420: real time    0.0422
    --------------------------------------------
      LOOP:  cpu time    5.0392: real time    5.0461

 eigenvalue-minimisations  :   102
 total energy-change (2. order) :-0.1069218E-02  (-0.9295024E-05)
 number of electron      56.0000023 magnetization 
 augmentation part       -4.3304888 magnetization 

 Broyden mixing:
  rms(total) = 0.26213E-03    rms(broyden)= 0.26208E-03
  rms(prec ) = 0.39926E-03
  weight for this iteration     100.00

 eigenvalues of (default mixing * dielectric matrix)
  average eigenvalue GAMMA=   2.4217
  7.5849  5.1884  2.7597  2.7597  1.8430  1.8430  1.8413  1.1641  1.1641  0.9988
  0.9568  0.9568

 Free energy of the ion-electron system (eV)
  ---------------------------------------------------
  alpha Z        PSCENC =         2.51538199
  Ewald energy   TEWEN  =      2629.98113996
  -Hartree energ DENC   =     -3561.18345668
  -exchange      EXHF   =         0.00000000
  -V(xc)+E(xc)   XCENC  =       -38.92223051
  PAW double counting   =      3620.28149898    -3465.03368235
  entropy T*S    EENTRO =        -0.00000000
  eigenvalues    EBANDS =      -529.38110944
  atomic energy  EATOM  =      1241.89512738
  Solvation  Ediel_sol  =         0.00000000
  ---------------------------------------------------
  free energy    TOTEN  =       -99.84733066 eV

  energy without entropy =      -99.84733066  energy(sigma->0) =      -99.84733066


--------------------------------------------------------------------------------------------------------




--------------------------------------- Iteration      1(  18)  ---------------------------------------


    POTLOK:  cpu time    1.1808: real time    1.1867
    SETDIJ:  cpu time    0.0070: real time    0.0068
     EDDAV:  cpu time    4.0974: real time    4.1034
       DOS:  cpu time    0.0000: real time    0.0002
    CHARGE:  cpu time    0.2280: real time    0.2312
    MIXING:  cpu time    0.0480: real time    0.0475
    --------------------------------------------
      LOOP:  cpu time    5.5612: real time    5.5759

 eigenvalue-minimisations  :   112
 total energy-change (2. order) :-0.1945409E-03  (-0.5955085E-06)
 number of electron      56.0000023 magnetization 
 augmentation part       -4.3304733 magnetization 

 Broyden mixing:
  rms(total) = 0.18340E-03    rms(broyden)= 0.18337E-03
  rms(prec ) = 0.25779E-03
  weight for this iteration     100.00

 eigenvalues of (default mixing * dielectric matrix)
  average eigenvalue GAMMA=   2.4970
  8.2586  5.7771  3.2159  2.6851  2.2394  1.8019  1.8019  1.3600  1.3600  0.9780
  0.9780  1.0027  1.0027

 Free energy of the ion-electron system (eV)
  ---------------------------------------------------
  alpha Z        PSCENC =         2.51538199
  Ewald energy   TEWEN  =      2629.98113996
  -Hartree energ DENC   =     -3561.22311092
  -exchange      EXHF   =         0.00000000
  -V(xc)+E(xc)   XCENC  =       -38.92126094
  PAW double counting   =      3620.22955398    -3464.98212036
  entropy T*S    EENTRO =        -0.00000000
  eigenvalues    EBANDS =      -529.34223630
  atomic energy  EATOM  =      1241.89512738
  Solvation  Ediel_sol  =         0.00000000
  ---------------------------------------------------
  free energy    TOTEN  =       -99.84752520 eV

  energy without entropy =      -99.84752520  energy(sigma->0) =      -99.84752520


--------------------------------------------------------------------------------------------------------




--------------------------------------- Iteration      1(  19)  ---------------------------------------


    POTLOK:  cpu time    0.9639: real time    0.9652
    SETDIJ:  cpu time    0.0060: real time    0.0063
     EDDAV:  cpu time    3.6604: real time    3.6629
       DOS:  cpu time    0.0000: real time    0.0002
    CHARGE:  cpu time    0.2300: real time    0.2302
    MIXING:  cpu time    0.0510: real time    0.0539
    --------------------------------------------
      LOOP:  cpu time    4.9113: real time    4.9187

 eigenvalue-minimisations  :    96
 total energy-change (2. order) :-0.1388277E-03  (-0.3995334E-06)
 number of electron      56.0000023 magnetization 
 augmentation part       -4.3304624 magnetization 

 Broyden mixing:
  rms(total) = 0.10270E-03    rms(broyden)= 0.10269E-03
  rms(prec ) = 0.14714E-03
  weight for this iteration     100.00

 eigenvalues of (default mixing * dielectric matrix)
  average eigenvalue GAMMA=   2.4925
  8.2938  6.1533  3.4322  2.5538  2.3874  2.0835  1.7917  1.7917  1.2456  1.2456
  0.9557  0.9557  1.0026  1.0026

 Free energy of the ion-electron system (eV)
  ---------------------------------------------------
  alpha Z        PSCENC =         2.51538199
  Ewald energy   TEWEN  =      2629.98113996
  -Hartree energ DENC   =     -3561.23285432
  -exchange      EXHF   =         0.00000000
  -V(xc)+E(xc)   XCENC  =       -38.92117273
  PAW double counting   =      3620.12449720    -3464.87732712
  entropy T*S    EENTRO =        -0.00000000
  eigenvalues    EBANDS =      -529.33245638
  atomic energy  EATOM  =      1241.89512738
  Solvation  Ediel_sol  =         0.00000000
  ---------------------------------------------------
  free energy    TOTEN  =       -99.84766403 eV

  energy without entropy =      -99.84766403  energy(sigma->0) =      -99.84766403


--------------------------------------------------------------------------------------------------------




--------------------------------------- Iteration      1(  20)  ---------------------------------------


    POTLOK:  cpu time    0.9649: real time    0.9638
    SETDIJ:  cpu time    0.0060: real time    0.0064
     EDDAV:  cpu time    3.4255: real time    3.4300
       DOS:  cpu time    0.0010: real time    0.0003
    CHARGE:  cpu time    0.2310: real time    0.2304
    MIXING:  cpu time    0.0600: real time    0.0595
    --------------------------------------------
      LOOP:  cpu time    4.6883: real time    4.6903

 eigenvalue-minimisations  :    88
 total energy-change (2. order) :-0.5100646E-04  (-0.9842993E-07)
 number of electron      56.0000023 magnetization 
 augmentation part       -4.3304333 magnetization 

 Broyden mixing:
  rms(total) = 0.63571E-04    rms(broyden)= 0.63569E-04
  rms(prec ) = 0.87704E-04
  weight for this iteration     100.00

 eigenvalues of (default mixing * dielectric matrix)
  average eigenvalue GAMMA=   2.5208
  8.4915  6.3729  3.9548  2.7711  2.7711  1.8632  1.8632  1.8981  1.4105  1.4105
  1.1634  0.9913  0.9913  0.9585  0.8999

 Free energy of the ion-electron system (eV)
  ---------------------------------------------------
  alpha Z        PSCENC =         2.51538199
  Ewald energy   TEWEN  =      2629.98113996
  -Hartree energ DENC   =     -3561.24348210
  -exchange      EXHF   =         0.00000000
  -V(xc)+E(xc)   XCENC  =       -38.92157423
  PAW double counting   =      3620.18631617    -3464.93918803
  entropy T*S    EENTRO =        -0.00000000
  eigenvalues    EBANDS =      -529.32143618
  atomic energy  EATOM  =      1241.89512738
  Solvation  Ediel_sol  =         0.00000000
  ---------------------------------------------------
  free energy    TOTEN  =       -99.84771504 eV

  energy without entropy =      -99.84771504  energy(sigma->0) =      -99.84771504


--------------------------------------------------------------------------------------------------------




--------------------------------------- Iteration      1(  21)  ---------------------------------------


    POTLOK:  cpu time    0.9539: real time    0.9578
    SETDIJ:  cpu time    0.0070: real time    0.0062
     EDDAV:  cpu time    3.1895: real time    3.1939
       DOS:  cpu time    0.0010: real time    0.0006
    CHARGE:  cpu time    0.2270: real time    0.2290
    MIXING:  cpu time    0.0660: real time    0.0664
    --------------------------------------------
      LOOP:  cpu time    4.4453: real time    4.4539

 eigenvalue-minimisations  :    80
 total energy-change (2. order) :-0.2291234E-04  (-0.6490999E-07)
 number of electron      56.0000023 magnetization 
 augmentation part       -4.3304251 magnetization 

 Broyden mixing:
  rms(total) = 0.38685E-04    rms(broyden)= 0.38681E-04
  rms(prec ) = 0.53768E-04
  weight for this iteration     100.00

 eigenvalues of (default mixing * dielectric matrix)
  average eigenvalue GAMMA=   2.5277
  8.5895  6.6794  4.2614  3.0339  2.5916  2.0405  2.0405  1.8117  1.8117  1.4027
  1.2024  0.9506  0.9506  1.0482  1.0482  0.9804

 Free energy of the ion-electron system (eV)
  ---------------------------------------------------
  alpha Z        PSCENC =         2.51538199
  Ewald energy   TEWEN  =      2629.98113996
  -Hartree energ DENC   =     -3561.24697104
  -exchange      EXHF   =         0.00000000
  -V(xc)+E(xc)   XCENC  =       -38.92151689
  PAW double counting   =      3620.30702279    -3465.05988999
  entropy T*S    EENTRO =        -0.00000000
  eigenvalues    EBANDS =      -529.31803215
  atomic energy  EATOM  =      1241.89512738
  Solvation  Ediel_sol  =         0.00000000
  ---------------------------------------------------
  free energy    TOTEN  =       -99.84773795 eV

  energy without entropy =      -99.84773795  energy(sigma->0) =      -99.84773795


--------------------------------------------------------------------------------------------------------




--------------------------------------- Iteration      1(  22)  ---------------------------------------


    POTLOK:  cpu time    0.9529: real time    0.9535
    SETDIJ:  cpu time    0.0060: real time    0.0063
     EDDAV:  cpu time    3.4285: real time    3.4307
       DOS:  cpu time    0.0010: real time    0.0005
    CHARGE:  cpu time    0.2290: real time    0.2296
    MIXING:  cpu time    0.0730: real time    0.0727
    --------------------------------------------
      LOOP:  cpu time    4.6893: real time    4.6934

 eigenvalue-minimisations  :    88
 total energy-change (2. order) :-0.7145199E-05  (-0.2123223E-07)
 number of electron      56.0000023 magnetization 
 augmentation part       -4.3304396 magnetization 

 Broyden mixing:
  rms(total) = 0.23478E-04    rms(broyden)= 0.23478E-04
  rms(prec ) = 0.30550E-04
  weight for this iteration     100.00

 eigenvalues of (default mixing * dielectric matrix)
  average eigenvalue GAMMA=   2.5098
  8.7926  6.7375  4.5817  3.1040  2.4776  2.4776  1.8853  1.8853  1.6820  1.6820
  1.2077  1.2077  1.0714  0.9626  0.9626  0.9577  0.9903

 Free energy of the ion-electron system (eV)
  ---------------------------------------------------
  alpha Z        PSCENC =         2.51538199
  Ewald energy   TEWEN  =      2629.98113996
  -Hartree energ DENC   =     -3561.24350828
  -exchange      EXHF   =         0.00000000
  -V(xc)+E(xc)   XCENC  =       -38.92150511
  PAW double counting   =      3620.30107188    -3465.05383656
  entropy T*S    EENTRO =        -0.00000000
  eigenvalues    EBANDS =      -529.32161635
  atomic energy  EATOM  =      1241.89512738
  Solvation  Ediel_sol  =         0.00000000
  ---------------------------------------------------
  free energy    TOTEN  =       -99.84774510 eV

  energy without entropy =      -99.84774510  energy(sigma->0) =      -99.84774510


--------------------------------------------------------------------------------------------------------




--------------------------------------- Iteration      1(  23)  ---------------------------------------


    POTLOK:  cpu time    0.9539: real time    0.9558
    SETDIJ:  cpu time    0.0060: real time    0.0062
     EDDAV:  cpu time    3.4375: real time    3.4436
       DOS:  cpu time    0.0000: real time    0.0006
    CHARGE:  cpu time    0.2290: real time    0.2291
    MIXING:  cpu time    0.0800: real time    0.0792
    --------------------------------------------
      LOOP:  cpu time    4.7063: real time    4.7146

 eigenvalue-minimisations  :    88
 total energy-change (2. order) :-0.2515472E-05  (-0.4185583E-08)
 number of electron      56.0000023 magnetization 
 augmentation part       -4.3304412 magnetization 

 Broyden mixing:
  rms(total) = 0.10589E-04    rms(broyden)= 0.10589E-04
  rms(prec ) = 0.16080E-04
  weight for this iteration     100.00

 eigenvalues of (default mixing * dielectric matrix)
  average eigenvalue GAMMA=   2.5758
  8.8870  6.8719  5.0135  3.0892  3.0892  2.9326  2.3597  1.8578  1.8578  1.5885
  1.5885  1.1366  1.1366  0.9478  0.9478  1.0343  1.0125  1.0125

 Free energy of the ion-electron system (eV)
  ---------------------------------------------------
  alpha Z        PSCENC =         2.51538199
  Ewald energy   TEWEN  =      2629.98113996
  -Hartree energ DENC   =     -3561.24389823
  -exchange      EXHF   =         0.00000000
  -V(xc)+E(xc)   XCENC  =       -38.92162370
  PAW double counting   =      3620.26517774    -3465.01795182
  entropy T*S    EENTRO =        -0.00000000
  eigenvalues    EBANDS =      -529.32110092
  atomic energy  EATOM  =      1241.89512738
  Solvation  Ediel_sol  =         0.00000000
  ---------------------------------------------------
  free energy    TOTEN  =       -99.84774761 eV

  energy without entropy =      -99.84774761  energy(sigma->0) =      -99.84774761


--------------------------------------------------------------------------------------------------------




--------------------------------------- Iteration      1(  24)  ---------------------------------------


    POTLOK:  cpu time    0.9649: real time    0.9668
    SETDIJ:  cpu time    0.0070: real time    0.0064
     EDDAV:  cpu time    3.1185: real time    3.1226
       DOS:  cpu time    0.0010: real time    0.0006
    CHARGE:  cpu time    0.2280: real time    0.2283
    MIXING:  cpu time    0.0860: real time    0.0858
    --------------------------------------------
      LOOP:  cpu time    4.4053: real time    4.4106

 eigenvalue-minimisations  :    78
 total energy-change (2. order) :-0.2986004E-05  (-0.5431456E-08)
 number of electron      56.0000023 magnetization 
 augmentation part       -4.3304406 magnetization 

 Broyden mixing:
  rms(total) = 0.76618E-05    rms(broyden)= 0.76617E-05
  rms(prec ) = 0.89604E-05
  weight for this iteration     100.00

 eigenvalues of (default mixing * dielectric matrix)
  average eigenvalue GAMMA=   2.5588
  8.8766  7.0809  5.4295  3.8497  2.9251  2.4558  2.2884  1.8497  1.8497  1.7136
  1.7136  1.4600  1.1348  1.1348  0.9965  0.9502  0.9502  0.9790  0.9790

 Free energy of the ion-electron system (eV)
  ---------------------------------------------------
  alpha Z        PSCENC =         2.51538199
  Ewald energy   TEWEN  =      2629.98113996
  -Hartree energ DENC   =     -3561.24483909
  -exchange      EXHF   =         0.00000000
  -V(xc)+E(xc)   XCENC  =       -38.92159566
  PAW double counting   =      3620.24108760    -3464.99388843
  entropy T*S    EENTRO =        -0.00000000
  eigenvalues    EBANDS =      -529.32016435
  atomic energy  EATOM  =      1241.89512738
  Solvation  Ediel_sol  =         0.00000000
  ---------------------------------------------------
  free energy    TOTEN  =       -99.84775060 eV

  energy without entropy =      -99.84775060  energy(sigma->0) =      -99.84775060


--------------------------------------------------------------------------------------------------------




--------------------------------------- Iteration      1(  25)  ---------------------------------------


    POTLOK:  cpu time    0.9689: real time    0.9696
    SETDIJ:  cpu time    0.0060: real time    0.0063
     EDDAV:  cpu time    3.4205: real time    3.4260
       DOS:  cpu time    0.0010: real time    0.0005
    --------------------------------------------
      LOOP:  cpu time    4.3963: real time    4.4024

 eigenvalue-minimisations  :    88
 total energy-change (2. order) :-0.3700334E-06  (-0.6801635E-09)
 number of electron      56.0000023 magnetization 
 augmentation part       -4.3304406 magnetization 

 Free energy of the ion-electron system (eV)
  ---------------------------------------------------
  alpha Z        PSCENC =         2.51538199
  Ewald energy   TEWEN  =      2629.98113996
  -Hartree energ DENC   =     -3561.24515128
  -exchange      EXHF   =         0.00000000
  -V(xc)+E(xc)   XCENC  =       -38.92157999
  PAW double counting   =      3620.25813141    -3465.01092437
  entropy T*S    EENTRO =        -0.00000000
  eigenvalues    EBANDS =      -529.31987607
  atomic energy  EATOM  =      1241.89512738
  Solvation  Ediel_sol  =         0.00000000
  ---------------------------------------------------
  free energy    TOTEN  =       -99.84775097 eV

  energy without entropy =      -99.84775097  energy(sigma->0) =      -99.84775097


--------------------------------------------------------------------------------------------------------




 average (electrostatic) potential at core
  the test charge radii are     0.9892  1.1631  0.5201
  (the norm of the test charge is              1.0000)
       1 -93.3522       2 -93.4643       3 -93.4643       4 -93.4643       5 -40.4206
       6 -40.4206       7 -40.4206       8 -40.4780       9 -40.4779      10 -40.4779
      11 -41.0496      12 -41.0580      13 -41.0519      14 -41.0499      15 -41.0581
      16 -40.6994      17 -40.7001      18 -40.7054      19 -41.0523      20 -41.0580
      21 -41.0496      22 -41.0521      23 -40.6993      24 -40.6994      25 -40.6989
      26 -40.6990
 
 
 
 E-fermi :  -5.3857     XC(G=0):  -0.6100     alpha+bet : -0.3306


 k-point     1 :       0.0000    0.0000    0.0000
  band No.  band energies     occupation 
      1     -15.4766      2.00000
      2     -14.4545      2.00000
      3     -14.4544      2.00000
      4     -13.8852      2.00000
      5     -12.9856      2.00000
      6     -12.9855      2.00000
      7     -11.7179      2.00000
      8     -11.7178      2.00000
      9     -11.5726      2.00000
     10     -10.5069      2.00000
     11      -8.9867      2.00000
     12      -8.6410      2.00000
     13      -8.6243      2.00000
     14      -8.6243      2.00000
     15      -8.1995      2.00000
     16      -8.1862      2.00000
     17      -8.1862      2.00000
     18      -7.8604      2.00000
     19      -7.8603      2.00000
     20      -7.8501      2.00000
     21      -6.7597      2.00000
     22      -6.7597      2.00000
     23      -6.4700      2.00000
     24      -6.4699      2.00000
     25      -6.4251      2.00000
     26      -6.3555      2.00000
     27      -6.3221      2.00000
     28      -6.3221      2.00000
     29      -1.6366      0.00000
     30      -1.3306      0.00000
     31      -1.3306      0.00000
     32      -1.1671      0.00000
     33      -1.1014      0.00000
     34      -1.1011      0.00000
     35      -1.0045      0.00000
     36      -1.0043      0.00000
     37      -0.9907      0.00000
     38      -0.5813      0.00000
     39      -0.3225      0.00000
     40      -0.2133      0.00000
     41      -0.1830      0.00000
     42      -0.1827      0.00000


--------------------------------------------------------------------------------------------------------


 soft charge-density along one line, spin component           1
         0         1         2         3         4         5         6         7         8         9
 total charge-density along one line
 
 pseudopotential strength for first ion, spin component:           1
 19.608  27.363  -0.000   0.002   0.000  -0.001   0.004   0.000
 27.363  38.191  -0.001   0.003   0.000  -0.001   0.005   0.001
 -0.000  -0.001   4.358  -0.000  -0.000   8.129  -0.000  -0.000
  0.002   0.003  -0.000   4.358   0.000  -0.000   8.129   0.000
  0.000   0.000  -0.000   0.000   4.358  -0.000   0.000   8.129
 -0.001  -0.001   8.129  -0.000  -0.000  15.174  -0.000  -0.000
  0.004   0.005  -0.000   8.129   0.000  -0.000  15.174   0.000
  0.000   0.001  -0.000   0.000   8.129  -0.000   0.000  15.174
 total augmentation occupancy for first ion, spin component:           1
  5.590  -2.055   0.068  -0.325  -0.044  -0.020   0.097   0.013
 -2.055   0.815  -0.042   0.199   0.027   0.009  -0.044  -0.006
  0.068  -0.042   2.873  -0.094  -0.013  -0.626   0.034   0.005
 -0.325   0.199  -0.094   3.302   0.060   0.034  -0.782  -0.022
 -0.044   0.027  -0.013   0.060   2.862   0.005  -0.022  -0.622
 -0.020   0.009  -0.626   0.034   0.005   0.142  -0.010  -0.001
  0.097  -0.044   0.034  -0.782  -0.022  -0.010   0.188   0.006
  0.013  -0.006   0.005  -0.022  -0.622  -0.001   0.006   0.141


------------------------ aborting loop because EDIFF is reached ----------------------------------------


    CHARGE:  cpu time    0.2290: real time    0.2292
    FORLOC:  cpu time    0.1260: real time    0.1260
    FORNL :  cpu time    0.8279: real time    0.8271
    STRESS:  cpu time    2.6626: real time    2.6612
    FORCOR:  cpu time    0.9988: real time    0.9985
    FORHAR:  cpu time    0.3499: real time    0.3503
    MIXING:  cpu time    0.0930: real time    0.0929
    OFIELD:  cpu time    0.0000: real time    0.0001

  FORCE on cell =-STRESS in cart. coord.  units (eV):
  Direction    XX          YY          ZZ          XY          YZ          ZX
  --------------------------------------------------------------------------------------
  Alpha Z     2.51538     2.51538     2.51538
  Ewald     876.64706   876.62235   876.71007    -0.21850     0.02563    -0.50464
  Hartree  1186.83297  1186.82524  1187.58719    -0.23288    -0.11062    -0.40901
  E(xc)    -180.24091  -180.24377  -180.34404     0.00294     0.02193    -0.01411
  Local   -2546.32209 -2546.28743 -2547.08392     0.44981     0.07320     0.92162
  n-local   238.20309   238.21464   238.61191    -0.01142    -0.08689     0.05624
  augment   -13.69009   -13.69231   -13.71585     0.00070     0.00553    -0.00371
  Kinetic   435.43908   435.42962   435.10648     0.00934     0.07098    -0.04573
  Fock        0.00000     0.00000     0.00000     0.00000     0.00000     0.00000
  -------------------------------------------------------------------------------------
  Total      -0.61550    -0.61627    -0.61278    -0.00000    -0.00024     0.00066
  in kB      -0.12327    -0.12342    -0.12272    -0.00000    -0.00005     0.00013
  external pressure =       -0.12 kB  Pullay stress =        0.00 kB


 VOLUME and BASIS-vectors are now :
 -----------------------------------------------------------------------------
  energy-cutoff  :      400.00
[...]
    SETDIJ:  cpu time    0.0060: real time    0.0064
     EDDAV:  cpu time    4.3373: real time    4.3358
       DOS:  cpu time    0.0000: real time    0.0003
    CHARGE:  cpu time    0.2280: real time    0.2281
    MIXING:  cpu time    0.0250: real time    0.0243
    --------------------------------------------
      LOOP:  cpu time    5.5662: real time    5.5633

 eigenvalue-minimisations  :   120
 total energy-change (2. order) :-0.2792269E-04  (-0.3353980E-04)
 number of electron      56.0000010 magnetization 
 augmentation part       -4.3152655 magnetization 

 Broyden mixing:
  rms(total) = 0.18238E-02    rms(broyden)= 0.18232E-02
  rms(prec ) = 0.19438E-02
  weight for this iteration     100.00

 eigenvalues of (default mixing * dielectric matrix)
  average eigenvalue GAMMA=   1.1095
  1.1095

 Free energy of the ion-electron system (eV)
  ---------------------------------------------------
  alpha Z        PSCENC =         2.51538199
  Ewald energy   TEWEN  =      2590.61694567
  -Hartree energ DENC   =     -3522.84183567
  -exchange      EXHF   =         0.00000000
  -V(xc)+E(xc)   XCENC  =       -38.78366104
  PAW double counting   =      3716.91891037    -3561.65140599
  entropy T*S    EENTRO =        -0.00000000
  eigenvalues    EBANDS =      -528.80788296
  atomic energy  EATOM  =      1241.89512738
  Solvation  Ediel_sol  =         0.00000000
  ---------------------------------------------------
  free energy    TOTEN  =      -100.13842026 eV

  energy without entropy =     -100.13842026  energy(sigma->0) =     -100.13842026


--------------------------------------------------------------------------------------------------------




--------------------------------------- Iteration     17(   3)  ---------------------------------------


    POTLOK:  cpu time    0.9619: real time    0.9608
    SETDIJ:  cpu time    0.0060: real time    0.0063
     EDDAV:  cpu time    4.3743: real time    4.3718
       DOS:  cpu time    0.0000: real time    0.0003
    CHARGE:  cpu time    0.2280: real time    0.2283
    MIXING:  cpu time    0.0250: real time    0.0252
    --------------------------------------------
      LOOP:  cpu time    5.5951: real time    5.5927

 eigenvalue-minimisations  :   120
 total energy-change (2. order) : 0.1904785E-05  (-0.9756172E-06)
 number of electron      56.0000010 magnetization 
 augmentation part       -4.3151537 magnetization 

 Broyden mixing:
  rms(total) = 0.98375E-03    rms(broyden)= 0.98371E-03
  rms(prec ) = 0.10420E-02
  weight for this iteration     100.00

 eigenvalues of (default mixing * dielectric matrix)
  average eigenvalue GAMMA=   1.6216
  1.0490  2.1942

 Free energy of the ion-electron system (eV)
  ---------------------------------------------------
  alpha Z        PSCENC =         2.51538199
  Ewald energy   TEWEN  =      2590.61694567
  -Hartree energ DENC   =     -3522.85986474
  -exchange      EXHF   =         0.00000000
  -V(xc)+E(xc)   XCENC  =       -38.78329923
  PAW double counting   =      3717.51887004    -3562.25215423
  entropy T*S    EENTRO =        -0.00000000
  eigenvalues    EBANDS =      -528.78942524
  atomic energy  EATOM  =      1241.89512738
  Solvation  Ediel_sol  =         0.00000000
  ---------------------------------------------------
  free energy    TOTEN  =      -100.13841836 eV

  energy without entropy =     -100.13841836  energy(sigma->0) =     -100.13841836


--------------------------------------------------------------------------------------------------------




--------------------------------------- Iteration     17(   4)  ---------------------------------------


    POTLOK:  cpu time    0.9609: real time    0.9596
    SETDIJ:  cpu time    0.0060: real time    0.0063
     EDDAV:  cpu time    4.1204: real time    4.1188
       DOS:  cpu time    0.0000: real time    0.0003
    --------------------------------------------
      LOOP:  cpu time    5.0872: real time    5.0850

 eigenvalue-minimisations  :   112
 total energy-change (2. order) :-0.6273940E-06  (-0.4984036E-06)
 number of electron      56.0000010 magnetization 
 augmentation part       -4.3151537 magnetization 

 Free energy of the ion-electron system (eV)
  ---------------------------------------------------
  alpha Z        PSCENC =         2.51538199
  Ewald energy   TEWEN  =      2590.61694567
  -Hartree energ DENC   =     -3522.87784976
  -exchange      EXHF   =         0.00000000
  -V(xc)+E(xc)   XCENC  =       -38.78272542
  PAW double counting   =      3718.13648425    -3562.87042504
  entropy T*S    EENTRO =        -0.00000000
  eigenvalues    EBANDS =      -528.77135806
  atomic energy  EATOM  =      1241.89512738
  Solvation  Ediel_sol  =         0.00000000
  ---------------------------------------------------
  free energy    TOTEN  =      -100.13841899 eV

  energy without entropy =     -100.13841899  energy(sigma->0) =     -100.13841899


--------------------------------------------------------------------------------------------------------




 average (electrostatic) potential at core
  the test charge radii are     0.9892  1.1631  0.5201
  (the norm of the test charge is              1.0000)
       1 -93.2729       2 -93.3625       3 -93.3625       4 -93.3625       5 -40.4612
       6 -40.4613       7 -40.4613       8 -40.4865       9 -40.4866      10 -40.4866
      11 -40.9835      12 -40.9847      13 -41.0186      14 -40.9830      15 -40.9848
      16 -40.8564      17 -40.8550      18 -40.8872      19 -41.0178      20 -40.9854
      21 -40.9835      22 -41.0181      23 -40.8553      24 -40.8553      25 -40.8557
      26 -40.8566
 
 
 
 E-fermi :  -5.3333     XC(G=0):  -0.6064     alpha+bet : -0.3306


 k-point     1 :       0.0000    0.0000    0.0000
  band No.  band energies     occupation 
      1     -15.2394      2.00000
      2     -14.2859      2.00000
      3     -14.2858      2.00000
      4     -14.0063      2.00000
      5     -13.0165      2.00000
      6     -13.0165      2.00000
      7     -11.7802      2.00000
      8     -11.7801      2.00000
      9     -11.6616      2.00000
     10     -10.6487      2.00000
     11      -8.9543      2.00000
     12      -8.6731      2.00000
     13      -8.6730      2.00000
     14      -8.4820      2.00000
     15      -8.2807      2.00000
     16      -8.1119      2.00000
     17      -8.1118      2.00000
     18      -7.8685      2.00000
     19      -7.8419      2.00000
     20      -7.8418      2.00000
     21      -6.8040      2.00000
     22      -6.8038      2.00000
     23      -6.5076      2.00000
     24      -6.5075      2.00000
     25      -6.3575      2.00000
     26      -6.2840      2.00000
     27      -6.2806      2.00000
     28      -6.2805      2.00000
     29      -1.5987      0.00000
     30      -1.3531      0.00000
     31      -1.3527      0.00000
     32      -1.3465      0.00000
     33      -1.2784      0.00000
     34      -1.2782      0.00000
     35      -1.0195      0.00000
     36      -1.0179      0.00000
     37      -1.0178      0.00000
     38      -0.4819      0.00000
     39      -0.3276      0.00000
     40      -0.1532      0.00000
     41      -0.1531      0.00000
     42      -0.1387      0.00000


--------------------------------------------------------------------------------------------------------


 soft charge-density along one line, spin component           1
         0         1         2         3         4         5         6         7         8         9
 total charge-density along one line
 
 pseudopotential strength for first ion, spin component:           1
 19.609  27.365  -0.001   0.003   0.000  -0.001   0.005   0.001
 27.365  38.194  -0.001   0.004   0.000  -0.001   0.007   0.001
 -0.001  -0.001   4.361  -0.000  -0.000   8.135  -0.000  -0.000
  0.003   0.004  -0.000   4.362   0.000  -0.000   8.136   0.000
  0.000   0.000  -0.000   0.000   4.361  -0.000   0.000   8.135
 -0.001  -0.001   8.135  -0.000  -0.000  15.185  -0.000  -0.000
  0.005   0.007  -0.000   8.136   0.000  -0.000  15.187   0.000
  0.001   0.001  -0.000   0.000   8.135  -0.000   0.000  15.185
 total augmentation occupancy for first ion, spin component:           1
  6.057  -2.310   0.093  -0.443  -0.059  -0.029   0.140   0.019
 -2.310   0.938  -0.054   0.258   0.035   0.014  -0.065  -0.009
  0.093  -0.054   3.059  -0.108  -0.014  -0.682   0.038   0.005
 -0.443   0.258  -0.108   3.552   0.069   0.039  -0.858  -0.025
 -0.059   0.035  -0.014   0.069   3.046   0.005  -0.025  -0.677
 -0.029   0.014  -0.682   0.039   0.005   0.158  -0.011  -0.002
  0.140  -0.065   0.038  -0.858  -0.025  -0.011   0.210   0.007
  0.019  -0.009   0.005  -0.025  -0.677  -0.002   0.007   0.157


------------------------ aborting loop because EDIFF is reached ----------------------------------------


    CHARGE:  cpu time    0.2280: real time    0.2291
    FORLOC:  cpu time    0.1260: real time    0.1258
    FORNL :  cpu time    0.8279: real time    0.8275
    STRESS:  cpu time    2.6476: real time    2.6458
    FORCOR:  cpu time    0.9968: real time    0.9961
    FORHAR:  cpu time    0.3519: real time    0.3512
    MIXING:  cpu time    0.0250: real time    0.0259
    OFIELD:  cpu time    0.0000: real time    0.0000

  FORCE on cell =-STRESS in cart. coord.  units (eV):
  Direction    XX          YY          ZZ          XY          YZ          ZX
  --------------------------------------------------------------------------------------
  Alpha Z     2.51538     2.51538     2.51538
  Ewald     863.56890   863.47400   863.57237    -0.28091    -0.19574    -0.39186
  Hartree  1174.56716  1174.46914  1173.84332    -0.25109    -0.03224    -0.47880
  E(xc)    -180.11393  -180.11796  -180.27504     0.00460     0.03442    -0.02181
  Local   -2520.79444 -2520.58908 -2519.58221     0.51817     0.12279     0.93678
  n-local   237.16850   237.16527   237.15941     0.00044     0.00232    -0.00440
  augment   -13.97505   -13.97327   -13.87633    -0.00280    -0.02069     0.01355
  Kinetic   435.89559   435.88969   435.80441     0.00344     0.01607    -0.01040
  Fock        0.00000     0.00000     0.00000     0.00000     0.00000     0.00000
  -------------------------------------------------------------------------------------
  Total      -1.16788    -1.16682    -0.83869    -0.00816    -0.07307     0.04306
  in kB      -0.23389    -0.23368    -0.16797    -0.00163    -0.01463     0.00862
  external pressure =       -0.21 kB  Pullay stress =        0.00 kB


 VOLUME and BASIS-vectors are now :
 -----------------------------------------------------------------------------
  energy-cutoff  :      400.00
  volume of cell :     8000.00
      direct lattice vectors                 reciprocal lattice vectors
    20.000000000  0.000000000  0.000000000     0.050000000  0.000000000  0.000000000
     0.000000000 20.000000000  0.000000000     0.000000000  0.050000000  0.000000000
     0.000000000  0.000000000 20.000000000     0.000000000  0.000000000  0.050000000

  length of vectors
    20.000000000 20.000000000 20.000000000     0.050000000  0.050000000  0.050000000


 FORCES acting on ions
    electron-ion (+dipol)            ewald-force                    non-local-force                 convergence-correction
 -----------------------------------------------------------------------------------------------
   0.116E+02 -.181E+02 0.861E+02   -.118E+02 0.184E+02 -.874E+02   0.180E+00 -.280E+00 0.134E+01   0.418E-04 0.109E-03 -.702E-03
   0.868E+02 -.453E+01 0.433E+02   -.884E+02 0.476E+01 -.448E+02   0.162E+01 -.237E+00 0.151E+01   0.221E-02 0.200E-03 -.795E-03
   -.368E+02 0.540E+02 0.720E+02   0.373E+02 -.548E+02 -.740E+02   -.542E+00 0.778E+00 0.202E+01   -.116E-02 0.213E-02 0.301E-04
   -.291E+02 -.823E+02 0.426E+02   0.295E+02 0.839E+02 -.441E+02   -.407E+00 -.160E+01 0.150E+01   -.873E-03 -.206E-02 -.855E-03
   0.805E+02 0.136E+02 -.418E+02   -.813E+02 -.136E+02 0.417E+02   0.724E+00 0.220E-01 0.857E-01   0.917E-03 -.118E-03 0.602E-03
   -.508E+02 0.756E+02 -.111E+02   0.512E+02 -.762E+02 0.107E+02   -.362E+00 0.535E+00 0.338E+00   -.319E-03 0.600E-03 0.869E-03
   -.427E+02 -.692E+02 -.426E+02   0.430E+02 0.699E+02 0.425E+02   -.294E+00 -.662E+00 0.788E-01   -.203E-03 -.925E-03 0.544E-03
   -.854E+02 0.522E+01 -.461E+02   0.863E+02 -.528E+01 0.466E+02   -.939E+00 0.591E-01 -.515E+00   -.219E-03 -.222E-03 0.102E-02
   0.281E+02 0.814E+02 -.453E+02   -.284E+02 -.823E+02 0.458E+02   0.305E+00 0.895E+00 -.508E+00   0.292E-03 0.121E-03 0.112E-02
   0.355E+02 -.521E+02 -.742E+02   -.359E+02 0.526E+02 0.750E+02   0.386E+00 -.567E+00 -.824E+00   0.355E-03 -.542E-03 0.102E-02
   0.200E+02 0.392E+02 0.548E+01   -.211E+02 -.412E+02 -.653E+01   0.117E+01 0.196E+01 0.105E+01   0.846E-04 0.761E-04 0.259E-03
   0.949E+00 0.212E+02 -.390E+02   -.631E+00 -.217E+02 0.414E+02   -.319E+00 0.531E+00 -.244E+01   0.474E-04 0.399E-04 0.151E-03
   -.257E+02 0.381E+02 -.397E+01   0.271E+02 -.402E+02 0.417E+01   -.137E+01 0.204E+01 -.206E+00   0.352E-04 -.332E-04 0.325E-03
   -.438E+02 -.357E+01 0.505E+01   0.460E+02 0.392E+01 -.608E+01   -.226E+01 -.350E+00 0.103E+01   -.114E-03 -.532E-04 0.229E-03
   -.196E+02 0.742E+01 -.391E+02   0.199E+02 -.793E+01 0.415E+02   -.348E+00 0.511E+00 -.244E+01   -.584E-04 -.296E-04 0.136E-03
   -.367E+02 0.496E+01 0.288E+02   0.393E+02 -.455E+01 -.301E+02   -.261E+01 -.407E+00 0.133E+01   -.139E-03 0.329E-03 -.649E-04
   0.902E+01 0.356E+02 0.291E+02   -.104E+02 -.378E+02 -.304E+02   0.135E+01 0.225E+01 0.135E+01   -.201E-03 0.274E-03 -.785E-04
   0.642E+01 -.100E+02 0.474E+02   -.679E+01 0.106E+02 -.502E+02   0.377E+00 -.589E+00 0.281E+01   0.741E-04 -.868E-04 0.365E-03
   -.216E+02 -.356E+02 -.201E+02   0.227E+02 0.375E+02 0.211E+02   -.115E+01 -.191E+01 -.106E+01   0.427E-04 -.959E-04 0.314E-03
   0.231E+01 -.297E+01 -.440E+02   -.199E+01 0.248E+01 0.465E+02   -.317E+00 0.496E+00 -.245E+01   0.568E-04 -.886E-04 0.135E-03
   0.242E+02 -.357E+02 -.108E+02   -.255E+02 0.378E+02 0.107E+02   0.140E+01 -.208E+01 0.175E+00   0.999E-04 -.156E-03 0.218E-03
   0.412E+02 0.660E+01 -.196E+02   -.434E+02 -.695E+01 0.207E+02   0.221E+01 0.350E+00 -.104E+01   0.609E-04 -.726E-04 0.325E-03
   0.318E+02 0.249E+02 0.238E+02   -.332E+02 -.271E+02 -.252E+02   0.140E+01 0.223E+01 0.134E+01   0.284E-03 0.936E-05 -.186E-03
   0.348E+02 -.289E+02 0.122E+02   -.364E+02 0.313E+02 -.125E+02   0.166E+01 -.242E+01 0.334E+00   0.274E-03 0.756E-04 -.174E-03
   0.135E+02 -.431E+02 0.120E+02   -.151E+02 0.455E+02 -.124E+02   0.161E+01 -.245E+01 0.334E+00   -.156E-03 -.240E-03 -.183E-03
   -.353E+02 -.203E+02 0.234E+02   0.379E+02 0.207E+02 -.247E+02   -.260E+01 -.460E+00 0.132E+01   -.101E-03 -.286E-03 -.190E-03
 -----------------------------------------------------------------------------------------------
   -.859E+00 0.136E+01 -.646E+01   -.497E-13 0.959E-13 -.924E-13   0.857E+00 -.135E+01 0.646E+01   0.134E-02 -.105E-02 0.443E-02
 
 
 POSITION                                       TOTAL-FORCE (eV/Angst)
 -----------------------------------------------------------------------------------
      9.51237     11.12035      7.71596         0.000809     -0.001194      0.005555
      7.39697     10.78837      8.69933         0.001291      0.000674      0.000606
     10.82177      9.17005      7.90074        -0.002426     -0.000019      0.000857
     10.61018     12.94722      8.72081        -0.002557     -0.000697      0.001035
      7.63686     10.29385     11.03903         0.014901      0.000953     -0.000641
     11.17452      8.62210     10.21410        -0.008102      0.012144      0.004636
     10.95589     12.52395     11.06125        -0.006491     -0.013594     -0.000646
     12.31609     10.49581     11.31618        -0.013434      0.000523     -0.005868
      8.99828      8.26645     11.29394         0.004403      0.012583     -0.006562
      8.77978     12.16691     12.14096         0.005549     -0.008181     -0.011032
      8.27211      7.05180     10.64088         0.002482      0.003199      0.003502
      9.19501      7.93843     12.80321        -0.000275     -0.005462      0.010267
     12.04269      7.32904     10.34245        -0.003639      0.005525     -0.008180
     13.72099     10.71311     10.67731        -0.003638     -0.001045      0.003944
     12.53164     10.18030     12.82558         0.005209     -0.001784      0.010231
     12.14518      9.37968      7.22754        -0.015182      0.003770      0.004789
     10.13425      8.02781      7.21398         0.003544      0.017179      0.005544
      9.31676     11.42595      6.25757        -0.002041      0.003184     -0.015230
     11.68367     13.73296     11.73273        -0.003107     -0.001915     -0.009784
      8.97533     11.86050     13.65493        -0.000316      0.000314      0.011817
      7.91333     13.45787     12.03196         0.002956     -0.004232      0.002561
      6.23639     10.07267     11.69630         0.003120      0.002229     -0.009379
      6.69041      9.65520      8.01705         0.012115      0.011448      0.002699
      6.55777     12.01969      8.53043         0.013706     -0.011058     -0.001745
      9.78871     14.19047      8.55206         0.005751     -0.017515     -0.001440
     11.93245     13.17744      8.05208        -0.014627     -0.007032      0.002463
 -----------------------------------------------------------------------------------
    total drift:                               -0.000730      0.000839      0.001091


--------------------------------------------------------------------------------------------------------



  FREE ENERGIE OF THE ION-ELECTRON SYSTEM (eV)
  ---------------------------------------------------
  free  energy   TOTEN  =      -100.13841899 eV

  energy  without entropy=     -100.13841899  energy(sigma->0) =     -100.13841899
 
 d Force = 0.2123986E-03[ 0.569E-04, 0.368E-03]  d Energy = 0.2169505E-03-0.455E-05
 d Force =-0.6213749E+00[-0.622E+00,-0.621E+00]  d Ewald  =-0.6213747E+00-0.145E-06


--------------------------------------------------------------------------------------------------------


    POTLOK:  cpu time    0.9699: real time    0.9697


--------------------------------------------------------------------------------------------------------


 Conjugate gradient step on ions:
 trial-energy change:   -0.000217  1 .order   -0.000212   -0.000368   -0.000057
  (g-gl).g = 0.234E-03      g.g   = 0.299E-03  gl.gl    = 0.261E-02
 g(Force)  = 0.299E-03   g(Stress)= 0.000E+00 ortho     = 0.227E-05
 gamma     =   0.08939
 trial     =   1.22949
 opt step  =   1.43362  (harmonic =   1.45452) maximal distance =0.00169489
 next E    =  -100.138424   (d E  =  -0.00022)


--------------------------------------------------------------------------------------------------------


  
 reached required accuracy - stopping structural energy minimisation
 writing wavefunctions
     LOOP+:  cpu time   27.4368: real time   27.8478
    4ORBIT:  cpu time    0.0000: real time    0.0000

 total amount of memory used by VASP MPI-rank0   131440. kBytes
=======================================================================

   base      :      30000. kBytes
   nonl-proj :      17624. kBytes
   fftplans  :      26957. kBytes
   grid      :      48673. kBytes
   one-center:         40. kBytes
   wavefun   :       8146. kBytes
 
  
  
 General timing and accounting informations for this job:
 ========================================================
  
                  Total CPU time used (sec):     1066.680
                            User time (sec):     1045.385
                          System time (sec):       21.295
                         Elapsed time (sec):     1070.723
  
                   Maximum memory used (kb):      187636.
                   Average memory used (kb):           0.
  
                          Minor page faults:      5489861
                          Major page faults:            9
                 Voluntary context switches:         6819
