 vasp.5.4.4.18Apr17-6-g9f103f2a35 (build Nov 06 2017 19:16:10) complex          
  
 executed on           IFC91_ompi date 2018.07.12  16:25:26
 running on   12 total cores
 distrk:  each k-point on   12 cores,    1 groups
 distr:  one band on NCORES_PER_BAND=   6 cores,    2 groups


--------------------------------------------------------------------------------------------------------


 INCAR:
 POTCAR:    PAW_PBE Si 05Jan2001                  
 POTCAR:    PAW_PBE Ge 05Jan2001                  
 POTCAR:    PAW_PBE H 15Jun2001                   
 POTCAR:    PAW_PBE Si 05Jan2001                  
   VRHFIN =Si: s2p2                                                             
   LEXCH  = PE                                                                  
   EATOM  =   103.0669 eV,    7.5752 Ry                                         
                                                                                
   TITEL  = PAW_PBE Si 05Jan2001                                                
   LULTRA =        F    use ultrasoft PP ?                                      
   IUNSCR =        1    unscreen: 0-lin 1-nonlin 2-no                           
   RPACOR =    1.500    partial core radius                                     
   POMASS =   28.085; ZVAL   =    4.000    mass and valenz                      
   RCORE  =    1.900    outmost cutoff radius                                   
   RWIGS  =    2.480; RWIGS  =    1.312    wigner-seitz radius (au A)           
   ENMAX  =  245.345; ENMIN  =  184.009 eV                                      
   ICORE  =        2    local potential                                         
   LCOR   =        T    correct aug charges                                     
   LPAW   =        T    paw PP                                                  
   EAUG   =  322.069                                                            
   DEXC   =    0.000                                                            
   RMAX   =    1.950    core radius for proj-oper                               
   RAUG   =    1.300    factor for augmentation sphere                          
   RDEP   =    1.993    radius for radial grids                                 
   RDEPT  =    1.837    core radius for aug-charge                              
                                                                                
   Atomic configuration                                                         
    6 entries                                                                   
     n  l   j            E        occ.                                          
     1  0  0.50     -1785.8828   2.0000                                         
     2  0  0.50      -139.4969   2.0000                                         
     2  1  1.50       -95.5546   6.0000                                         
     3  0  0.50       -10.8127   2.0000                                         
     3  1  0.50        -4.0811   2.0000                                         
     3  2  1.50        -4.0817   0.0000                                         
   Description                                                                  
     l       E           TYP  RCUT    TYP  RCUT                                 
     0    -10.8127223     23  1.900                                             
     0     -7.6451159     23  1.900                                             
     1     -4.0811372     23  1.900                                             
     1      2.4879257     23  1.900                                             
     2     -4.0817478      7  1.900                                             
  local pseudopotential read in
  partial core-charges read in
  partial kinetic energy density read in
  atomic valenz-charges read in
  non local Contribution for L=           0  read in
    real space projection operators read in
  non local Contribution for L=           0  read in
    real space projection operators read in
  non local Contribution for L=           1  read in
    real space projection operators read in
  non local Contribution for L=           1  read in
    real space projection operators read in
    PAW grid and wavefunctions read in
 
   number of l-projection  operators is LMAX  =           4
   number of lm-projection operators is LMMAX =           8
 
 POTCAR:    PAW_PBE Ge 05Jan2001                  
   VRHFIN =Ge: s2p2                                                             
   LEXCH  = PE                                                                  
   EATOM  =   104.9960 eV,    7.7170 Ry                                         
                                                                                
   TITEL  = PAW_PBE Ge 05Jan2001                                                
   LULTRA =        F    use ultrasoft PP ?                                      
   IUNSCR =        1    unscreen: 0-lin 1-nonlin 2-no                           
   RPACOR =    2.170    partial core radius                                     
   POMASS =   72.610; ZVAL   =    4.000    mass and valenz                      
   RCORE  =    2.300    outmost cutoff radius                                   
   RWIGS  =    2.300; RWIGS  =    1.217    wigner-seitz radius (au A)           
   ENMAX  =  173.807; ENMIN  =  130.355 eV                                      
   ICORE  =        3    local potential                                         
   LCOR   =        T    correct aug charges                                     
   LPAW   =        T    paw PP                                                  
   EAUG   =  385.843                                                            
   DEXC   =    0.000                                                            
   RMAX   =    2.342    core radius for proj-oper                               
   RAUG   =    1.300    factor for augmentation sphere                          
   RDEP   =    2.318    radius for radial grids                                 
   RDEPT  =    2.103    core radius for aug-charge                              
                                                                                
   Atomic configuration                                                         
   10 entries                                                                   
     n  l   j            E        occ.                                          
     1  0  0.50    -10959.8463   2.0000                                         
     2  0  0.50     -1371.6056   2.0000                                         
     2  1  1.50     -1198.4791   6.0000                                         
     3  0  0.50      -168.4733   2.0000                                         
     3  1  1.50      -115.6019   6.0000                                         
     3  2  2.50       -29.3106  10.0000                                         
     4  0  0.50       -11.7309   2.0000                                         
     4  1  0.50        -3.8952   2.0000                                         
     4  2  1.50        -4.0817   0.0000                                         
     4  3  2.50        -4.0817   0.0000                                         
   Description                                                                  
     l       E           TYP  RCUT    TYP  RCUT                                 
     0    -11.7309493     23  2.300                                             
     0     -7.4578696     23  2.300                                             
     1     -3.8952261     23  2.300                                             
     1      6.1178114     23  2.300                                             
     2     -4.0817478     23  2.300                                             
     3     -1.3605826      7  2.300                                             
  local pseudopotential read in
  partial core-charges read in
  partial kinetic energy density read in
  atomic valenz-charges read in
  non local Contribution for L=           0  read in
    real space projection operators read in
  non local Contribution for L=           0  read in
    real space projection operators read in
  non local Contribution for L=           1  read in
    real space projection operators read in
  non local Contribution for L=           1  read in
    real space projection operators read in
  non local Contribution for L=           2  read in
    real space projection operators read in
    PAW grid and wavefunctions read in
 
   number of l-projection  operators is LMAX  =           5
   number of lm-projection operators is LMMAX =          13
 
 POTCAR:    PAW_PBE H 15Jun2001                   
   VRHFIN =H: ultrasoft test                                                    
   LEXCH  = PE                                                                  
   EATOM  =    12.4884 eV,    0.9179 Ry                                         
                                                                                
   TITEL  = PAW_PBE H 15Jun2001                                                 
   LULTRA =        F    use ultrasoft PP ?                                      
   IUNSCR =        0    unscreen: 0-lin 1-nonlin 2-no                           
   RPACOR =    0.000    partial core radius                                     
   POMASS =    1.000; ZVAL   =    1.000    mass and valenz                      
   RCORE  =    1.100    outmost cutoff radius                                   
   RWIGS  =    0.700; RWIGS  =    0.370    wigner-seitz radius (au A)           
   ENMAX  =  250.000; ENMIN  =  200.000 eV                                      
   RCLOC  =    0.701    cutoff for local pot                                    
   LCOR   =        T    correct aug charges                                     
   LPAW   =        T    paw PP                                                  
   EAUG   =  400.000                                                            
   RMAX   =    1.123    core radius for proj-oper                               
   RAUG   =    1.200    factor for augmentation sphere                          
   RDEP   =    1.112    radius for radial grids                                 
   RDEPT  =    0.926    core radius for aug-charge                              
                                                                                
   Atomic configuration                                                         
    2 entries                                                                   
     n  l   j            E        occ.                                          
     1  0  0.50        -6.4927   1.0000                                         
     2  1  0.50        -3.4015   0.0000                                         
   Description                                                                  
     l       E           TYP  RCUT    TYP  RCUT                                 
     0     -6.4927494     23  1.100                                             
     0      6.8029130     23  1.100                                             
     1     -4.0817478     23  1.100                                             
  local pseudopotential read in
  atomic valenz-charges read in
  non local Contribution for L=           0  read in
    real space projection operators read in
  non local Contribution for L=           0  read in
    real space projection operators read in
  non local Contribution for L=           1  read in
    real space projection operators read in
    PAW grid and wavefunctions read in
 
   number of l-projection  operators is LMAX  =           3
   number of lm-projection operators is LMMAX =           5
 

 ----------------------------------------------------------------------------- 
|                                                                             |
|  ADVICE TO THIS USER RUNNING 'VASP/VAMP'   (HEAR YOUR MASTER'S VOICE ...):  |
|                                                                             |
|      You have a (more or less) 'large supercell' and for larger cells       |
|      it might be more efficient to use real space projection opertators     |
|      So try LREAL= Auto  in the INCAR   file.                               |
|      Mind:          For very  accurate calculation you might also keep the  |
|      reciprocal projection scheme          (i.e. LREAL=.FALSE.)             |
|                                                                             |
 ----------------------------------------------------------------------------- 

  PAW_PBE Si 05Jan2001                  :
 energy of atom  1       EATOM= -103.0669
 kinetic energy error for atom=    0.0012 (will be added to EATOM!!)
  PAW_PBE Ge 05Jan2001                  :
 energy of atom  2       EATOM= -104.9960
 kinetic energy error for atom=    0.0003 (will be added to EATOM!!)
  PAW_PBE H 15Jun2001                   :
 energy of atom  3       EATOM=  -12.4884
 kinetic energy error for atom=    0.0098 (will be added to EATOM!!)
 
 
 POSCAR: SiGeH16                                 
  positions in direct lattice
  No initial velocities read in
 exchange correlation table for  LEXCH =        8
   RHO(1)=    0.500       N(1)  =     2000
   RHO(2)=  100.500       N(2)  =     4000
 


--------------------------------------------------------------------------------------------------------


 ion  position               nearest neighbor table
   1  0.475  0.556  0.385-  18 1.55   6 2.39   2 2.39   5 2.39
   2  0.369  0.539  0.436-  23 1.55  24 1.55   3 2.39   1 2.39
   3  0.385  0.515  0.552-  22 1.55  10 2.39   9 2.39   2 2.39
   4  0.557  0.433  0.512-  13 1.55   5 2.39   8 2.39   9 2.39
   5  0.542  0.457  0.396-  17 1.55  16 1.55   4 2.39   1 2.39
   6  0.531  0.648  0.437-  25 1.55  26 1.55   7 2.39   1 2.39
   7  0.547  0.624  0.554-  19 1.55   6 2.39   8 2.39  10 2.39
   8  0.613  0.525  0.565-  15 1.55  14 1.55   7 2.39   4 2.39
   9  0.451  0.416  0.564-  12 1.55  11 1.55   3 2.39   4 2.39
  10  0.440  0.606  0.605-  20 1.55  21 1.55   3 2.39   7 2.39
  11  0.415  0.357  0.529-   9 1.55
  12  0.461  0.400  0.639-   9 1.55
  13  0.600  0.369  0.520-   4 1.55
  14  0.682  0.536  0.531-   8 1.55
  15  0.623  0.509  0.640-   8 1.55
  16  0.611  0.469  0.363-   5 1.55
  17  0.506  0.398  0.362-   5 1.55
  18  0.465  0.572  0.309-   1 1.55
  19  0.583  0.683  0.588-   7 1.55
  20  0.451  0.590  0.680-  10 1.55
  21  0.397  0.670  0.598-  10 1.55
  22  0.316  0.504  0.586-   3 1.55
  23  0.333  0.479  0.402-   2 1.55
  24  0.326  0.603  0.429-   2 1.55
  25  0.488  0.712  0.430-   6 1.55
  26  0.600  0.659  0.404-   6 1.55
 
  LATTYP: Found a simple cubic cell.
 ALAT       =    20.0000000000
  
  Lattice vectors:
  
 A1 = (  20.0000000000,   0.0000000000,   0.0000000000)
 A2 = (   0.0000000000,  20.0000000000,   0.0000000000)
 A3 = (   0.0000000000,   0.0000000000,  20.0000000000)


Analysis of symmetry for initial positions (statically):
=====================================================================
 Subroutine PRICEL returns:
 Original cell was already a primitive cell.
 

 Routine SETGRP: Setting up the symmetry group for a 
 simple cubic supercell.


 Subroutine GETGRP returns: Found  1 space group operations
 (whereof  1 operations were pure point group operations)
 out of a pool of 48 trial point group operations.


The static configuration has the point symmetry C_1 .


Analysis of symmetry for dynamics (positions and initial velocities):
=====================================================================
 Subroutine PRICEL returns:
 Original cell was already a primitive cell.
 

 Routine SETGRP: Setting up the symmetry group for a 
 simple cubic supercell.


 Subroutine GETGRP returns: Found  1 space group operations
 (whereof  1 operations were pure point group operations)
 out of a pool of 48 trial point group operations.


The dynamic configuration has the point symmetry C_1 .


 Subroutine INISYM returns: Found  1 space group operations
 (whereof  1 operations are pure point group operations),
 and found     1 'primitive' translations

 
 
 KPOINTS: Automatic mesh                          

Automatic generation of k-mesh.
Space group operators:
 irot       det(A)        alpha          n_x          n_y          n_z        tau_x        tau_y        tau_z
    1     1.000000     0.000000     1.000000     0.000000     0.000000     0.000000     0.000000     0.000000
 
 Subroutine IBZKPT returns following result:
 ===========================================
 
 Found      1 irreducible k-points:
 
 Following reciprocal coordinates:
            Coordinates               Weight
  0.000000  0.000000  0.000000      1.000000
 
 Following cartesian coordinates:
            Coordinates               Weight
  0.000000  0.000000  0.000000      1.000000
 


--------------------------------------------------------------------------------------------------------




 Dimension of arrays:
   k-points           NKPTS =      1   k-points in BZ     NKDIM =      1   number of bands    NBANDS=     42
   number of dos      NEDOS =    301   number of ions     NIONS =     26
   non local maximal  LDIM  =      5   non local SUM 2l+1 LMDIM =     13
   total plane-waves  NPLWV = 941192
   max r-space proj   IRMAX =      1   max aug-charges    IRDMAX=   6593
   dimension x,y,z NGX =    98 NGY =   98 NGZ =   98
   dimension x,y,z NGXF=   196 NGYF=  196 NGZF=  196
   support grid    NGXF=   196 NGYF=  196 NGZF=  196
   ions per type =               4   6  16
   NGX,Y,Z   is equivalent  to a cutoff of   8.15,  8.15,  8.15 a.u.
   NGXF,Y,Z  is equivalent  to a cutoff of  16.29, 16.29, 16.29 a.u.

 SYSTEM =  SiGe                                    
 POSCAR =  SiGeH16                                 

 Startparameter for this run:
   NWRITE =      2    write-flag & timer
   PREC   = normal    normal or accurate (medium, high low for compatibility)
   ISTART =      0    job   : 0-new  1-cont  2-samecut
   ICHARG =      2    charge: 1-file 2-atom 10-const
   ISPIN  =      1    spin polarized calculation?
   LNONCOLLINEAR =      F non collinear calculations
   LSORBIT =      F    spin-orbit coupling
   INIWAV =      1    electr: 0-lowe 1-rand  2-diag
   LASPH  =      F    aspherical Exc in radial PAW
   METAGGA=      F    non-selfconsistent MetaGGA calc.

 Electronic Relaxation 1
   ENCUT  =  400.0 eV  29.40 Ry    5.42 a.u.  32.61 32.61 32.61*2*pi/ulx,y,z
   ENINI  =  400.0     initial cutoff
   ENAUG  =  400.0 eV  augmentation charge cutoff
   NELM   =     60;   NELMIN=  2; NELMDL= -5     # of ELM steps 
   EDIFF  = 0.1E-05   stopping-criterion for ELM
   LREAL  =      F    real-space projection
   NLSPLINE    = F    spline interpolate recip. space projectors
   LCOMPAT=      F    compatible to vasp.4.4
   GGA_COMPAT  = T    GGA compatible to vasp.4.4-vasp.4.6
   LMAXPAW     = -100 max onsite density
   LMAXMIX     =    2 max onsite mixed and CHGCAR
   VOSKOWN=      0    Vosko Wilk Nusair interpolation
   ROPT   =    0.00000   0.00000   0.00000
 Ionic relaxation
   EDIFFG = -.2E-01   stopping-criterion for IOM
   NSW    =    200    number of steps for IOM
   NBLOCK =      1;   KBLOCK =    200    inner block; outer block 
   IBRION =      2    ionic relax: 0-MD 1-quasi-New 2-CG
   NFREE  =      1    steps in history (QN), initial steepest desc. (CG)
   ISIF   =      2    stress and relaxation
   IWAVPR =     11    prediction:  0-non 1-charg 2-wave 3-comb
   ISYM   =      2    0-nonsym 1-usesym 2-fastsym
   LCORR  =      T    Harris-Foulkes like correction to forces

   POTIM  = 0.5000    time-step for ionic-motion
   TEIN   =    0.0    initial temperature
   TEBEG  =    0.0;   TEEND  =   0.0 temperature during run
   SMASS  =  -3.00    Nose mass-parameter (am)
   estimated Nose-frequenzy (Omega)   =  0.10E-29 period in steps =****** mass=  -0.914E-26a.u.
   SCALEE = 1.0000    scale energy and forces
   NPACO  =    256;   APACO  = 16.0  distance and # of slots for P.C.
   PSTRESS=    0.0 pullay stress

  Mass of Ions in am
   POMASS =  28.09 72.61  1.00
  Ionic Valenz
   ZVAL   =   4.00  4.00  1.00
  Atomic Wigner-Seitz radii
   RWIGS  =  -1.00 -1.00 -1.00
  virtual crystal weights 
   VCA    =   1.00  1.00  1.00
   NELECT =      56.0000    total number of electrons
   NUPDOWN=      -1.0000    fix difference up-down

 DOS related values:
   EMIN   =  10.00;   EMAX   =-10.00  energy-range for DOS
   EFERMI =   0.00
   ISMEAR =     0;   SIGMA  =   0.20  broadening in eV -4-tet -1-fermi 0-gaus

 Electronic relaxation 2 (details)
   IALGO  =     38    algorithm
   LDIAG  =      T    sub-space diagonalisation (order eigenvalues)
   LSUBROT=      F    optimize rotation matrix (better conditioning)
   TURBO    =      0    0=normal 1=particle mesh
   IRESTART =      0    0=no restart 2=restart with 2 vectors
   NREBOOT  =      0    no. of reboots
   NMIN     =      0    reboot dimension
   EREF     =   0.00    reference energy to select bands
   IMIX   =      4    mixing-type and parameters
     AMIX     =   0.40;   BMIX     =  1.00
     AMIX_MAG =   1.60;   BMIX_MAG =  1.00
     AMIN     =   0.10
     WC   =   100.;   INIMIX=   1;  MIXPRE=   1;  MAXMIX= -45

 Intra band minimization:
   WEIMIN = 0.0010     energy-eigenvalue tresh-hold
   EBREAK =  0.60E-08  absolut break condition
   DEPER  =   0.30     relativ break condition  

   TIME   =   0.40     timestep for ELM

  volume/ion in A,a.u.               =     307.69      2076.41
  Fermi-wavevector in a.u.,A,eV,Ry     =   0.313166  0.591797  1.334361  0.098073
  Thomas-Fermi vector in A             =   1.193276
 
 Write flags
   LWAVE        =      T    write WAVECAR
   LDOWNSAMPLE  =      F    k-point downsampling of WAVECAR
   LCHARG       =      T    write CHGCAR
   LVTOT        =      F    write LOCPOT, total local potential
   LVHAR        =      F    write LOCPOT, Hartree potential only
   LELF         =      F    write electronic localiz. function (ELF)
   LORBIT       =      0    0 simple, 1 ext, 2 COOP (PROOUT), +10 PAW based schemes


 Dipole corrections
   LMONO  =      F    monopole corrections only (constant potential shift)
   LDIPOL =      F    correct potential (dipole corrections)
   IDIPOL =      0    1-x, 2-y, 3-z, 4-all directions 
   EPSILON=  1.0000000 bulk dielectric constant

 Exchange correlation treatment:
   GGA     =    --    GGA type
   LEXCH   =     8    internal setting for exchange type
   VOSKOWN=      0    Vosko Wilk Nusair interpolation
   LHFCALC =     F    Hartree Fock is set to
   LHFONE  =     F    Hartree Fock one center treatment
   AEXX    =    0.0000 exact exchange contribution

 Linear response parameters
   LEPSILON=     F    determine dielectric tensor
   LRPA    =     F    only Hartree local field effects (RPA)
   LNABLA  =     F    use nabla operator in PAW spheres
   LVEL    =     F    velocity operator in full k-point grid
   LINTERFAST=   F  fast interpolation
   KINTER  =     0    interpolate to denser k-point grid
   CSHIFT  =0.1000    complex shift for real part using Kramers Kronig
   OMEGAMAX=  -1.0    maximum frequency
   DEG_THRESHOLD= 0.2000000E-02 threshold for treating states as degnerate
   RTIME   =   -0.100 relaxation time in fs
  (WPLASMAI=    0.000 imaginary part of plasma frequency in eV, 0.658/RTIME)
   DFIELD  = 0.0000000 0.0000000 0.0000000 field for delta impulse in time
 
 Orbital magnetization related:
   ORBITALMAG=     F  switch on orbital magnetization
   LCHIMAG   =     F  perturbation theory with respect to B field
   DQ        =  0.001000  dq finite difference perturbation B field
   LLRAUG    =     F  two centre corrections for induced B field



--------------------------------------------------------------------------------------------------------


 conjugate gradient relaxation of ions
 charge density and potential will be updated during run
 non-spin polarized calculation
 Variant of blocked Davidson
 Davidson routine will perform the subspace rotation
 perform sub-space diagonalisation
    after iterative eigenvector-optimisation
 modified Broyden-mixing scheme, WC =      100.0
 initial mixing is a Kerker type mixing with AMIX =  0.4000 and BMIX =      1.0000
 Hartree-type preconditioning will be used
 using additional bands           14
 reciprocal scheme for non local part
 use partial core corrections
 calculate Harris-corrections to forces 
   (improved forces if not selfconsistent)
 use gradient corrections 
 use of overlap-Matrix (Vanderbilt PP)
 Gauss-broadening in eV      SIGMA  =   0.20


--------------------------------------------------------------------------------------------------------


  energy-cutoff  :      400.00
  volume of cell :     8000.00
      direct lattice vectors                 reciprocal lattice vectors
    20.000000000  0.000000000  0.000000000     0.050000000  0.000000000  0.000000000
     0.000000000 20.000000000  0.000000000     0.000000000  0.050000000  0.000000000
     0.000000000  0.000000000 20.000000000     0.000000000  0.000000000  0.050000000

  length of vectors
    20.000000000 20.000000000 20.000000000     0.050000000  0.050000000  0.050000000


 
 k-points in units of 2pi/SCALE and weight: Automatic mesh                          
   0.00000000  0.00000000  0.00000000       1.000
 
 k-points in reciprocal lattice and weights: Automatic mesh                          
   0.00000000  0.00000000  0.00000000       1.000
 
 position of ions in fractional coordinates (direct lattice) 
   0.47547100  0.55626000  0.38465300
   0.36907800  0.53906000  0.43641200
   0.38461900  0.51474100  0.55243500
   0.55736800  0.43311000  0.51215000
   0.54179100  0.45744600  0.39613600
   0.53111600  0.64794100  0.43749600
   0.54669200  0.62364400  0.55351800
   0.61299700  0.52481700  0.56496600
   0.45095700  0.41593600  0.56388300
   0.44028400  0.60643000  0.60524300
   0.41490100  0.35665000  0.52940300
   0.46117000  0.40042600  0.63910800
   0.60034800  0.36907000  0.51957800
   0.68182700  0.53600700  0.53118700
   0.62280400  0.50903400  0.64018900
   0.61080000  0.46880600  0.36278200
   0.50550800  0.39805500  0.36207700
   0.46538400  0.57201900  0.30946400
   0.58275500  0.68306700  0.58775000
   0.45052500  0.59044300  0.68036400
   0.39732000  0.67044900  0.59753500
   0.31566200  0.50359800  0.58596500
   0.33322800  0.47946500  0.40225200
   0.32629100  0.60324700  0.42912600
   0.48792300  0.71185500  0.43020800
   0.60015100  0.65882400  0.40403700
 
 position of ions in cartesian coordinates  (Angst):
   9.50942000 11.12520000  7.69306000
   7.38156000 10.78120000  8.72824000
   7.69238000 10.29482000 11.04870000
  11.14736000  8.66220000 10.24300000
  10.83582000  9.14892000  7.92272000
  10.62232000 12.95882000  8.74992000
  10.93384000 12.47288000 11.07036000
  12.25994000 10.49634000 11.29932000
   9.01914000  8.31872000 11.27766000
   8.80568000 12.12860000 12.10486000
   8.29802000  7.13300000 10.58806000
   9.22340000  8.00852000 12.78216000
  12.00696000  7.38140000 10.39156000
  13.63654000 10.72014000 10.62374000
  12.45608000 10.18068000 12.80378000
  12.21600000  9.37612000  7.25564000
  10.11016000  7.96110000  7.24154000
   9.30768000 11.44038000  6.18928000
  11.65510000 13.66134000 11.75500000
   9.01050000 11.80886000 13.60728000
   7.94640000 13.40898000 11.95070000
   6.31324000 10.07196000 11.71930000
   6.66456000  9.58930000  8.04504000
   6.52582000 12.06494000  8.58252000
   9.75846000 14.23710000  8.60416000
  12.00302000 13.17648000  8.08074000
 


--------------------------------------------------------------------------------------------------------


 k-point  1 :   0.0000 0.0000 0.0000  plane waves:  145165

 maximum and minimum number of plane-waves per node :     24209    24180

 maximum number of plane-waves:    145165
 maximum index in each direction: 
   IXMAX=   32   IYMAX=   32   IZMAX=   32
   IXMIN=  -32   IYMIN=  -32   IZMIN=  -32


 parallel 3D FFT for wavefunctions:
    minimum data exchange during FFTs selected (reduces bandwidth)
 parallel 3D FFT for charge:
    minimum data exchange during FFTs selected (reduces bandwidth)


 total amount of memory used by VASP MPI-rank0   131440. kBytes
=======================================================================

   base      :      30000. kBytes
   nonl-proj :      17624. kBytes
   fftplans  :      26957. kBytes
   grid      :      48673. kBytes
   one-center:         40. kBytes
   wavefun   :       8146. kBytes
 
     INWAV:  cpu time    0.0000: real time    0.0001
 Broyden mixing: mesh for mixing (old mesh)
   NGX = 65   NGY = 65   NGZ = 65
  (NGX  =196   NGY  =196   NGZ  =196)
  gives a total of 274625 points

 initial charge density was supplied:
 charge density of overlapping atoms calculated
 number of electron      56.0000000 magnetization 
 keeping initial charge density in first step


--------------------------------------------------------------------------------------------------------


 Maximum index for augmentation-charges          565 (set IRDMAX)


--------------------------------------------------------------------------------------------------------


 First call to EWALD:  gamma=   0.089
 Maximum number of real-space cells 3x 3x 3
 Maximum number of reciprocal cells 3x 3x 3

    FEWALD:  cpu time    0.0040: real time    0.0035


--------------------------------------- Iteration      1(   1)  ---------------------------------------


    POTLOK:  cpu time    0.9939: real time    0.9940
    SETDIJ:  cpu time    0.0060: real time    0.0063
     EDDAV:  cpu time    4.2094: real time    4.2103
       DOS:  cpu time    0.0010: real time    0.0003
    --------------------------------------------
      LOOP:  cpu time    5.2102: real time    5.2110

 eigenvalue-minimisations  :   116
 total energy-change (2. order) : 0.2071042E+03  (-0.1046959E+04)
 number of electron      56.0000000 magnetization 
 augmentation part       56.0000000 magnetization 

 Free energy of the ion-electron system (eV)
  ---------------------------------------------------
  alpha Z        PSCENC =         2.51538199
  Ewald energy   TEWEN  =      2629.98113996
  -Hartree energ DENC   =     -3440.41139066
  -exchange      EXHF   =         0.00000000
  -V(xc)+E(xc)   XCENC  =       -49.27995219
  PAW double counting   =       915.51080863     -758.35430496
  entropy T*S    EENTRO =        -0.43649115
  eigenvalues    EBANDS =      -334.31607531
  atomic energy  EATOM  =      1241.89512738
  Solvation  Ediel_sol  =         0.00000000
  ---------------------------------------------------
  free energy    TOTEN  =       207.10424368 eV

  energy without entropy =      207.54073483  energy(sigma->0) =      207.32248925


--------------------------------------------------------------------------------------------------------




--------------------------------------- Iteration      1(   2)  ---------------------------------------


     EDDAV:  cpu time    5.0202: real time    5.0184
       DOS:  cpu time    0.0000: real time    0.0002
    --------------------------------------------
      LOOP:  cpu time    5.0202: real time    5.0186

 eigenvalue-minimisations  :   144
 total energy-change (2. order) :-0.2321936E+03  (-0.2173370E+03)
 number of electron      56.0000000 magnetization 
 augmentation part       56.0000000 magnetization 

 Free energy of the ion-electron system (eV)
  ---------------------------------------------------
  alpha Z        PSCENC =         2.51538199
  Ewald energy   TEWEN  =      2629.98113996
  -Hartree energ DENC   =     -3440.41139066
  -exchange      EXHF   =         0.00000000
  -V(xc)+E(xc)   XCENC  =       -49.27995219
  PAW double counting   =       915.51080863     -758.35430496
  entropy T*S    EENTRO =        -0.00000000
  eigenvalues    EBANDS =      -566.94621258
  atomic energy  EATOM  =      1241.89512738
  Solvation  Ediel_sol  =         0.00000000
  ---------------------------------------------------
  free energy    TOTEN  =       -25.08940244 eV

  energy without entropy =      -25.08940244  energy(sigma->0) =      -25.08940244


--------------------------------------------------------------------------------------------------------




--------------------------------------- Iteration      1(   3)  ---------------------------------------


     EDDAV:  cpu time    3.8724: real time    3.8714
       DOS:  cpu time    0.0000: real time    0.0003
    --------------------------------------------
      LOOP:  cpu time    3.8724: real time    3.8717

 eigenvalue-minimisations  :   104
 total energy-change (2. order) :-0.7498045E+02  (-0.7479399E+02)
 number of electron      56.0000000 magnetization 
 augmentation part       56.0000000 magnetization 

 Free energy of the ion-electron system (eV)
  ---------------------------------------------------
  alpha Z        PSCENC =         2.51538199
  Ewald energy   TEWEN  =      2629.98113996
  -Hartree energ DENC   =     -3440.41139066
  -exchange      EXHF   =         0.00000000
  -V(xc)+E(xc)   XCENC  =       -49.27995219
  PAW double counting   =       915.51080863     -758.35430496
  entropy T*S    EENTRO =        -0.00000000
  eigenvalues    EBANDS =      -641.92665797
  atomic energy  EATOM  =      1241.89512738
  Solvation  Ediel_sol  =         0.00000000
  ---------------------------------------------------
  free energy    TOTEN  =      -100.06984783 eV

  energy without entropy =     -100.06984783  energy(sigma->0) =     -100.06984783


--------------------------------------------------------------------------------------------------------




--------------------------------------- Iteration      1(   4)  ---------------------------------------


     EDDAV:  cpu time    4.1104: real time    4.1092
       DOS:  cpu time    0.0000: real time    0.0002
    --------------------------------------------
      LOOP:  cpu time    4.1104: real time    4.1094

 eigenvalue-minimisations  :   112
 total energy-change (2. order) :-0.4342549E+01  (-0.4327885E+01)
 number of electron      56.0000000 magnetization 
 augmentation part       56.0000000 magnetization 

 Free energy of the ion-electron system (eV)
  ---------------------------------------------------
  alpha Z        PSCENC =         2.51538199
  Ewald energy   TEWEN  =      2629.98113996
  -Hartree energ DENC   =     -3440.41139066
  -exchange      EXHF   =         0.00000000
  -V(xc)+E(xc)   XCENC  =       -49.27995219
  PAW double counting   =       915.51080863     -758.35430496
  entropy T*S    EENTRO =        -0.00000000
  eigenvalues    EBANDS =      -646.26920743
  atomic energy  EATOM  =      1241.89512738
  Solvation  Ediel_sol  =         0.00000000
  ---------------------------------------------------
  free energy    TOTEN  =      -104.41239729 eV

  energy without entropy =     -104.41239729  energy(sigma->0) =     -104.41239729


--------------------------------------------------------------------------------------------------------




--------------------------------------- Iteration      1(   5)  ---------------------------------------


     EDDAV:  cpu time    4.5973: real time    4.5958
       DOS:  cpu time    0.0000: real time    0.0002
    CHARGE:  cpu time    0.2310: real time    0.2294
    MIXING:  cpu time    0.0240: real time    0.0239
    --------------------------------------------
      LOOP:  cpu time    4.8523: real time    4.8494

 eigenvalue-minimisations  :   128
 total energy-change (2. order) :-0.6782150E-01  (-0.6776386E-01)
 number of electron      56.0000021 magnetization 
 augmentation part       -4.3401191 magnetization 

 Broyden mixing:
  rms(total) = 0.14447E+01    rms(broyden)= 0.14446E+01
  rms(prec ) = 0.15405E+01
  weight for this iteration     100.00

 Free energy of the ion-electron system (eV)
  ---------------------------------------------------
  alpha Z        PSCENC =         2.51538199
  Ewald energy   TEWEN  =      2629.98113996
  -Hartree energ DENC   =     -3440.41139066
  -exchange      EXHF   =         0.00000000
  -V(xc)+E(xc)   XCENC  =       -49.27995219
  PAW double counting   =       915.51080863     -758.35430496
  entropy T*S    EENTRO =        -0.00000000
  eigenvalues    EBANDS =      -646.33702893
  atomic energy  EATOM  =      1241.89512738
  Solvation  Ediel_sol  =         0.00000000
  ---------------------------------------------------
  free energy    TOTEN  =      -104.48021879 eV

  energy without entropy =     -104.48021879  energy(sigma->0) =     -104.48021879


--------------------------------------------------------------------------------------------------------




--------------------------------------- Iteration      1(   6)  ---------------------------------------


    POTLOK:  cpu time    0.9379: real time    0.9395
    SETDIJ:  cpu time    0.0070: real time    0.0063
     EDDAV:  cpu time    3.8724: real time    3.8708
       DOS:  cpu time    0.0000: real time    0.0003
    CHARGE:  cpu time    0.2290: real time    0.2285
    MIXING:  cpu time    0.0250: real time    0.0249
    --------------------------------------------
      LOOP:  cpu time    5.0712: real time    5.0704

 eigenvalue-minimisations  :   104
 total energy-change (2. order) : 0.3138663E+01  (-0.1554930E+00)
 number of electron      56.0000020 magnetization 
 augmentation part       -4.3411366 magnetization 

 Broyden mixing:
  rms(total) = 0.83651E+00    rms(broyden)= 0.83650E+00
  rms(prec ) = 0.89518E+00
  weight for this iteration     100.00

 eigenvalues of (default mixing * dielectric matrix)
  average eigenvalue GAMMA=   2.3033
  2.3033

 Free energy of the ion-electron system (eV)
  ---------------------------------------------------
  alpha Z        PSCENC =         2.51538199
  Ewald energy   TEWEN  =      2629.98113996
  -Hartree energ DENC   =     -3471.32234612
  -exchange      EXHF   =         0.00000000
  -V(xc)+E(xc)   XCENC  =       -45.65923304
  PAW double counting   =      1750.69434144    -1594.42883709
  entropy T*S    EENTRO =        -0.00000000
  eigenvalues    EBANDS =      -615.01713006
  atomic energy  EATOM  =      1241.89512738
  Solvation  Ediel_sol  =         0.00000000
  ---------------------------------------------------
  free energy    TOTEN  =      -101.34155552 eV

  energy without entropy =     -101.34155552  energy(sigma->0) =     -101.34155552


--------------------------------------------------------------------------------------------------------




--------------------------------------- Iteration      1(   7)  ---------------------------------------


    POTLOK:  cpu time    0.9669: real time    0.9673
    SETDIJ:  cpu time    0.0070: real time    0.0063
     EDDAV:  cpu time    3.8774: real time    3.9322
       DOS:  cpu time    0.0000: real time    0.0003
    CHARGE:  cpu time    0.2330: real time    0.2323
    MIXING:  cpu time    0.0260: real time    0.0279
    --------------------------------------------
      LOOP:  cpu time    5.1102: real time    5.1663

 eigenvalue-minimisations  :   104
 total energy-change (2. order) : 0.1646346E+01  (-0.3976543E+00)
 number of electron      56.0000018 magnetization 
 augmentation part       -4.3412323 magnetization 

 Broyden mixing:
  rms(total) = 0.12121E+00    rms(broyden)= 0.12106E+00
  rms(prec ) = 0.15231E+00
  weight for this iteration     100.00

 eigenvalues of (default mixing * dielectric matrix)
  average eigenvalue GAMMA=   1.8425
  1.7271  1.9579

 Free energy of the ion-electron system (eV)
  ---------------------------------------------------
  alpha Z        PSCENC =         2.51538199
  Ewald energy   TEWEN  =      2629.98113996
  -Hartree energ DENC   =     -3526.27697468
  -exchange      EXHF   =         0.00000000
  -V(xc)+E(xc)   XCENC  =       -39.93170513
  PAW double counting   =      3553.01664894    -3397.93422614
  entropy T*S    EENTRO =        -0.00000000
  eigenvalues    EBANDS =      -562.96060144
  atomic energy  EATOM  =      1241.89512738
  Solvation  Ediel_sol  =         0.00000000
  ---------------------------------------------------
  free energy    TOTEN  =       -99.69520911 eV

  energy without entropy =      -99.69520911  energy(sigma->0) =      -99.69520911


--------------------------------------------------------------------------------------------------------




--------------------------------------- Iteration      1(   8)  ---------------------------------------


    POTLOK:  cpu time    0.9499: real time    0.9493
    SETDIJ:  cpu time    0.0060: real time    0.0061
     EDDAV:  cpu time    4.1204: real time    4.1196
       DOS:  cpu time    0.0010: real time    0.0004
    CHARGE:  cpu time    0.2280: real time    0.2282
    MIXING:  cpu time    0.0260: real time    0.0264
    --------------------------------------------
      LOOP:  cpu time    5.3312: real time    5.3300

 eigenvalue-minimisations  :   112
 total energy-change (2. order) : 0.5380280E-01  (-0.2573758E-01)
 number of electron      56.0000018 magnetization 
 augmentation part       -4.3346368 magnetization 

 Broyden mixing:
  rms(total) = 0.59774E-01    rms(broyden)= 0.59760E-01
  rms(prec ) = 0.79201E-01
  weight for this iteration     100.00

 eigenvalues of (default mixing * dielectric matrix)
  average eigenvalue GAMMA=   1.9821
  2.6596  1.6433  1.6433

 Free energy of the ion-electron system (eV)
  ---------------------------------------------------
  alpha Z        PSCENC =         2.51538199
  Ewald energy   TEWEN  =      2629.98113996
  -Hartree energ DENC   =     -3534.36666869
  -exchange      EXHF   =         0.00000000
  -V(xc)+E(xc)   XCENC  =       -39.94471987
  PAW double counting   =      3581.53524123    -3426.36432319
  entropy T*S    EENTRO =        -0.00000000
  eigenvalues    EBANDS =      -554.89258512
  atomic energy  EATOM  =      1241.89512738
  Solvation  Ediel_sol  =         0.00000000
  ---------------------------------------------------
  free energy    TOTEN  =       -99.64140631 eV

  energy without entropy =      -99.64140631  energy(sigma->0) =      -99.64140631


--------------------------------------------------------------------------------------------------------




--------------------------------------- Iteration      1(   9)  ---------------------------------------


    POTLOK:  cpu time    0.9549: real time    0.9544
    SETDIJ:  cpu time    0.0060: real time    0.0063
     EDDAV:  cpu time    4.1154: real time    4.1146
       DOS:  cpu time    0.0000: real time    0.0003
    CHARGE:  cpu time    0.2300: real time    0.2294
    MIXING:  cpu time    0.0280: real time    0.0273
    --------------------------------------------
      LOOP:  cpu time    5.3342: real time    5.3323

 eigenvalue-minimisations  :   112
 total energy-change (2. order) : 0.3610340E-01  (-0.6989423E-02)
 number of electron      56.0000018 magnetization 
 augmentation part       -4.3199868 magnetization 

 Broyden mixing:
  rms(total) = 0.32701E-01    rms(broyden)= 0.32700E-01
  rms(prec ) = 0.44228E-01
  weight for this iteration     100.00

 eigenvalues of (default mixing * dielectric matrix)
  average eigenvalue GAMMA=   1.7509
  2.5076  1.8340  1.8340  0.8280

 Free energy of the ion-electron system (eV)
  ---------------------------------------------------
  alpha Z        PSCENC =         2.51538199
  Ewald energy   TEWEN  =      2629.98113996
  -Hartree energ DENC   =     -3546.21124002
  -exchange      EXHF   =         0.00000000
  -V(xc)+E(xc)   XCENC  =       -39.24031003
  PAW double counting   =      3710.32463286    -3555.19735574
  entropy T*S    EENTRO =        -0.00000000
  eigenvalues    EBANDS =      -543.67267930
  atomic energy  EATOM  =      1241.89512738
  Solvation  Ediel_sol  =         0.00000000
  ---------------------------------------------------
  free energy    TOTEN  =       -99.60530291 eV

  energy without entropy =      -99.60530291  energy(sigma->0) =      -99.60530291


--------------------------------------------------------------------------------------------------------




--------------------------------------- Iteration      1(  10)  ---------------------------------------


    POTLOK:  cpu time    1.2318: real time    1.2341
    SETDIJ:  cpu time    0.0060: real time    0.0064
     EDDAV:  cpu time    4.1154: real time    4.1129
       DOS:  cpu time    0.0000: real time    0.0004
    CHARGE:  cpu time    0.2300: real time    0.2293
    MIXING:  cpu time    0.0280: real time    0.0285
    --------------------------------------------
      LOOP:  cpu time    5.6111: real time    5.6115

 eigenvalue-minimisations  :   112
 total energy-change (2. order) :-0.5564786E-03  (-0.2613228E-03)
 number of electron      56.0000018 magnetization 
 augmentation part       -4.3192454 magnetization 

 Broyden mixing:
  rms(total) = 0.14332E-01    rms(broyden)= 0.14332E-01
  rms(prec ) = 0.27750E-01
  weight for this iteration     100.00

 eigenvalues of (default mixing * dielectric matrix)
  average eigenvalue GAMMA=   1.9259
  2.8604  2.4764  1.0185  1.6370  1.6370

 Free energy of the ion-electron system (eV)
  ---------------------------------------------------
  alpha Z        PSCENC =         2.51538199
  Ewald energy   TEWEN  =      2629.98113996
  -Hartree energ DENC   =     -3548.31039698
  -exchange      EXHF   =         0.00000000
  -V(xc)+E(xc)   XCENC  =       -39.24527423
  PAW double counting   =      3635.35784778    -3480.17921762
  entropy T*S    EENTRO =        -0.00000000
  eigenvalues    EBANDS =      -541.62046766
  atomic energy  EATOM  =      1241.89512738
  Solvation  Ediel_sol  =         0.00000000
  ---------------------------------------------------
  free energy    TOTEN  =       -99.60585938 eV

  energy without entropy =      -99.60585938  energy(sigma->0) =      -99.60585938


--------------------------------------------------------------------------------------------------------




--------------------------------------- Iteration      1(  11)  ---------------------------------------


    POTLOK:  cpu time    0.9659: real time    0.9645
    SETDIJ:  cpu time    0.0060: real time    0.0062
     EDDAV:  cpu time    3.8784: real time    3.8762
       DOS:  cpu time    0.0000: real time    0.0002
    CHARGE:  cpu time    0.2290: real time    0.2284
    MIXING:  cpu time    0.0300: real time    0.0300
    --------------------------------------------
      LOOP:  cpu time    5.1092: real time    5.1055

 eigenvalue-minimisations  :   104
 total energy-change (2. order) : 0.1646070E-03  (-0.7108220E-03)
 number of electron      56.0000018 magnetization 
 augmentation part       -4.3179032 magnetization 

 Broyden mixing:
  rms(total) = 0.84534E-02    rms(broyden)= 0.84531E-02
  rms(prec ) = 0.14256E-01
  weight for this iteration     100.00

 eigenvalues of (default mixing * dielectric matrix)
  average eigenvalue GAMMA=   1.8751
  3.2832  2.5679  1.7381  1.7381  1.0414  0.8820

 Free energy of the ion-electron system (eV)
  ---------------------------------------------------
  alpha Z        PSCENC =         2.51538199
  Ewald energy   TEWEN  =      2629.98113996
  -Hartree energ DENC   =     -3555.36970909
  -exchange      EXHF   =         0.00000000
  -V(xc)+E(xc)   XCENC  =       -39.04187759
  PAW double counting   =      3596.48916641    -3441.26930195
  entropy T*S    EENTRO =        -0.00000000
  eigenvalues    EBANDS =      -534.80562189
  atomic energy  EATOM  =      1241.89512738
  Solvation  Ediel_sol  =         0.00000000
  ---------------------------------------------------
  free energy    TOTEN  =       -99.60569478 eV

  energy without entropy =      -99.60569478  energy(sigma->0) =      -99.60569478


--------------------------------------------------------------------------------------------------------




--------------------------------------- Iteration      1(  12)  ---------------------------------------


    POTLOK:  cpu time    0.9679: real time    0.9671
    SETDIJ:  cpu time    0.0060: real time    0.0064
     EDDAV:  cpu time    3.8804: real time    3.8787
       DOS:  cpu time    0.0000: real time    0.0002
    CHARGE:  cpu time    0.2290: real time    0.2288
    MIXING:  cpu time    0.0310: real time    0.0309
    --------------------------------------------
      LOOP:  cpu time    5.1142: real time    5.1121

 eigenvalue-minimisations  :   104
 total energy-change (2. order) :-0.4240691E-02  (-0.9841255E-04)
 number of electron      56.0000018 magnetization 
 augmentation part       -4.3171733 magnetization 

 Broyden mixing:
  rms(total) = 0.57049E-02    rms(broyden)= 0.57049E-02
  rms(prec ) = 0.98114E-02
  weight for this iteration     100.00

 eigenvalues of (default mixing * dielectric matrix)
  average eigenvalue GAMMA=   2.0744
  4.5006  2.4830  2.4830  1.5609  1.5609  0.9663  0.9663

 Free energy of the ion-electron system (eV)
  ---------------------------------------------------
  alpha Z        PSCENC =         2.51538199
  Ewald energy   TEWEN  =      2629.98113996
  -Hartree energ DENC   =     -3557.39580730
  -exchange      EXHF   =         0.00000000
  -V(xc)+E(xc)   XCENC  =       -39.00636562
  PAW double counting   =      3594.92255778    -3439.70431439
  entropy T*S    EENTRO =        -0.00000000
  eigenvalues    EBANDS =      -532.81765527
  atomic energy  EATOM  =      1241.89512738
  Solvation  Ediel_sol  =         0.00000000
  ---------------------------------------------------
  free energy    TOTEN  =       -99.60993547 eV

  energy without entropy =      -99.60993547  energy(sigma->0) =      -99.60993547


--------------------------------------------------------------------------------------------------------




--------------------------------------- Iteration      1(  13)  ---------------------------------------


    POTLOK:  cpu time    0.9679: real time    0.9678
    SETDIJ:  cpu time    0.0060: real time    0.0063
     EDDAV:  cpu time    4.1114: real time    4.1100
       DOS:  cpu time    0.0000: real time    0.0002
    CHARGE:  cpu time    0.2290: real time    0.2290
    MIXING:  cpu time    0.0330: real time    0.0324
    --------------------------------------------
      LOOP:  cpu time    5.3472: real time    5.3457

 eigenvalue-minimisations  :   112
 total energy-change (2. order) :-0.5036710E-02  (-0.1705779E-03)
 number of electron      56.0000018 magnetization 
 augmentation part       -4.3169542 magnetization 

 Broyden mixing:
  rms(total) = 0.34338E-02    rms(broyden)= 0.34337E-02
  rms(prec ) = 0.51483E-02
  weight for this iteration     100.00

 eigenvalues of (default mixing * dielectric matrix)
  average eigenvalue GAMMA=   2.1893
  5.6784  2.9283  2.3234  1.7814  1.7814  1.1063  0.9574  0.9574

 Free energy of the ion-electron system (eV)
  ---------------------------------------------------
  alpha Z        PSCENC =         2.51538199
  Ewald energy   TEWEN  =      2629.98113996
  -Hartree energ DENC   =     -3560.10747635
  -exchange      EXHF   =         0.00000000
  -V(xc)+E(xc)   XCENC  =       -38.95680792
  PAW double counting   =      3601.75204759    -3446.54303503
  entropy T*S    EENTRO =        -0.00000000
  eigenvalues    EBANDS =      -530.15134980
  atomic energy  EATOM  =      1241.89512738
  Solvation  Ediel_sol  =         0.00000000
  ---------------------------------------------------
  free energy    TOTEN  =       -99.61497218 eV

  energy without entropy =      -99.61497218  energy(sigma->0) =      -99.61497218


--------------------------------------------------------------------------------------------------------




--------------------------------------- Iteration      1(  14)  ---------------------------------------


    POTLOK:  cpu time    0.9649: real time    0.9641
    SETDIJ:  cpu time    0.0060: real time    0.0064
     EDDAV:  cpu time    4.1284: real time    4.1263
       DOS:  cpu time    0.0010: real time    0.0002
    CHARGE:  cpu time    0.2270: real time    0.2287
    MIXING:  cpu time    0.0350: real time    0.0343
    --------------------------------------------
      LOOP:  cpu time    5.3622: real time    5.3601

 eigenvalue-minimisations  :   112
 total energy-change (2. order) :-0.3546632E-02  (-0.2657286E-04)
 number of electron      56.0000018 magnetization 
 augmentation part       -4.3164948 magnetization 

 Broyden mixing:
  rms(total) = 0.16169E-02    rms(broyden)= 0.16169E-02
  rms(prec ) = 0.28005E-02
  weight for this iteration     100.00

 eigenvalues of (default mixing * dielectric matrix)
  average eigenvalue GAMMA=   2.3078
  6.5763  2.8618  2.8618  2.2374  1.6202  1.6202  1.0773  0.9573  0.9573

 Free energy of the ion-electron system (eV)
  ---------------------------------------------------
  alpha Z        PSCENC =         2.51538199
  Ewald energy   TEWEN  =      2629.98113996
  -Hartree energ DENC   =     -3560.79775508
  -exchange      EXHF   =         0.00000000
  -V(xc)+E(xc)   XCENC  =       -38.96928882
  PAW double counting   =      3600.01190884    -3444.80211012
  entropy T*S    EENTRO =        -0.00000000
  eigenvalues    EBANDS =      -529.45292297
  atomic energy  EATOM  =      1241.89512738
  Solvation  Ediel_sol  =         0.00000000
  ---------------------------------------------------
  free energy    TOTEN  =       -99.61851881 eV

  energy without entropy =      -99.61851881  energy(sigma->0) =      -99.61851881


--------------------------------------------------------------------------------------------------------




--------------------------------------- Iteration      1(  15)  ---------------------------------------


    POTLOK:  cpu time    0.9609: real time    0.9607
    SETDIJ:  cpu time    0.0070: real time    0.0063
     EDDAV:  cpu time    4.1124: real time    4.1104
       DOS:  cpu time    0.0000: real time    0.0002
    CHARGE:  cpu time    0.2290: real time    0.2285
    MIXING:  cpu time    0.0360: real time    0.0364
    --------------------------------------------
      LOOP:  cpu time    5.3452: real time    5.3426

 eigenvalue-minimisations  :   112
 total energy-change (2. order) :-0.4727766E-02  (-0.6090869E-04)
 number of electron      56.0000018 magnetization 
 augmentation part       -4.3162030 magnetization 

 Broyden mixing:
  rms(total) = 0.15474E-02    rms(broyden)= 0.15473E-02
  rms(prec ) = 0.19560E-02
  weight for this iteration     100.00

 eigenvalues of (default mixing * dielectric matrix)
  average eigenvalue GAMMA=   2.3076
  6.7836  3.8137  2.6221  2.0160  1.8792  1.8792  1.2012  0.9304  0.9754  0.9754

 Free energy of the ion-electron system (eV)
  ---------------------------------------------------
  alpha Z        PSCENC =         2.51538199
  Ewald energy   TEWEN  =      2629.98113996
  -Hartree energ DENC   =     -3561.05869847
  -exchange      EXHF   =         0.00000000
  -V(xc)+E(xc)   XCENC  =       -38.97939690
  PAW double counting   =      3603.06738414    -3447.85728230
  entropy T*S    EENTRO =        -0.00000000
  eigenvalues    EBANDS =      -529.18690238
  atomic energy  EATOM  =      1241.89512738
  Solvation  Ediel_sol  =         0.00000000
  ---------------------------------------------------
  free energy    TOTEN  =       -99.62324658 eV

  energy without entropy =      -99.62324658  energy(sigma->0) =      -99.62324658


--------------------------------------------------------------------------------------------------------




--------------------------------------- Iteration      1(  16)  ---------------------------------------


    POTLOK:  cpu time    0.9589: real time    0.9577
    SETDIJ:  cpu time    0.0060: real time    0.0064
     EDDAV:  cpu time    4.1154: real time    4.1127
       DOS:  cpu time    0.0000: real time    0.0003
    CHARGE:  cpu time    0.2280: real time    0.2280
    MIXING:  cpu time    0.0400: real time    0.0396
    --------------------------------------------
      LOOP:  cpu time    5.3482: real time    5.3446

 eigenvalue-minimisations  :   112
 total energy-change (2. order) :-0.9436037E-03  (-0.4852839E-05)
 number of electron      56.0000018 magnetization 
 augmentation part       -4.3163750 magnetization 

 Broyden mixing:
  rms(total) = 0.66524E-03    rms(broyden)= 0.66523E-03
  rms(prec ) = 0.98538E-03
  weight for this iteration     100.00

 eigenvalues of (default mixing * dielectric matrix)
  average eigenvalue GAMMA=   2.4433
  7.4437  4.7419  2.6605  2.6605  1.8507  1.8507  1.3815  1.3815  0.9624  0.9624
  0.9804

 Free energy of the ion-electron system (eV)
  ---------------------------------------------------
  alpha Z        PSCENC =         2.51538199
  Ewald energy   TEWEN  =      2629.98113996
  -Hartree energ DENC   =     -3561.15041898
  -exchange      EXHF   =         0.00000000
  -V(xc)+E(xc)   XCENC  =       -38.97711948
  PAW double counting   =      3603.02440519    -3447.81394252
  entropy T*S    EENTRO =        -0.00000000
  eigenvalues    EBANDS =      -529.09876372
  atomic energy  EATOM  =      1241.89512738
  Solvation  Ediel_sol  =         0.00000000
  ---------------------------------------------------
  free energy    TOTEN  =       -99.62419018 eV

  energy without entropy =      -99.62419018  energy(sigma->0) =      -99.62419018


--------------------------------------------------------------------------------------------------------




--------------------------------------- Iteration      1(  17)  ---------------------------------------


    POTLOK:  cpu time    0.9609: real time    0.9610
    SETDIJ:  cpu time    0.0060: real time    0.0063
     EDDAV:  cpu time    4.1394: real time    4.1365
       DOS:  cpu time    0.0000: real time    0.0002
    CHARGE:  cpu time    0.2290: real time    0.2286
    MIXING:  cpu time    0.0420: real time    0.0426
    --------------------------------------------
      LOOP:  cpu time    5.3772: real time    5.3753

 eigenvalue-minimisations  :   112
 total energy-change (2. order) :-0.1056631E-02  (-0.9495013E-05)
 number of electron      56.0000018 magnetization 
 augmentation part       -4.3166086 magnetization 

 Broyden mixing:
  rms(total) = 0.29803E-03    rms(broyden)= 0.29798E-03
  rms(prec ) = 0.43413E-03
  weight for this iteration     100.00

 eigenvalues of (default mixing * dielectric matrix)
  average eigenvalue GAMMA=   2.4049
  7.5974  5.1059  2.6794  2.6794  1.9545  1.9545  1.4565  1.4565  1.0870  0.9667
  0.9667  0.9547

 Free energy of the ion-electron system (eV)
  ---------------------------------------------------
  alpha Z        PSCENC =         2.51538199
  Ewald energy   TEWEN  =      2629.98113996
  -Hartree energ DENC   =     -3561.17378447
  -exchange      EXHF   =         0.00000000
  -V(xc)+E(xc)   XCENC  =       -38.97827540
  PAW double counting   =      3601.62472146    -3446.41291794
  entropy T*S    EENTRO =        -0.00000000
  eigenvalues    EBANDS =      -529.07663979
  atomic energy  EATOM  =      1241.89512738
  Solvation  Ediel_sol  =         0.00000000
  ---------------------------------------------------
  free energy    TOTEN  =       -99.62524681 eV

  energy without entropy =      -99.62524681  energy(sigma->0) =      -99.62524681


--------------------------------------------------------------------------------------------------------




--------------------------------------- Iteration      1(  18)  ---------------------------------------


    POTLOK:  cpu time    0.9619: real time    0.9606
    SETDIJ:  cpu time    0.0060: real time    0.0062
     EDDAV:  cpu time    3.8874: real time    3.8862
       DOS:  cpu time    0.0000: real time    0.0002
    CHARGE:  cpu time    0.2280: real time    0.2281
    MIXING:  cpu time    0.0500: real time    0.0487
    --------------------------------------------
      LOOP:  cpu time    5.1332: real time    5.1299

 eigenvalue-minimisations  :   104
 total energy-change (2. order) :-0.2266006E-03  (-0.7144077E-06)
 number of electron      56.0000018 magnetization 
 augmentation part       -4.3165955 magnetization 

 Broyden mixing:
  rms(total) = 0.18175E-03    rms(broyden)= 0.18172E-03
  rms(prec ) = 0.26502E-03
  weight for this iteration     100.00

 eigenvalues of (default mixing * dielectric matrix)
  average eigenvalue GAMMA=   2.5006
  8.1972  5.7840  3.2212  2.6133  2.4089  1.8137  1.8137  1.3891  1.3891  0.9935
  0.9935  0.9455  0.9455

 Free energy of the ion-electron system (eV)
  ---------------------------------------------------
  alpha Z        PSCENC =         2.51538199
  Ewald energy   TEWEN  =      2629.98113996
  -Hartree energ DENC   =     -3561.19259782
  -exchange      EXHF   =         0.00000000
  -V(xc)+E(xc)   XCENC  =       -38.97873598
  PAW double counting   =      3601.60256381    -3446.39125490
  entropy T*S    EENTRO =        -0.00000000
  eigenvalues    EBANDS =      -529.05709785
  atomic energy  EATOM  =      1241.89512738
  Solvation  Ediel_sol  =         0.00000000
  ---------------------------------------------------
  free energy    TOTEN  =       -99.62547341 eV

  energy without entropy =      -99.62547341  energy(sigma->0) =      -99.62547341


--------------------------------------------------------------------------------------------------------




--------------------------------------- Iteration      1(  19)  ---------------------------------------


    POTLOK:  cpu time    0.9659: real time    0.9657
    SETDIJ:  cpu time    0.0060: real time    0.0062
     EDDAV:  cpu time    3.8874: real time    3.8863
       DOS:  cpu time    0.0010: real time    0.0002
    CHARGE:  cpu time    0.2270: real time    0.2279
    MIXING:  cpu time    0.0540: real time    0.0536
    --------------------------------------------
      LOOP:  cpu time    5.1412: real time    5.1398

 eigenvalue-minimisations  :   104
 total energy-change (2. order) :-0.1710854E-03  (-0.6482754E-06)
 number of electron      56.0000018 magnetization 
 augmentation part       -4.3166102 magnetization 

 Broyden mixing:
  rms(total) = 0.15668E-03    rms(broyden)= 0.15668E-03
  rms(prec ) = 0.19254E-03
  weight for this iteration     100.00

 eigenvalues of (default mixing * dielectric matrix)
  average eigenvalue GAMMA=   2.4806
  8.3324  6.1016  3.3623  2.6714  2.0615  2.0615  1.7710  1.7710  1.3822  1.3822
  0.9892  0.9892  0.9267  0.9267

 Free energy of the ion-electron system (eV)
  ---------------------------------------------------
  alpha Z        PSCENC =         2.51538199
  Ewald energy   TEWEN  =      2629.98113996
  -Hartree energ DENC   =     -3561.21235590
  -exchange      EXHF   =         0.00000000
  -V(xc)+E(xc)   XCENC  =       -38.97767230
  PAW double counting   =      3601.42996809    -3446.21898688
  entropy T*S    EENTRO =        -0.00000000
  eigenvalues    EBANDS =      -529.03824684
  atomic energy  EATOM  =      1241.89512738
  Solvation  Ediel_sol  =         0.00000000
  ---------------------------------------------------
  free energy    TOTEN  =       -99.62564450 eV

  energy without entropy =      -99.62564450  energy(sigma->0) =      -99.62564450


--------------------------------------------------------------------------------------------------------




--------------------------------------- Iteration      1(  20)  ---------------------------------------


    POTLOK:  cpu time    0.9669: real time    0.9656
    SETDIJ:  cpu time    0.0060: real time    0.0065
     EDDAV:  cpu time    3.4385: real time    3.4370
       DOS:  cpu time    0.0000: real time    0.0002
    CHARGE:  cpu time    0.2300: real time    0.2287
    MIXING:  cpu time    0.0610: real time    0.0610
    --------------------------------------------
      LOOP:  cpu time    4.7023: real time    4.6991

 eigenvalue-minimisations  :    88
 total energy-change (2. order) :-0.4064057E-04  (-0.6495435E-07)
 number of electron      56.0000018 magnetization 
 augmentation part       -4.3165890 magnetization 

 Broyden mixing:
  rms(total) = 0.55619E-04    rms(broyden)= 0.55619E-04
  rms(prec ) = 0.81210E-04
  weight for this iteration     100.00

 eigenvalues of (default mixing * dielectric matrix)
  average eigenvalue GAMMA=   2.5355
  8.6229  6.4452  4.0820  2.9452  2.5190  1.9459  1.8551  1.8551  1.3938  1.3938
  1.1384  0.9827  0.9827  0.9805  0.8907

 Free energy of the ion-electron system (eV)
  ---------------------------------------------------
  alpha Z        PSCENC =         2.51538199
  Ewald energy   TEWEN  =      2629.98113996
  -Hartree energ DENC   =     -3561.21619960
  -exchange      EXHF   =         0.00000000
  -V(xc)+E(xc)   XCENC  =       -38.97852039
  PAW double counting   =      3601.34724943    -3446.13619308
  entropy T*S    EENTRO =        -0.00000000
  eigenvalues    EBANDS =      -529.03367083
  atomic energy  EATOM  =      1241.89512738
  Solvation  Ediel_sol  =         0.00000000
  ---------------------------------------------------
  free energy    TOTEN  =       -99.62568514 eV

  energy without entropy =      -99.62568514  energy(sigma->0) =      -99.62568514


--------------------------------------------------------------------------------------------------------




--------------------------------------- Iteration      1(  21)  ---------------------------------------


    POTLOK:  cpu time    0.9579: real time    0.9574
    SETDIJ:  cpu time    0.0060: real time    0.0062
     EDDAV:  cpu time    3.2005: real time    3.1992
       DOS:  cpu time    0.0000: real time    0.0003
    CHARGE:  cpu time    0.2290: real time    0.2291
    MIXING:  cpu time    0.0670: real time    0.0668
    --------------------------------------------
      LOOP:  cpu time    4.4603: real time    4.4591

 eigenvalue-minimisations  :    80
 total energy-change (2. order) :-0.2736480E-04  (-0.8855269E-07)
 number of electron      56.0000018 magnetization 
 augmentation part       -4.3165730 magnetization 

 Broyden mixing:
  rms(total) = 0.52352E-04    rms(broyden)= 0.52349E-04
  rms(prec ) = 0.65632E-04
  weight for this iteration     100.00

 eigenvalues of (default mixing * dielectric matrix)
  average eigenvalue GAMMA=   2.5028
  8.5648  6.6665  4.1800  2.9368  2.6216  1.9866  1.9866  1.7535  1.6347  1.6347
  1.2082  1.0096  1.0096  0.9824  0.9349  0.9349

 Free energy of the ion-electron system (eV)
  ---------------------------------------------------
  alpha Z        PSCENC =         2.51538199
  Ewald energy   TEWEN  =      2629.98113996
  -Hartree energ DENC   =     -3561.22112847
  -exchange      EXHF   =         0.00000000
  -V(xc)+E(xc)   XCENC  =       -38.97861235
  PAW double counting   =      3601.46261621    -3446.25163557
  entropy T*S    EENTRO =        -0.00000000
  eigenvalues    EBANDS =      -529.02860165
  atomic energy  EATOM  =      1241.89512738
  Solvation  Ediel_sol  =         0.00000000
  ---------------------------------------------------
  free energy    TOTEN  =       -99.62571250 eV

  energy without entropy =      -99.62571250  energy(sigma->0) =      -99.62571250


--------------------------------------------------------------------------------------------------------




--------------------------------------- Iteration      1(  22)  ---------------------------------------


    POTLOK:  cpu time    1.3358: real time    1.3371
    SETDIJ:  cpu time    0.0060: real time    0.0062
     EDDAV:  cpu time    3.4325: real time    3.4294
       DOS:  cpu time    0.0000: real time    0.0002
    CHARGE:  cpu time    0.2300: real time    0.2297
    MIXING:  cpu time    0.0730: real time    0.0737
    --------------------------------------------
      LOOP:  cpu time    5.0782: real time    5.0763

 eigenvalue-minimisations  :    88
 total energy-change (2. order) :-0.6777462E-05  (-0.1584177E-07)
 number of electron      56.0000018 magnetization 
 augmentation part       -4.3165848 magnetization 

 Broyden mixing:
  rms(total) = 0.19270E-04    rms(broyden)= 0.19270E-04
  rms(prec ) = 0.26689E-04
  weight for this iteration     100.00

 eigenvalues of (default mixing * dielectric matrix)
  average eigenvalue GAMMA=   2.5359
  8.8120  6.7727  4.7344  3.2286  2.5830  2.5830  1.9063  1.9063  1.6521  1.6521
  1.2143  1.2143  1.0274  0.9756  0.9756  0.9361  0.9361

 Free energy of the ion-electron system (eV)
  ---------------------------------------------------
  alpha Z        PSCENC =         2.51538199
  Ewald energy   TEWEN  =      2629.98113996
  -Hartree energ DENC   =     -3561.22097605
  -exchange      EXHF   =         0.00000000
  -V(xc)+E(xc)   XCENC  =       -38.97838100
  PAW double counting   =      3601.50823877    -3446.29718490
  entropy T*S    EENTRO =        -0.00000000
  eigenvalues    EBANDS =      -529.02906544
  atomic energy  EATOM  =      1241.89512738
  Solvation  Ediel_sol  =         0.00000000
  ---------------------------------------------------
  free energy    TOTEN  =       -99.62571928 eV

  energy without entropy =      -99.62571928  energy(sigma->0) =      -99.62571928


--------------------------------------------------------------------------------------------------------




--------------------------------------- Iteration      1(  23)  ---------------------------------------


    POTLOK:  cpu time    0.9589: real time    0.9577
    SETDIJ:  cpu time    0.0060: real time    0.0062
     EDDAV:  cpu time    3.2215: real time    3.2195
       DOS:  cpu time    0.0000: real time    0.0002
    CHARGE:  cpu time    0.2290: real time    0.2286
    MIXING:  cpu time    0.0800: real time    0.0807
    --------------------------------------------
      LOOP:  cpu time    4.4953: real time    4.4930

 eigenvalue-minimisations  :    80
 total energy-change (2. order) :-0.4020193E-05  (-0.1078374E-07)
 number of electron      56.0000018 magnetization 
 augmentation part       -4.3165942 magnetization 

 Broyden mixing:
  rms(total) = 0.15817E-04    rms(broyden)= 0.15816E-04
  rms(prec ) = 0.20191E-04
  weight for this iteration     100.00

 eigenvalues of (default mixing * dielectric matrix)
  average eigenvalue GAMMA=   2.5233
  8.8666  6.8385  4.8540  3.0173  2.7747  2.7747  2.0429  2.0429  1.6913  1.6913
  1.5625  1.1881  1.0775  1.0775  0.9438  0.9438  1.0165  1.0165

 Free energy of the ion-electron system (eV)
  ---------------------------------------------------
  alpha Z        PSCENC =         2.51538199
  Ewald energy   TEWEN  =      2629.98113996
  -Hartree energ DENC   =     -3561.22045687
  -exchange      EXHF   =         0.00000000
  -V(xc)+E(xc)   XCENC  =       -38.97846777
  PAW double counting   =      3601.47126376    -3446.26016983
  entropy T*S    EENTRO =        -0.00000000
  eigenvalues    EBANDS =      -529.02954193
  atomic energy  EATOM  =      1241.89512738
  Solvation  Ediel_sol  =         0.00000000
  ---------------------------------------------------
  free energy    TOTEN  =       -99.62572330 eV

  energy without entropy =      -99.62572330  energy(sigma->0) =      -99.62572330


--------------------------------------------------------------------------------------------------------




--------------------------------------- Iteration      1(  24)  ---------------------------------------


    POTLOK:  cpu time    0.9649: real time    0.9646
    SETDIJ:  cpu time    0.0060: real time    0.0062
     EDDAV:  cpu time    3.4335: real time    3.4311
       DOS:  cpu time    0.0010: real time    0.0003
    CHARGE:  cpu time    0.2350: real time    0.2353
    MIXING:  cpu time    0.0870: real time    0.0867
    --------------------------------------------
      LOOP:  cpu time    4.7263: real time    4.7242

 eigenvalue-minimisations  :    88
 total energy-change (2. order) :-0.1979891E-05  (-0.3016348E-08)
 number of electron      56.0000018 magnetization 
 augmentation part       -4.3165908 magnetization 

 Broyden mixing:
  rms(total) = 0.75847E-05    rms(broyden)= 0.75846E-05
  rms(prec ) = 0.92718E-05
  weight for this iteration     100.00

 eigenvalues of (default mixing * dielectric matrix)
  average eigenvalue GAMMA=   2.5628
  8.8455  7.1629  5.5010  3.9313  2.9558  2.4949  2.3283  1.9119  1.9119  1.6562
  1.6562  1.1855  1.1855  1.1679  0.9878  0.9878  0.9454  0.9454  0.9319

 Free energy of the ion-electron system (eV)
  ---------------------------------------------------
  alpha Z        PSCENC =         2.51538199
  Ewald energy   TEWEN  =      2629.98113996
  -Hartree energ DENC   =     -3561.22126414
  -exchange      EXHF   =         0.00000000
  -V(xc)+E(xc)   XCENC  =       -38.97851167
  PAW double counting   =      3601.43280685    -3446.22174500
  entropy T*S    EENTRO =        -0.00000000
  eigenvalues    EBANDS =      -529.02866066
  atomic energy  EATOM  =      1241.89512738
  Solvation  Ediel_sol  =         0.00000000
  ---------------------------------------------------
  free energy    TOTEN  =       -99.62572528 eV

  energy without entropy =      -99.62572528  energy(sigma->0) =      -99.62572528


--------------------------------------------------------------------------------------------------------




--------------------------------------- Iteration      1(  25)  ---------------------------------------


    POTLOK:  cpu time    0.9699: real time    0.9700
    SETDIJ:  cpu time    0.0060: real time    0.0063
     EDDAV:  cpu time    3.4355: real time    3.4344
       DOS:  cpu time    0.0000: real time    0.0002
    --------------------------------------------
      LOOP:  cpu time    4.4113: real time    4.4108

 eigenvalue-minimisations  :    88
 total energy-change (2. order) :-0.5708839E-06  (-0.1126542E-08)
 number of electron      56.0000018 magnetization 
 augmentation part       -4.3165908 magnetization 

 Free energy of the ion-electron system (eV)
  ---------------------------------------------------
  alpha Z        PSCENC =         2.51538199
  Ewald energy   TEWEN  =      2629.98113996
  -Hartree energ DENC   =     -3561.22178267
  -exchange      EXHF   =         0.00000000
  -V(xc)+E(xc)   XCENC  =       -38.97848085
  PAW double counting   =      3601.44361919    -3446.23256489
  entropy T*S    EENTRO =        -0.00000000
  eigenvalues    EBANDS =      -529.02816597
  atomic energy  EATOM  =      1241.89512738
  Solvation  Ediel_sol  =         0.00000000
  ---------------------------------------------------
  free energy    TOTEN  =       -99.62572585 eV

  energy without entropy =      -99.62572585  energy(sigma->0) =      -99.62572585


--------------------------------------------------------------------------------------------------------




 average (electrostatic) potential at core
  the test charge radii are     0.9892  1.1631  0.5201
  (the norm of the test charge is              1.0000)
       1 -93.4345       2 -93.4096       3 -93.4345       4 -93.4741       5 -40.3862
       6 -40.4271       7 -40.4665       8 -40.4212       9 -40.3862      10 -40.4270
      11 -41.0637      12 -41.0681      13 -40.6754      14 -41.0545      15 -41.0541
      16 -41.0685      17 -41.0648      18 -40.6866      19 -41.0428      20 -41.0593
      21 -41.0541      22 -40.6866      23 -40.6989      24 -40.6985      25 -41.0539
      26 -41.0594
 
 
 
 E-fermi :  -5.3697     XC(G=0):  -0.6104     alpha+bet : -0.3306


 k-point     1 :       0.0000    0.0000    0.0000
  band No.  band energies     occupation 
      1     -15.3672      2.00000
      2     -14.4333      2.00000
      3     -14.2538      2.00000
      4     -14.0610      2.00000
      5     -13.4071      2.00000
      6     -13.0331      2.00000
      7     -11.8213      2.00000
      8     -11.4674      2.00000
      9     -11.3868      2.00000
     10     -10.4676      2.00000
     11      -8.9605      2.00000
     12      -8.6364      2.00000
     13      -8.6340      2.00000
     14      -8.6244      2.00000
     15      -8.1745      2.00000
     16      -8.1665      2.00000
     17      -8.1602      2.00000
     18      -7.8574      2.00000
     19      -7.8500      2.00000
     20      -7.8449      2.00000
     21      -6.7694      2.00000
     22      -6.7552      2.00000
     23      -6.4663      2.00000
     24      -6.4438      2.00000
     25      -6.4375      2.00000
     26      -6.3485      2.00000
     27      -6.3453      2.00000
     28      -6.3408      2.00000
     29      -1.7055      0.00000
     30      -1.3351      0.00000
     31      -1.1713      0.00000
     32      -1.1540      0.00000
     33      -1.1151      0.00000
     34      -1.1043      0.00000
     35      -1.0548      0.00000
     36      -1.0280      0.00000
     37      -0.9273      0.00000
     38      -0.6475      0.00000
     39      -0.3515      0.00000
     40      -0.2879      0.00000
     41      -0.2104      0.00000
     42      -0.1200      0.00000


--------------------------------------------------------------------------------------------------------


 soft charge-density along one line, spin component           1
         0         1         2         3         4         5         6         7         8         9
 total charge-density along one line
 
 pseudopotential strength for first ion, spin component:           1
 19.618  27.378  -0.001   0.003   0.003  -0.001   0.006   0.005
 27.378  38.211  -0.001   0.004   0.004  -0.002   0.008   0.007
 -0.001  -0.001   4.360   0.000  -0.000   8.133   0.000  -0.000
  0.003   0.004   0.000   4.359   0.000   0.000   8.132   0.000
  0.003   0.004  -0.000   0.000   4.359  -0.000   0.000   8.132
 -0.001  -0.002   8.133   0.000  -0.000  15.182   0.001  -0.000
  0.006   0.008   0.000   8.132   0.000   0.001  15.179   0.001
  0.005   0.007  -0.000   0.000   8.132  -0.000   0.001  15.180
 total augmentation occupancy for first ion, spin component:           1
  5.530  -2.024   0.071  -0.343  -0.068  -0.022   0.102   0.021
 -2.024   0.807  -0.043   0.207   0.037   0.010  -0.045  -0.007
  0.071  -0.043   2.797  -0.106  -0.006  -0.603   0.037   0.003
 -0.343   0.207  -0.106   3.279   0.048   0.037  -0.772  -0.019
 -0.068   0.037  -0.006   0.048   2.820   0.003  -0.019  -0.607
 -0.022   0.010  -0.603   0.037   0.003   0.137  -0.010  -0.001
  0.102  -0.045   0.037  -0.772  -0.019  -0.010   0.185   0.006
  0.021  -0.007   0.003  -0.019  -0.607  -0.001   0.006   0.137


------------------------ aborting loop because EDIFF is reached ----------------------------------------


    CHARGE:  cpu time    0.2290: real time    0.2290
    FORLOC:  cpu time    0.1270: real time    0.1270
    FORNL :  cpu time    0.8269: real time    0.8261
    STRESS:  cpu time    2.7836: real time    2.7875
    FORCOR:  cpu time    0.9988: real time    0.9998
    FORHAR:  cpu time    0.3519: real time    0.3509
    MIXING:  cpu time    0.0930: real time    0.0931
    OFIELD:  cpu time    0.0000: real time    0.0000

  FORCE on cell =-STRESS in cart. coord.  units (eV):
  Direction    XX          YY          ZZ          XY          YZ          ZX
  --------------------------------------------------------------------------------------
  Alpha Z     2.51538     2.51538     2.51538
  Ewald     876.64706   876.62235   876.71007    -0.21850     0.02563    -0.50464
  Hartree  1187.55044  1186.53429  1187.13678    -0.44871    -0.20691    -0.31176
  E(xc)    -180.22414  -180.18211  -180.25206    -0.04804    -0.00895     0.00266
  Local   -2547.38988 -2546.34928 -2547.06299     0.62526     0.16334     0.81805
  n-local   239.49749   239.35776   239.68503     0.28692     0.07533    -0.02736
  augment   -13.89425   -13.90315   -13.89075    -0.00497    -0.00652    -0.00465
  Kinetic   434.81350   434.84137   434.69587    -0.14265    -0.03923     0.03100
  Fock        0.00000     0.00000     0.00000     0.00000     0.00000     0.00000
  -------------------------------------------------------------------------------------
  Total      -0.48440    -0.56338    -0.46268     0.04931     0.00270     0.00330
  in kB      -0.09701    -0.11283    -0.09266     0.00988     0.00054     0.00066
  external pressure =       -0.10 kB  Pullay stress =        0.00 kB


 VOLUME and BASIS-vectors are now :
 -----------------------------------------------------------------------------
  energy-cutoff  :      400.00
[...]

--------------------------------------- Iteration     21(   1)  ---------------------------------------


    POTLOK:  cpu time    0.9649: real time    0.9688
    SETDIJ:  cpu time    0.0070: real time    0.0062
     EDDAV:  cpu time    3.2875: real time    3.2918
       DOS:  cpu time    0.0010: real time    0.0002
    CHARGE:  cpu time    0.2410: real time    0.2416
    MIXING:  cpu time    0.0240: real time    0.0241
    --------------------------------------------
      LOOP:  cpu time    4.5253: real time    4.5326

 eigenvalue-minimisations  :    84
 total energy-change (2. order) :-0.8402187E-04  (-0.2899903E-03)
 number of electron      55.9999986 magnetization 
 augmentation part       -4.3065211 magnetization 

 Broyden mixing:
  rms(total) = 0.16681E-02    rms(broyden)= 0.16677E-02
  rms(prec ) = 0.17589E-02
  weight for this iteration     100.00

 Free energy of the ion-electron system (eV)
  ---------------------------------------------------
  alpha Z        PSCENC =         2.51538199
  Ewald energy   TEWEN  =      2602.01078091
  -Hartree energ DENC   =     -3533.56925985
  -exchange      EXHF   =         0.00000000
  -V(xc)+E(xc)   XCENC  =       -38.91393572
  PAW double counting   =      3652.84126952    -3497.61052481
  entropy T*S    EENTRO =        -0.00000000
  eigenvalues    EBANDS =      -528.98345302
  atomic energy  EATOM  =      1241.89512738
  Solvation  Ediel_sol  =         0.00000000
  ---------------------------------------------------
  free energy    TOTEN  =       -99.81461360 eV

  energy without entropy =      -99.81461360  energy(sigma->0) =      -99.81461360


--------------------------------------------------------------------------------------------------------




--------------------------------------- Iteration     21(   2)  ---------------------------------------


    POTLOK:  cpu time    0.9649: real time    0.9666
    SETDIJ:  cpu time    0.0060: real time    0.0065
     EDDAV:  cpu time    4.3303: real time    4.3380
       DOS:  cpu time    0.0010: real time    0.0004
    CHARGE:  cpu time    0.2300: real time    0.2301
    MIXING:  cpu time    0.0250: real time    0.0247
    --------------------------------------------
      LOOP:  cpu time    5.5572: real time    5.5663

 eigenvalue-minimisations  :   120
 total energy-change (2. order) :-0.6860568E-05  (-0.9070576E-05)
 number of electron      55.9999986 magnetization 
 augmentation part       -4.3066444 magnetization 

 Broyden mixing:
  rms(total) = 0.10006E-02    rms(broyden)= 0.10003E-02
  rms(prec ) = 0.10699E-02
  weight for this iteration     100.00

 eigenvalues of (default mixing * dielectric matrix)
  average eigenvalue GAMMA=   1.1719
  1.1719

 Free energy of the ion-electron system (eV)
  ---------------------------------------------------
  alpha Z        PSCENC =         2.51538199
  Ewald energy   TEWEN  =      2602.01078091
  -Hartree energ DENC   =     -3533.57768225
  -exchange      EXHF   =         0.00000000
  -V(xc)+E(xc)   XCENC  =       -38.91365371
  PAW double counting   =      3653.72821243    -3498.49786589
  entropy T*S    EENTRO =        -0.00000000
  eigenvalues    EBANDS =      -528.97492131
  atomic energy  EATOM  =      1241.89512738
  Solvation  Ediel_sol  =         0.00000000
  ---------------------------------------------------
  free energy    TOTEN  =       -99.81462046 eV

  energy without entropy =      -99.81462046  energy(sigma->0) =      -99.81462046


--------------------------------------------------------------------------------------------------------




--------------------------------------- Iteration     21(   3)  ---------------------------------------


    POTLOK:  cpu time    0.9629: real time    0.9655
    SETDIJ:  cpu time    0.0060: real time    0.0062
     EDDAV:  cpu time    4.1194: real time    4.1244
       DOS:  cpu time    0.0000: real time    0.0004
    --------------------------------------------
      LOOP:  cpu time    5.0882: real time    5.0964

 eigenvalue-minimisations  :   112
 total energy-change (2. order) : 0.1741423E-06  (-0.3273277E-06)
 number of electron      55.9999986 magnetization 
 augmentation part       -4.3066444 magnetization 

 Free energy of the ion-electron system (eV)
  ---------------------------------------------------
  alpha Z        PSCENC =         2.51538199
  Ewald energy   TEWEN  =      2602.01078091
  -Hartree energ DENC   =     -3533.58273075
  -exchange      EXHF   =         0.00000000
  -V(xc)+E(xc)   XCENC  =       -38.91403229
  PAW double counting   =      3653.95834962    -3498.72837087
  entropy T*S    EENTRO =        -0.00000000
  eigenvalues    EBANDS =      -528.96912627
  atomic energy  EATOM  =      1241.89512738
  Solvation  Ediel_sol  =         0.00000000
  ---------------------------------------------------
  free energy    TOTEN  =       -99.81462028 eV

  energy without entropy =      -99.81462028  energy(sigma->0) =      -99.81462028


--------------------------------------------------------------------------------------------------------




 average (electrostatic) potential at core
  the test charge radii are     0.9892  1.1631  0.5201
  (the norm of the test charge is              1.0000)
       1 -93.4225       2 -93.2874       3 -93.4225       4 -93.5005       5 -40.3940
       6 -40.4391       7 -40.5181       8 -40.4394       9 -40.3939      10 -40.4392
      11 -40.9897      12 -40.9916      13 -40.9184      14 -40.9858      15 -40.9859
      16 -40.9917      17 -40.9900      18 -40.9035      19 -41.0218      20 -40.9905
      21 -40.9898      22 -40.9034      23 -40.8526      24 -40.8552      25 -40.9904
      26 -40.9905
 
 
 
 E-fermi :  -5.3617     XC(G=0):  -0.6099     alpha+bet : -0.3306


 k-point     1 :       0.0000    0.0000    0.0000
  band No.  band energies     occupation 
      1     -15.2201      2.00000
      2     -14.3259      2.00000
      3     -14.2109      2.00000
      4     -14.0795      2.00000
      5     -13.3389      2.00000
      6     -13.1143      2.00000
      7     -11.8501      2.00000
      8     -11.5827      2.00000
      9     -11.4931      2.00000
     10     -10.5861      2.00000
     11      -9.0171      2.00000
     12      -8.6478      2.00000
     13      -8.5350      2.00000
     14      -8.5109      2.00000
     15      -8.1447      2.00000
     16      -8.0770      2.00000
     17      -8.0409      2.00000
     18      -7.9482      2.00000
     19      -7.9030      2.00000
     20      -7.8310      2.00000
     21      -6.8329      2.00000
     22      -6.7816      2.00000
     23      -6.5475      2.00000
     24      -6.4359      2.00000
     25      -6.4300      2.00000
     26      -6.3865      2.00000
     27      -6.3112      2.00000
     28      -6.3017      2.00000
     29      -1.6521      0.00000
     30      -1.4042      0.00000
     31      -1.3500      0.00000
     32      -1.2560      0.00000
     33      -1.1902      0.00000
     34      -1.1660      0.00000
     35      -1.0732      0.00000
     36      -1.0726      0.00000
     37      -0.9627      0.00000
     38      -0.5818      0.00000
     39      -0.3274      0.00000
     40      -0.2348      0.00000
     41      -0.1999      0.00000
     42      -0.0937      0.00000


--------------------------------------------------------------------------------------------------------


 soft charge-density along one line, spin component           1
         0         1         2         3         4         5         6         7         8         9
 total charge-density along one line
 
 pseudopotential strength for first ion, spin component:           1
 19.622  27.382  -0.001   0.003   0.003  -0.001   0.006   0.005
 27.382  38.218  -0.001   0.004   0.004  -0.001   0.008   0.007
 -0.001  -0.001   4.362   0.000  -0.000   8.136   0.000  -0.000
  0.003   0.004   0.000   4.362   0.000   0.000   8.136   0.000
  0.003   0.004  -0.000   0.000   4.361  -0.000   0.000   8.136
 -0.001  -0.001   8.136   0.000  -0.000  15.188   0.000  -0.000
  0.006   0.008   0.000   8.136   0.000   0.000  15.187   0.001
  0.005   0.007  -0.000   0.000   8.136  -0.000   0.001  15.186
 total augmentation occupancy for first ion, spin component:           1
  5.747  -2.140   0.087  -0.483  -0.183  -0.027   0.150   0.059
 -2.140   0.861  -0.050   0.276   0.090   0.012  -0.067  -0.024
  0.087  -0.050   2.773  -0.149   0.007  -0.599   0.048  -0.001
 -0.483   0.276  -0.149   3.497   0.031   0.048  -0.835  -0.015
 -0.183   0.090   0.007   0.031   2.904  -0.001  -0.015  -0.632
 -0.027   0.012  -0.599   0.048  -0.001   0.136  -0.013   0.000
  0.150  -0.067   0.048  -0.835  -0.015  -0.013   0.203   0.005
  0.059  -0.024  -0.001  -0.015  -0.632   0.000   0.005   0.144


------------------------ aborting loop because EDIFF is reached ----------------------------------------


    CHARGE:  cpu time    0.2290: real time    0.2290
    FORLOC:  cpu time    0.1260: real time    0.1269
    FORNL :  cpu time    0.8279: real time    0.8282
    STRESS:  cpu time    2.7626: real time    2.7674
    FORCOR:  cpu time    0.9978: real time    0.9998
    FORHAR:  cpu time    0.3509: real time    0.3513
    MIXING:  cpu time    0.0250: real time    0.0247
    OFIELD:  cpu time    0.0000: real time    0.0000

  FORCE on cell =-STRESS in cart. coord.  units (eV):
  Direction    XX          YY          ZZ          XY          YZ          ZX
  --------------------------------------------------------------------------------------
  Alpha Z     2.51538     2.51538     2.51538
  Ewald     870.35347   865.21183   866.44383    -2.09112    -1.34275     0.89124
  Hartree  1180.68526  1176.31331  1176.59430    -2.64751    -1.40379     0.88911
  E(xc)    -180.11335  -180.10491  -180.14987    -0.05318    -0.01801     0.00585
  Local   -2534.10824 -2524.17289 -2526.12541     4.82140     2.92094    -1.70461
  n-local   238.59865   238.40214   238.90531     0.22692    -0.02545    -0.16002
  augment   -14.05472   -14.01930   -14.05729     0.01894     0.02238     0.01277
  Kinetic   435.21545   434.81161   434.97157    -0.30359    -0.20995     0.04206
  Fock        0.00000     0.00000     0.00000     0.00000     0.00000     0.00000
  -------------------------------------------------------------------------------------
  Total      -0.90809    -1.04282    -0.90218    -0.02815    -0.05663    -0.02359
  in kB      -0.18187    -0.20885    -0.18068    -0.00564    -0.01134    -0.00472
  external pressure =       -0.19 kB  Pullay stress =        0.00 kB


 VOLUME and BASIS-vectors are now :
 -----------------------------------------------------------------------------
  energy-cutoff  :      400.00
  volume of cell :     8000.00
      direct lattice vectors                 reciprocal lattice vectors
    20.000000000  0.000000000  0.000000000     0.050000000  0.000000000  0.000000000
     0.000000000 20.000000000  0.000000000     0.000000000  0.050000000  0.000000000
     0.000000000  0.000000000 20.000000000     0.000000000  0.000000000  0.050000000

  length of vectors
    20.000000000 20.000000000 20.000000000     0.050000000  0.050000000  0.050000000


 FORCES acting on ions
    electron-ion (+dipol)            ewald-force                    non-local-force                 convergence-correction
 -----------------------------------------------------------------------------------------------
   0.936E+01 -.187E+02 0.871E+02   -.104E+02 0.190E+02 -.887E+02   0.106E+01 -.267E+00 0.151E+01   0.188E-03 0.232E-03 -.906E-03
   0.871E+02 -.560E+01 0.460E+02   -.886E+02 0.567E+01 -.468E+02   0.152E+01 -.644E-01 0.809E+00   -.908E-03 -.189E-03 -.527E-03
   0.787E+02 0.131E+02 -.410E+02   -.805E+02 -.132E+02 0.410E+02   0.186E+01 0.991E-01 0.347E-01   -.634E-03 -.127E-03 0.696E-03
   -.504E+02 0.737E+02 -.904E+01   0.514E+02 -.752E+02 0.919E+01   -.973E+00 0.154E+01 -.144E+00   -.392E-03 -.742E-03 -.409E-03
   -.375E+02 0.537E+02 0.758E+02   0.378E+02 -.541E+02 -.763E+02   -.271E+00 0.405E+00 0.530E+00   0.432E-03 -.705E-03 -.267E-03
   -.298E+02 -.838E+02 0.441E+02   0.299E+02 0.844E+02 -.448E+02   -.153E+00 -.628E+00 0.639E+00   0.411E-03 0.652E-03 0.902E-03
   -.434E+02 -.703E+02 -.409E+02   0.437E+02 0.708E+02 0.412E+02   -.307E+00 -.560E+00 -.305E+00   -.447E-03 0.771E-03 -.524E-04
   -.869E+02 0.353E+01 -.464E+02   0.877E+02 -.386E+01 0.467E+02   -.790E+00 0.338E+00 -.344E+00   -.235E-03 0.821E-03 0.613E-04
   0.288E+02 0.838E+02 -.465E+02   -.290E+02 -.844E+02 0.468E+02   0.190E+00 0.616E+00 -.322E+00   0.177E-03 -.818E-03 0.257E-03
   0.351E+02 -.544E+02 -.753E+02   -.356E+02 0.547E+02 0.760E+02   0.548E+00 -.308E+00 -.656E+00   0.826E-03 0.835E-03 0.136E-03
   0.202E+02 0.398E+02 0.556E+01   -.214E+02 -.418E+02 -.661E+01   0.117E+01 0.196E+01 0.105E+01   -.195E-03 -.684E-03 0.142E-03
   0.150E+01 0.216E+02 -.395E+02   -.122E+01 -.221E+02 0.419E+02   -.274E+00 0.541E+00 -.244E+01   0.718E-04 -.466E-03 0.155E-03
   -.266E+02 0.402E+02 -.440E+01   0.281E+02 -.426E+02 0.466E+01   -.159E+01 0.244E+01 -.257E+00   0.101E-03 -.513E-03 -.814E-04
   -.439E+02 -.370E+01 0.532E+01   0.462E+02 0.406E+01 -.636E+01   -.226E+01 -.361E+00 0.104E+01   -.154E-03 0.311E-03 -.974E-04
   -.200E+02 0.735E+01 -.392E+02   0.204E+02 -.785E+01 0.416E+02   -.376E+00 0.498E+00 -.243E+01   -.218E-03 0.277E-03 0.203E-04
   -.350E+02 0.497E+01 0.279E+02   0.372E+02 -.462E+01 -.290E+02   -.221E+01 -.344E+00 0.114E+01   0.242E-03 -.396E-03 -.187E-03
   0.796E+01 0.344E+02 0.280E+02   -.907E+01 -.363E+02 -.292E+02   0.111E+01 0.193E+01 0.115E+01   0.114E-03 -.532E-03 -.464E-03
   0.673E+01 -.943E+01 0.471E+02   -.714E+01 0.997E+01 -.499E+02   0.408E+00 -.548E+00 0.283E+01   0.377E-03 0.797E-04 0.190E-03
   -.215E+02 -.353E+02 -.204E+02   0.227E+02 0.372E+02 0.215E+02   -.115E+01 -.189E+01 -.109E+01   -.754E-04 0.460E-03 0.682E-04
   0.277E+01 -.304E+01 -.444E+02   -.249E+01 0.254E+01 0.468E+02   -.286E+00 0.496E+00 -.245E+01   0.412E-03 0.234E-03 0.146E-03
   0.242E+02 -.361E+02 -.109E+02   -.256E+02 0.382E+02 0.107E+02   0.139E+01 -.209E+01 0.179E+00   0.517E-04 0.496E-03 -.818E-05
   0.433E+02 0.745E+01 -.207E+02   -.459E+02 -.791E+01 0.219E+02   0.261E+01 0.457E+00 -.123E+01   0.355E-03 0.846E-04 0.291E-03
   0.321E+02 0.251E+02 0.237E+02   -.335E+02 -.273E+02 -.250E+02   0.140E+01 0.223E+01 0.131E+01   -.417E-03 0.658E-04 -.209E-03
   0.351E+02 -.290E+02 0.120E+02   -.368E+02 0.314E+02 -.123E+02   0.167E+01 -.241E+01 0.311E+00   -.466E-03 0.651E-04 -.226E-03
   0.122E+02 -.414E+02 0.114E+02   -.135E+02 0.435E+02 -.116E+02   0.134E+01 -.211E+01 0.262E+00   -.788E-04 0.437E-03 0.210E-03
   -.335E+02 -.195E+02 0.224E+02   0.357E+02 0.199E+02 -.235E+02   -.222E+01 -.387E+00 0.112E+01   0.304E-03 0.186E-03 0.353E-03
 -----------------------------------------------------------------------------------------------
   -.344E+01 -.159E+01 -.226E+01   0.000E+00 0.568E-13 -.142E-12   0.344E+01 0.160E+01 0.225E+01   -.158E-03 0.835E-03 0.194E-03
 
 
 POSITION                                       TOTAL-FORCE (eV/Angst)
 -----------------------------------------------------------------------------------
      9.47525     11.12304      7.69131        -0.001238      0.000004     -0.006963
      7.39395     10.78445      8.73573         0.009520     -0.001387      0.004745
      7.67191     10.29906     11.02140        -0.006221     -0.002273      0.002077
     11.16674      8.63319     10.24637         0.005142      0.006829      0.004505
     10.83115      9.14948      7.92421        -0.002229      0.006218      0.003080
     10.61385     12.97987      8.70810        -0.000169     -0.003497      0.001357
     10.95607     12.50718     11.09093         0.007170     -0.010281      0.001429
     12.30044     10.46383     11.31328        -0.000596      0.004365      0.000974
      9.01746      8.32073     11.27330        -0.000120      0.007226     -0.001165
      8.76315     12.13421     12.12564         0.001553     -0.002747     -0.002051
      8.29334      7.10661     10.61751         0.001796      0.005303     -0.002086
      9.18860      7.98737     12.78540        -0.000458      0.004760      0.000369
     11.98255      7.38007     10.37803         0.000018     -0.000664     -0.000049
     13.70029     10.68627     10.66593        -0.002406     -0.003726     -0.000177
     12.53278     10.15292     12.82240        -0.000902     -0.002988     -0.002935
     12.20323      9.36521      7.21870        -0.000730      0.004765      0.001264
     10.13648      7.94871      7.21420        -0.001380      0.003713      0.004273
      9.26475     11.40535      6.23133        -0.002277     -0.001175      0.000928
     11.68418     13.70485     11.78170        -0.004226     -0.009512     -0.004546
      8.93940     11.82488     13.64207        -0.003692     -0.004069      0.001572
      7.90191     13.42750     12.01321        -0.003001     -0.000713     -0.001362
      6.32931     10.06383     11.65192        -0.000580     -0.000510     -0.003198
      6.68108      9.64585      8.06813         0.004478      0.007817      0.004383
      6.54425     12.01029      8.57884         0.003241     -0.004472      0.000559
      9.77985     14.28561      8.54560        -0.002632     -0.000560     -0.001747
     11.98743     13.21763      8.01311        -0.000063     -0.002427     -0.005237
 -----------------------------------------------------------------------------------
    total drift:                                0.000232      0.001857     -0.000204


--------------------------------------------------------------------------------------------------------



  FREE ENERGIE OF THE ION-ELECTRON SYSTEM (eV)
  ---------------------------------------------------
  free  energy   TOTEN  =       -99.81462028 eV

  energy  without entropy=      -99.81462028  energy(sigma->0) =      -99.81462028
 
 d Force = 0.8877917E-04[ 0.700E-04, 0.108E-03]  d Energy = 0.9045755E-04-0.168E-05
 d Force =-0.4902437E+00[-0.490E+00,-0.490E+00]  d Ewald  =-0.4902437E+00 0.297E-08


--------------------------------------------------------------------------------------------------------


    POTLOK:  cpu time    0.9709: real time    0.9721


--------------------------------------------------------------------------------------------------------


 Conjugate gradient step on ions:
 trial-energy change:   -0.000090  1 .order   -0.000089   -0.000108   -0.000070
  (g-gl).g = 0.877E-04      g.g   = 0.860E-04  gl.gl    = 0.219E-03
 g(Force)  = 0.860E-04   g(Stress)= 0.000E+00 ortho     =-0.355E-07
 gamma     =   0.40083
 trial     =   1.25009
 opt step  =   3.58282  (harmonic =   3.58282) maximal distance =0.00296417
 next E    =   -99.814684   (d E  =  -0.00015)


--------------------------------------------------------------------------------------------------------


  
 reached required accuracy - stopping structural energy minimisation
 writing wavefunctions
     LOOP+:  cpu time   30.1504: real time   31.4139
    4ORBIT:  cpu time    0.0000: real time    0.0000

 total amount of memory used by VASP MPI-rank0   131440. kBytes
=======================================================================

   base      :      30000. kBytes
   nonl-proj :      17624. kBytes
   fftplans  :      26957. kBytes
   grid      :      48673. kBytes
   one-center:         40. kBytes
   wavefun   :       8146. kBytes
 
  
  
 General timing and accounting informations for this job:
 ========================================================
  
                  Total CPU time used (sec):     1129.683
                            User time (sec):     1106.400
                          System time (sec):       23.283
                         Elapsed time (sec):     1134.897
  
                   Maximum memory used (kb):      184796.
                   Average memory used (kb):           0.
  
                          Minor page faults:      6102426
                          Major page faults:            7
                 Voluntary context switches:        10451
