 vasp.5.4.4.18Apr17-6-g9f103f2a35 (build Nov 06 2017 19:16:10) complex          
  
 executed on           IFC91_ompi date 2018.07.12  06:50:00
 running on   12 total cores
 distrk:  each k-point on   12 cores,    1 groups
 distr:  one band on NCORES_PER_BAND=   6 cores,    2 groups


--------------------------------------------------------------------------------------------------------


 INCAR:
 POTCAR:    PAW_PBE Si 05Jan2001                  
 POTCAR:    PAW_PBE Ge 05Jan2001                  
 POTCAR:    PAW_PBE H 15Jun2001                   
 POTCAR:    PAW_PBE Si 05Jan2001                  
   VRHFIN =Si: s2p2                                                             
   LEXCH  = PE                                                                  
   EATOM  =   103.0669 eV,    7.5752 Ry                                         
                                                                                
   TITEL  = PAW_PBE Si 05Jan2001                                                
   LULTRA =        F    use ultrasoft PP ?                                      
   IUNSCR =        1    unscreen: 0-lin 1-nonlin 2-no                           
   RPACOR =    1.500    partial core radius                                     
   POMASS =   28.085; ZVAL   =    4.000    mass and valenz                      
   RCORE  =    1.900    outmost cutoff radius                                   
   RWIGS  =    2.480; RWIGS  =    1.312    wigner-seitz radius (au A)           
   ENMAX  =  245.345; ENMIN  =  184.009 eV                                      
   ICORE  =        2    local potential                                         
   LCOR   =        T    correct aug charges                                     
   LPAW   =        T    paw PP                                                  
   EAUG   =  322.069                                                            
   DEXC   =    0.000                                                            
   RMAX   =    1.950    core radius for proj-oper                               
   RAUG   =    1.300    factor for augmentation sphere                          
   RDEP   =    1.993    radius for radial grids                                 
   RDEPT  =    1.837    core radius for aug-charge                              
                                                                                
   Atomic configuration                                                         
    6 entries                                                                   
     n  l   j            E        occ.                                          
     1  0  0.50     -1785.8828   2.0000                                         
     2  0  0.50      -139.4969   2.0000                                         
     2  1  1.50       -95.5546   6.0000                                         
     3  0  0.50       -10.8127   2.0000                                         
     3  1  0.50        -4.0811   2.0000                                         
     3  2  1.50        -4.0817   0.0000                                         
   Description                                                                  
     l       E           TYP  RCUT    TYP  RCUT                                 
     0    -10.8127223     23  1.900                                             
     0     -7.6451159     23  1.900                                             
     1     -4.0811372     23  1.900                                             
     1      2.4879257     23  1.900                                             
     2     -4.0817478      7  1.900                                             
  local pseudopotential read in
  partial core-charges read in
  partial kinetic energy density read in
  atomic valenz-charges read in
  non local Contribution for L=           0  read in
    real space projection operators read in
  non local Contribution for L=           0  read in
    real space projection operators read in
  non local Contribution for L=           1  read in
    real space projection operators read in
  non local Contribution for L=           1  read in
    real space projection operators read in
    PAW grid and wavefunctions read in
 
   number of l-projection  operators is LMAX  =           4
   number of lm-projection operators is LMMAX =           8
 
 POTCAR:    PAW_PBE Ge 05Jan2001                  
   VRHFIN =Ge: s2p2                                                             
   LEXCH  = PE                                                                  
   EATOM  =   104.9960 eV,    7.7170 Ry                                         
                                                                                
   TITEL  = PAW_PBE Ge 05Jan2001                                                
   LULTRA =        F    use ultrasoft PP ?                                      
   IUNSCR =        1    unscreen: 0-lin 1-nonlin 2-no                           
   RPACOR =    2.170    partial core radius                                     
   POMASS =   72.610; ZVAL   =    4.000    mass and valenz                      
   RCORE  =    2.300    outmost cutoff radius                                   
   RWIGS  =    2.300; RWIGS  =    1.217    wigner-seitz radius (au A)           
   ENMAX  =  173.807; ENMIN  =  130.355 eV                                      
   ICORE  =        3    local potential                                         
   LCOR   =        T    correct aug charges                                     
   LPAW   =        T    paw PP                                                  
   EAUG   =  385.843                                                            
   DEXC   =    0.000                                                            
   RMAX   =    2.342    core radius for proj-oper                               
   RAUG   =    1.300    factor for augmentation sphere                          
   RDEP   =    2.318    radius for radial grids                                 
   RDEPT  =    2.103    core radius for aug-charge                              
                                                                                
   Atomic configuration                                                         
   10 entries                                                                   
     n  l   j            E        occ.                                          
     1  0  0.50    -10959.8463   2.0000                                         
     2  0  0.50     -1371.6056   2.0000                                         
     2  1  1.50     -1198.4791   6.0000                                         
     3  0  0.50      -168.4733   2.0000                                         
     3  1  1.50      -115.6019   6.0000                                         
     3  2  2.50       -29.3106  10.0000                                         
     4  0  0.50       -11.7309   2.0000                                         
     4  1  0.50        -3.8952   2.0000                                         
     4  2  1.50        -4.0817   0.0000                                         
     4  3  2.50        -4.0817   0.0000                                         
   Description                                                                  
     l       E           TYP  RCUT    TYP  RCUT                                 
     0    -11.7309493     23  2.300                                             
     0     -7.4578696     23  2.300                                             
     1     -3.8952261     23  2.300                                             
     1      6.1178114     23  2.300                                             
     2     -4.0817478     23  2.300                                             
     3     -1.3605826      7  2.300                                             
  local pseudopotential read in
  partial core-charges read in
  partial kinetic energy density read in
  atomic valenz-charges read in
  non local Contribution for L=           0  read in
    real space projection operators read in
  non local Contribution for L=           0  read in
    real space projection operators read in
  non local Contribution for L=           1  read in
    real space projection operators read in
  non local Contribution for L=           1  read in
    real space projection operators read in
  non local Contribution for L=           2  read in
    real space projection operators read in
    PAW grid and wavefunctions read in
 
   number of l-projection  operators is LMAX  =           5
   number of lm-projection operators is LMMAX =          13
 
 POTCAR:    PAW_PBE H 15Jun2001                   
   VRHFIN =H: ultrasoft test                                                    
   LEXCH  = PE                                                                  
   EATOM  =    12.4884 eV,    0.9179 Ry                                         
                                                                                
   TITEL  = PAW_PBE H 15Jun2001                                                 
   LULTRA =        F    use ultrasoft PP ?                                      
   IUNSCR =        0    unscreen: 0-lin 1-nonlin 2-no                           
   RPACOR =    0.000    partial core radius                                     
   POMASS =    1.000; ZVAL   =    1.000    mass and valenz                      
   RCORE  =    1.100    outmost cutoff radius                                   
   RWIGS  =    0.700; RWIGS  =    0.370    wigner-seitz radius (au A)           
   ENMAX  =  250.000; ENMIN  =  200.000 eV                                      
   RCLOC  =    0.701    cutoff for local pot                                    
   LCOR   =        T    correct aug charges                                     
   LPAW   =        T    paw PP                                                  
   EAUG   =  400.000                                                            
   RMAX   =    1.123    core radius for proj-oper                               
   RAUG   =    1.200    factor for augmentation sphere                          
   RDEP   =    1.112    radius for radial grids                                 
   RDEPT  =    0.926    core radius for aug-charge                              
                                                                                
   Atomic configuration                                                         
    2 entries                                                                   
     n  l   j            E        occ.                                          
     1  0  0.50        -6.4927   1.0000                                         
     2  1  0.50        -3.4015   0.0000                                         
   Description                                                                  
     l       E           TYP  RCUT    TYP  RCUT                                 
     0     -6.4927494     23  1.100                                             
     0      6.8029130     23  1.100                                             
     1     -4.0817478     23  1.100                                             
  local pseudopotential read in
  atomic valenz-charges read in
  non local Contribution for L=           0  read in
    real space projection operators read in
  non local Contribution for L=           0  read in
    real space projection operators read in
  non local Contribution for L=           1  read in
    real space projection operators read in
    PAW grid and wavefunctions read in
 
   number of l-projection  operators is LMAX  =           3
   number of lm-projection operators is LMMAX =           5
 

 ----------------------------------------------------------------------------- 
|                                                                             |
|  ADVICE TO THIS USER RUNNING 'VASP/VAMP'   (HEAR YOUR MASTER'S VOICE ...):  |
|                                                                             |
|      You have a (more or less) 'large supercell' and for larger cells       |
|      it might be more efficient to use real space projection opertators     |
|      So try LREAL= Auto  in the INCAR   file.                               |
|      Mind:          For very  accurate calculation you might also keep the  |
|      reciprocal projection scheme          (i.e. LREAL=.FALSE.)             |
|                                                                             |
 ----------------------------------------------------------------------------- 

  PAW_PBE Si 05Jan2001                  :
 energy of atom  1       EATOM= -103.0669
 kinetic energy error for atom=    0.0012 (will be added to EATOM!!)
  PAW_PBE Ge 05Jan2001                  :
 energy of atom  2       EATOM= -104.9960
 kinetic energy error for atom=    0.0003 (will be added to EATOM!!)
  PAW_PBE H 15Jun2001                   :
 energy of atom  3       EATOM=  -12.4884
 kinetic energy error for atom=    0.0098 (will be added to EATOM!!)
 
 
 POSCAR: SiGeH16                                 
  positions in direct lattice
  No initial velocities read in
 exchange correlation table for  LEXCH =        8
   RHO(1)=    0.500       N(1)  =     2000
   RHO(2)=  100.500       N(2)  =     4000
 


--------------------------------------------------------------------------------------------------------


 ion  position               nearest neighbor table
   1  0.475  0.556  0.385-  18 1.55   5 2.39   2 2.39   3 2.39
   2  0.369  0.539  0.436-  23 1.55  24 1.55   6 2.39   1 2.39
   3  0.542  0.457  0.396-  17 1.55  16 1.55   7 2.39   1 2.39
   4  0.613  0.525  0.565-  15 1.55  14 1.55   8 2.39   7 2.39
   5  0.531  0.648  0.437-  25 1.55  26 1.55   8 2.39   1 2.39
   6  0.385  0.515  0.552-  22 1.55  10 2.39   9 2.39   2 2.39
   7  0.557  0.433  0.512-  13 1.55   3 2.39   4 2.39   9 2.39
   8  0.547  0.624  0.554-  19 1.55   5 2.39   4 2.39  10 2.39
   9  0.451  0.416  0.564-  12 1.55  11 1.55   6 2.39   7 2.39
  10  0.440  0.606  0.605-  20 1.55  21 1.55   6 2.39   8 2.39
  11  0.415  0.357  0.529-   9 1.55
  12  0.461  0.400  0.639-   9 1.55
  13  0.600  0.369  0.520-   7 1.55
  14  0.682  0.536  0.531-   4 1.55
  15  0.623  0.509  0.640-   4 1.55
  16  0.611  0.469  0.363-   3 1.55
  17  0.506  0.398  0.362-   3 1.55
  18  0.465  0.572  0.309-   1 1.55
  19  0.583  0.683  0.588-   8 1.55
  20  0.451  0.590  0.680-  10 1.55
  21  0.397  0.670  0.598-  10 1.55
  22  0.316  0.504  0.586-   6 1.55
  23  0.333  0.479  0.402-   2 1.55
  24  0.326  0.603  0.429-   2 1.55
  25  0.488  0.712  0.430-   5 1.55
  26  0.600  0.659  0.404-   5 1.55
 
  LATTYP: Found a simple cubic cell.
 ALAT       =    20.0000000000
  
  Lattice vectors:
  
 A1 = (  20.0000000000,   0.0000000000,   0.0000000000)
 A2 = (   0.0000000000,  20.0000000000,   0.0000000000)
 A3 = (   0.0000000000,   0.0000000000,  20.0000000000)


Analysis of symmetry for initial positions (statically):
=====================================================================
 Subroutine PRICEL returns:
 Original cell was already a primitive cell.
 

 Routine SETGRP: Setting up the symmetry group for a 
 simple cubic supercell.


 Subroutine GETGRP returns: Found  1 space group operations
 (whereof  1 operations were pure point group operations)
 out of a pool of 48 trial point group operations.


The static configuration has the point symmetry C_1 .


Analysis of symmetry for dynamics (positions and initial velocities):
=====================================================================
 Subroutine PRICEL returns:
 Original cell was already a primitive cell.
 

 Routine SETGRP: Setting up the symmetry group for a 
 simple cubic supercell.


 Subroutine GETGRP returns: Found  1 space group operations
 (whereof  1 operations were pure point group operations)
 out of a pool of 48 trial point group operations.


The dynamic configuration has the point symmetry C_1 .


 Subroutine INISYM returns: Found  1 space group operations
 (whereof  1 operations are pure point group operations),
 and found     1 'primitive' translations

 
 
 KPOINTS: Automatic mesh                          

Automatic generation of k-mesh.
Space group operators:
 irot       det(A)        alpha          n_x          n_y          n_z        tau_x        tau_y        tau_z
    1     1.000000     0.000000     1.000000     0.000000     0.000000     0.000000     0.000000     0.000000
 
 Subroutine IBZKPT returns following result:
 ===========================================
 
 Found      1 irreducible k-points:
 
 Following reciprocal coordinates:
            Coordinates               Weight
  0.000000  0.000000  0.000000      1.000000
 
 Following cartesian coordinates:
            Coordinates               Weight
  0.000000  0.000000  0.000000      1.000000
 


--------------------------------------------------------------------------------------------------------




 Dimension of arrays:
   k-points           NKPTS =      1   k-points in BZ     NKDIM =      1   number of bands    NBANDS=     42
   number of dos      NEDOS =    301   number of ions     NIONS =     26
   non local maximal  LDIM  =      5   non local SUM 2l+1 LMDIM =     13
   total plane-waves  NPLWV = 941192
   max r-space proj   IRMAX =      1   max aug-charges    IRDMAX=   6593
   dimension x,y,z NGX =    98 NGY =   98 NGZ =   98
   dimension x,y,z NGXF=   196 NGYF=  196 NGZF=  196
   support grid    NGXF=   196 NGYF=  196 NGZF=  196
   ions per type =               4   6  16
   NGX,Y,Z   is equivalent  to a cutoff of   8.15,  8.15,  8.15 a.u.
   NGXF,Y,Z  is equivalent  to a cutoff of  16.29, 16.29, 16.29 a.u.

 SYSTEM =  SiGe                                    
 POSCAR =  SiGeH16                                 

 Startparameter for this run:
   NWRITE =      2    write-flag & timer
   PREC   = normal    normal or accurate (medium, high low for compatibility)
   ISTART =      0    job   : 0-new  1-cont  2-samecut
   ICHARG =      2    charge: 1-file 2-atom 10-const
   ISPIN  =      1    spin polarized calculation?
   LNONCOLLINEAR =      F non collinear calculations
   LSORBIT =      F    spin-orbit coupling
   INIWAV =      1    electr: 0-lowe 1-rand  2-diag
   LASPH  =      F    aspherical Exc in radial PAW
   METAGGA=      F    non-selfconsistent MetaGGA calc.

 Electronic Relaxation 1
   ENCUT  =  400.0 eV  29.40 Ry    5.42 a.u.  32.61 32.61 32.61*2*pi/ulx,y,z
   ENINI  =  400.0     initial cutoff
   ENAUG  =  400.0 eV  augmentation charge cutoff
   NELM   =     60;   NELMIN=  2; NELMDL= -5     # of ELM steps 
   EDIFF  = 0.1E-05   stopping-criterion for ELM
   LREAL  =      F    real-space projection
   NLSPLINE    = F    spline interpolate recip. space projectors
   LCOMPAT=      F    compatible to vasp.4.4
   GGA_COMPAT  = T    GGA compatible to vasp.4.4-vasp.4.6
   LMAXPAW     = -100 max onsite density
   LMAXMIX     =    2 max onsite mixed and CHGCAR
   VOSKOWN=      0    Vosko Wilk Nusair interpolation
   ROPT   =    0.00000   0.00000   0.00000
 Ionic relaxation
   EDIFFG = -.2E-01   stopping-criterion for IOM
   NSW    =    200    number of steps for IOM
   NBLOCK =      1;   KBLOCK =    200    inner block; outer block 
   IBRION =      2    ionic relax: 0-MD 1-quasi-New 2-CG
   NFREE  =      1    steps in history (QN), initial steepest desc. (CG)
   ISIF   =      2    stress and relaxation
   IWAVPR =     11    prediction:  0-non 1-charg 2-wave 3-comb
   ISYM   =      2    0-nonsym 1-usesym 2-fastsym
   LCORR  =      T    Harris-Foulkes like correction to forces

   POTIM  = 0.5000    time-step for ionic-motion
   TEIN   =    0.0    initial temperature
   TEBEG  =    0.0;   TEEND  =   0.0 temperature during run
   SMASS  =  -3.00    Nose mass-parameter (am)
   estimated Nose-frequenzy (Omega)   =  0.10E-29 period in steps =****** mass=  -0.914E-26a.u.
   SCALEE = 1.0000    scale energy and forces
   NPACO  =    256;   APACO  = 16.0  distance and # of slots for P.C.
   PSTRESS=    0.0 pullay stress

  Mass of Ions in am
   POMASS =  28.09 72.61  1.00
  Ionic Valenz
   ZVAL   =   4.00  4.00  1.00
  Atomic Wigner-Seitz radii
   RWIGS  =  -1.00 -1.00 -1.00
  virtual crystal weights 
   VCA    =   1.00  1.00  1.00
   NELECT =      56.0000    total number of electrons
   NUPDOWN=      -1.0000    fix difference up-down

 DOS related values:
   EMIN   =  10.00;   EMAX   =-10.00  energy-range for DOS
   EFERMI =   0.00
   ISMEAR =     0;   SIGMA  =   0.20  broadening in eV -4-tet -1-fermi 0-gaus

 Electronic relaxation 2 (details)
   IALGO  =     38    algorithm
   LDIAG  =      T    sub-space diagonalisation (order eigenvalues)
   LSUBROT=      F    optimize rotation matrix (better conditioning)
   TURBO    =      0    0=normal 1=particle mesh
   IRESTART =      0    0=no restart 2=restart with 2 vectors
   NREBOOT  =      0    no. of reboots
   NMIN     =      0    reboot dimension
   EREF     =   0.00    reference energy to select bands
   IMIX   =      4    mixing-type and parameters
     AMIX     =   0.40;   BMIX     =  1.00
     AMIX_MAG =   1.60;   BMIX_MAG =  1.00
     AMIN     =   0.10
     WC   =   100.;   INIMIX=   1;  MIXPRE=   1;  MAXMIX= -45

 Intra band minimization:
   WEIMIN = 0.0010     energy-eigenvalue tresh-hold
   EBREAK =  0.60E-08  absolut break condition
   DEPER  =   0.30     relativ break condition  

   TIME   =   0.40     timestep for ELM

  volume/ion in A,a.u.               =     307.69      2076.41
  Fermi-wavevector in a.u.,A,eV,Ry     =   0.313166  0.591797  1.334361  0.098073
  Thomas-Fermi vector in A             =   1.193276
 
 Write flags
   LWAVE        =      T    write WAVECAR
   LDOWNSAMPLE  =      F    k-point downsampling of WAVECAR
   LCHARG       =      T    write CHGCAR
   LVTOT        =      F    write LOCPOT, total local potential
   LVHAR        =      F    write LOCPOT, Hartree potential only
   LELF         =      F    write electronic localiz. function (ELF)
   LORBIT       =      0    0 simple, 1 ext, 2 COOP (PROOUT), +10 PAW based schemes


 Dipole corrections
   LMONO  =      F    monopole corrections only (constant potential shift)
   LDIPOL =      F    correct potential (dipole corrections)
   IDIPOL =      0    1-x, 2-y, 3-z, 4-all directions 
   EPSILON=  1.0000000 bulk dielectric constant

 Exchange correlation treatment:
   GGA     =    --    GGA type
   LEXCH   =     8    internal setting for exchange type
   VOSKOWN=      0    Vosko Wilk Nusair interpolation
   LHFCALC =     F    Hartree Fock is set to
   LHFONE  =     F    Hartree Fock one center treatment
   AEXX    =    0.0000 exact exchange contribution

 Linear response parameters
   LEPSILON=     F    determine dielectric tensor
   LRPA    =     F    only Hartree local field effects (RPA)
   LNABLA  =     F    use nabla operator in PAW spheres
   LVEL    =     F    velocity operator in full k-point grid
   LINTERFAST=   F  fast interpolation
   KINTER  =     0    interpolate to denser k-point grid
   CSHIFT  =0.1000    complex shift for real part using Kramers Kronig
   OMEGAMAX=  -1.0    maximum frequency
   DEG_THRESHOLD= 0.2000000E-02 threshold for treating states as degnerate
   RTIME   =   -0.100 relaxation time in fs
  (WPLASMAI=    0.000 imaginary part of plasma frequency in eV, 0.658/RTIME)
   DFIELD  = 0.0000000 0.0000000 0.0000000 field for delta impulse in time
 
 Orbital magnetization related:
   ORBITALMAG=     F  switch on orbital magnetization
   LCHIMAG   =     F  perturbation theory with respect to B field
   DQ        =  0.001000  dq finite difference perturbation B field
   LLRAUG    =     F  two centre corrections for induced B field



--------------------------------------------------------------------------------------------------------


 conjugate gradient relaxation of ions
 charge density and potential will be updated during run
 non-spin polarized calculation
 Variant of blocked Davidson
 Davidson routine will perform the subspace rotation
 perform sub-space diagonalisation
    after iterative eigenvector-optimisation
 modified Broyden-mixing scheme, WC =      100.0
 initial mixing is a Kerker type mixing with AMIX =  0.4000 and BMIX =      1.0000
 Hartree-type preconditioning will be used
 using additional bands           14
 reciprocal scheme for non local part
 use partial core corrections
 calculate Harris-corrections to forces 
   (improved forces if not selfconsistent)
 use gradient corrections 
 use of overlap-Matrix (Vanderbilt PP)
 Gauss-broadening in eV      SIGMA  =   0.20


--------------------------------------------------------------------------------------------------------


  energy-cutoff  :      400.00
  volume of cell :     8000.00
      direct lattice vectors                 reciprocal lattice vectors
    20.000000000  0.000000000  0.000000000     0.050000000  0.000000000  0.000000000
     0.000000000 20.000000000  0.000000000     0.000000000  0.050000000  0.000000000
     0.000000000  0.000000000 20.000000000     0.000000000  0.000000000  0.050000000

  length of vectors
    20.000000000 20.000000000 20.000000000     0.050000000  0.050000000  0.050000000


 
 k-points in units of 2pi/SCALE and weight: Automatic mesh                          
   0.00000000  0.00000000  0.00000000       1.000
 
 k-points in reciprocal lattice and weights: Automatic mesh                          
   0.00000000  0.00000000  0.00000000       1.000
 
 position of ions in fractional coordinates (direct lattice) 
   0.47547100  0.55626000  0.38465300
   0.36907800  0.53906000  0.43641200
   0.54179100  0.45744600  0.39613600
   0.61299700  0.52481700  0.56496600
   0.53111600  0.64794100  0.43749600
   0.38461900  0.51474100  0.55243500
   0.55736800  0.43311000  0.51215000
   0.54669200  0.62364400  0.55351800
   0.45095700  0.41593600  0.56388300
   0.44028400  0.60643000  0.60524300
   0.41490100  0.35665000  0.52940300
   0.46117000  0.40042600  0.63910800
   0.60034800  0.36907000  0.51957800
   0.68182700  0.53600700  0.53118700
   0.62280400  0.50903400  0.64018900
   0.61080000  0.46880600  0.36278200
   0.50550800  0.39805500  0.36207700
   0.46538400  0.57201900  0.30946400
   0.58275500  0.68306700  0.58775000
   0.45052500  0.59044300  0.68036400
   0.39732000  0.67044900  0.59753500
   0.31566200  0.50359800  0.58596500
   0.33322800  0.47946500  0.40225200
   0.32629100  0.60324700  0.42912600
   0.48792300  0.71185500  0.43020800
   0.60015100  0.65882400  0.40403700
 
 position of ions in cartesian coordinates  (Angst):
   9.50942000 11.12520000  7.69306000
   7.38156000 10.78120000  8.72824000
  10.83582000  9.14892000  7.92272000
  12.25994000 10.49634000 11.29932000
  10.62232000 12.95882000  8.74992000
   7.69238000 10.29482000 11.04870000
  11.14736000  8.66220000 10.24300000
  10.93384000 12.47288000 11.07036000
   9.01914000  8.31872000 11.27766000
   8.80568000 12.12860000 12.10486000
   8.29802000  7.13300000 10.58806000
   9.22340000  8.00852000 12.78216000
  12.00696000  7.38140000 10.39156000
  13.63654000 10.72014000 10.62374000
  12.45608000 10.18068000 12.80378000
  12.21600000  9.37612000  7.25564000
  10.11016000  7.96110000  7.24154000
   9.30768000 11.44038000  6.18928000
  11.65510000 13.66134000 11.75500000
   9.01050000 11.80886000 13.60728000
   7.94640000 13.40898000 11.95070000
   6.31324000 10.07196000 11.71930000
   6.66456000  9.58930000  8.04504000
   6.52582000 12.06494000  8.58252000
   9.75846000 14.23710000  8.60416000
  12.00302000 13.17648000  8.08074000
 


--------------------------------------------------------------------------------------------------------


 k-point  1 :   0.0000 0.0000 0.0000  plane waves:  145165

 maximum and minimum number of plane-waves per node :     24209    24180

 maximum number of plane-waves:    145165
 maximum index in each direction: 
   IXMAX=   32   IYMAX=   32   IZMAX=   32
   IXMIN=  -32   IYMIN=  -32   IZMIN=  -32


 parallel 3D FFT for wavefunctions:
    minimum data exchange during FFTs selected (reduces bandwidth)
 parallel 3D FFT for charge:
    minimum data exchange during FFTs selected (reduces bandwidth)


 total amount of memory used by VASP MPI-rank0   131440. kBytes
=======================================================================

   base      :      30000. kBytes
   nonl-proj :      17624. kBytes
   fftplans  :      26957. kBytes
   grid      :      48673. kBytes
   one-center:         40. kBytes
   wavefun   :       8146. kBytes
 
     INWAV:  cpu time    0.0000: real time    0.0000
 Broyden mixing: mesh for mixing (old mesh)
   NGX = 65   NGY = 65   NGZ = 65
  (NGX  =196   NGY  =196   NGZ  =196)
  gives a total of 274625 points

 initial charge density was supplied:
 charge density of overlapping atoms calculated
 number of electron      56.0000000 magnetization 
 keeping initial charge density in first step


--------------------------------------------------------------------------------------------------------


 Maximum index for augmentation-charges          565 (set IRDMAX)


--------------------------------------------------------------------------------------------------------


 First call to EWALD:  gamma=   0.089
 Maximum number of real-space cells 3x 3x 3
 Maximum number of reciprocal cells 3x 3x 3

    FEWALD:  cpu time    0.0030: real time    0.0023


--------------------------------------- Iteration      1(   1)  ---------------------------------------


    POTLOK:  cpu time    0.9938: real time    0.9945
    SETDIJ:  cpu time    0.0060: real time    0.0062
     EDDAV:  cpu time    4.2314: real time    4.2302
       DOS:  cpu time    0.0000: real time    0.0003
    --------------------------------------------
      LOOP:  cpu time    5.2312: real time    5.2312

 eigenvalue-minimisations  :   116
 total energy-change (2. order) : 0.2071273E+03  (-0.1047153E+04)
 number of electron      56.0000000 magnetization 
 augmentation part       56.0000000 magnetization 

 Free energy of the ion-electron system (eV)
  ---------------------------------------------------
  alpha Z        PSCENC =         2.51538199
  Ewald energy   TEWEN  =      2629.98113996
  -Hartree energ DENC   =     -3440.31272775
  -exchange      EXHF   =         0.00000000
  -V(xc)+E(xc)   XCENC  =       -49.24205418
  PAW double counting   =       915.51080863     -758.35430496
  entropy T*S    EENTRO =        -0.44104269
  eigenvalues    EBANDS =      -334.42498426
  atomic energy  EATOM  =      1241.89512738
  Solvation  Ediel_sol  =         0.00000000
  ---------------------------------------------------
  free energy    TOTEN  =       207.12734412 eV

  energy without entropy =      207.56838681  energy(sigma->0) =      207.34786547


--------------------------------------------------------------------------------------------------------




--------------------------------------- Iteration      1(   2)  ---------------------------------------


     EDDAV:  cpu time    5.0412: real time    5.0383
       DOS:  cpu time    0.0000: real time    0.0002
    --------------------------------------------
      LOOP:  cpu time    5.0412: real time    5.0385

 eigenvalue-minimisations  :   144
 total energy-change (2. order) :-0.2321508E+03  (-0.2171266E+03)
 number of electron      56.0000000 magnetization 
 augmentation part       56.0000000 magnetization 

 Free energy of the ion-electron system (eV)
  ---------------------------------------------------
  alpha Z        PSCENC =         2.51538199
  Ewald energy   TEWEN  =      2629.98113996
  -Hartree energ DENC   =     -3440.31272775
  -exchange      EXHF   =         0.00000000
  -V(xc)+E(xc)   XCENC  =       -49.24205418
  PAW double counting   =       915.51080863     -758.35430496
  entropy T*S    EENTRO =        -0.00000000
  eigenvalues    EBANDS =      -567.01682194
  atomic energy  EATOM  =      1241.89512738
  Solvation  Ediel_sol  =         0.00000000
  ---------------------------------------------------
  free energy    TOTEN  =       -25.02345088 eV

  energy without entropy =      -25.02345088  energy(sigma->0) =      -25.02345088


--------------------------------------------------------------------------------------------------------




--------------------------------------- Iteration      1(   3)  ---------------------------------------


     EDDAV:  cpu time    4.1254: real time    4.1233
       DOS:  cpu time    0.0000: real time    0.0002
    --------------------------------------------
      LOOP:  cpu time    4.1254: real time    4.1235

 eigenvalue-minimisations  :   112
 total energy-change (2. order) :-0.7533016E+02  (-0.7514921E+02)
 number of electron      56.0000000 magnetization 
 augmentation part       56.0000000 magnetization 

 Free energy of the ion-electron system (eV)
  ---------------------------------------------------
  alpha Z        PSCENC =         2.51538199
  Ewald energy   TEWEN  =      2629.98113996
  -Hartree energ DENC   =     -3440.31272775
  -exchange      EXHF   =         0.00000000
  -V(xc)+E(xc)   XCENC  =       -49.24205418
  PAW double counting   =       915.51080863     -758.35430496
  entropy T*S    EENTRO =        -0.00000000
  eigenvalues    EBANDS =      -642.34697752
  atomic energy  EATOM  =      1241.89512738
  Solvation  Ediel_sol  =         0.00000000
  ---------------------------------------------------
  free energy    TOTEN  =      -100.35360645 eV

  energy without entropy =     -100.35360645  energy(sigma->0) =     -100.35360645


--------------------------------------------------------------------------------------------------------




--------------------------------------- Iteration      1(   4)  ---------------------------------------


     EDDAV:  cpu time    3.8964: real time    3.8936
       DOS:  cpu time    0.0000: real time    0.0002
    --------------------------------------------
      LOOP:  cpu time    3.8964: real time    3.8938

 eigenvalue-minimisations  :   104
 total energy-change (2. order) :-0.4332763E+01  (-0.4315931E+01)
 number of electron      56.0000000 magnetization 
 augmentation part       56.0000000 magnetization 

 Free energy of the ion-electron system (eV)
  ---------------------------------------------------
  alpha Z        PSCENC =         2.51538199
  Ewald energy   TEWEN  =      2629.98113996
  -Hartree energ DENC   =     -3440.31272775
  -exchange      EXHF   =         0.00000000
  -V(xc)+E(xc)   XCENC  =       -49.24205418
  PAW double counting   =       915.51080863     -758.35430496
  entropy T*S    EENTRO =        -0.00000000
  eigenvalues    EBANDS =      -646.67974005
  atomic energy  EATOM  =      1241.89512738
  Solvation  Ediel_sol  =         0.00000000
  ---------------------------------------------------
  free energy    TOTEN  =      -104.68636898 eV

  energy without entropy =     -104.68636898  energy(sigma->0) =     -104.68636898


--------------------------------------------------------------------------------------------------------




--------------------------------------- Iteration      1(   5)  ---------------------------------------


     EDDAV:  cpu time    4.5733: real time    4.5710
       DOS:  cpu time    0.0000: real time    0.0002
    CHARGE:  cpu time    0.2290: real time    0.2285
    MIXING:  cpu time    0.0230: real time    0.0234
    --------------------------------------------
      LOOP:  cpu time    4.8253: real time    4.8231

 eigenvalue-minimisations  :   128
 total energy-change (2. order) :-0.7125519E-01  (-0.7118907E-01)
 number of electron      56.0000023 magnetization 
 augmentation part       -4.3570049 magnetization 

 Broyden mixing:
  rms(total) = 0.14579E+01    rms(broyden)= 0.14578E+01
  rms(prec ) = 0.15542E+01
  weight for this iteration     100.00

 Free energy of the ion-electron system (eV)
  ---------------------------------------------------
  alpha Z        PSCENC =         2.51538199
  Ewald energy   TEWEN  =      2629.98113996
  -Hartree energ DENC   =     -3440.31272775
  -exchange      EXHF   =         0.00000000
  -V(xc)+E(xc)   XCENC  =       -49.24205418
  PAW double counting   =       915.51080863     -758.35430496
  entropy T*S    EENTRO =        -0.00000000
  eigenvalues    EBANDS =      -646.75099524
  atomic energy  EATOM  =      1241.89512738
  Solvation  Ediel_sol  =         0.00000000
  ---------------------------------------------------
  free energy    TOTEN  =      -104.75762417 eV

  energy without entropy =     -104.75762417  energy(sigma->0) =     -104.75762417


--------------------------------------------------------------------------------------------------------




--------------------------------------- Iteration      1(   6)  ---------------------------------------


    POTLOK:  cpu time    0.9429: real time    0.9413
    SETDIJ:  cpu time    0.0060: real time    0.0061
     EDDAV:  cpu time    4.1214: real time    4.1207
       DOS:  cpu time    0.0010: real time    0.0002
    CHARGE:  cpu time    0.2280: real time    0.2281
    MIXING:  cpu time    0.0240: real time    0.0246
    --------------------------------------------
      LOOP:  cpu time    5.3232: real time    5.3210

 eigenvalue-minimisations  :   112
 total energy-change (2. order) : 0.3177928E+01  (-0.1591393E+00)
 number of electron      56.0000022 magnetization 
 augmentation part       -4.3558071 magnetization 

 Broyden mixing:
  rms(total) = 0.84240E+00    rms(broyden)= 0.84240E+00
  rms(prec ) = 0.90134E+00
  weight for this iteration     100.00

 eigenvalues of (default mixing * dielectric matrix)
  average eigenvalue GAMMA=   2.2988
  2.2988

 Free energy of the ion-electron system (eV)
  ---------------------------------------------------
  alpha Z        PSCENC =         2.51538199
  Ewald energy   TEWEN  =      2629.98113996
  -Hartree energ DENC   =     -3471.24513142
  -exchange      EXHF   =         0.00000000
  -V(xc)+E(xc)   XCENC  =       -45.61491807
  PAW double counting   =      1757.60146184    -1601.31132419
  entropy T*S    EENTRO =        -0.00000000
  eigenvalues    EBANDS =      -615.40143382
  atomic energy  EATOM  =      1241.89512738
  Solvation  Ediel_sol  =         0.00000000
  ---------------------------------------------------
  free energy    TOTEN  =      -101.57969632 eV

  energy without entropy =     -101.57969632  energy(sigma->0) =     -101.57969632


--------------------------------------------------------------------------------------------------------




--------------------------------------- Iteration      1(   7)  ---------------------------------------


    POTLOK:  cpu time    0.9089: real time    0.9604
    SETDIJ:  cpu time    0.0060: real time    0.0060
     EDDAV:  cpu time    4.1524: real time    4.1499
       DOS:  cpu time    0.0000: real time    0.0002
    CHARGE:  cpu time    0.2290: real time    0.2287
    MIXING:  cpu time    0.0250: real time    0.0253
    --------------------------------------------
      LOOP:  cpu time    5.3212: real time    5.3706

 eigenvalue-minimisations  :   112
 total energy-change (2. order) : 0.1658664E+01  (-0.4027370E+00)
 number of electron      56.0000020 magnetization 
 augmentation part       -4.3523837 magnetization 

 Broyden mixing:
  rms(total) = 0.12129E+00    rms(broyden)= 0.12114E+00
  rms(prec ) = 0.15265E+00
  weight for this iteration     100.00

 eigenvalues of (default mixing * dielectric matrix)
  average eigenvalue GAMMA=   1.8410
  1.7566  1.9253

 Free energy of the ion-electron system (eV)
  ---------------------------------------------------
  alpha Z        PSCENC =         2.51538199
  Ewald energy   TEWEN  =      2629.98113996
  -Hartree energ DENC   =     -3526.19950348
  -exchange      EXHF   =         0.00000000
  -V(xc)+E(xc)   XCENC  =       -39.87937412
  PAW double counting   =      3564.61782841    -3409.48453774
  entropy T*S    EENTRO =        -0.00000000
  eigenvalues    EBANDS =      -563.36709489
  atomic energy  EATOM  =      1241.89512738
  Solvation  Ediel_sol  =         0.00000000
  ---------------------------------------------------
  free energy    TOTEN  =       -99.92103250 eV

  energy without entropy =      -99.92103250  energy(sigma->0) =      -99.92103250


--------------------------------------------------------------------------------------------------------




--------------------------------------- Iteration      1(   8)  ---------------------------------------


    POTLOK:  cpu time    0.9489: real time    0.9490
    SETDIJ:  cpu time    0.0060: real time    0.0062
     EDDAV:  cpu time    4.1234: real time    4.1211
       DOS:  cpu time    0.0000: real time    0.0002
    CHARGE:  cpu time    0.2300: real time    0.2293
    MIXING:  cpu time    0.0260: real time    0.0260
    --------------------------------------------
      LOOP:  cpu time    5.3342: real time    5.3319

 eigenvalue-minimisations  :   112
 total energy-change (2. order) : 0.5335416E-01  (-0.2743697E-01)
 number of electron      56.0000020 magnetization 
 augmentation part       -4.3468905 magnetization 

 Broyden mixing:
  rms(total) = 0.60647E-01    rms(broyden)= 0.60633E-01
  rms(prec ) = 0.79968E-01
  weight for this iteration     100.00

 eigenvalues of (default mixing * dielectric matrix)
  average eigenvalue GAMMA=   1.9566
  2.6350  1.6174  1.6174

 Free energy of the ion-electron system (eV)
  ---------------------------------------------------
  alpha Z        PSCENC =         2.51538199
  Ewald energy   TEWEN  =      2629.98113996
  -Hartree energ DENC   =     -3534.32803144
  -exchange      EXHF   =         0.00000000
  -V(xc)+E(xc)   XCENC  =       -39.89059402
  PAW double counting   =      3582.47994101    -3427.26894040
  entropy T*S    EENTRO =        -0.00000000
  eigenvalues    EBANDS =      -555.25170281
  atomic energy  EATOM  =      1241.89512738
  Solvation  Ediel_sol  =         0.00000000
  ---------------------------------------------------
  free energy    TOTEN  =       -99.86767833 eV

  energy without entropy =      -99.86767833  energy(sigma->0) =      -99.86767833


--------------------------------------------------------------------------------------------------------




--------------------------------------- Iteration      1(   9)  ---------------------------------------


    POTLOK:  cpu time    0.9559: real time    0.9554
    SETDIJ:  cpu time    0.0060: real time    0.0061
     EDDAV:  cpu time    4.1294: real time    4.1265
       DOS:  cpu time    0.0000: real time    0.0002
    CHARGE:  cpu time    0.2290: real time    0.2287
    MIXING:  cpu time    0.0270: real time    0.0273
    --------------------------------------------
      LOOP:  cpu time    5.3472: real time    5.3441

 eigenvalue-minimisations  :   112
 total energy-change (2. order) : 0.3597532E-01  (-0.7077461E-02)
 number of electron      56.0000020 magnetization 
 augmentation part       -4.3322747 magnetization 

 Broyden mixing:
  rms(total) = 0.32335E-01    rms(broyden)= 0.32334E-01
  rms(prec ) = 0.44198E-01
  weight for this iteration     100.00

 eigenvalues of (default mixing * dielectric matrix)
  average eigenvalue GAMMA=   1.7554
  2.5025  1.8327  1.8327  0.8535

 Free energy of the ion-electron system (eV)
  ---------------------------------------------------
  alpha Z        PSCENC =         2.51538199
  Ewald energy   TEWEN  =      2629.98113996
  -Hartree energ DENC   =     -3546.01012381
  -exchange      EXHF   =         0.00000000
  -V(xc)+E(xc)   XCENC  =       -39.19154684
  PAW double counting   =      3720.94844302    -3565.78503323
  entropy T*S    EENTRO =        -0.00000000
  eigenvalues    EBANDS =      -544.18509148
  atomic energy  EATOM  =      1241.89512738
  Solvation  Ediel_sol  =         0.00000000
  ---------------------------------------------------
  free energy    TOTEN  =       -99.83170301 eV

  energy without entropy =      -99.83170301  energy(sigma->0) =      -99.83170301


--------------------------------------------------------------------------------------------------------




--------------------------------------- Iteration      1(  10)  ---------------------------------------


    POTLOK:  cpu time    1.0238: real time    1.0255
    SETDIJ:  cpu time    0.0070: real time    0.0069
     EDDAV:  cpu time    4.1194: real time    4.1183
       DOS:  cpu time    0.0010: real time    0.0002
    CHARGE:  cpu time    0.2270: real time    0.2275
    MIXING:  cpu time    0.0290: real time    0.0288
    --------------------------------------------
      LOOP:  cpu time    5.4072: real time    5.4071

 eigenvalue-minimisations  :   112
 total energy-change (2. order) : 0.1007920E-03  (-0.2683705E-03)
 number of electron      56.0000020 magnetization 
 augmentation part       -4.3313875 magnetization 

 Broyden mixing:
  rms(total) = 0.14745E-01    rms(broyden)= 0.14745E-01
  rms(prec ) = 0.28108E-01
  weight for this iteration     100.00

 eigenvalues of (default mixing * dielectric matrix)
  average eigenvalue GAMMA=   1.8806
  2.8212  2.3351  1.0494  1.5987  1.5987

 Free energy of the ion-electron system (eV)
  ---------------------------------------------------
  alpha Z        PSCENC =         2.51538199
  Ewald energy   TEWEN  =      2629.98113996
  -Hartree energ DENC   =     -3548.30637242
  -exchange      EXHF   =         0.00000000
  -V(xc)+E(xc)   XCENC  =       -39.17822040
  PAW double counting   =      3654.64180894    -3499.43037689
  entropy T*S    EENTRO =        -0.00000000
  eigenvalues    EBANDS =      -541.95009077
  atomic energy  EATOM  =      1241.89512738
  Solvation  Ediel_sol  =         0.00000000
  ---------------------------------------------------
  free energy    TOTEN  =       -99.83160222 eV

  energy without entropy =      -99.83160222  energy(sigma->0) =      -99.83160222


--------------------------------------------------------------------------------------------------------




--------------------------------------- Iteration      1(  11)  ---------------------------------------


    POTLOK:  cpu time    0.9649: real time    0.9642
    SETDIJ:  cpu time    0.0060: real time    0.0061
     EDDAV:  cpu time    3.8864: real time    3.8852
       DOS:  cpu time    0.0010: real time    0.0002
    CHARGE:  cpu time    0.2270: real time    0.2276
    MIXING:  cpu time    0.0300: real time    0.0298
    --------------------------------------------
      LOOP:  cpu time    5.1152: real time    5.1131

 eigenvalue-minimisations  :   104
 total energy-change (2. order) : 0.1609661E-03  (-0.6559551E-03)
 number of electron      56.0000020 magnetization 
 augmentation part       -4.3299559 magnetization 

 Broyden mixing:
  rms(total) = 0.81977E-02    rms(broyden)= 0.81974E-02
  rms(prec ) = 0.14587E-01
  weight for this iteration     100.00

 eigenvalues of (default mixing * dielectric matrix)
  average eigenvalue GAMMA=   1.8739
  3.2615  2.5740  1.7299  1.7299  1.0568  0.8914

 Free energy of the ion-electron system (eV)
  ---------------------------------------------------
  alpha Z        PSCENC =         2.51538199
  Ewald energy   TEWEN  =      2629.98113996
  -Hartree energ DENC   =     -3555.04621875
  -exchange      EXHF   =         0.00000000
  -V(xc)+E(xc)   XCENC  =       -38.98586508
  PAW double counting   =      3619.32953863    -3464.07841115
  entropy T*S    EENTRO =        -0.00000000
  eigenvalues    EBANDS =      -535.44213424
  atomic energy  EATOM  =      1241.89512738
  Solvation  Ediel_sol  =         0.00000000
  ---------------------------------------------------
  free energy    TOTEN  =       -99.83144125 eV

  energy without entropy =      -99.83144125  energy(sigma->0) =      -99.83144125


--------------------------------------------------------------------------------------------------------




--------------------------------------- Iteration      1(  12)  ---------------------------------------


    POTLOK:  cpu time    0.9689: real time    0.9686
    SETDIJ:  cpu time    0.0060: real time    0.0062
     EDDAV:  cpu time    3.8394: real time    3.8372
       DOS:  cpu time    0.0000: real time    0.0002
    CHARGE:  cpu time    0.2290: real time    0.2290
    MIXING:  cpu time    0.0340: real time    0.0337
    --------------------------------------------
      LOOP:  cpu time    5.0772: real time    5.0750

 eigenvalue-minimisations  :   102
 total energy-change (2. order) :-0.4541797E-02  (-0.1197766E-03)
 number of electron      56.0000020 magnetization 
 augmentation part       -4.3292186 magnetization 

 Broyden mixing:
  rms(total) = 0.54569E-02    rms(broyden)= 0.54569E-02
  rms(prec ) = 0.95563E-02
  weight for this iteration     100.00

 eigenvalues of (default mixing * dielectric matrix)
  average eigenvalue GAMMA=   2.1143
  4.7575  2.6175  2.3834  1.5528  1.5528  0.9680  0.9680

 Free energy of the ion-electron system (eV)
  ---------------------------------------------------
  alpha Z        PSCENC =         2.51538199
  Ewald energy   TEWEN  =      2629.98113996
  -Hartree energ DENC   =     -3557.51331572
  -exchange      EXHF   =         0.00000000
  -V(xc)+E(xc)   XCENC  =       -38.94334655
  PAW double counting   =      3611.12692829    -3455.87293312
  entropy T*S    EENTRO =        -0.00000000
  eigenvalues    EBANDS =      -533.02496528
  atomic energy  EATOM  =      1241.89512738
  Solvation  Ediel_sol  =         0.00000000
  ---------------------------------------------------
  free energy    TOTEN  =       -99.83598305 eV

  energy without entropy =      -99.83598305  energy(sigma->0) =      -99.83598305


--------------------------------------------------------------------------------------------------------




--------------------------------------- Iteration      1(  13)  ---------------------------------------


    POTLOK:  cpu time    0.9679: real time    0.9683
    SETDIJ:  cpu time    0.0070: real time    0.0062
     EDDAV:  cpu time    4.0994: real time    4.0972
       DOS:  cpu time    0.0000: real time    0.0003
    CHARGE:  cpu time    0.2290: real time    0.2288
    MIXING:  cpu time    0.0320: real time    0.0323
    --------------------------------------------
      LOOP:  cpu time    5.3352: real time    5.3330

 eigenvalue-minimisations  :   112
 total energy-change (2. order) :-0.4529984E-02  (-0.1746731E-03)
 number of electron      56.0000020 magnetization 
 augmentation part       -4.3290427 magnetization 

 Broyden mixing:
  rms(total) = 0.34913E-02    rms(broyden)= 0.34912E-02
  rms(prec ) = 0.51616E-02
  weight for this iteration     100.00

 eigenvalues of (default mixing * dielectric matrix)
  average eigenvalue GAMMA=   2.2023
  5.6637  2.9299  2.2517  1.8311  1.8311  0.9645  0.9645  1.1817

 Free energy of the ion-electron system (eV)
  ---------------------------------------------------
  alpha Z        PSCENC =         2.51538199
  Ewald energy   TEWEN  =      2629.98113996
  -Hartree energ DENC   =     -3560.21226231
  -exchange      EXHF   =         0.00000000
  -V(xc)+E(xc)   XCENC  =       -38.89413171
  PAW double counting   =      3615.31926115    -3460.07326651
  entropy T*S    EENTRO =        -0.00000000
  eigenvalues    EBANDS =      -530.37176298
  atomic energy  EATOM  =      1241.89512738
  Solvation  Ediel_sol  =         0.00000000
  ---------------------------------------------------
  free energy    TOTEN  =       -99.84051304 eV

  energy without entropy =      -99.84051304  energy(sigma->0) =      -99.84051304


--------------------------------------------------------------------------------------------------------




--------------------------------------- Iteration      1(  14)  ---------------------------------------


    POTLOK:  cpu time    0.9629: real time    0.9631
    SETDIJ:  cpu time    0.0070: real time    0.0063
     EDDAV:  cpu time    4.1164: real time    4.1142
       DOS:  cpu time    0.0000: real time    0.0003
    CHARGE:  cpu time    0.2270: real time    0.2274
    MIXING:  cpu time    0.0350: real time    0.0341
    --------------------------------------------
      LOOP:  cpu time    5.3482: real time    5.3454

 eigenvalue-minimisations  :   112
 total energy-change (2. order) :-0.4481070E-02  (-0.3719368E-04)
 number of electron      56.0000020 magnetization 
 augmentation part       -4.3285370 magnetization 

 Broyden mixing:
  rms(total) = 0.15014E-02    rms(broyden)= 0.15014E-02
  rms(prec ) = 0.26237E-02
  weight for this iteration     100.00

 eigenvalues of (default mixing * dielectric matrix)
  average eigenvalue GAMMA=   2.2967
  6.5836  2.9713  2.6753  2.2475  1.6033  1.6033  1.0488  0.9687  0.9687

 Free energy of the ion-electron system (eV)
  ---------------------------------------------------
  alpha Z        PSCENC =         2.51538199
  Ewald energy   TEWEN  =      2629.98113996
  -Hartree energ DENC   =     -3560.87339199
  -exchange      EXHF   =         0.00000000
  -V(xc)+E(xc)   XCENC  =       -38.91029019
  PAW double counting   =      3614.61032820    -3459.36455208
  entropy T*S    EENTRO =        -0.00000000
  eigenvalues    EBANDS =      -529.69873738
  atomic energy  EATOM  =      1241.89512738
  Solvation  Ediel_sol  =         0.00000000
  ---------------------------------------------------
  free energy    TOTEN  =       -99.84499411 eV

  energy without entropy =      -99.84499411  energy(sigma->0) =      -99.84499411


--------------------------------------------------------------------------------------------------------




--------------------------------------- Iteration      1(  15)  ---------------------------------------


    POTLOK:  cpu time    0.9629: real time    0.9632
    SETDIJ:  cpu time    0.0060: real time    0.0062
     EDDAV:  cpu time    4.1094: real time    4.1066
       DOS:  cpu time    0.0000: real time    0.0002
    CHARGE:  cpu time    0.2280: real time    0.2285
    MIXING:  cpu time    0.0370: real time    0.0363
    --------------------------------------------
      LOOP:  cpu time    5.3432: real time    5.3410

 eigenvalue-minimisations  :   112
 total energy-change (2. order) :-0.3958213E-02  (-0.4495716E-04)
 number of electron      56.0000020 magnetization 
 augmentation part       -4.3282695 magnetization 

 Broyden mixing:
  rms(total) = 0.14098E-02    rms(broyden)= 0.14098E-02
  rms(prec ) = 0.18710E-02
  weight for this iteration     100.00

 eigenvalues of (default mixing * dielectric matrix)
  average eigenvalue GAMMA=   2.3128
  6.7462  3.8348  2.6389  1.9719  1.9719  1.8067  1.2555  0.9327  0.9845  0.9845

 Free energy of the ion-electron system (eV)
  ---------------------------------------------------
  alpha Z        PSCENC =         2.51538199
  Ewald energy   TEWEN  =      2629.98113996
  -Hartree energ DENC   =     -3561.08611782
  -exchange      EXHF   =         0.00000000
  -V(xc)+E(xc)   XCENC  =       -38.91738971
  PAW double counting   =      3618.22251868    -3462.97675299
  entropy T*S    EENTRO =        -0.00000000
  eigenvalues    EBANDS =      -529.48285981
  atomic energy  EATOM  =      1241.89512738
  Solvation  Ediel_sol  =         0.00000000
  ---------------------------------------------------
  free energy    TOTEN  =       -99.84895232 eV

  energy without entropy =      -99.84895232  energy(sigma->0) =      -99.84895232


--------------------------------------------------------------------------------------------------------




--------------------------------------- Iteration      1(  16)  ---------------------------------------


    POTLOK:  cpu time    0.9589: real time    0.9583
    SETDIJ:  cpu time    0.0060: real time    0.0062
     EDDAV:  cpu time    4.1044: real time    4.1038
       DOS:  cpu time    0.0000: real time    0.0004
    CHARGE:  cpu time    0.2280: real time    0.2281
    MIXING:  cpu time    0.0390: real time    0.0392
    --------------------------------------------
      LOOP:  cpu time    5.3372: real time    5.3360

 eigenvalue-minimisations  :   112
 total energy-change (2. order) :-0.1148884E-02  (-0.6955835E-05)
 number of electron      56.0000020 magnetization 
 augmentation part       -4.3284948 magnetization 

 Broyden mixing:
  rms(total) = 0.64461E-03    rms(broyden)= 0.64460E-03
  rms(prec ) = 0.94751E-03
  weight for this iteration     100.00

 eigenvalues of (default mixing * dielectric matrix)
  average eigenvalue GAMMA=   2.4355
  7.4047  4.7674  2.6588  2.6588  1.8205  1.8205  1.3719  1.3719  0.9735  0.9735
  0.9688

 Free energy of the ion-electron system (eV)
  ---------------------------------------------------
  alpha Z        PSCENC =         2.51538199
  Ewald energy   TEWEN  =      2629.98113996
  -Hartree energ DENC   =     -3561.20088038
  -exchange      EXHF   =         0.00000000
  -V(xc)+E(xc)   XCENC  =       -38.91396332
  PAW double counting   =      3618.58554783    -3463.33925711
  entropy T*S    EENTRO =        -0.00000000
  eigenvalues    EBANDS =      -529.37319755
  atomic energy  EATOM  =      1241.89512738
  Solvation  Ediel_sol  =         0.00000000
  ---------------------------------------------------
  free energy    TOTEN  =       -99.85010120 eV

  energy without entropy =      -99.85010120  energy(sigma->0) =      -99.85010120


--------------------------------------------------------------------------------------------------------




--------------------------------------- Iteration      1(  17)  ---------------------------------------


    POTLOK:  cpu time    0.9579: real time    0.9569
    SETDIJ:  cpu time    0.0070: real time    0.0062
     EDDAV:  cpu time    3.8804: real time    3.8780
       DOS:  cpu time    0.0000: real time    0.0004
    CHARGE:  cpu time    0.2280: real time    0.2277
    MIXING:  cpu time    0.0430: real time    0.0432
    --------------------------------------------
      LOOP:  cpu time    5.1152: real time    5.1126

 eigenvalue-minimisations  :   104
 total energy-change (2. order) :-0.1014463E-02  (-0.8599519E-05)
 number of electron      56.0000020 magnetization 
 augmentation part       -4.3287140 magnetization 

 Broyden mixing:
  rms(total) = 0.32176E-03    rms(broyden)= 0.32172E-03
  rms(prec ) = 0.45247E-03
  weight for this iteration     100.00

 eigenvalues of (default mixing * dielectric matrix)
  average eigenvalue GAMMA=   2.4358
  7.5763  5.1532  2.6889  2.6889  1.9700  1.9700  1.5352  1.5352  1.1990  0.9741
  0.9741  0.9645

 Free energy of the ion-electron system (eV)
  ---------------------------------------------------
  alpha Z        PSCENC =         2.51538199
  Ewald energy   TEWEN  =      2629.98113996
  -Hartree energ DENC   =     -3561.20434712
  -exchange      EXHF   =         0.00000000
  -V(xc)+E(xc)   XCENC  =       -38.91740104
  PAW double counting   =      3616.66986352    -3461.42220643
  entropy T*S    EENTRO =        -0.00000000
  eigenvalues    EBANDS =      -529.36867393
  atomic energy  EATOM  =      1241.89512738
  Solvation  Ediel_sol  =         0.00000000
  ---------------------------------------------------
  free energy    TOTEN  =       -99.85111567 eV

  energy without entropy =      -99.85111567  energy(sigma->0) =      -99.85111567


--------------------------------------------------------------------------------------------------------




--------------------------------------- Iteration      1(  18)  ---------------------------------------


    POTLOK:  cpu time    0.9589: real time    0.9601
    SETDIJ:  cpu time    0.0070: real time    0.0063
     EDDAV:  cpu time    3.8974: real time    3.8969
       DOS:  cpu time    0.0010: real time    0.0003
    CHARGE:  cpu time    0.2250: real time    0.2253
    MIXING:  cpu time    0.0500: real time    0.0497
    --------------------------------------------
      LOOP:  cpu time    5.1392: real time    5.1387

 eigenvalue-minimisations  :   104
 total energy-change (2. order) :-0.2787548E-03  (-0.9666476E-06)
 number of electron      56.0000020 magnetization 
 augmentation part       -4.3286853 magnetization 

 Broyden mixing:
  rms(total) = 0.17004E-03    rms(broyden)= 0.17001E-03
  rms(prec ) = 0.23900E-03
  weight for this iteration     100.00

 eigenvalues of (default mixing * dielectric matrix)
  average eigenvalue GAMMA=   2.5075
  8.2077  5.8456  3.2276  2.6190  2.4021  1.8044  1.8044  1.3737  1.3737  0.9709
  0.9709  0.9984  0.9984

 Free energy of the ion-electron system (eV)
  ---------------------------------------------------
  alpha Z        PSCENC =         2.51538199
  Ewald energy   TEWEN  =      2629.98113996
  -Hartree energ DENC   =     -3561.24869026
  -exchange      EXHF   =         0.00000000
  -V(xc)+E(xc)   XCENC  =       -38.91622232
  PAW double counting   =      3616.75314613    -3461.50618302
  entropy T*S    EENTRO =        -0.00000000
  eigenvalues    EBANDS =      -529.32509429
  atomic energy  EATOM  =      1241.89512738
  Solvation  Ediel_sol  =         0.00000000
  ---------------------------------------------------
  free energy    TOTEN  =       -99.85139442 eV

  energy without entropy =      -99.85139442  energy(sigma->0) =      -99.85139442


--------------------------------------------------------------------------------------------------------




--------------------------------------- Iteration      1(  19)  ---------------------------------------


    POTLOK:  cpu time    0.9669: real time    0.9661
    SETDIJ:  cpu time    0.0060: real time    0.0062
     EDDAV:  cpu time    3.8814: real time    3.8789
       DOS:  cpu time    0.0000: real time    0.0003
    CHARGE:  cpu time    0.2280: real time    0.2279
    MIXING:  cpu time    0.0540: real time    0.0539
    --------------------------------------------
      LOOP:  cpu time    5.1362: real time    5.1333

 eigenvalue-minimisations  :   104
 total energy-change (2. order) :-0.1245478E-03  (-0.4058900E-06)
 number of electron      56.0000020 magnetization 
 augmentation part       -4.3287037 magnetization 

 Broyden mixing:
  rms(total) = 0.14488E-03    rms(broyden)= 0.14488E-03
  rms(prec ) = 0.18176E-03
  weight for this iteration     100.00

 eigenvalues of (default mixing * dielectric matrix)
  average eigenvalue GAMMA=   2.4959
  8.3647  6.0922  3.3579  2.6655  2.2228  2.2228  1.7608  1.7608  1.3097  1.3097
  0.9979  0.9979  0.9403  0.9403

 Free energy of the ion-electron system (eV)
  ---------------------------------------------------
  alpha Z        PSCENC =         2.51538199
  Ewald energy   TEWEN  =      2629.98113996
  -Hartree energ DENC   =     -3561.25651581
  -exchange      EXHF   =         0.00000000
  -V(xc)+E(xc)   XCENC  =       -38.91569458
  PAW double counting   =      3616.66851449    -3461.42168317
  entropy T*S    EENTRO =        -0.00000000
  eigenvalues    EBANDS =      -529.31778923
  atomic energy  EATOM  =      1241.89512738
  Solvation  Ediel_sol  =         0.00000000
  ---------------------------------------------------
  free energy    TOTEN  =       -99.85151897 eV

  energy without entropy =      -99.85151897  energy(sigma->0) =      -99.85151897


--------------------------------------------------------------------------------------------------------




--------------------------------------- Iteration      1(  20)  ---------------------------------------


    POTLOK:  cpu time    0.9659: real time    0.9659
    SETDIJ:  cpu time    0.0060: real time    0.0061
     EDDAV:  cpu time    3.4235: real time    3.4223
       DOS:  cpu time    0.0010: real time    0.0003
    CHARGE:  cpu time    0.2390: real time    0.2388
    MIXING:  cpu time    0.0610: real time    0.0605
    --------------------------------------------
      LOOP:  cpu time    4.6963: real time    4.6939

 eigenvalue-minimisations  :    88
 total energy-change (2. order) :-0.4686156E-04  (-0.8360858E-07)
 number of electron      56.0000020 magnetization 
 augmentation part       -4.3286882 magnetization 

 Broyden mixing:
  rms(total) = 0.58988E-04    rms(broyden)= 0.58987E-04
  rms(prec ) = 0.81008E-04
  weight for this iteration     100.00

 eigenvalues of (default mixing * dielectric matrix)
  average eigenvalue GAMMA=   2.5280
  8.6254  6.3953  4.0521  2.8650  2.5500  1.9905  1.8335  1.8335  1.3762  1.3762
  1.1825  0.9845  0.9845  0.9789  0.8912

 Free energy of the ion-electron system (eV)
  ---------------------------------------------------
  alpha Z        PSCENC =         2.51538199
  Ewald energy   TEWEN  =      2629.98113996
  -Hartree energ DENC   =     -3561.25802509
  -exchange      EXHF   =         0.00000000
  -V(xc)+E(xc)   XCENC  =       -38.91666640
  PAW double counting   =      3616.58510588    -3461.33818628
  entropy T*S    EENTRO =        -0.00000000
  eigenvalues    EBANDS =      -529.31544327
  atomic energy  EATOM  =      1241.89512738
  Solvation  Ediel_sol  =         0.00000000
  ---------------------------------------------------
  free energy    TOTEN  =       -99.85156583 eV

  energy without entropy =      -99.85156583  energy(sigma->0) =      -99.85156583


--------------------------------------------------------------------------------------------------------




--------------------------------------- Iteration      1(  21)  ---------------------------------------


    POTLOK:  cpu time    0.9579: real time    0.9582
    SETDIJ:  cpu time    0.0060: real time    0.0060
     EDDAV:  cpu time    3.2005: real time    3.1979
       DOS:  cpu time    0.0000: real time    0.0005
    CHARGE:  cpu time    0.2280: real time    0.2279
    MIXING:  cpu time    0.0680: real time    0.0672
    --------------------------------------------
      LOOP:  cpu time    4.4603: real time    4.4577

 eigenvalue-minimisations  :    80
 total energy-change (2. order) :-0.2177416E-04  (-0.6772364E-07)
 number of electron      56.0000020 magnetization 
 augmentation part       -4.3286749 magnetization 

 Broyden mixing:
  rms(total) = 0.48549E-04    rms(broyden)= 0.48546E-04
  rms(prec ) = 0.62026E-04
  weight for this iteration     100.00

 eigenvalues of (default mixing * dielectric matrix)
  average eigenvalue GAMMA=   2.5132
  8.5592  6.6486  4.1250  2.8927  2.5654  2.1442  2.1442  1.7672  1.7672  1.4080
  1.1398  1.1398  0.9537  0.9537  1.0013  1.0013

 Free energy of the ion-electron system (eV)
  ---------------------------------------------------
  alpha Z        PSCENC =         2.51538199
  Ewald energy   TEWEN  =      2629.98113996
  -Hartree energ DENC   =     -3561.26441050
  -exchange      EXHF   =         0.00000000
  -V(xc)+E(xc)   XCENC  =       -38.91660097
  PAW double counting   =      3616.67207515    -3461.42523181
  entropy T*S    EENTRO =        -0.00000000
  eigenvalues    EBANDS =      -529.30906880
  atomic energy  EATOM  =      1241.89512738
  Solvation  Ediel_sol  =         0.00000000
  ---------------------------------------------------
  free energy    TOTEN  =       -99.85158760 eV

  energy without entropy =      -99.85158760  energy(sigma->0) =      -99.85158760


--------------------------------------------------------------------------------------------------------




--------------------------------------- Iteration      1(  22)  ---------------------------------------


    POTLOK:  cpu time    0.9569: real time    0.9580
    SETDIJ:  cpu time    0.0060: real time    0.0061
     EDDAV:  cpu time    3.4315: real time    3.4300
       DOS:  cpu time    0.0000: real time    0.0003
    CHARGE:  cpu time    0.2290: real time    0.2285
    MIXING:  cpu time    0.0730: real time    0.0730
    --------------------------------------------
      LOOP:  cpu time    4.6963: real time    4.6959

 eigenvalue-minimisations  :    88
 total energy-change (2. order) :-0.7461432E-05  (-0.1662343E-07)
 number of electron      56.0000020 magnetization 
 augmentation part       -4.3286876 magnetization 

 Broyden mixing:
  rms(total) = 0.20382E-04    rms(broyden)= 0.20381E-04
  rms(prec ) = 0.27556E-04
  weight for this iteration     100.00

 eigenvalues of (default mixing * dielectric matrix)
  average eigenvalue GAMMA=   2.5278
  8.7949  6.7672  4.6562  3.2156  2.5610  2.5610  1.8897  1.8897  1.6641  1.6641
  1.2141  1.2141  1.0156  0.9509  0.9509  0.9819  0.9819

 Free energy of the ion-electron system (eV)
  ---------------------------------------------------
  alpha Z        PSCENC =         2.51538199
  Ewald energy   TEWEN  =      2629.98113996
  -Hartree energ DENC   =     -3561.26332306
  -exchange      EXHF   =         0.00000000
  -V(xc)+E(xc)   XCENC  =       -38.91641514
  PAW double counting   =      3616.70206392    -3461.45515580
  entropy T*S    EENTRO =        -0.00000000
  eigenvalues    EBANDS =      -529.31041430
  atomic energy  EATOM  =      1241.89512738
  Solvation  Ediel_sol  =         0.00000000
  ---------------------------------------------------
  free energy    TOTEN  =       -99.85159507 eV

  energy without entropy =      -99.85159507  energy(sigma->0) =      -99.85159507


--------------------------------------------------------------------------------------------------------




--------------------------------------- Iteration      1(  23)  ---------------------------------------


    POTLOK:  cpu time    0.9559: real time    0.9566
    SETDIJ:  cpu time    0.0060: real time    0.0061
     EDDAV:  cpu time    3.4405: real time    3.4390
       DOS:  cpu time    0.0010: real time    0.0004
    CHARGE:  cpu time    0.2290: real time    0.2290
    MIXING:  cpu time    0.0790: real time    0.0796
    --------------------------------------------
      LOOP:  cpu time    4.7113: real time    4.7107

 eigenvalue-minimisations  :    88
 total energy-change (2. order) :-0.3291131E-05  (-0.8280971E-08)
 number of electron      56.0000020 magnetization 
 augmentation part       -4.3286948 magnetization 

 Broyden mixing:
  rms(total) = 0.15362E-04    rms(broyden)= 0.15360E-04
  rms(prec ) = 0.19765E-04
  weight for this iteration     100.00

 eigenvalues of (default mixing * dielectric matrix)
  average eigenvalue GAMMA=   2.4907
  8.8754  6.7941  4.7984  3.1628  2.6264  2.6264  1.9741  1.9741  1.6145  1.5828
  1.5828  1.1256  1.1256  1.0589  0.9999  0.9999  1.0059  0.9055

 Free energy of the ion-electron system (eV)
  ---------------------------------------------------
  alpha Z        PSCENC =         2.51538199
  Ewald energy   TEWEN  =      2629.98113996
  -Hartree energ DENC   =     -3561.26301467
  -exchange      EXHF   =         0.00000000
  -V(xc)+E(xc)   XCENC  =       -38.91651721
  PAW double counting   =      3616.68544565    -3461.43851621
  entropy T*S    EENTRO =        -0.00000000
  eigenvalues    EBANDS =      -529.31064526
  atomic energy  EATOM  =      1241.89512738
  Solvation  Ediel_sol  =         0.00000000
  ---------------------------------------------------
  free energy    TOTEN  =       -99.85159836 eV

  energy without entropy =      -99.85159836  energy(sigma->0) =      -99.85159836


--------------------------------------------------------------------------------------------------------




--------------------------------------- Iteration      1(  24)  ---------------------------------------


    POTLOK:  cpu time    0.9639: real time    0.9624
    SETDIJ:  cpu time    0.0060: real time    0.0062
     EDDAV:  cpu time    3.4395: real time    3.4384
       DOS:  cpu time    0.0010: real time    0.0004
    CHARGE:  cpu time    0.2290: real time    0.2291
    MIXING:  cpu time    0.0860: real time    0.0860
    --------------------------------------------
      LOOP:  cpu time    4.7253: real time    4.7224

 eigenvalue-minimisations  :    88
 total energy-change (2. order) :-0.1944333E-05  (-0.2516265E-08)
 number of electron      56.0000020 magnetization 
 augmentation part       -4.3286933 magnetization 

 Broyden mixing:
  rms(total) = 0.65329E-05    rms(broyden)= 0.65327E-05
  rms(prec ) = 0.92426E-05
  weight for this iteration     100.00

 eigenvalues of (default mixing * dielectric matrix)
  average eigenvalue GAMMA=   2.5515
  8.8775  7.0768  5.4626  3.8182  2.9359  2.5218  2.2050  1.8850  1.8850  1.6709
  1.6709  1.2040  1.2040  1.1914  0.9927  0.9927  0.9508  0.9508  0.9823

 Free energy of the ion-electron system (eV)
  ---------------------------------------------------
  alpha Z        PSCENC =         2.51538199
  Ewald energy   TEWEN  =      2629.98113996
  -Hartree energ DENC   =     -3561.26360716
  -exchange      EXHF   =         0.00000000
  -V(xc)+E(xc)   XCENC  =       -38.91654376
  PAW double counting   =      3616.64654173    -3461.39963485
  entropy T*S    EENTRO =        -0.00000000
  eigenvalues    EBANDS =      -529.31000560
  atomic energy  EATOM  =      1241.89512738
  Solvation  Ediel_sol  =         0.00000000
  ---------------------------------------------------
  free energy    TOTEN  =       -99.85160030 eV

  energy without entropy =      -99.85160030  energy(sigma->0) =      -99.85160030


--------------------------------------------------------------------------------------------------------




--------------------------------------- Iteration      1(  25)  ---------------------------------------


    POTLOK:  cpu time    0.9938: real time    0.9944
    SETDIJ:  cpu time    0.0100: real time    0.0101
     EDDAV:  cpu time    3.1955: real time    3.1943
       DOS:  cpu time    0.0010: real time    0.0004
    --------------------------------------------
      LOOP:  cpu time    4.2004: real time    4.1991

 eigenvalue-minimisations  :    80
 total energy-change (2. order) :-0.8508187E-06  (-0.1450141E-08)
 number of electron      56.0000020 magnetization 
 augmentation part       -4.3286933 magnetization 

 Free energy of the ion-electron system (eV)
  ---------------------------------------------------
  alpha Z        PSCENC =         2.51538199
  Ewald energy   TEWEN  =      2629.98113996
  -Hartree energ DENC   =     -3561.26453819
  -exchange      EXHF   =         0.00000000
  -V(xc)+E(xc)   XCENC  =       -38.91652319
  PAW double counting   =      3616.65072817    -3461.40382890
  entropy T*S    EENTRO =        -0.00000000
  eigenvalues    EBANDS =      -529.30908838
  atomic energy  EATOM  =      1241.89512738
  Solvation  Ediel_sol  =         0.00000000
  ---------------------------------------------------
  free energy    TOTEN  =       -99.85160115 eV

  energy without entropy =      -99.85160115  energy(sigma->0) =      -99.85160115


--------------------------------------------------------------------------------------------------------




 average (electrostatic) potential at core
  the test charge radii are     0.9892  1.1631  0.5201
  (the norm of the test charge is              1.0000)
       1 -93.3903       2 -93.4576       3 -93.4642       4 -93.4976       5 -40.4424
       6 -40.4206       7 -40.3801       8 -40.4207       9 -40.4843      10 -40.4779
      11 -41.0543      12 -41.0581      13 -41.0642      14 -40.6872      15 -40.6910
      16 -40.6990      17 -40.6989      18 -40.6939      19 -41.0518      20 -41.0535
      21 -41.0542      22 -41.0522      23 -40.6940      24 -40.6994      25 -41.0676
      26 -41.0633
 
 
 
 E-fermi :  -5.3887     XC(G=0):  -0.6100     alpha+bet : -0.3306


 k-point     1 :       0.0000    0.0000    0.0000
  band No.  band energies     occupation 
      1     -15.4338      2.00000
      2     -14.5850      2.00000
      3     -14.3195      2.00000
      4     -13.9315      2.00000
      5     -13.2001      2.00000
      6     -12.7417      2.00000
      7     -11.8803      2.00000
      8     -11.6868      2.00000
      9     -11.4486      2.00000
     10     -10.5254      2.00000
     11      -8.9863      2.00000
     12      -8.6364      2.00000
     13      -8.6297      2.00000
     14      -8.6229      2.00000
     15      -8.1988      2.00000
     16      -8.1901      2.00000
     17      -8.1824      2.00000
     18      -7.8651      2.00000
     19      -7.8573      2.00000
     20      -7.8479      2.00000
     21      -6.7698      2.00000
     22      -6.7462      2.00000
     23      -6.4687      2.00000
     24      -6.4507      2.00000
     25      -6.4327      2.00000
     26      -6.3526      2.00000
     27      -6.3364      2.00000
     28      -6.3280      2.00000
     29      -1.6366      0.00000
     30      -1.3625      0.00000
     31      -1.2585      0.00000
     32      -1.1824      0.00000
     33      -1.1403      0.00000
     34      -1.0992      0.00000
     35      -1.0440      0.00000
     36      -0.9718      0.00000
     37      -0.8401      0.00000
     38      -0.6407      0.00000
     39      -0.3709      0.00000
     40      -0.2364      0.00000
     41      -0.2027      0.00000
     42      -0.1102      0.00000


--------------------------------------------------------------------------------------------------------


 soft charge-density along one line, spin component           1
         0         1         2         3         4         5         6         7         8         9
 total charge-density along one line
 
 pseudopotential strength for first ion, spin component:           1
 19.613  27.370   0.001   0.003   0.001   0.003   0.005   0.003
 27.370  38.201   0.002   0.004   0.002   0.004   0.007   0.003
  0.001   0.002   4.359   0.000   0.000   8.131   0.000   0.000
  0.003   0.004   0.000   4.359   0.000   0.000   8.131   0.000
  0.001   0.002   0.000   0.000   4.358   0.000   0.000   8.130
  0.003   0.004   8.131   0.000   0.000  15.177   0.001   0.001
  0.005   0.007   0.000   8.131   0.000   0.001  15.177   0.001
  0.003   0.003   0.000   0.000   8.130   0.001   0.001  15.176
 total augmentation occupancy for first ion, spin component:           1
  5.564  -2.042   0.051  -0.337  -0.055  -0.014   0.101   0.017
 -2.042   0.812  -0.035   0.204   0.031   0.008  -0.045  -0.007
  0.051  -0.035   2.839  -0.111  -0.030  -0.616   0.039   0.009
 -0.337   0.204  -0.111   3.287   0.049   0.039  -0.776  -0.019
 -0.055   0.031  -0.030   0.049   2.846   0.009  -0.019  -0.616
 -0.014   0.008  -0.616   0.039   0.009   0.140  -0.011  -0.002
  0.101  -0.045   0.039  -0.776  -0.019  -0.011   0.186   0.006
  0.017  -0.007   0.009  -0.019  -0.616  -0.002   0.006   0.140


------------------------ aborting loop because EDIFF is reached ----------------------------------------


    CHARGE:  cpu time    0.2400: real time    0.2398
    FORLOC:  cpu time    0.1260: real time    0.1263
    FORNL :  cpu time    0.8259: real time    0.8262
    STRESS:  cpu time    2.8186: real time    2.8169
    FORCOR:  cpu time    0.9998: real time    0.9988
    FORHAR:  cpu time    0.3509: real time    0.3513
    MIXING:  cpu time    0.0930: real time    0.0925
    OFIELD:  cpu time    0.0000: real time    0.0000

  FORCE on cell =-STRESS in cart. coord.  units (eV):
  Direction    XX          YY          ZZ          XY          YZ          ZX
  --------------------------------------------------------------------------------------
  Alpha Z     2.51538     2.51538     2.51538
  Ewald     876.64706   876.62235   876.71007    -0.21850     0.02563    -0.50464
  Hartree  1187.48282  1186.20823  1187.57340    -0.49177     0.18035     0.01370
  E(xc)    -180.27672  -180.31176  -180.24582     0.04987     0.00555    -0.01061
  Local   -2547.06391 -2545.77747 -2547.12890     0.72744    -0.20833     0.51691
  n-local   238.45371   238.70828   238.22294    -0.23447    -0.04015    -0.01032
  augment   -13.73700   -13.74637   -13.74469    -0.00013    -0.00143    -0.00570
  Kinetic   435.37924   435.14423   435.38287     0.10581     0.04683     0.00528
  Fock        0.00000     0.00000     0.00000     0.00000     0.00000     0.00000
  -------------------------------------------------------------------------------------
  Total      -0.59941    -0.63713    -0.71475    -0.06174     0.00845     0.00462
  in kB      -0.12005    -0.12760    -0.14314    -0.01237     0.00169     0.00093
  external pressure =       -0.13 kB  Pullay stress =        0.00 kB


 VOLUME and BASIS-vectors are now :
 -----------------------------------------------------------------------------
  energy-cutoff  :      400.00
[...]
 next E    =  -100.121281   (d E  =  -0.00015)


--------------------------------------------------------------------------------------------------------


    WAVPRE:  cpu time    0.3250: real time    0.3268
    FEWALD:  cpu time    0.0010: real time    0.0010
    ORTHCH:  cpu time    0.3489: real time    0.3490
     LOOP+:  cpu time   27.7608: real time   27.8732


--------------------------------------- Iteration     20(   1)  ---------------------------------------


    POTLOK:  cpu time    0.9659: real time    0.9664
    SETDIJ:  cpu time    0.0060: real time    0.0063
     EDDAV:  cpu time    3.4335: real time    3.4320
       DOS:  cpu time    0.0000: real time    0.0002
    CHARGE:  cpu time    0.2290: real time    0.2290
    MIXING:  cpu time    0.0250: real time    0.0243
    --------------------------------------------
      LOOP:  cpu time    4.6593: real time    4.6583

 eigenvalue-minimisations  :    88
 total energy-change (2. order) :-0.1872805E-05  (-0.1712409E-04)
 number of electron      56.0000002 magnetization 
 augmentation part       -4.3144348 magnetization 

 Broyden mixing:
  rms(total) = 0.40198E-03    rms(broyden)= 0.40188E-03
  rms(prec ) = 0.42839E-03
  weight for this iteration     100.00

 Free energy of the ion-electron system (eV)
  ---------------------------------------------------
  alpha Z        PSCENC =         2.51538199
  Ewald energy   TEWEN  =      2591.29029274
  -Hartree energ DENC   =     -3523.46664927
  -exchange      EXHF   =         0.00000000
  -V(xc)+E(xc)   XCENC  =       -38.78273548
  PAW double counting   =      3700.00005405    -3544.73491499
  entropy T*S    EENTRO =        -0.00000000
  eigenvalues    EBANDS =      -528.83783660
  atomic energy  EATOM  =      1241.89512738
  Solvation  Ediel_sol  =         0.00000000
  ---------------------------------------------------
  free energy    TOTEN  =      -100.12128017 eV

  energy without entropy =     -100.12128017  energy(sigma->0) =     -100.12128017


--------------------------------------------------------------------------------------------------------




--------------------------------------- Iteration     20(   2)  ---------------------------------------


    POTLOK:  cpu time    0.9659: real time    0.9652
    SETDIJ:  cpu time    0.0060: real time    0.0063
     EDDAV:  cpu time    4.3473: real time    4.3449
       DOS:  cpu time    0.0000: real time    0.0002
    CHARGE:  cpu time    0.2280: real time    0.2275
    MIXING:  cpu time    0.0240: real time    0.0247
    --------------------------------------------
      LOOP:  cpu time    5.5712: real time    5.5688

 eigenvalue-minimisations  :   120
 total energy-change (2. order) :-0.1122118E-05  (-0.9384643E-06)
 number of electron      56.0000002 magnetization 
 augmentation part       -4.3143994 magnetization 

 Broyden mixing:
  rms(total) = 0.27308E-03    rms(broyden)= 0.27298E-03
  rms(prec ) = 0.29527E-03
  weight for this iteration     100.00

 eigenvalues of (default mixing * dielectric matrix)
  average eigenvalue GAMMA=   0.8922
  0.8922

 Free energy of the ion-electron system (eV)
  ---------------------------------------------------
  alpha Z        PSCENC =         2.51538199
  Ewald energy   TEWEN  =      2591.29029274
  -Hartree energ DENC   =     -3523.46512415
  -exchange      EXHF   =         0.00000000
  -V(xc)+E(xc)   XCENC  =       -38.78265478
  PAW double counting   =      3699.88721021    -3544.62202638
  entropy T*S    EENTRO =        -0.00000000
  eigenvalues    EBANDS =      -528.83948830
  atomic energy  EATOM  =      1241.89512738
  Solvation  Ediel_sol  =         0.00000000
  ---------------------------------------------------
  free energy    TOTEN  =      -100.12128129 eV

  energy without entropy =     -100.12128129  energy(sigma->0) =     -100.12128129


--------------------------------------------------------------------------------------------------------




--------------------------------------- Iteration     20(   3)  ---------------------------------------


    POTLOK:  cpu time    0.9689: real time    0.9698
    SETDIJ:  cpu time    0.0070: real time    0.0063
     EDDAV:  cpu time    2.9855: real time    2.9842
       DOS:  cpu time    0.0000: real time    0.0002
    --------------------------------------------
      LOOP:  cpu time    3.9614: real time    3.9605

 eigenvalue-minimisations  :    72
 total energy-change (2. order) :-0.3588057E-06  (-0.2108892E-07)
 number of electron      56.0000002 magnetization 
 augmentation part       -4.3143994 magnetization 

 Free energy of the ion-electron system (eV)
  ---------------------------------------------------
  alpha Z        PSCENC =         2.51538199
  Ewald energy   TEWEN  =      2591.29029274
  -Hartree energ DENC   =     -3523.46468109
  -exchange      EXHF   =         0.00000000
  -V(xc)+E(xc)   XCENC  =       -38.78250513
  PAW double counting   =      3699.90927199    -3544.64405164
  entropy T*S    EENTRO =        -0.00000000
  eigenvalues    EBANDS =      -528.84011789
  atomic energy  EATOM  =      1241.89512738
  Solvation  Ediel_sol  =         0.00000000
  ---------------------------------------------------
  free energy    TOTEN  =      -100.12128165 eV

  energy without entropy =     -100.12128165  energy(sigma->0) =     -100.12128165


--------------------------------------------------------------------------------------------------------




 average (electrostatic) potential at core
  the test charge radii are     0.9892  1.1631  0.5201
  (the norm of the test charge is              1.0000)
       1 -93.3453       2 -93.3610       3 -93.3588       4 -93.4290       5 -40.4428
       6 -40.4607       7 -40.4062       8 -40.4609       9 -40.4859      10 -40.4863
      11 -40.9819      12 -40.9844      13 -41.0068      14 -40.8595      15 -40.8608
      16 -40.8597      17 -40.8568      18 -40.8932      19 -41.0147      20 -40.9793
      21 -40.9787      22 -41.0141      23 -40.8523      24 -40.8568      25 -40.9859
      26 -40.9854
 
 
 
 E-fermi :  -5.2890     XC(G=0):  -0.6121     alpha+bet : -0.3306


 k-point     1 :       0.0000    0.0000    0.0000
  band No.  band energies     occupation 
      1     -15.2329      2.00000
      2     -14.3768      2.00000
      3     -14.2211      2.00000
      4     -14.0017      2.00000
      5     -13.1726      2.00000
      6     -12.8553      2.00000
      7     -11.9125      2.00000
      8     -11.7539      2.00000
      9     -11.5471      2.00000
     10     -10.6643      2.00000
     11      -8.9513      2.00000
     12      -8.6796      2.00000
     13      -8.6240      2.00000
     14      -8.5532      2.00000
     15      -8.2472      2.00000
     16      -8.1570      2.00000
     17      -8.0833      2.00000
     18      -7.9086      2.00000
     19      -7.8394      2.00000
     20      -7.7956      2.00000
     21      -6.8497      2.00000
     22      -6.7551      2.00000
     23      -6.5116      2.00000
     24      -6.4468      2.00000
     25      -6.4006      2.00000
     26      -6.3233      2.00000
     27      -6.2852      2.00000
     28      -6.2704      2.00000
     29      -1.6062      0.00000
     30      -1.3990      0.00000
     31      -1.3521      0.00000
     32      -1.3260      0.00000
     33      -1.2792      0.00000
     34      -1.2075      0.00000
     35      -1.0852      0.00000
     36      -0.9570      0.00000
     37      -0.8429      0.00000
     38      -0.5928      0.00000
     39      -0.3492      0.00000
     40      -0.2256      0.00000
     41      -0.1441      0.00000
     42      -0.0717      0.00000


--------------------------------------------------------------------------------------------------------


 soft charge-density along one line, spin component           1
         0         1         2         3         4         5         6         7         8         9
 total charge-density along one line
 
 pseudopotential strength for first ion, spin component:           1
 19.615  27.374   0.001   0.003   0.001   0.002   0.006   0.002
 27.374  38.206   0.002   0.004   0.002   0.003   0.008   0.003
  0.001   0.002   4.361   0.000   0.000   8.136   0.000   0.000
  0.003   0.004   0.000   4.362   0.000   0.000   8.136   0.000
  0.001   0.002   0.000   0.000   4.361   0.000   0.000   8.136
  0.002   0.003   8.136   0.000   0.000  15.187   0.000   0.001
  0.006   0.008   0.000   8.136   0.000   0.000  15.187   0.001
  0.002   0.003   0.000   0.000   8.136   0.001   0.001  15.186
 total augmentation occupancy for first ion, spin component:           1
  5.913  -2.231  -0.002  -0.477  -0.106   0.003   0.149   0.034
 -2.231   0.903  -0.012   0.272   0.055   0.001  -0.067  -0.014
 -0.002  -0.012   2.926  -0.174  -0.089  -0.643   0.056   0.025
 -0.477   0.272  -0.174   3.507   0.036   0.056  -0.842  -0.016
 -0.106   0.055  -0.089   0.036   2.996   0.025  -0.016  -0.661
  0.003   0.001  -0.643   0.056   0.025   0.148  -0.016  -0.006
  0.149  -0.067   0.056  -0.842  -0.016  -0.016   0.205   0.005
  0.034  -0.014   0.025  -0.016  -0.661  -0.006   0.005   0.152


------------------------ aborting loop because EDIFF is reached ----------------------------------------


    CHARGE:  cpu time    0.2290: real time    0.2281
    FORLOC:  cpu time    0.1270: real time    0.1261
    FORNL :  cpu time    0.8269: real time    0.8271
    STRESS:  cpu time    2.8416: real time    2.8407
    FORCOR:  cpu time    1.0028: real time    1.0014
    FORHAR:  cpu time    0.3739: real time    0.3744
    MIXING:  cpu time    0.0280: real time    0.0280
    OFIELD:  cpu time    0.0000: real time    0.0000

  FORCE on cell =-STRESS in cart. coord.  units (eV):
  Direction    XX          YY          ZZ          XY          YZ          ZX
  --------------------------------------------------------------------------------------
  Alpha Z     2.51538     2.51538     2.51538
  Ewald     867.33294   857.72130   866.23439    -1.64281     1.58976     3.01251
  Hartree  1177.59705  1168.25332  1177.61016    -0.86370     1.52579     2.73721
  E(xc)    -180.16572  -180.25371  -180.17899     0.04279     0.00853    -0.01148
  Local   -2527.76868 -2508.35667 -2526.32352     2.64191    -3.08616    -5.68832
  n-local   237.34851   237.59831   236.97272    -0.23466    -0.11439    -0.18540
  augment   -13.98966   -13.93726   -13.94588     0.00087     0.00784     0.02074
  Kinetic   436.09273   435.36766   436.16258    -0.01987     0.04503     0.16135
  Fock        0.00000     0.00000     0.00000     0.00000     0.00000     0.00000
  -------------------------------------------------------------------------------------
  Total      -1.03745    -1.09165    -0.95317    -0.07547    -0.02361     0.04662
  in kB      -0.20777    -0.21863    -0.19089    -0.01512    -0.00473     0.00934
  external pressure =       -0.21 kB  Pullay stress =        0.00 kB


 VOLUME and BASIS-vectors are now :
 -----------------------------------------------------------------------------
  energy-cutoff  :      400.00
  volume of cell :     8000.00
      direct lattice vectors                 reciprocal lattice vectors
    20.000000000  0.000000000  0.000000000     0.050000000  0.000000000  0.000000000
     0.000000000 20.000000000  0.000000000     0.000000000  0.050000000  0.000000000
     0.000000000  0.000000000 20.000000000     0.000000000  0.000000000  0.050000000

  length of vectors
    20.000000000 20.000000000 20.000000000     0.050000000  0.050000000  0.050000000


 FORCES acting on ions
    electron-ion (+dipol)            ewald-force                    non-local-force                 convergence-correction
 -----------------------------------------------------------------------------------------------
   0.113E+02 -.201E+02 0.861E+02   -.118E+02 0.196E+02 -.877E+02   0.507E+00 0.447E+00 0.155E+01   0.485E-04 -.101E-03 0.220E-03
   0.863E+02 -.476E+01 0.431E+02   -.879E+02 0.503E+01 -.446E+02   0.163E+01 -.281E+00 0.157E+01   0.734E-03 0.698E-03 -.468E-03
   -.367E+02 0.540E+02 0.721E+02   0.372E+02 -.547E+02 -.742E+02   -.514E+00 0.733E+00 0.209E+01   0.305E-04 0.584E-03 -.226E-03
   -.838E+02 0.502E+01 -.451E+02   0.860E+02 -.513E+01 0.463E+02   -.225E+01 0.107E+00 -.120E+01   -.281E-03 -.329E-03 0.947E-04
   -.292E+02 -.837E+02 0.438E+02   0.293E+02 0.843E+02 -.444E+02   -.154E+00 -.668E+00 0.651E+00   -.297E-03 -.670E-03 -.554E-03
   0.809E+02 0.130E+02 -.411E+02   -.816E+02 -.130E+02 0.411E+02   0.700E+00 0.539E-01 0.555E-01   0.407E-03 0.118E-04 -.363E-03
   -.501E+02 0.759E+02 -.998E+01   0.506E+02 -.762E+02 0.984E+01   -.567E+00 0.301E+00 0.138E+00   0.426E-04 0.343E-03 -.112E-03
   -.416E+02 -.709E+02 -.409E+02   0.421E+02 0.711E+02 0.412E+02   -.576E+00 -.245E+00 -.352E+00   0.462E-04 -.595E-03 -.251E-03
   0.284E+02 0.819E+02 -.455E+02   -.287E+02 -.828E+02 0.460E+02   0.321E+00 0.875E+00 -.489E+00   0.332E-03 0.236E-04 -.245E-04
   0.358E+02 -.524E+02 -.739E+02   -.361E+02 0.529E+02 0.747E+02   0.394E+00 -.576E+00 -.799E+00   0.247E-03 -.365E-03 -.247E-03
   0.196E+02 0.394E+02 0.565E+01   -.208E+02 -.414E+02 -.672E+01   0.114E+01 0.197E+01 0.107E+01   0.154E-03 0.575E-04 0.678E-04
   0.112E+01 0.214E+02 -.390E+02   -.810E+00 -.219E+02 0.414E+02   -.307E+00 0.543E+00 -.244E+01   0.285E-04 -.547E-04 -.226E-04
   -.259E+02 0.384E+02 -.397E+01   0.273E+02 -.404E+02 0.416E+01   -.136E+01 0.204E+01 -.201E+00   0.300E-04 0.177E-03 -.849E-04
   -.457E+02 -.392E+01 0.586E+01   0.484E+02 0.434E+01 -.709E+01   -.266E+01 -.422E+00 0.123E+01   0.629E-05 -.384E-04 -.191E-04
   -.203E+02 0.823E+01 -.410E+02   0.207E+02 -.887E+01 0.438E+02   -.420E+00 0.640E+00 -.287E+01   0.205E-04 -.118E-03 0.439E-04
   -.366E+02 0.486E+01 0.289E+02   0.392E+02 -.444E+01 -.302E+02   -.261E+01 -.417E+00 0.134E+01   -.177E-03 0.162E-03 -.219E-04
   0.865E+01 0.362E+02 0.285E+02   -.996E+01 -.385E+02 -.298E+02   0.132E+01 0.231E+01 0.131E+01   -.391E-04 0.101E-03 -.991E-05
   0.646E+01 -.990E+01 0.471E+02   -.684E+01 0.105E+02 -.500E+02   0.380E+00 -.589E+00 0.282E+01   -.536E-04 -.875E-04 0.703E-04
   -.216E+02 -.356E+02 -.201E+02   0.227E+02 0.375E+02 0.211E+02   -.114E+01 -.191E+01 -.105E+01   0.362E-04 -.198E-03 -.681E-04
   0.288E+01 -.302E+01 -.440E+02   -.261E+01 0.252E+01 0.465E+02   -.270E+00 0.491E+00 -.245E+01   -.740E-05 -.774E-04 0.893E-04
   0.238E+02 -.360E+02 -.105E+02   -.252E+02 0.381E+02 0.103E+02   0.137E+01 -.210E+01 0.199E+00   0.105E-04 0.738E-04 -.151E-04
   0.412E+02 0.655E+01 -.196E+02   -.434E+02 -.690E+01 0.206E+02   0.221E+01 0.349E+00 -.104E+01   0.676E-04 0.460E-04 -.187E-03
   0.320E+02 0.248E+02 0.234E+02   -.334E+02 -.271E+02 -.247E+02   0.143E+01 0.223E+01 0.131E+01   0.129E-03 -.471E-04 -.177E-03
   0.346E+02 -.291E+02 0.121E+02   -.362E+02 0.315E+02 -.124E+02   0.165E+01 -.244E+01 0.332E+00   0.211E-03 0.793E-04 -.175E-03
   0.124E+02 -.414E+02 0.113E+02   -.138E+02 0.435E+02 -.115E+02   0.136E+01 -.210E+01 0.252E+00   -.910E-04 -.986E-04 -.147E-03
   -.334E+02 -.199E+02 0.225E+02   0.356E+02 0.203E+02 -.236E+02   -.221E+01 -.415E+00 0.113E+01   -.150E-03 -.180E-03 -.136E-03
 -----------------------------------------------------------------------------------------------
   0.626E+00 -.913E+00 -.415E+01   0.711E-14 0.959E-13 0.853E-13   -.625E+00 0.915E+00 0.415E+01   0.149E-02 -.602E-03 -.272E-02
 
 
 POSITION                                       TOTAL-FORCE (eV/Angst)
 -----------------------------------------------------------------------------------
      9.49269     11.09517      7.68494        -0.014898      0.003345     -0.011221
      7.38840     10.78137      8.69371         0.005464     -0.014014      0.007869
     10.82201      9.16720      7.90259        -0.006245     -0.002072      0.017658
     12.30372     10.49253     11.31825        -0.003330     -0.002246     -0.006859
     10.62014     12.95273      8.71714         0.001161      0.002663      0.006439
      7.63718     10.29531     11.03664        -0.000888      0.008751     -0.006234
     11.18244      8.66582     10.22752         0.007002      0.005646      0.003388
     10.98107     12.48627     11.09989        -0.002575     -0.004212      0.006714
      9.00620      8.27694     11.29562         0.000836     -0.000252     -0.001538
      8.78647     12.15712     12.15009        -0.000255      0.002368      0.003211
      8.29818      7.05755     10.63171         0.007353      0.005835      0.001970
      9.19648      7.94165     12.80482         0.000383      0.001235     -0.000161
     12.04934      7.37146     10.35379         0.001058      0.008511     -0.005648
     13.64856     10.70656     10.69186        -0.009155     -0.001645      0.005910
     12.51390     10.16955     12.76572         0.001478     -0.002770      0.000844
     12.14191      9.38100      7.22611        -0.000316      0.004909     -0.002897
     10.15239      7.99966      7.24285         0.000469      0.005320      0.004274
      9.29518     11.39971      6.22660        -0.002846     -0.002264     -0.002096
     11.70692     13.69854     11.76830        -0.002128     -0.012042     -0.005617
      8.95387     11.85209     13.66911        -0.003197     -0.001433     -0.005318
      7.93943     13.45969     12.02646         0.008779     -0.006274      0.001379
      6.23580     10.07497     11.69296         0.005813      0.004832     -0.012105
      6.66585      9.64862      8.02704         0.011783      0.011856      0.005104
      6.55617     12.01629      8.52619         0.003259      0.003027     -0.003981
      9.77580     14.25288      8.56075        -0.001445     -0.009972      0.000594
     11.98931     13.20731      8.01770        -0.007562     -0.009099     -0.001677
 -----------------------------------------------------------------------------------
    total drift:                                0.001842      0.001907      0.000618


--------------------------------------------------------------------------------------------------------



  FREE ENERGIE OF THE ION-ELECTRON SYSTEM (eV)
  ---------------------------------------------------
  free  energy   TOTEN  =      -100.12128165 eV

  energy  without entropy=     -100.12128165  energy(sigma->0) =     -100.12128165
 
 d Force = 0.3508607E-05[-0.693E-07, 0.709E-05]  d Energy = 0.4072617E-05-0.564E-06
 d Force = 0.1138028E+00[ 0.114E+00, 0.114E+00]  d Ewald  = 0.1138028E+00 0.431E-09


--------------------------------------------------------------------------------------------------------


    POTLOK:  cpu time    0.9749: real time    0.9743


--------------------------------------------------------------------------------------------------------




--------------------------------------------------------------------------------------------------------


  
 reached required accuracy - stopping structural energy minimisation
 writing wavefunctions
     LOOP+:  cpu time   20.9838: real time   21.4298
    4ORBIT:  cpu time    0.0000: real time    0.0000

 total amount of memory used by VASP MPI-rank0   131440. kBytes
=======================================================================

   base      :      30000. kBytes
   nonl-proj :      17624. kBytes
   fftplans  :      26957. kBytes
   grid      :      48673. kBytes
   one-center:         40. kBytes
   wavefun   :       8146. kBytes
 
  
  
 General timing and accounting informations for this job:
 ========================================================
  
                  Total CPU time used (sec):     1122.769
                            User time (sec):     1099.973
                          System time (sec):       22.797
                         Elapsed time (sec):     1126.706
  
                   Maximum memory used (kb):      187604.
                   Average memory used (kb):           0.
  
                          Minor page faults:      6214316
                          Major page faults:           10
                 Voluntary context switches:         7213
