 vasp.5.4.4.18Apr17-6-g9f103f2a35 (build Nov 06 2017 19:16:10) complex          
  
 executed on           IFC91_ompi date 2018.07.10  01:01:29
 running on   12 total cores
 distrk:  each k-point on   12 cores,    1 groups
 distr:  one band on NCORES_PER_BAND=   6 cores,    2 groups


--------------------------------------------------------------------------------------------------------


 INCAR:
 POTCAR:    PAW_PBE Si 05Jan2001                  
 POTCAR:    PAW_PBE Ge 05Jan2001                  
 POTCAR:    PAW_PBE H 15Jun2001                   
 POTCAR:    PAW_PBE Si 05Jan2001                  
   VRHFIN =Si: s2p2                                                             
   LEXCH  = PE                                                                  
   EATOM  =   103.0669 eV,    7.5752 Ry                                         
                                                                                
   TITEL  = PAW_PBE Si 05Jan2001                                                
   LULTRA =        F    use ultrasoft PP ?                                      
   IUNSCR =        1    unscreen: 0-lin 1-nonlin 2-no                           
   RPACOR =    1.500    partial core radius                                     
   POMASS =   28.085; ZVAL   =    4.000    mass and valenz                      
   RCORE  =    1.900    outmost cutoff radius                                   
   RWIGS  =    2.480; RWIGS  =    1.312    wigner-seitz radius (au A)           
   ENMAX  =  245.345; ENMIN  =  184.009 eV                                      
   ICORE  =        2    local potential                                         
   LCOR   =        T    correct aug charges                                     
   LPAW   =        T    paw PP                                                  
   EAUG   =  322.069                                                            
   DEXC   =    0.000                                                            
   RMAX   =    1.950    core radius for proj-oper                               
   RAUG   =    1.300    factor for augmentation sphere                          
   RDEP   =    1.993    radius for radial grids                                 
   RDEPT  =    1.837    core radius for aug-charge                              
                                                                                
   Atomic configuration                                                         
    6 entries                                                                   
     n  l   j            E        occ.                                          
     1  0  0.50     -1785.8828   2.0000                                         
     2  0  0.50      -139.4969   2.0000                                         
     2  1  1.50       -95.5546   6.0000                                         
     3  0  0.50       -10.8127   2.0000                                         
     3  1  0.50        -4.0811   2.0000                                         
     3  2  1.50        -4.0817   0.0000                                         
   Description                                                                  
     l       E           TYP  RCUT    TYP  RCUT                                 
     0    -10.8127223     23  1.900                                             
     0     -7.6451159     23  1.900                                             
     1     -4.0811372     23  1.900                                             
     1      2.4879257     23  1.900                                             
     2     -4.0817478      7  1.900                                             
  local pseudopotential read in
  partial core-charges read in
  partial kinetic energy density read in
  atomic valenz-charges read in
  non local Contribution for L=           0  read in
    real space projection operators read in
  non local Contribution for L=           0  read in
    real space projection operators read in
  non local Contribution for L=           1  read in
    real space projection operators read in
  non local Contribution for L=           1  read in
    real space projection operators read in
    PAW grid and wavefunctions read in
 
   number of l-projection  operators is LMAX  =           4
   number of lm-projection operators is LMMAX =           8
 
 POTCAR:    PAW_PBE Ge 05Jan2001                  
   VRHFIN =Ge: s2p2                                                             
   LEXCH  = PE                                                                  
   EATOM  =   104.9960 eV,    7.7170 Ry                                         
                                                                                
   TITEL  = PAW_PBE Ge 05Jan2001                                                
   LULTRA =        F    use ultrasoft PP ?                                      
   IUNSCR =        1    unscreen: 0-lin 1-nonlin 2-no                           
   RPACOR =    2.170    partial core radius                                     
   POMASS =   72.610; ZVAL   =    4.000    mass and valenz                      
   RCORE  =    2.300    outmost cutoff radius                                   
   RWIGS  =    2.300; RWIGS  =    1.217    wigner-seitz radius (au A)           
   ENMAX  =  173.807; ENMIN  =  130.355 eV                                      
   ICORE  =        3    local potential                                         
   LCOR   =        T    correct aug charges                                     
   LPAW   =        T    paw PP                                                  
   EAUG   =  385.843                                                            
   DEXC   =    0.000                                                            
   RMAX   =    2.342    core radius for proj-oper                               
   RAUG   =    1.300    factor for augmentation sphere                          
   RDEP   =    2.318    radius for radial grids                                 
   RDEPT  =    2.103    core radius for aug-charge                              
                                                                                
   Atomic configuration                                                         
   10 entries                                                                   
     n  l   j            E        occ.                                          
     1  0  0.50    -10959.8463   2.0000                                         
     2  0  0.50     -1371.6056   2.0000                                         
     2  1  1.50     -1198.4791   6.0000                                         
     3  0  0.50      -168.4733   2.0000                                         
     3  1  1.50      -115.6019   6.0000                                         
     3  2  2.50       -29.3106  10.0000                                         
     4  0  0.50       -11.7309   2.0000                                         
     4  1  0.50        -3.8952   2.0000                                         
     4  2  1.50        -4.0817   0.0000                                         
     4  3  2.50        -4.0817   0.0000                                         
   Description                                                                  
     l       E           TYP  RCUT    TYP  RCUT                                 
     0    -11.7309493     23  2.300                                             
     0     -7.4578696     23  2.300                                             
     1     -3.8952261     23  2.300                                             
     1      6.1178114     23  2.300                                             
     2     -4.0817478     23  2.300                                             
     3     -1.3605826      7  2.300                                             
  local pseudopotential read in
  partial core-charges read in
  partial kinetic energy density read in
  atomic valenz-charges read in
  non local Contribution for L=           0  read in
    real space projection operators read in
  non local Contribution for L=           0  read in
    real space projection operators read in
  non local Contribution for L=           1  read in
    real space projection operators read in
  non local Contribution for L=           1  read in
    real space projection operators read in
  non local Contribution for L=           2  read in
    real space projection operators read in
    PAW grid and wavefunctions read in
 
   number of l-projection  operators is LMAX  =           5
   number of lm-projection operators is LMMAX =          13
 
 POTCAR:    PAW_PBE H 15Jun2001                   
   VRHFIN =H: ultrasoft test                                                    
   LEXCH  = PE                                                                  
   EATOM  =    12.4884 eV,    0.9179 Ry                                         
                                                                                
   TITEL  = PAW_PBE H 15Jun2001                                                 
   LULTRA =        F    use ultrasoft PP ?                                      
   IUNSCR =        0    unscreen: 0-lin 1-nonlin 2-no                           
   RPACOR =    0.000    partial core radius                                     
   POMASS =    1.000; ZVAL   =    1.000    mass and valenz                      
   RCORE  =    1.100    outmost cutoff radius                                   
   RWIGS  =    0.700; RWIGS  =    0.370    wigner-seitz radius (au A)           
   ENMAX  =  250.000; ENMIN  =  200.000 eV                                      
   RCLOC  =    0.701    cutoff for local pot                                    
   LCOR   =        T    correct aug charges                                     
   LPAW   =        T    paw PP                                                  
   EAUG   =  400.000                                                            
   RMAX   =    1.123    core radius for proj-oper                               
   RAUG   =    1.200    factor for augmentation sphere                          
   RDEP   =    1.112    radius for radial grids                                 
   RDEPT  =    0.926    core radius for aug-charge                              
                                                                                
   Atomic configuration                                                         
    2 entries                                                                   
     n  l   j            E        occ.                                          
     1  0  0.50        -6.4927   1.0000                                         
     2  1  0.50        -3.4015   0.0000                                         
   Description                                                                  
     l       E           TYP  RCUT    TYP  RCUT                                 
     0     -6.4927494     23  1.100                                             
     0      6.8029130     23  1.100                                             
     1     -4.0817478     23  1.100                                             
  local pseudopotential read in
  atomic valenz-charges read in
  non local Contribution for L=           0  read in
    real space projection operators read in
  non local Contribution for L=           0  read in
    real space projection operators read in
  non local Contribution for L=           1  read in
    real space projection operators read in
    PAW grid and wavefunctions read in
 
   number of l-projection  operators is LMAX  =           3
   number of lm-projection operators is LMMAX =           5
 

 ----------------------------------------------------------------------------- 
|                                                                             |
|  ADVICE TO THIS USER RUNNING 'VASP/VAMP'   (HEAR YOUR MASTER'S VOICE ...):  |
|                                                                             |
|      You have a (more or less) 'large supercell' and for larger cells       |
|      it might be more efficient to use real space projection opertators     |
|      So try LREAL= Auto  in the INCAR   file.                               |
|      Mind:          For very  accurate calculation you might also keep the  |
|      reciprocal projection scheme          (i.e. LREAL=.FALSE.)             |
|                                                                             |
 ----------------------------------------------------------------------------- 

  PAW_PBE Si 05Jan2001                  :
 energy of atom  1       EATOM= -103.0669
 kinetic energy error for atom=    0.0012 (will be added to EATOM!!)
  PAW_PBE Ge 05Jan2001                  :
 energy of atom  2       EATOM= -104.9960
 kinetic energy error for atom=    0.0003 (will be added to EATOM!!)
  PAW_PBE H 15Jun2001                   :
 energy of atom  3       EATOM=  -12.4884
 kinetic energy error for atom=    0.0098 (will be added to EATOM!!)
 
 
 POSCAR: SiGeH16                                 
  positions in direct lattice
  No initial velocities read in
 exchange correlation table for  LEXCH =        8
   RHO(1)=    0.500       N(1)  =     2000
   RHO(2)=  100.500       N(2)  =     4000
 


--------------------------------------------------------------------------------------------------------


 ion  position               nearest neighbor table
   1  0.475  0.556  0.385-  18 1.55   5 2.39   2 2.39   4 2.39
   2  0.369  0.539  0.436-  23 1.55  24 1.55   6 2.39   1 2.39
   3  0.613  0.525  0.565-  15 1.55  14 1.55   8 2.39   7 2.39
   4  0.542  0.457  0.396-  17 1.55  16 1.55   7 2.39   1 2.39
   5  0.531  0.648  0.437-  25 1.55  26 1.55   8 2.39   1 2.39
   6  0.385  0.515  0.552-  22 1.55  10 2.39   9 2.39   2 2.39
   7  0.557  0.433  0.512-  13 1.55   4 2.39   3 2.39   9 2.39
   8  0.547  0.624  0.554-  19 1.55   5 2.39   3 2.39  10 2.39
   9  0.451  0.416  0.564-  12 1.55  11 1.55   6 2.39   7 2.39
  10  0.440  0.606  0.605-  20 1.55  21 1.55   6 2.39   8 2.39
  11  0.415  0.357  0.529-   9 1.55
  12  0.461  0.400  0.639-   9 1.55
  13  0.600  0.369  0.520-   7 1.55
  14  0.682  0.536  0.531-   3 1.55
  15  0.623  0.509  0.640-   3 1.55
  16  0.611  0.469  0.363-   4 1.55
  17  0.506  0.398  0.362-   4 1.55
  18  0.465  0.572  0.309-   1 1.55
  19  0.583  0.683  0.588-   8 1.55
  20  0.451  0.590  0.680-  10 1.55
  21  0.397  0.670  0.598-  10 1.55
  22  0.316  0.504  0.586-   6 1.55
  23  0.333  0.479  0.402-   2 1.55
  24  0.326  0.603  0.429-   2 1.55
  25  0.488  0.712  0.430-   5 1.55
  26  0.600  0.659  0.404-   5 1.55
 
  LATTYP: Found a simple cubic cell.
 ALAT       =    20.0000000000
  
  Lattice vectors:
  
 A1 = (  20.0000000000,   0.0000000000,   0.0000000000)
 A2 = (   0.0000000000,  20.0000000000,   0.0000000000)
 A3 = (   0.0000000000,   0.0000000000,  20.0000000000)


Analysis of symmetry for initial positions (statically):
=====================================================================
 Subroutine PRICEL returns:
 Original cell was already a primitive cell.
 

 Routine SETGRP: Setting up the symmetry group for a 
 simple cubic supercell.


 Subroutine GETGRP returns: Found  1 space group operations
 (whereof  1 operations were pure point group operations)
 out of a pool of 48 trial point group operations.


The static configuration has the point symmetry C_1 .


Analysis of symmetry for dynamics (positions and initial velocities):
=====================================================================
 Subroutine PRICEL returns:
 Original cell was already a primitive cell.
 

 Routine SETGRP: Setting up the symmetry group for a 
 simple cubic supercell.


 Subroutine GETGRP returns: Found  1 space group operations
 (whereof  1 operations were pure point group operations)
 out of a pool of 48 trial point group operations.


The dynamic configuration has the point symmetry C_1 .


 Subroutine INISYM returns: Found  1 space group operations
 (whereof  1 operations are pure point group operations),
 and found     1 'primitive' translations

 
 
 KPOINTS: Automatic mesh                          

Automatic generation of k-mesh.
Space group operators:
 irot       det(A)        alpha          n_x          n_y          n_z        tau_x        tau_y        tau_z
    1     1.000000     0.000000     1.000000     0.000000     0.000000     0.000000     0.000000     0.000000
 
 Subroutine IBZKPT returns following result:
 ===========================================
 
 Found      1 irreducible k-points:
 
 Following reciprocal coordinates:
            Coordinates               Weight
  0.000000  0.000000  0.000000      1.000000
 
 Following cartesian coordinates:
            Coordinates               Weight
  0.000000  0.000000  0.000000      1.000000
 


--------------------------------------------------------------------------------------------------------




 Dimension of arrays:
   k-points           NKPTS =      1   k-points in BZ     NKDIM =      1   number of bands    NBANDS=     42
   number of dos      NEDOS =    301   number of ions     NIONS =     26
   non local maximal  LDIM  =      5   non local SUM 2l+1 LMDIM =     13
   total plane-waves  NPLWV = 941192
   max r-space proj   IRMAX =      1   max aug-charges    IRDMAX=   6593
   dimension x,y,z NGX =    98 NGY =   98 NGZ =   98
   dimension x,y,z NGXF=   196 NGYF=  196 NGZF=  196
   support grid    NGXF=   196 NGYF=  196 NGZF=  196
   ions per type =               3   7  16
   NGX,Y,Z   is equivalent  to a cutoff of   8.15,  8.15,  8.15 a.u.
   NGXF,Y,Z  is equivalent  to a cutoff of  16.29, 16.29, 16.29 a.u.

 SYSTEM =  SiGe                                    
 POSCAR =  SiGeH16                                 

 Startparameter for this run:
   NWRITE =      2    write-flag & timer
   PREC   = normal    normal or accurate (medium, high low for compatibility)
   ISTART =      0    job   : 0-new  1-cont  2-samecut
   ICHARG =      2    charge: 1-file 2-atom 10-const
   ISPIN  =      1    spin polarized calculation?
   LNONCOLLINEAR =      F non collinear calculations
   LSORBIT =      F    spin-orbit coupling
   INIWAV =      1    electr: 0-lowe 1-rand  2-diag
   LASPH  =      F    aspherical Exc in radial PAW
   METAGGA=      F    non-selfconsistent MetaGGA calc.

 Electronic Relaxation 1
   ENCUT  =  400.0 eV  29.40 Ry    5.42 a.u.  32.61 32.61 32.61*2*pi/ulx,y,z
   ENINI  =  400.0     initial cutoff
   ENAUG  =  400.0 eV  augmentation charge cutoff
   NELM   =     60;   NELMIN=  2; NELMDL= -5     # of ELM steps 
   EDIFF  = 0.1E-05   stopping-criterion for ELM
   LREAL  =      F    real-space projection
   NLSPLINE    = F    spline interpolate recip. space projectors
   LCOMPAT=      F    compatible to vasp.4.4
   GGA_COMPAT  = T    GGA compatible to vasp.4.4-vasp.4.6
   LMAXPAW     = -100 max onsite density
   LMAXMIX     =    2 max onsite mixed and CHGCAR
   VOSKOWN=      0    Vosko Wilk Nusair interpolation
   ROPT   =    0.00000   0.00000   0.00000
 Ionic relaxation
   EDIFFG = -.2E-01   stopping-criterion for IOM
   NSW    =    200    number of steps for IOM
   NBLOCK =      1;   KBLOCK =    200    inner block; outer block 
   IBRION =      2    ionic relax: 0-MD 1-quasi-New 2-CG
   NFREE  =      1    steps in history (QN), initial steepest desc. (CG)
   ISIF   =      2    stress and relaxation
   IWAVPR =     11    prediction:  0-non 1-charg 2-wave 3-comb
   ISYM   =      2    0-nonsym 1-usesym 2-fastsym
   LCORR  =      T    Harris-Foulkes like correction to forces

   POTIM  = 0.5000    time-step for ionic-motion
   TEIN   =    0.0    initial temperature
   TEBEG  =    0.0;   TEEND  =   0.0 temperature during run
   SMASS  =  -3.00    Nose mass-parameter (am)
   estimated Nose-frequenzy (Omega)   =  0.10E-29 period in steps =****** mass=  -0.914E-26a.u.
   SCALEE = 1.0000    scale energy and forces
   NPACO  =    256;   APACO  = 16.0  distance and # of slots for P.C.
   PSTRESS=    0.0 pullay stress

  Mass of Ions in am
   POMASS =  28.09 72.61  1.00
  Ionic Valenz
   ZVAL   =   4.00  4.00  1.00
  Atomic Wigner-Seitz radii
   RWIGS  =  -1.00 -1.00 -1.00
  virtual crystal weights 
   VCA    =   1.00  1.00  1.00
   NELECT =      56.0000    total number of electrons
   NUPDOWN=      -1.0000    fix difference up-down

 DOS related values:
   EMIN   =  10.00;   EMAX   =-10.00  energy-range for DOS
   EFERMI =   0.00
   ISMEAR =     0;   SIGMA  =   0.20  broadening in eV -4-tet -1-fermi 0-gaus

 Electronic relaxation 2 (details)
   IALGO  =     38    algorithm
   LDIAG  =      T    sub-space diagonalisation (order eigenvalues)
   LSUBROT=      F    optimize rotation matrix (better conditioning)
   TURBO    =      0    0=normal 1=particle mesh
   IRESTART =      0    0=no restart 2=restart with 2 vectors
   NREBOOT  =      0    no. of reboots
   NMIN     =      0    reboot dimension
   EREF     =   0.00    reference energy to select bands
   IMIX   =      4    mixing-type and parameters
     AMIX     =   0.40;   BMIX     =  1.00
     AMIX_MAG =   1.60;   BMIX_MAG =  1.00
     AMIN     =   0.10
     WC   =   100.;   INIMIX=   1;  MIXPRE=   1;  MAXMIX= -45

 Intra band minimization:
   WEIMIN = 0.0010     energy-eigenvalue tresh-hold
   EBREAK =  0.60E-08  absolut break condition
   DEPER  =   0.30     relativ break condition  

   TIME   =   0.40     timestep for ELM

  volume/ion in A,a.u.               =     307.69      2076.41
  Fermi-wavevector in a.u.,A,eV,Ry     =   0.313166  0.591797  1.334361  0.098073
  Thomas-Fermi vector in A             =   1.193276
 
 Write flags
   LWAVE        =      T    write WAVECAR
   LDOWNSAMPLE  =      F    k-point downsampling of WAVECAR
   LCHARG       =      T    write CHGCAR
   LVTOT        =      F    write LOCPOT, total local potential
   LVHAR        =      F    write LOCPOT, Hartree potential only
   LELF         =      F    write electronic localiz. function (ELF)
   LORBIT       =      0    0 simple, 1 ext, 2 COOP (PROOUT), +10 PAW based schemes


 Dipole corrections
   LMONO  =      F    monopole corrections only (constant potential shift)
   LDIPOL =      F    correct potential (dipole corrections)
   IDIPOL =      0    1-x, 2-y, 3-z, 4-all directions 
   EPSILON=  1.0000000 bulk dielectric constant

 Exchange correlation treatment:
   GGA     =    --    GGA type
   LEXCH   =     8    internal setting for exchange type
   VOSKOWN=      0    Vosko Wilk Nusair interpolation
   LHFCALC =     F    Hartree Fock is set to
   LHFONE  =     F    Hartree Fock one center treatment
   AEXX    =    0.0000 exact exchange contribution

 Linear response parameters
   LEPSILON=     F    determine dielectric tensor
   LRPA    =     F    only Hartree local field effects (RPA)
   LNABLA  =     F    use nabla operator in PAW spheres
   LVEL    =     F    velocity operator in full k-point grid
   LINTERFAST=   F  fast interpolation
   KINTER  =     0    interpolate to denser k-point grid
   CSHIFT  =0.1000    complex shift for real part using Kramers Kronig
   OMEGAMAX=  -1.0    maximum frequency
   DEG_THRESHOLD= 0.2000000E-02 threshold for treating states as degnerate
   RTIME   =   -0.100 relaxation time in fs
  (WPLASMAI=    0.000 imaginary part of plasma frequency in eV, 0.658/RTIME)
   DFIELD  = 0.0000000 0.0000000 0.0000000 field for delta impulse in time
 
 Orbital magnetization related:
   ORBITALMAG=     F  switch on orbital magnetization
   LCHIMAG   =     F  perturbation theory with respect to B field
   DQ        =  0.001000  dq finite difference perturbation B field
   LLRAUG    =     F  two centre corrections for induced B field



--------------------------------------------------------------------------------------------------------


 conjugate gradient relaxation of ions
 charge density and potential will be updated during run
 non-spin polarized calculation
 Variant of blocked Davidson
 Davidson routine will perform the subspace rotation
 perform sub-space diagonalisation
    after iterative eigenvector-optimisation
 modified Broyden-mixing scheme, WC =      100.0
 initial mixing is a Kerker type mixing with AMIX =  0.4000 and BMIX =      1.0000
 Hartree-type preconditioning will be used
 using additional bands           14
 reciprocal scheme for non local part
 use partial core corrections
 calculate Harris-corrections to forces 
   (improved forces if not selfconsistent)
 use gradient corrections 
 use of overlap-Matrix (Vanderbilt PP)
 Gauss-broadening in eV      SIGMA  =   0.20


--------------------------------------------------------------------------------------------------------


  energy-cutoff  :      400.00
  volume of cell :     8000.00
      direct lattice vectors                 reciprocal lattice vectors
    20.000000000  0.000000000  0.000000000     0.050000000  0.000000000  0.000000000
     0.000000000 20.000000000  0.000000000     0.000000000  0.050000000  0.000000000
     0.000000000  0.000000000 20.000000000     0.000000000  0.000000000  0.050000000

  length of vectors
    20.000000000 20.000000000 20.000000000     0.050000000  0.050000000  0.050000000


 
 k-points in units of 2pi/SCALE and weight: Automatic mesh                          
   0.00000000  0.00000000  0.00000000       1.000
 
 k-points in reciprocal lattice and weights: Automatic mesh                          
   0.00000000  0.00000000  0.00000000       1.000
 
 position of ions in fractional coordinates (direct lattice) 
   0.47547100  0.55626000  0.38465300
   0.36907800  0.53906000  0.43641200
   0.61299700  0.52481700  0.56496600
   0.54179100  0.45744600  0.39613600
   0.53111600  0.64794100  0.43749600
   0.38461900  0.51474100  0.55243500
   0.55736800  0.43311000  0.51215000
   0.54669200  0.62364400  0.55351800
   0.45095700  0.41593600  0.56388300
   0.44028400  0.60643000  0.60524300
   0.41490100  0.35665000  0.52940300
   0.46117000  0.40042600  0.63910800
   0.60034800  0.36907000  0.51957800
   0.68182700  0.53600700  0.53118700
   0.62280400  0.50903400  0.64018900
   0.61080000  0.46880600  0.36278200
   0.50550800  0.39805500  0.36207700
   0.46538400  0.57201900  0.30946400
   0.58275500  0.68306700  0.58775000
   0.45052500  0.59044300  0.68036400
   0.39732000  0.67044900  0.59753500
   0.31566200  0.50359800  0.58596500
   0.33322800  0.47946500  0.40225200
   0.32629100  0.60324700  0.42912600
   0.48792300  0.71185500  0.43020800
   0.60015100  0.65882400  0.40403700
 
 position of ions in cartesian coordinates  (Angst):
   9.50942000 11.12520000  7.69306000
   7.38156000 10.78120000  8.72824000
  12.25994000 10.49634000 11.29932000
  10.83582000  9.14892000  7.92272000
  10.62232000 12.95882000  8.74992000
   7.69238000 10.29482000 11.04870000
  11.14736000  8.66220000 10.24300000
  10.93384000 12.47288000 11.07036000
   9.01914000  8.31872000 11.27766000
   8.80568000 12.12860000 12.10486000
   8.29802000  7.13300000 10.58806000
   9.22340000  8.00852000 12.78216000
  12.00696000  7.38140000 10.39156000
  13.63654000 10.72014000 10.62374000
  12.45608000 10.18068000 12.80378000
  12.21600000  9.37612000  7.25564000
  10.11016000  7.96110000  7.24154000
   9.30768000 11.44038000  6.18928000
  11.65510000 13.66134000 11.75500000
   9.01050000 11.80886000 13.60728000
   7.94640000 13.40898000 11.95070000
   6.31324000 10.07196000 11.71930000
   6.66456000  9.58930000  8.04504000
   6.52582000 12.06494000  8.58252000
   9.75846000 14.23710000  8.60416000
  12.00302000 13.17648000  8.08074000
 


--------------------------------------------------------------------------------------------------------


 k-point  1 :   0.0000 0.0000 0.0000  plane waves:  145165

 maximum and minimum number of plane-waves per node :     24209    24180

 maximum number of plane-waves:    145165
 maximum index in each direction: 
   IXMAX=   32   IYMAX=   32   IZMAX=   32
   IXMIN=  -32   IYMIN=  -32   IZMIN=  -32


 parallel 3D FFT for wavefunctions:
    minimum data exchange during FFTs selected (reduces bandwidth)
 parallel 3D FFT for charge:
    minimum data exchange during FFTs selected (reduces bandwidth)


 total amount of memory used by VASP MPI-rank0   131440. kBytes
=======================================================================

   base      :      30000. kBytes
   nonl-proj :      17624. kBytes
   fftplans  :      26957. kBytes
   grid      :      48673. kBytes
   one-center:         40. kBytes
   wavefun   :       8146. kBytes
 
     INWAV:  cpu time    0.0000: real time    0.0000
 Broyden mixing: mesh for mixing (old mesh)
   NGX = 65   NGY = 65   NGZ = 65
  (NGX  =196   NGY  =196   NGZ  =196)
  gives a total of 274625 points

 initial charge density was supplied:
 charge density of overlapping atoms calculated
 number of electron      56.0000000 magnetization 
 keeping initial charge density in first step


--------------------------------------------------------------------------------------------------------


 Maximum index for augmentation-charges          565 (set IRDMAX)


--------------------------------------------------------------------------------------------------------


 First call to EWALD:  gamma=   0.089
 Maximum number of real-space cells 3x 3x 3
 Maximum number of reciprocal cells 3x 3x 3

    FEWALD:  cpu time    0.0030: real time    0.0024


--------------------------------------- Iteration      1(   1)  ---------------------------------------


    POTLOK:  cpu time    0.9959: real time    0.9974
    SETDIJ:  cpu time    0.0060: real time    0.0062
     EDDAV:  cpu time    4.3393: real time    4.3384
       DOS:  cpu time    0.0010: real time    0.0003
    --------------------------------------------
      LOOP:  cpu time    5.3422: real time    5.3424

 eigenvalue-minimisations  :   116
 total energy-change (2. order) : 0.2100706E+03  (-0.1046248E+04)
 number of electron      56.0000000 magnetization 
 augmentation part       56.0000000 magnetization 

 Free energy of the ion-electron system (eV)
  ---------------------------------------------------
  alpha Z        PSCENC =         2.79095307
  Ewald energy   TEWEN  =      2629.98113996
  -Hartree energ DENC   =     -3439.29826477
  -exchange      EXHF   =         0.00000000
  -V(xc)+E(xc)   XCENC  =       -47.28844956
  PAW double counting   =       915.53220421     -761.48141222
  entropy T*S    EENTRO =        -0.44452022
  eigenvalues    EBANDS =      -333.54606596
  atomic energy  EATOM  =      1243.82505112
  Solvation  Ediel_sol  =         0.00000000
  ---------------------------------------------------
  free energy    TOTEN  =       210.07063563 eV

  energy without entropy =      210.51515585  energy(sigma->0) =      210.29289574


--------------------------------------------------------------------------------------------------------




--------------------------------------- Iteration      1(   2)  ---------------------------------------


     EDDAV:  cpu time    5.2862: real time    5.4146
       DOS:  cpu time    0.0010: real time    0.0003
    --------------------------------------------
      LOOP:  cpu time    5.2872: real time    5.4149

 eigenvalue-minimisations  :   144
 total energy-change (2. order) :-0.2335273E+03  (-0.2181936E+03)
 number of electron      56.0000000 magnetization 
 augmentation part       56.0000000 magnetization 

 Free energy of the ion-electron system (eV)
  ---------------------------------------------------
  alpha Z        PSCENC =         2.79095307
  Ewald energy   TEWEN  =      2629.98113996
  -Hartree energ DENC   =     -3439.29826477
  -exchange      EXHF   =         0.00000000
  -V(xc)+E(xc)   XCENC  =       -47.28844956
  PAW double counting   =       915.53220421     -761.48141222
  entropy T*S    EENTRO =        -0.00000000
  eigenvalues    EBANDS =      -567.51790830
  atomic energy  EATOM  =      1243.82505112
  Solvation  Ediel_sol  =         0.00000000
  ---------------------------------------------------
  free energy    TOTEN  =       -23.45668649 eV

  energy without entropy =      -23.45668649  energy(sigma->0) =      -23.45668649


--------------------------------------------------------------------------------------------------------




--------------------------------------- Iteration      1(   3)  ---------------------------------------


     EDDAV:  cpu time    4.2234: real time    4.2219
       DOS:  cpu time    0.0010: real time    0.0003
    --------------------------------------------
      LOOP:  cpu time    4.2244: real time    4.2223

 eigenvalue-minimisations  :   112
 total energy-change (2. order) :-0.7560032E+02  (-0.7542491E+02)
 number of electron      56.0000000 magnetization 
 augmentation part       56.0000000 magnetization 

 Free energy of the ion-electron system (eV)
  ---------------------------------------------------
  alpha Z        PSCENC =         2.79095307
  Ewald energy   TEWEN  =      2629.98113996
  -Hartree energ DENC   =     -3439.29826477
  -exchange      EXHF   =         0.00000000
  -V(xc)+E(xc)   XCENC  =       -47.28844956
  PAW double counting   =       915.53220421     -761.48141222
  entropy T*S    EENTRO =        -0.00000000
  eigenvalues    EBANDS =      -643.11822521
  atomic energy  EATOM  =      1243.82505112
  Solvation  Ediel_sol  =         0.00000000
  ---------------------------------------------------
  free energy    TOTEN  =       -99.05700340 eV

  energy without entropy =      -99.05700340  energy(sigma->0) =      -99.05700340


--------------------------------------------------------------------------------------------------------




--------------------------------------- Iteration      1(   4)  ---------------------------------------


     EDDAV:  cpu time    4.0024: real time    4.0011
       DOS:  cpu time    0.0000: real time    0.0003
    --------------------------------------------
      LOOP:  cpu time    4.0024: real time    4.0013

 eigenvalue-minimisations  :   104
 total energy-change (2. order) :-0.4346874E+01  (-0.4329776E+01)
 number of electron      56.0000000 magnetization 
 augmentation part       56.0000000 magnetization 

 Free energy of the ion-electron system (eV)
  ---------------------------------------------------
  alpha Z        PSCENC =         2.79095307
  Ewald energy   TEWEN  =      2629.98113996
  -Hartree energ DENC   =     -3439.29826477
  -exchange      EXHF   =         0.00000000
  -V(xc)+E(xc)   XCENC  =       -47.28844956
  PAW double counting   =       915.53220421     -761.48141222
  entropy T*S    EENTRO =        -0.00000000
  eigenvalues    EBANDS =      -647.46509970
  atomic energy  EATOM  =      1243.82505112
  Solvation  Ediel_sol  =         0.00000000
  ---------------------------------------------------
  free energy    TOTEN  =      -103.40387789 eV

  energy without entropy =     -103.40387789  energy(sigma->0) =     -103.40387789


--------------------------------------------------------------------------------------------------------




--------------------------------------- Iteration      1(   5)  ---------------------------------------


     EDDAV:  cpu time    4.9462: real time    4.9433
       DOS:  cpu time    0.0010: real time    0.0002
    CHARGE:  cpu time    0.2300: real time    0.2299
    MIXING:  cpu time    0.0240: real time    0.0242
    --------------------------------------------
      LOOP:  cpu time    5.2012: real time    5.1977

 eigenvalue-minimisations  :   136
 total energy-change (2. order) :-0.6631751E-01  (-0.6625274E-01)
 number of electron      56.0000025 magnetization 
 augmentation part       -4.7578196 magnetization 

 Broyden mixing:
  rms(total) = 0.14291E+01    rms(broyden)= 0.14290E+01
  rms(prec ) = 0.15253E+01
  weight for this iteration     100.00

 Free energy of the ion-electron system (eV)
  ---------------------------------------------------
  alpha Z        PSCENC =         2.79095307
  Ewald energy   TEWEN  =      2629.98113996
  -Hartree energ DENC   =     -3439.29826477
  -exchange      EXHF   =         0.00000000
  -V(xc)+E(xc)   XCENC  =       -47.28844956
  PAW double counting   =       915.53220421     -761.48141222
  entropy T*S    EENTRO =        -0.00000000
  eigenvalues    EBANDS =      -647.53141721
  atomic energy  EATOM  =      1243.82505112
  Solvation  Ediel_sol  =         0.00000000
  ---------------------------------------------------
  free energy    TOTEN  =      -103.47019540 eV

  energy without entropy =     -103.47019540  energy(sigma->0) =     -103.47019540


--------------------------------------------------------------------------------------------------------




--------------------------------------- Iteration      1(   6)  ---------------------------------------


    POTLOK:  cpu time    1.2628: real time    1.2662
    SETDIJ:  cpu time    0.0060: real time    0.0061
     EDDAV:  cpu time    4.2444: real time    4.2536
       DOS:  cpu time    0.0000: real time    0.0003
    CHARGE:  cpu time    0.2310: real time    0.2311
    MIXING:  cpu time    0.0250: real time    0.0249
    --------------------------------------------
      LOOP:  cpu time    5.7691: real time    5.7823

 eigenvalue-minimisations  :   112
 total energy-change (2. order) : 0.3139037E+01  (-0.1585937E+00)
 number of electron      56.0000024 magnetization 
 augmentation part       -4.7572157 magnetization 

 Broyden mixing:
  rms(total) = 0.82364E+00    rms(broyden)= 0.82363E+00
  rms(prec ) = 0.88268E+00
  weight for this iteration     100.00

 eigenvalues of (default mixing * dielectric matrix)
  average eigenvalue GAMMA=   2.2908
  2.2908

 Free energy of the ion-electron system (eV)
  ---------------------------------------------------
  alpha Z        PSCENC =         2.79095307
  Ewald energy   TEWEN  =      2629.98113996
  -Hartree energ DENC   =     -3469.97580325
  -exchange      EXHF   =         0.00000000
  -V(xc)+E(xc)   XCENC  =       -43.66734820
  PAW double counting   =      1712.52804020    -1559.40099804
  entropy T*S    EENTRO =        -0.00000000
  eigenvalues    EBANDS =      -616.41219368
  atomic energy  EATOM  =      1243.82505112
  Solvation  Ediel_sol  =         0.00000000
  ---------------------------------------------------
  free energy    TOTEN  =      -100.33115881 eV

  energy without entropy =     -100.33115881  energy(sigma->0) =     -100.33115881


--------------------------------------------------------------------------------------------------------




--------------------------------------- Iteration      1(   7)  ---------------------------------------


    POTLOK:  cpu time    0.9459: real time    0.9463
    SETDIJ:  cpu time    0.0070: real time    0.0061
     EDDAV:  cpu time    4.3433: real time    4.3480
       DOS:  cpu time    0.0000: real time    0.0002
    CHARGE:  cpu time    0.2310: real time    0.2310
    MIXING:  cpu time    0.0250: real time    0.0255
    --------------------------------------------
      LOOP:  cpu time    5.5522: real time    5.5572

 eigenvalue-minimisations  :   112
 total energy-change (2. order) : 0.1635736E+01  (-0.3937829E+00)
 number of electron      56.0000023 magnetization 
 augmentation part       -4.7543893 magnetization 

 Broyden mixing:
  rms(total) = 0.12039E+00    rms(broyden)= 0.12024E+00
  rms(prec ) = 0.15186E+00
  weight for this iteration     100.00

 eigenvalues of (default mixing * dielectric matrix)
  average eigenvalue GAMMA=   1.8555
  1.8555  1.8555

 Free energy of the ion-electron system (eV)
  ---------------------------------------------------
  alpha Z        PSCENC =         2.79095307
  Ewald energy   TEWEN  =      2629.98113996
  -Hartree energ DENC   =     -3524.29299124
  -exchange      EXHF   =         0.00000000
  -V(xc)+E(xc)   XCENC  =       -37.96886902
  PAW double counting   =      3389.78173213    -3237.88058706
  entropy T*S    EENTRO =        -0.00000000
  eigenvalues    EBANDS =      -564.93185144
  atomic energy  EATOM  =      1243.82505112
  Solvation  Ediel_sol  =         0.00000000
  ---------------------------------------------------
  free energy    TOTEN  =       -98.69542248 eV

  energy without entropy =      -98.69542248  energy(sigma->0) =      -98.69542248


--------------------------------------------------------------------------------------------------------




--------------------------------------- Iteration      1(   8)  ---------------------------------------


    POTLOK:  cpu time    0.9469: real time    0.9487
    SETDIJ:  cpu time    0.0060: real time    0.0061
     EDDAV:  cpu time    4.2314: real time    4.2415
       DOS:  cpu time    0.0000: real time    0.0002
    CHARGE:  cpu time    0.2290: real time    0.2292
    MIXING:  cpu time    0.0270: real time    0.0266
    --------------------------------------------
      LOOP:  cpu time    5.4402: real time    5.4524

 eigenvalue-minimisations  :   112
 total energy-change (2. order) : 0.5578133E-01  (-0.2765189E-01)
 number of electron      56.0000023 magnetization 
 augmentation part       -4.7462758 magnetization 

 Broyden mixing:
  rms(total) = 0.59356E-01    rms(broyden)= 0.59342E-01
  rms(prec ) = 0.78510E-01
  weight for this iteration     100.00

 eigenvalues of (default mixing * dielectric matrix)
  average eigenvalue GAMMA=   1.9646
  2.6476  1.6231  1.6231

 Free energy of the ion-electron system (eV)
  ---------------------------------------------------
  alpha Z        PSCENC =         2.79095307
  Ewald energy   TEWEN  =      2629.98113996
  -Hartree energ DENC   =     -3532.86176744
  -exchange      EXHF   =         0.00000000
  -V(xc)+E(xc)   XCENC  =       -37.94623875
  PAW double counting   =      3422.46600775    -3270.49104878
  entropy T*S    EENTRO =        -0.00000000
  eigenvalues    EBANDS =      -556.40373808
  atomic energy  EATOM  =      1243.82505112
  Solvation  Ediel_sol  =         0.00000000
  ---------------------------------------------------
  free energy    TOTEN  =       -98.63964115 eV

  energy without entropy =      -98.63964115  energy(sigma->0) =      -98.63964115


--------------------------------------------------------------------------------------------------------




--------------------------------------- Iteration      1(   9)  ---------------------------------------


    POTLOK:  cpu time    0.9559: real time    0.9562
    SETDIJ:  cpu time    0.0060: real time    0.0061
     EDDAV:  cpu time    4.4483: real time    4.4754
       DOS:  cpu time    0.0010: real time    0.0003
    CHARGE:  cpu time    0.2290: real time    0.2295
    MIXING:  cpu time    0.0280: real time    0.0279
    --------------------------------------------
      LOOP:  cpu time    5.6681: real time    5.6954

 eigenvalue-minimisations  :   120
 total energy-change (2. order) : 0.3524657E-01  (-0.6809967E-02)
 number of electron      56.0000023 magnetization 
 augmentation part       -4.7303067 magnetization 

 Broyden mixing:
  rms(total) = 0.31544E-01    rms(broyden)= 0.31543E-01
  rms(prec ) = 0.43511E-01
  weight for this iteration     100.00

 eigenvalues of (default mixing * dielectric matrix)
  average eigenvalue GAMMA=   1.7581
  2.5110  1.8332  1.8332  0.8551

 Free energy of the ion-electron system (eV)
  ---------------------------------------------------
  alpha Z        PSCENC =         2.79095307
  Ewald energy   TEWEN  =      2629.98113996
  -Hartree energ DENC   =     -3544.37543996
  -exchange      EXHF   =         0.00000000
  -V(xc)+E(xc)   XCENC  =       -37.24310961
  PAW double counting   =      3556.12753807    -3404.20596585
  entropy T*S    EENTRO =        -0.00000000
  eigenvalues    EBANDS =      -545.50456138
  atomic energy  EATOM  =      1243.82505112
  Solvation  Ediel_sol  =         0.00000000
  ---------------------------------------------------
  free energy    TOTEN  =       -98.60439459 eV

  energy without entropy =      -98.60439459  energy(sigma->0) =      -98.60439459


--------------------------------------------------------------------------------------------------------




--------------------------------------- Iteration      1(  10)  ---------------------------------------


    POTLOK:  cpu time    0.9589: real time    0.9581
    SETDIJ:  cpu time    0.0060: real time    0.0061
     EDDAV:  cpu time    4.2254: real time    4.2232
       DOS:  cpu time    0.0010: real time    0.0002
    CHARGE:  cpu time    0.2300: real time    0.2306
    MIXING:  cpu time    0.0300: real time    0.0295
    --------------------------------------------
      LOOP:  cpu time    5.4512: real time    5.4478

 eigenvalue-minimisations  :   112
 total energy-change (2. order) :-0.7510149E-05  (-0.2411131E-03)
 number of electron      56.0000023 magnetization 
 augmentation part       -4.7297969 magnetization 

 Broyden mixing:
  rms(total) = 0.14197E-01    rms(broyden)= 0.14197E-01
  rms(prec ) = 0.27597E-01
  weight for this iteration     100.00

 eigenvalues of (default mixing * dielectric matrix)
  average eigenvalue GAMMA=   1.9016
  2.8652  2.4141  1.0435  1.5926  1.5926

 Free energy of the ion-electron system (eV)
  ---------------------------------------------------
  alpha Z        PSCENC =         2.79095307
  Ewald energy   TEWEN  =      2629.98113996
  -Hartree energ DENC   =     -3546.68807230
  -exchange      EXHF   =         0.00000000
  -V(xc)+E(xc)   XCENC  =       -37.23078968
  PAW double counting   =      3493.15109474    -3341.17909992
  entropy T*S    EENTRO =        -0.00000000
  eigenvalues    EBANDS =      -543.25467907
  atomic energy  EATOM  =      1243.82505112
  Solvation  Ediel_sol  =         0.00000000
  ---------------------------------------------------
  free energy    TOTEN  =       -98.60440210 eV

  energy without entropy =      -98.60440210  energy(sigma->0) =      -98.60440210


--------------------------------------------------------------------------------------------------------




--------------------------------------- Iteration      1(  11)  ---------------------------------------


    POTLOK:  cpu time    0.9679: real time    0.9669
    SETDIJ:  cpu time    0.0060: real time    0.0061
     EDDAV:  cpu time    3.9894: real time    3.9880
       DOS:  cpu time    0.0000: real time    0.0004
    CHARGE:  cpu time    0.2300: real time    0.2297
    MIXING:  cpu time    0.0300: real time    0.0301
    --------------------------------------------
      LOOP:  cpu time    5.2232: real time    5.2211

 eigenvalue-minimisations  :   104
 total energy-change (2. order) : 0.6532700E-04  (-0.6491165E-03)
 number of electron      56.0000023 magnetization 
 augmentation part       -4.7282331 magnetization 

 Broyden mixing:
  rms(total) = 0.83379E-02    rms(broyden)= 0.83376E-02
  rms(prec ) = 0.14478E-01
  weight for this iteration     100.00

 eigenvalues of (default mixing * dielectric matrix)
  average eigenvalue GAMMA=   1.8779
  3.2692  2.5949  1.7260  1.7260  1.0537  0.8973

 Free energy of the ion-electron system (eV)
  ---------------------------------------------------
  alpha Z        PSCENC =         2.79095307
  Ewald energy   TEWEN  =      2629.98113996
  -Hartree energ DENC   =     -3553.44059658
  -exchange      EXHF   =         0.00000000
  -V(xc)+E(xc)   XCENC  =       -37.03716527
  PAW double counting   =      3460.33452969    -3308.32372838
  entropy T*S    EENTRO =        -0.00000000
  eigenvalues    EBANDS =      -536.73452038
  atomic energy  EATOM  =      1243.82505112
  Solvation  Ediel_sol  =         0.00000000
  ---------------------------------------------------
  free energy    TOTEN  =       -98.60433677 eV

  energy without entropy =      -98.60433677  energy(sigma->0) =      -98.60433677


--------------------------------------------------------------------------------------------------------




--------------------------------------- Iteration      1(  12)  ---------------------------------------


    POTLOK:  cpu time    0.9719: real time    0.9713
    SETDIJ:  cpu time    0.0070: real time    0.0062
     EDDAV:  cpu time    4.0114: real time    4.0094
       DOS:  cpu time    0.0000: real time    0.0003
    CHARGE:  cpu time    0.2310: real time    0.2305
    MIXING:  cpu time    0.0320: real time    0.0317
    --------------------------------------------
      LOOP:  cpu time    5.2532: real time    5.2495

 eigenvalue-minimisations  :   104
 total energy-change (2. order) :-0.4730102E-02  (-0.1209000E-03)
 number of electron      56.0000023 magnetization 
 augmentation part       -4.7273502 magnetization 

 Broyden mixing:
  rms(total) = 0.54400E-02    rms(broyden)= 0.54400E-02
  rms(prec ) = 0.94279E-02
  weight for this iteration     100.00

 eigenvalues of (default mixing * dielectric matrix)
  average eigenvalue GAMMA=   2.1082
  4.7222  2.5655  2.4341  1.5399  1.5399  0.9781  0.9781

 Free energy of the ion-electron system (eV)
  ---------------------------------------------------
  alpha Z        PSCENC =         2.79095307
  Ewald energy   TEWEN  =      2629.98113996
  -Hartree energ DENC   =     -3555.84431979
  -exchange      EXHF   =         0.00000000
  -V(xc)+E(xc)   XCENC  =       -36.99667767
  PAW double counting   =      3454.45297002    -3302.44151476
  entropy T*S    EENTRO =        -0.00000000
  eigenvalues    EBANDS =      -534.37666882
  atomic energy  EATOM  =      1243.82505112
  Solvation  Ediel_sol  =         0.00000000
  ---------------------------------------------------
  free energy    TOTEN  =       -98.60906687 eV

  energy without entropy =      -98.60906687  energy(sigma->0) =      -98.60906687


--------------------------------------------------------------------------------------------------------




--------------------------------------- Iteration      1(  13)  ---------------------------------------


    POTLOK:  cpu time    1.1018: real time    1.1027
    SETDIJ:  cpu time    0.0060: real time    0.0061
     EDDAV:  cpu time    4.2254: real time    4.2227
       DOS:  cpu time    0.0000: real time    0.0004
    CHARGE:  cpu time    0.2300: real time    0.2297
    MIXING:  cpu time    0.0340: real time    0.0335
    --------------------------------------------
      LOOP:  cpu time    5.5971: real time    5.5950

 eigenvalue-minimisations  :   112
 total energy-change (2. order) :-0.4441577E-02  (-0.1652657E-03)
 number of electron      56.0000023 magnetization 
 augmentation part       -4.7271426 magnetization 

 Broyden mixing:
  rms(total) = 0.34567E-02    rms(broyden)= 0.34566E-02
  rms(prec ) = 0.51351E-02
  weight for this iteration     100.00

 eigenvalues of (default mixing * dielectric matrix)
  average eigenvalue GAMMA=   2.2054
  5.6747  2.9436  2.2485  1.8291  1.8291  0.9728  0.9728  1.1726

 Free energy of the ion-electron system (eV)
  ---------------------------------------------------
  alpha Z        PSCENC =         2.79095307
  Ewald energy   TEWEN  =      2629.98113996
  -Hartree energ DENC   =     -3558.46622697
  -exchange      EXHF   =         0.00000000
  -V(xc)+E(xc)   XCENC  =       -36.94689296
  PAW double counting   =      3459.14785889    -3307.14476675
  entropy T*S    EENTRO =        -0.00000000
  eigenvalues    EBANDS =      -531.80062481
  atomic energy  EATOM  =      1243.82505112
  Solvation  Ediel_sol  =         0.00000000
  ---------------------------------------------------
  free energy    TOTEN  =       -98.61350845 eV

  energy without entropy =      -98.61350845  energy(sigma->0) =      -98.61350845


--------------------------------------------------------------------------------------------------------




--------------------------------------- Iteration      1(  14)  ---------------------------------------


    POTLOK:  cpu time    0.9659: real time    0.9650
    SETDIJ:  cpu time    0.0060: real time    0.0062
     EDDAV:  cpu time    4.2374: real time    4.2348
       DOS:  cpu time    0.0000: real time    0.0004
    CHARGE:  cpu time    0.2230: real time    0.2231
    MIXING:  cpu time    0.0460: real time    0.0460
    --------------------------------------------
      LOOP:  cpu time    5.4782: real time    5.4755

 eigenvalue-minimisations  :   112
 total energy-change (2. order) :-0.4390206E-02  (-0.3579122E-04)
 number of electron      56.0000023 magnetization 
 augmentation part       -4.7266208 magnetization 

 Broyden mixing:
  rms(total) = 0.14540E-02    rms(broyden)= 0.14540E-02
  rms(prec ) = 0.25866E-02
  weight for this iteration     100.00

 eigenvalues of (default mixing * dielectric matrix)
  average eigenvalue GAMMA=   2.3010
  6.5937  3.0240  2.6760  2.1984  1.5957  1.5957  1.0960  0.9648  0.9648

 Free energy of the ion-electron system (eV)
  ---------------------------------------------------
  alpha Z        PSCENC =         2.79095307
  Ewald energy   TEWEN  =      2629.98113996
  -Hartree energ DENC   =     -3559.13259293
  -exchange      EXHF   =         0.00000000
  -V(xc)+E(xc)   XCENC  =       -36.96356096
  PAW double counting   =      3458.55755569    -3306.55390083
  entropy T*S    EENTRO =        -0.00000000
  eigenvalues    EBANDS =      -531.12254378
  atomic energy  EATOM  =      1243.82505112
  Solvation  Ediel_sol  =         0.00000000
  ---------------------------------------------------
  free energy    TOTEN  =       -98.61789865 eV

  energy without entropy =      -98.61789865  energy(sigma->0) =      -98.61789865


--------------------------------------------------------------------------------------------------------




--------------------------------------- Iteration      1(  15)  ---------------------------------------


    POTLOK:  cpu time    0.9629: real time    0.9619
    SETDIJ:  cpu time    0.0060: real time    0.0062
     EDDAV:  cpu time    3.9914: real time    3.9896
       DOS:  cpu time    0.0000: real time    0.0003
    CHARGE:  cpu time    0.2300: real time    0.2293
    MIXING:  cpu time    0.0370: real time    0.0369
    --------------------------------------------
      LOOP:  cpu time    5.2272: real time    5.2241

 eigenvalue-minimisations  :   104
 total energy-change (2. order) :-0.3943057E-02  (-0.4440781E-04)
 number of electron      56.0000023 magnetization 
 augmentation part       -4.7263632 magnetization 

 Broyden mixing:
  rms(total) = 0.13413E-02    rms(broyden)= 0.13413E-02
  rms(prec ) = 0.18025E-02
  weight for this iteration     100.00

 eigenvalues of (default mixing * dielectric matrix)
  average eigenvalue GAMMA=   2.3157
  6.7450  3.8379  2.6220  2.0021  2.0021  1.7732  1.2512  0.9412  0.9913  0.9913

 Free energy of the ion-electron system (eV)
  ---------------------------------------------------
  alpha Z        PSCENC =         2.79095307
  Ewald energy   TEWEN  =      2629.98113996
  -Hartree energ DENC   =     -3559.34606388
  -exchange      EXHF   =         0.00000000
  -V(xc)+E(xc)   XCENC  =       -36.97029805
  PAW double counting   =      3461.65512104    -3309.65164898
  entropy T*S    EENTRO =        -0.00000000
  eigenvalues    EBANDS =      -530.90609600
  atomic energy  EATOM  =      1243.82505112
  Solvation  Ediel_sol  =         0.00000000
  ---------------------------------------------------
  free energy    TOTEN  =       -98.62184171 eV

  energy without entropy =      -98.62184171  energy(sigma->0) =      -98.62184171


--------------------------------------------------------------------------------------------------------




--------------------------------------- Iteration      1(  16)  ---------------------------------------


    POTLOK:  cpu time    0.9609: real time    0.9608
    SETDIJ:  cpu time    0.0060: real time    0.0061
     EDDAV:  cpu time    4.2224: real time    4.2196
       DOS:  cpu time    0.0000: real time    0.0003
    CHARGE:  cpu time    0.2300: real time    0.2297
    MIXING:  cpu time    0.0390: real time    0.0392
    --------------------------------------------
      LOOP:  cpu time    5.4582: real time    5.4558

 eigenvalue-minimisations  :   112
 total energy-change (2. order) :-0.1194047E-02  (-0.7244111E-05)
 number of electron      56.0000023 magnetization 
 augmentation part       -4.7265961 magnetization 

 Broyden mixing:
  rms(total) = 0.59182E-03    rms(broyden)= 0.59181E-03
  rms(prec ) = 0.90405E-03
  weight for this iteration     100.00

 eigenvalues of (default mixing * dielectric matrix)
  average eigenvalue GAMMA=   2.4413
  7.4219  4.7957  2.6602  2.6602  1.8290  1.8290  1.3666  1.3666  0.9770  0.9770
  0.9716

 Free energy of the ion-electron system (eV)
  ---------------------------------------------------
  alpha Z        PSCENC =         2.79095307
  Ewald energy   TEWEN  =      2629.98113996
  -Hartree energ DENC   =     -3559.45173234
  -exchange      EXHF   =         0.00000000
  -V(xc)+E(xc)   XCENC  =       -36.96772962
  PAW double counting   =      3461.54751179    -3309.54353925
  entropy T*S    EENTRO =        -0.00000000
  eigenvalues    EBANDS =      -530.80469049
  atomic energy  EATOM  =      1243.82505112
  Solvation  Ediel_sol  =         0.00000000
  ---------------------------------------------------
  free energy    TOTEN  =       -98.62303576 eV

  energy without entropy =      -98.62303576  energy(sigma->0) =      -98.62303576


--------------------------------------------------------------------------------------------------------




--------------------------------------- Iteration      1(  17)  ---------------------------------------


    POTLOK:  cpu time    1.2728: real time    1.2737
    SETDIJ:  cpu time    0.0060: real time    0.0062
     EDDAV:  cpu time    3.9754: real time    3.9844
       DOS:  cpu time    0.0010: real time    0.0003
    CHARGE:  cpu time    0.2300: real time    0.2304
    MIXING:  cpu time    0.0430: real time    0.0432
    --------------------------------------------
      LOOP:  cpu time    5.5282: real time    5.5381

 eigenvalue-minimisations  :   104
 total energy-change (2. order) :-0.9821553E-03  (-0.8271989E-05)
 number of electron      56.0000023 magnetization 
 augmentation part       -4.7268088 magnetization 

 Broyden mixing:
  rms(total) = 0.31265E-03    rms(broyden)= 0.31262E-03
  rms(prec ) = 0.44209E-03
  weight for this iteration     100.00

 eigenvalues of (default mixing * dielectric matrix)
  average eigenvalue GAMMA=   2.4631
  7.6413  5.2817  2.7028  2.7028  1.9827  1.9827  1.5582  1.5582  1.2182  0.9795
  0.9795  0.9694

 Free energy of the ion-electron system (eV)
  ---------------------------------------------------
  alpha Z        PSCENC =         2.79095307
  Ewald energy   TEWEN  =      2629.98113996
  -Hartree energ DENC   =     -3559.45604908
  -exchange      EXHF   =         0.00000000
  -V(xc)+E(xc)   XCENC  =       -36.97070561
  PAW double counting   =      3460.00677046    -3308.00147654
  entropy T*S    EENTRO =        -0.00000000
  eigenvalues    EBANDS =      -530.79970130
  atomic energy  EATOM  =      1243.82505112
  Solvation  Ediel_sol  =         0.00000000
  ---------------------------------------------------
  free energy    TOTEN  =       -98.62401791 eV

  energy without entropy =      -98.62401791  energy(sigma->0) =      -98.62401791


--------------------------------------------------------------------------------------------------------




--------------------------------------- Iteration      1(  18)  ---------------------------------------


    POTLOK:  cpu time    0.9619: real time    0.9611
    SETDIJ:  cpu time    0.0060: real time    0.0062
     EDDAV:  cpu time    4.0024: real time    3.9996
       DOS:  cpu time    0.0000: real time    0.0002
    CHARGE:  cpu time    0.2300: real time    0.2299
    MIXING:  cpu time    0.0490: real time    0.0489
    --------------------------------------------
      LOOP:  cpu time    5.2492: real time    5.2460

 eigenvalue-minimisations  :   104
 total energy-change (2. order) :-0.2916422E-03  (-0.1092159E-05)
 number of electron      56.0000023 magnetization 
 augmentation part       -4.7267844 magnetization 

 Broyden mixing:
  rms(total) = 0.18164E-03    rms(broyden)= 0.18161E-03
  rms(prec ) = 0.24121E-03
  weight for this iteration     100.00

 eigenvalues of (default mixing * dielectric matrix)
  average eigenvalue GAMMA=   2.5062
  8.2071  5.8451  3.2319  2.6170  2.3817  1.8057  1.8057  1.3706  1.3706  0.9704
  0.9704  1.0022  1.0022

 Free energy of the ion-electron system (eV)
  ---------------------------------------------------
  alpha Z        PSCENC =         2.79095307
  Ewald energy   TEWEN  =      2629.98113996
  -Hartree energ DENC   =     -3559.49881647
  -exchange      EXHF   =         0.00000000
  -V(xc)+E(xc)   XCENC  =       -36.96963635
  PAW double counting   =      3460.15858801    -3308.15399149
  entropy T*S    EENTRO =        -0.00000000
  eigenvalues    EBANDS =      -530.75759739
  atomic energy  EATOM  =      1243.82505112
  Solvation  Ediel_sol  =         0.00000000
  ---------------------------------------------------
  free energy    TOTEN  =       -98.62430956 eV

  energy without entropy =      -98.62430956  energy(sigma->0) =      -98.62430956


--------------------------------------------------------------------------------------------------------




--------------------------------------- Iteration      1(  19)  ---------------------------------------


    POTLOK:  cpu time    0.9679: real time    0.9671
    SETDIJ:  cpu time    0.0060: real time    0.0061
     EDDAV:  cpu time    3.7624: real time    3.7609
       DOS:  cpu time    0.0010: real time    0.0003
    CHARGE:  cpu time    0.2300: real time    0.2304
    MIXING:  cpu time    0.0550: real time    0.0546
    --------------------------------------------
      LOOP:  cpu time    5.0222: real time    5.0195

 eigenvalue-minimisations  :    96
 total energy-change (2. order) :-0.1053339E-03  (-0.3007849E-06)
 number of electron      56.0000023 magnetization 
 augmentation part       -4.7268024 magnetization 

 Broyden mixing:
  rms(total) = 0.14183E-03    rms(broyden)= 0.14183E-03
  rms(prec ) = 0.17800E-03
  weight for this iteration     100.00

 eigenvalues of (default mixing * dielectric matrix)
  average eigenvalue GAMMA=   2.5180
  8.4264  6.1005  3.4454  2.6675  2.2734  2.2734  1.7559  1.7559  1.3309  1.3309
  1.0015  1.0015  0.9441  0.9441

 Free energy of the ion-electron system (eV)
  ---------------------------------------------------
  alpha Z        PSCENC =         2.79095307
  Ewald energy   TEWEN  =      2629.98113996
  -Hartree energ DENC   =     -3559.50546256
  -exchange      EXHF   =         0.00000000
  -V(xc)+E(xc)   XCENC  =       -36.96920573
  PAW double counting   =      3460.03362360    -3308.02910971
  entropy T*S    EENTRO =        -0.00000000
  eigenvalues    EBANDS =      -530.75140463
  atomic energy  EATOM  =      1243.82505112
  Solvation  Ediel_sol  =         0.00000000
  ---------------------------------------------------
  free energy    TOTEN  =       -98.62441489 eV

  energy without entropy =      -98.62441489  energy(sigma->0) =      -98.62441489


--------------------------------------------------------------------------------------------------------




--------------------------------------- Iteration      1(  20)  ---------------------------------------


    POTLOK:  cpu time    0.9679: real time    0.9670
    SETDIJ:  cpu time    0.0060: real time    0.0062
     EDDAV:  cpu time    3.5275: real time    3.5261
       DOS:  cpu time    0.0000: real time    0.0003
    CHARGE:  cpu time    0.2320: real time    0.2311
    MIXING:  cpu time    0.0610: real time    0.0609
    --------------------------------------------
      LOOP:  cpu time    4.7943: real time    4.7916

 eigenvalue-minimisations  :    88
 total energy-change (2. order) :-0.4923818E-04  (-0.9678108E-07)
 number of electron      56.0000023 magnetization 
 augmentation part       -4.7267858 magnetization 

 Broyden mixing:
  rms(total) = 0.57651E-04    rms(broyden)= 0.57650E-04
  rms(prec ) = 0.77492E-04
  weight for this iteration     100.00

 eigenvalues of (default mixing * dielectric matrix)
  average eigenvalue GAMMA=   2.5384
  8.6105  6.4532  4.0762  2.9102  2.5302  2.0112  1.8387  1.8387  1.3872  1.3872
  1.1598  0.9917  0.9917  0.9887  0.9016

 Free energy of the ion-electron system (eV)
  ---------------------------------------------------
  alpha Z        PSCENC =         2.79095307
  Ewald energy   TEWEN  =      2629.98113996
  -Hartree energ DENC   =     -3559.50811401
  -exchange      EXHF   =         0.00000000
  -V(xc)+E(xc)   XCENC  =       -36.97013834
  PAW double counting   =      3459.95220319    -3307.94761173
  entropy T*S    EENTRO =        -0.00000000
  eigenvalues    EBANDS =      -530.74794738
  atomic energy  EATOM  =      1243.82505112
  Solvation  Ediel_sol  =         0.00000000
  ---------------------------------------------------
  free energy    TOTEN  =       -98.62446413 eV

  energy without entropy =      -98.62446413  energy(sigma->0) =      -98.62446413


--------------------------------------------------------------------------------------------------------




--------------------------------------- Iteration      1(  21)  ---------------------------------------


    POTLOK:  cpu time    0.9689: real time    0.9691
    SETDIJ:  cpu time    0.0060: real time    0.0062
     EDDAV:  cpu time    3.2875: real time    3.2846
       DOS:  cpu time    0.0000: real time    0.0003
    CHARGE:  cpu time    0.2410: real time    0.2411
    MIXING:  cpu time    0.0680: real time    0.0678
    --------------------------------------------
      LOOP:  cpu time    4.5713: real time    4.5690

 eigenvalue-minimisations  :    80
 total energy-change (2. order) :-0.1864000E-04  (-0.5789352E-07)
 number of electron      56.0000023 magnetization 
 augmentation part       -4.7267721 magnetization 

 Broyden mixing:
  rms(total) = 0.48098E-04    rms(broyden)= 0.48095E-04
  rms(prec ) = 0.60729E-04
  weight for this iteration     100.00

 eigenvalues of (default mixing * dielectric matrix)
  average eigenvalue GAMMA=   2.5269
  8.5680  6.6760  4.1637  2.9323  2.5356  2.1600  2.1600  1.7697  1.7697  1.4828
  1.1527  1.1527  0.9547  0.9547  0.9987  0.9987

 Free energy of the ion-electron system (eV)
  ---------------------------------------------------
  alpha Z        PSCENC =         2.79095307
  Ewald energy   TEWEN  =      2629.98113996
  -Hartree energ DENC   =     -3559.51330198
  -exchange      EXHF   =         0.00000000
  -V(xc)+E(xc)   XCENC  =       -36.97011995
  PAW double counting   =      3460.03573162    -3308.03120873
  entropy T*S    EENTRO =        -0.00000000
  eigenvalues    EBANDS =      -530.74272788
  atomic energy  EATOM  =      1243.82505112
  Solvation  Ediel_sol  =         0.00000000
  ---------------------------------------------------
  free energy    TOTEN  =       -98.62448277 eV

  energy without entropy =      -98.62448277  energy(sigma->0) =      -98.62448277


--------------------------------------------------------------------------------------------------------




--------------------------------------- Iteration      1(  22)  ---------------------------------------


    POTLOK:  cpu time    0.9569: real time    0.9565
    SETDIJ:  cpu time    0.0060: real time    0.0061
     EDDAV:  cpu time    3.5225: real time    3.5202
       DOS:  cpu time    0.0000: real time    0.0004
    CHARGE:  cpu time    0.2310: real time    0.2302
    MIXING:  cpu time    0.0740: real time    0.0742
    --------------------------------------------
      LOOP:  cpu time    4.7903: real time    4.7876

 eigenvalue-minimisations  :    88
 total energy-change (2. order) :-0.7602585E-05  (-0.1686030E-07)
 number of electron      56.0000023 magnetization 
 augmentation part       -4.7267863 magnetization 

 Broyden mixing:
  rms(total) = 0.21117E-04    rms(broyden)= 0.21116E-04
  rms(prec ) = 0.27715E-04
  weight for this iteration     100.00

 eigenvalues of (default mixing * dielectric matrix)
  average eigenvalue GAMMA=   2.5343
  8.7852  6.7867  4.6816  3.2250  2.5565  2.5565  1.9002  1.9002  1.6693  1.6693
  1.2181  1.2181  1.0508  0.9502  0.9502  0.9828  0.9828

 Free energy of the ion-electron system (eV)
  ---------------------------------------------------
  alpha Z        PSCENC =         2.79095307
  Ewald energy   TEWEN  =      2629.98113996
  -Hartree energ DENC   =     -3559.51254215
  -exchange      EXHF   =         0.00000000
  -V(xc)+E(xc)   XCENC  =       -36.96991123
  PAW double counting   =      3460.05308985    -3308.04850031
  entropy T*S    EENTRO =        -0.00000000
  eigenvalues    EBANDS =      -530.74377069
  atomic energy  EATOM  =      1243.82505112
  Solvation  Ediel_sol  =         0.00000000
  ---------------------------------------------------
  free energy    TOTEN  =       -98.62449037 eV

  energy without entropy =      -98.62449037  energy(sigma->0) =      -98.62449037


--------------------------------------------------------------------------------------------------------




--------------------------------------- Iteration      1(  23)  ---------------------------------------


    POTLOK:  cpu time    0.9619: real time    0.9616
    SETDIJ:  cpu time    0.0070: real time    0.0062
     EDDAV:  cpu time    3.5235: real time    3.5221
       DOS:  cpu time    0.0000: real time    0.0004
    CHARGE:  cpu time    0.2300: real time    0.2300
    MIXING:  cpu time    0.0810: real time    0.0813
    --------------------------------------------
      LOOP:  cpu time    4.8033: real time    4.8017

 eigenvalue-minimisations  :    88
 total energy-change (2. order) :-0.2777939E-05  (-0.6930051E-08)
 number of electron      56.0000023 magnetization 
 augmentation part       -4.7267924 magnetization 

 Broyden mixing:
  rms(total) = 0.13744E-04    rms(broyden)= 0.13743E-04
  rms(prec ) = 0.18034E-04
  weight for this iteration     100.00

 eigenvalues of (default mixing * dielectric matrix)
  average eigenvalue GAMMA=   2.5260
  8.9059  6.8033  4.9413  3.2224  2.6718  2.6718  1.9986  1.9986  1.7364  1.6086
  1.6086  1.1809  1.1809  1.0275  1.0275  0.9145  0.9847  0.9847

 Free energy of the ion-electron system (eV)
  ---------------------------------------------------
  alpha Z        PSCENC =         2.79095307
  Ewald energy   TEWEN  =      2629.98113996
  -Hartree energ DENC   =     -3559.51234487
  -exchange      EXHF   =         0.00000000
  -V(xc)+E(xc)   XCENC  =       -36.97001400
  PAW double counting   =      3460.04276252    -3308.03816148
  entropy T*S    EENTRO =        -0.00000000
  eigenvalues    EBANDS =      -530.74387947
  atomic energy  EATOM  =      1243.82505112
  Solvation  Ediel_sol  =         0.00000000
  ---------------------------------------------------
  free energy    TOTEN  =       -98.62449315 eV

  energy without entropy =      -98.62449315  energy(sigma->0) =      -98.62449315


--------------------------------------------------------------------------------------------------------




--------------------------------------- Iteration      1(  24)  ---------------------------------------


    POTLOK:  cpu time    0.9679: real time    0.9671
    SETDIJ:  cpu time    0.0070: real time    0.0063
     EDDAV:  cpu time    3.5355: real time    3.5339
       DOS:  cpu time    0.0000: real time    0.0003
    CHARGE:  cpu time    0.2310: real time    0.2301
    MIXING:  cpu time    0.0890: real time    0.0889
    --------------------------------------------
      LOOP:  cpu time    4.8303: real time    4.8266

 eigenvalue-minimisations  :    88
 total energy-change (2. order) :-0.2013876E-05  (-0.2774849E-08)
 number of electron      56.0000023 magnetization 
 augmentation part       -4.7267905 magnetization 

 Broyden mixing:
  rms(total) = 0.55699E-05    rms(broyden)= 0.55698E-05
  rms(prec ) = 0.78454E-05
  weight for this iteration     100.00

 eigenvalues of (default mixing * dielectric matrix)
  average eigenvalue GAMMA=   2.5647
  8.8775  7.1192  5.5240  3.8928  2.9486  2.5408  2.1232  1.8909  1.8909  1.6979
  1.6979  1.2065  1.2065  1.2328  0.9992  0.9992  0.9520  0.9520  0.9777

 Free energy of the ion-electron system (eV)
  ---------------------------------------------------
  alpha Z        PSCENC =         2.79095307
  Ewald energy   TEWEN  =      2629.98113996
  -Hartree energ DENC   =     -3559.51292611
  -exchange      EXHF   =         0.00000000
  -V(xc)+E(xc)   XCENC  =       -36.97005146
  PAW double counting   =      3460.00729763    -3308.00271361
  entropy T*S    EENTRO =        -0.00000000
  eigenvalues    EBANDS =      -530.74324576
  atomic energy  EATOM  =      1243.82505112
  Solvation  Ediel_sol  =         0.00000000
  ---------------------------------------------------
  free energy    TOTEN  =       -98.62449516 eV

  energy without entropy =      -98.62449516  energy(sigma->0) =      -98.62449516


--------------------------------------------------------------------------------------------------------




--------------------------------------- Iteration      1(  25)  ---------------------------------------


    POTLOK:  cpu time    1.0128: real time    1.0142
    SETDIJ:  cpu time    0.0070: real time    0.0070
     EDDAV:  cpu time    3.5475: real time    3.5448
       DOS:  cpu time    0.0000: real time    0.0002
    --------------------------------------------
      LOOP:  cpu time    4.5673: real time    4.5662

 eigenvalue-minimisations  :    88
 total energy-change (2. order) :-0.6488008E-06  (-0.1030472E-08)
 number of electron      56.0000023 magnetization 
 augmentation part       -4.7267905 magnetization 

 Free energy of the ion-electron system (eV)
  ---------------------------------------------------
  alpha Z        PSCENC =         2.79095307
  Ewald energy   TEWEN  =      2629.98113996
  -Hartree energ DENC   =     -3559.51364007
  -exchange      EXHF   =         0.00000000
  -V(xc)+E(xc)   XCENC  =       -36.97002733
  PAW double counting   =      3460.01348850    -3308.00891091
  entropy T*S    EENTRO =        -0.00000000
  eigenvalues    EBANDS =      -530.74255016
  atomic energy  EATOM  =      1243.82505112
  Solvation  Ediel_sol  =         0.00000000
  ---------------------------------------------------
  free energy    TOTEN  =       -98.62449581 eV

  energy without entropy =      -98.62449581  energy(sigma->0) =      -98.62449581


--------------------------------------------------------------------------------------------------------




 average (electrostatic) potential at core
  the test charge radii are     0.9892  1.1631  0.5201
  (the norm of the test charge is              1.0000)
       1 -93.4277       2 -93.4506       3 -93.4902       4 -40.4354       5 -40.4354
       6 -40.4191       7 -40.4192       8 -40.4192       9 -40.4770      10 -40.4770
      11 -41.0534      12 -41.0528      13 -41.0501      14 -40.6868      15 -40.6862
      16 -41.0628      17 -41.0627      18 -40.6819      19 -41.0506      20 -41.0527
      21 -41.0534      22 -41.0510      23 -40.6937      24 -40.6939      25 -41.0615
      26 -41.0625
 
 
 
 E-fermi :  -5.3369     XC(G=0):  -0.6112     alpha+bet : -0.3265


 k-point     1 :       0.0000    0.0000    0.0000
  band No.  band energies     occupation 
      1     -15.4863      2.00000
      2     -14.6320      2.00000
      3     -14.4833      2.00000
      4     -13.9712      2.00000
      5     -13.4246      2.00000
      6     -12.8287      2.00000
      7     -11.9489      2.00000
      8     -11.7826      2.00000
      9     -11.4561      2.00000
     10     -10.5776      2.00000
     11      -8.9886      2.00000
     12      -8.6383      2.00000
     13      -8.6312      2.00000
     14      -8.6310      2.00000
     15      -8.1908      2.00000
     16      -8.1871      2.00000
     17      -8.1743      2.00000
     18      -7.8608      2.00000
     19      -7.8566      2.00000
     20      -7.8433      2.00000
     21      -6.7614      2.00000
     22      -6.7346      2.00000
     23      -6.4505      2.00000
     24      -6.4392      2.00000
     25      -6.4173      2.00000
     26      -6.3364      2.00000
     27      -6.3246      2.00000
     28      -6.3140      2.00000
     29      -1.6096      0.00000
     30      -1.2649      0.00000
     31      -1.2060      0.00000
     32      -1.2015      0.00000
     33      -1.1582      0.00000
     34      -1.0639      0.00000
     35      -1.0384      0.00000
     36      -0.9593      0.00000
     37      -0.7987      0.00000
     38      -0.6990      0.00000
     39      -0.3423      0.00000
     40      -0.2021      0.00000
     41      -0.1133      0.00000
     42      -0.0990      0.00000


--------------------------------------------------------------------------------------------------------


 soft charge-density along one line, spin component           1
         0         1         2         3         4         5         6         7         8         9
 total charge-density along one line
 
 pseudopotential strength for first ion, spin component:           1
 19.617  27.377  -0.001   0.003   0.003  -0.001   0.006   0.005
 27.377  38.210  -0.001   0.004   0.004  -0.001   0.008   0.007
 -0.001  -0.001   4.360   0.000  -0.000   8.133   0.000  -0.000
  0.003   0.004   0.000   4.359   0.000   0.000   8.132   0.000
  0.003   0.004  -0.000   0.000   4.359  -0.000   0.000   8.132
 -0.001  -0.001   8.133   0.000  -0.000  15.181   0.001  -0.000
  0.006   0.008   0.000   8.132   0.000   0.001  15.179   0.001
  0.005   0.007  -0.000   0.000   8.132  -0.000   0.001  15.179
 total augmentation occupancy for first ion, spin component:           1
  5.538  -2.029   0.070  -0.340  -0.067  -0.021   0.101   0.021
 -2.029   0.810  -0.043   0.206   0.037   0.009  -0.045  -0.007
  0.070  -0.043   2.801  -0.107  -0.007  -0.605   0.037   0.003
 -0.340   0.206  -0.107   3.283   0.046   0.037  -0.773  -0.018
 -0.067   0.037  -0.007   0.046   2.825   0.003  -0.018  -0.609
 -0.021   0.009  -0.605   0.037   0.003   0.138  -0.010  -0.001
  0.101  -0.045   0.037  -0.773  -0.018  -0.010   0.185   0.006
  0.021  -0.007   0.003  -0.018  -0.609  -0.001   0.006   0.138


------------------------ aborting loop because EDIFF is reached ----------------------------------------


    CHARGE:  cpu time    0.2300: real time    0.2301
    FORLOC:  cpu time    0.1260: real time    0.1261
    FORNL :  cpu time    0.8519: real time    0.8503
    STRESS:  cpu time    3.0445: real time    3.0433
    FORCOR:  cpu time    1.0028: real time    1.0023
    FORHAR:  cpu time    0.3589: real time    0.3584
    MIXING:  cpu time    0.0930: real time    0.0932
    OFIELD:  cpu time    0.0000: real time    0.0000

  FORCE on cell =-STRESS in cart. coord.  units (eV):
  Direction    XX          YY          ZZ          XY          YZ          ZX
  --------------------------------------------------------------------------------------
  Alpha Z     2.79095     2.79095     2.79095
  Ewald     876.64706   876.62235   876.71007    -0.21850     0.02563    -0.50464
  Hartree  1187.08745  1185.66450  1186.76168    -0.30092    -0.12478     0.21789
  E(xc)    -181.83685  -181.83015  -181.73420    -0.00172    -0.02144     0.00722
  Local   -2536.53144 -2535.07818 -2536.18061     0.51179     0.08243     0.32251
  n-local   221.79097   221.83479   221.24628     0.02230     0.12685    -0.11892
  augment    -6.91461    -6.92488    -6.91095     0.00158    -0.00307    -0.00495
  Kinetic   438.09426   437.96028   438.27837    -0.00901    -0.06749     0.07796
  Fock        0.00000     0.00000     0.00000     0.00000     0.00000     0.00000
  -------------------------------------------------------------------------------------
  Total       1.12779     1.03967     0.96157     0.00552     0.01812    -0.00293
  in kB       0.22587     0.20822     0.19258     0.00111     0.00363    -0.00059
  external pressure =        0.21 kB  Pullay stress =        0.00 kB


 VOLUME and BASIS-vectors are now :
 -----------------------------------------------------------------------------
  energy-cutoff  :      400.00
[...]
 next E    =   -98.868188   (d E  =  -0.00016)


--------------------------------------------------------------------------------------------------------


    WAVPRE:  cpu time    0.3240: real time    0.3271
    FEWALD:  cpu time    0.0010: real time    0.0009
    ORTHCH:  cpu time    0.3379: real time    0.3368
     LOOP+:  cpu time   32.7170: real time   32.7123


--------------------------------------- Iteration     20(   1)  ---------------------------------------


    POTLOK:  cpu time    0.9689: real time    0.9696
    SETDIJ:  cpu time    0.0060: real time    0.0062
     EDDAV:  cpu time    3.3815: real time    3.3790
       DOS:  cpu time    0.0000: real time    0.0002
    CHARGE:  cpu time    0.2310: real time    0.2302
    MIXING:  cpu time    0.0240: real time    0.0246
    --------------------------------------------
      LOOP:  cpu time    4.6113: real time    4.6098

 eigenvalue-minimisations  :    84
 total energy-change (2. order) :-0.9977311E-05  (-0.6268196E-04)
 number of electron      56.0000024 magnetization 
 augmentation part       -4.7100018 magnetization 

 Broyden mixing:
  rms(total) = 0.87069E-03    rms(broyden)= 0.87054E-03
  rms(prec ) = 0.91224E-03
  weight for this iteration     100.00

 Free energy of the ion-electron system (eV)
  ---------------------------------------------------
  alpha Z        PSCENC =         2.79095307
  Ewald energy   TEWEN  =      2570.77569418
  -Hartree energ DENC   =     -3501.80444333
  -exchange      EXHF   =         0.00000000
  -V(xc)+E(xc)   XCENC  =       -37.12362885
  PAW double counting   =      3452.53962637    -3300.46136731
  entropy T*S    EENTRO =        -0.00000000
  eigenvalues    EBANDS =      -529.41007127
  atomic energy  EATOM  =      1243.82505112
  Solvation  Ediel_sol  =         0.00000000
  ---------------------------------------------------
  free energy    TOTEN  =       -98.86818604 eV

  energy without entropy =      -98.86818604  energy(sigma->0) =      -98.86818604


--------------------------------------------------------------------------------------------------------




--------------------------------------- Iteration     20(   2)  ---------------------------------------


    POTLOK:  cpu time    0.9699: real time    0.9696
    SETDIJ:  cpu time    0.0060: real time    0.0062
     EDDAV:  cpu time    4.2244: real time    4.2232
       DOS:  cpu time    0.0010: real time    0.0003
    CHARGE:  cpu time    0.2280: real time    0.2286
    MIXING:  cpu time    0.0260: real time    0.0264
    --------------------------------------------
      LOOP:  cpu time    5.4562: real time    5.4543

 eigenvalue-minimisations  :   112
 total energy-change (2. order) :-0.3549290E-05  (-0.3582088E-05)
 number of electron      56.0000024 magnetization 
 augmentation part       -4.7099012 magnetization 

 Broyden mixing:
  rms(total) = 0.49989E-03    rms(broyden)= 0.49973E-03
  rms(prec ) = 0.53425E-03
  weight for this iteration     100.00

 eigenvalues of (default mixing * dielectric matrix)
  average eigenvalue GAMMA=   0.9880
  0.9880

 Free energy of the ion-electron system (eV)
  ---------------------------------------------------
  alpha Z        PSCENC =         2.79095307
  Ewald energy   TEWEN  =      2570.77569418
  -Hartree energ DENC   =     -3501.80411813
  -exchange      EXHF   =         0.00000000
  -V(xc)+E(xc)   XCENC  =       -37.12344572
  PAW double counting   =      3452.29690138    -3300.21862545
  entropy T*S    EENTRO =        -0.00000000
  eigenvalues    EBANDS =      -529.41060004
  atomic energy  EATOM  =      1243.82505112
  Solvation  Ediel_sol  =         0.00000000
  ---------------------------------------------------
  free energy    TOTEN  =       -98.86818959 eV

  energy without entropy =      -98.86818959  energy(sigma->0) =      -98.86818959


--------------------------------------------------------------------------------------------------------




--------------------------------------- Iteration     20(   3)  ---------------------------------------


    POTLOK:  cpu time    0.9719: real time    0.9718
    SETDIJ:  cpu time    0.0060: real time    0.0062
     EDDAV:  cpu time    3.7594: real time    3.7575
       DOS:  cpu time    0.0000: real time    0.0002
    --------------------------------------------
      LOOP:  cpu time    4.7363: real time    4.7356

 eigenvalue-minimisations  :    96
 total energy-change (2. order) :-0.6346409E-06  (-0.1020302E-06)
 number of electron      56.0000024 magnetization 
 augmentation part       -4.7099012 magnetization 

 Free energy of the ion-electron system (eV)
  ---------------------------------------------------
  alpha Z        PSCENC =         2.79095307
  Ewald energy   TEWEN  =      2570.77569418
  -Hartree energ DENC   =     -3501.80479394
  -exchange      EXHF   =         0.00000000
  -V(xc)+E(xc)   XCENC  =       -37.12304678
  PAW double counting   =      3452.29427442    -3300.21595240
  entropy T*S    EENTRO =        -0.00000000
  eigenvalues    EBANDS =      -529.41036989
  atomic energy  EATOM  =      1243.82505112
  Solvation  Ediel_sol  =         0.00000000
  ---------------------------------------------------
  free energy    TOTEN  =       -98.86819022 eV

  energy without entropy =      -98.86819022  energy(sigma->0) =      -98.86819022


--------------------------------------------------------------------------------------------------------




 average (electrostatic) potential at core
  the test charge radii are     0.9892  1.1631  0.5201
  (the norm of the test charge is              1.0000)
       1 -93.4319       2 -93.3680       3 -93.4365       4 -40.4484       5 -40.4483
       6 -40.4691       7 -40.4692       8 -40.4690       9 -40.4914      10 -40.4915
      11 -40.9874      12 -40.9884      13 -41.0186      14 -40.8692      15 -40.8659
      16 -40.9929      17 -40.9926      18 -40.9126      19 -41.0179      20 -40.9890
      21 -40.9881      22 -41.0174      23 -40.8633      24 -40.8638      25 -40.9938
      26 -40.9929
 
 
 
 E-fermi :  -5.3050     XC(G=0):  -0.6172     alpha+bet : -0.3265


 k-point     1 :       0.0000    0.0000    0.0000
  band No.  band energies     occupation 
      1     -15.2709      2.00000
      2     -14.4093      2.00000
      3     -14.3304      2.00000
      4     -14.0321      2.00000
      5     -13.3186      2.00000
      6     -12.9372      2.00000
      7     -11.9640      2.00000
      8     -11.8354      2.00000
      9     -11.5506      2.00000
     10     -10.7132      2.00000
     11      -8.9380      2.00000
     12      -8.6271      2.00000
     13      -8.6142      2.00000
     14      -8.5235      2.00000
     15      -8.1798      2.00000
     16      -8.1531      2.00000
     17      -8.0505      2.00000
     18      -7.9184      2.00000
     19      -7.8175      2.00000
     20      -7.7857      2.00000
     21      -6.8446      2.00000
     22      -6.7373      2.00000
     23      -6.4894      2.00000
     24      -6.4120      2.00000
     25      -6.3773      2.00000
     26      -6.3157      2.00000
     27      -6.2833      2.00000
     28      -6.2763      2.00000
     29      -1.5858      0.00000
     30      -1.4355      0.00000
     31      -1.3522      0.00000
     32      -1.2814      0.00000
     33      -1.2498      0.00000
     34      -1.1935      0.00000
     35      -1.1913      0.00000
     36      -0.9891      0.00000
     37      -0.8159      0.00000
     38      -0.7141      0.00000
     39      -0.3414      0.00000
     40      -0.1879      0.00000
     41      -0.0928      0.00000
     42      -0.0745      0.00000


--------------------------------------------------------------------------------------------------------


 soft charge-density along one line, spin component           1
         0         1         2         3         4         5         6         7         8         9
 total charge-density along one line
 
 pseudopotential strength for first ion, spin component:           1
 19.623  27.384  -0.001   0.003   0.003  -0.001   0.006   0.005
 27.384  38.220  -0.001   0.004   0.003  -0.001   0.008   0.007
 -0.001  -0.001   4.362   0.000  -0.000   8.137   0.000  -0.000
  0.003   0.004   0.000   4.362   0.000   0.000   8.137   0.000
  0.003   0.003  -0.000   0.000   4.362  -0.000   0.000   8.136
 -0.001  -0.001   8.137   0.000  -0.000  15.189   0.000  -0.000
  0.006   0.008   0.000   8.137   0.000   0.000  15.188   0.001
  0.005   0.007  -0.000   0.000   8.136  -0.000   0.001  15.187
 total augmentation occupancy for first ion, spin component:           1
  5.759  -2.148   0.095  -0.484  -0.175  -0.029   0.150   0.057
 -2.148   0.866  -0.055   0.276   0.086   0.013  -0.067  -0.023
  0.095  -0.055   2.780  -0.161   0.004  -0.601   0.052   0.000
 -0.484   0.276  -0.161   3.493   0.026   0.052  -0.834  -0.013
 -0.175   0.086   0.004   0.026   2.916   0.000  -0.013  -0.636
 -0.029   0.013  -0.601   0.052   0.000   0.137  -0.015  -0.000
  0.150  -0.067   0.052  -0.834  -0.013  -0.015   0.203   0.005
  0.057  -0.023   0.000  -0.013  -0.636  -0.000   0.005   0.146


------------------------ aborting loop because EDIFF is reached ----------------------------------------


    CHARGE:  cpu time    0.2310: real time    0.2305
    FORLOC:  cpu time    0.1260: real time    0.1268
    FORNL :  cpu time    0.8499: real time    0.8487
    STRESS:  cpu time    2.8636: real time    2.8625
    FORCOR:  cpu time    1.0018: real time    1.0020
    FORHAR:  cpu time    0.3519: real time    0.3517
    MIXING:  cpu time    0.0260: real time    0.0252
    OFIELD:  cpu time    0.0000: real time    0.0000

  FORCE on cell =-STRESS in cart. coord.  units (eV):
  Direction    XX          YY          ZZ          XY          YZ          ZX
  --------------------------------------------------------------------------------------
  Alpha Z     2.79095     2.79095     2.79095
  Ewald     860.92009   851.45579   858.39816    -0.86447    -0.85330     4.54408
  Hartree  1170.33017  1161.71721  1169.75911    -0.86442    -1.13627     4.41270
  E(xc)    -181.30092  -181.36058  -181.22885     0.00030    -0.02904     0.01571
  Local   -2503.37462 -2484.70833 -2500.10023     1.68918     2.08459    -8.93039
  n-local   219.63049   219.65460   219.20224     0.06761     0.08338    -0.32383
  augment    -7.15329    -7.09298    -7.15969    -0.00665     0.01662     0.01328
  Kinetic   437.21232   436.51287   437.40593    -0.02679    -0.18626     0.30950
  Fock        0.00000     0.00000     0.00000     0.00000     0.00000     0.00000
  -------------------------------------------------------------------------------------
  Total      -0.94481    -1.03047    -0.93237    -0.00524    -0.02029     0.04106
  in kB      -0.18922    -0.20637    -0.18673    -0.00105    -0.00406     0.00822
  external pressure =       -0.19 kB  Pullay stress =        0.00 kB


 VOLUME and BASIS-vectors are now :
 -----------------------------------------------------------------------------
  energy-cutoff  :      400.00
  volume of cell :     8000.00
      direct lattice vectors                 reciprocal lattice vectors
    20.000000000  0.000000000  0.000000000     0.050000000  0.000000000  0.000000000
     0.000000000 20.000000000  0.000000000     0.000000000  0.050000000  0.000000000
     0.000000000  0.000000000 20.000000000     0.000000000  0.000000000  0.050000000

  length of vectors
    20.000000000 20.000000000 20.000000000     0.050000000  0.050000000  0.050000000


 FORCES acting on ions
    electron-ion (+dipol)            ewald-force                    non-local-force                 convergence-correction
 -----------------------------------------------------------------------------------------------
   0.984E+01 -.181E+02 0.858E+02   -.109E+02 0.184E+02 -.873E+02   0.102E+01 -.278E+00 0.154E+01   -.123E-03 -.652E-04 0.288E-03
   0.855E+02 -.449E+01 0.428E+02   -.872E+02 0.474E+01 -.444E+02   0.163E+01 -.259E+00 0.161E+01   0.103E-02 0.114E-03 -.123E-03
   -.832E+02 0.499E+01 -.445E+02   0.854E+02 -.511E+01 0.456E+02   -.228E+01 0.124E+00 -.116E+01   -.133E-03 0.142E-03 -.642E-03
   -.368E+02 0.540E+02 0.731E+02   0.370E+02 -.544E+02 -.740E+02   -.209E+00 0.304E+00 0.885E+00   -.333E-03 0.610E-03 0.888E-05
   -.291E+02 -.828E+02 0.436E+02   0.293E+02 0.835E+02 -.442E+02   -.156E+00 -.664E+00 0.675E+00   -.254E-03 -.589E-03 -.253E-03
   0.801E+02 0.133E+02 -.404E+02   -.808E+02 -.133E+02 0.403E+02   0.723E+00 0.345E-01 0.296E-01   0.149E-03 0.627E-04 -.244E-03
   -.496E+02 0.754E+02 -.843E+01   0.502E+02 -.758E+02 0.868E+01   -.601E+00 0.344E+00 -.245E+00   0.155E-03 0.425E-03 0.163E-03
   -.415E+02 -.700E+02 -.401E+02   0.421E+02 0.703E+02 0.404E+02   -.567E+00 -.274E+00 -.379E+00   0.216E-03 -.431E-03 -.316E-04
   0.281E+02 0.813E+02 -.449E+02   -.285E+02 -.822E+02 0.454E+02   0.312E+00 0.891E+00 -.477E+00   0.110E-03 0.216E-03 0.149E-04
   0.356E+02 -.522E+02 -.737E+02   -.360E+02 0.527E+02 0.745E+02   0.394E+00 -.576E+00 -.795E+00   0.142E-03 -.185E-03 -.587E-04
   0.196E+02 0.393E+02 0.583E+01   -.207E+02 -.412E+02 -.691E+01   0.114E+01 0.196E+01 0.108E+01   0.769E-04 -.711E-04 0.279E-04
   0.152E+01 0.213E+02 -.389E+02   -.125E+01 -.218E+02 0.413E+02   -.272E+00 0.543E+00 -.244E+01   -.810E-04 -.169E-04 0.124E-03
   -.257E+02 0.381E+02 -.398E+01   0.271E+02 -.401E+02 0.417E+01   -.137E+01 0.204E+01 -.196E+00   0.631E-04 0.276E-03 0.411E-04
   -.456E+02 -.389E+01 0.607E+01   0.482E+02 0.431E+01 -.732E+01   -.266E+01 -.420E+00 0.125E+01   -.119E-03 0.785E-05 -.452E-04
   -.203E+02 0.777E+01 -.409E+02   0.207E+02 -.836E+01 0.438E+02   -.434E+00 0.599E+00 -.287E+01   0.222E-04 -.883E-04 0.421E-03
   -.348E+02 0.501E+01 0.277E+02   0.370E+02 -.466E+01 -.288E+02   -.221E+01 -.337E+00 0.114E+01   -.168E-03 0.202E-03 -.965E-04
   0.788E+01 0.344E+02 0.274E+02   -.899E+01 -.364E+02 -.285E+02   0.111E+01 0.196E+01 0.112E+01   -.108E-03 0.655E-04 -.566E-05
   0.645E+01 -.989E+01 0.468E+02   -.684E+01 0.105E+02 -.497E+02   0.383E+00 -.592E+00 0.283E+01   -.164E-03 -.798E-04 0.310E-03
   -.216E+02 -.356E+02 -.200E+02   0.227E+02 0.375E+02 0.211E+02   -.114E+01 -.191E+01 -.105E+01   0.103E-03 -.259E-03 -.830E-04
   0.288E+01 -.303E+01 -.440E+02   -.261E+01 0.253E+01 0.464E+02   -.269E+00 0.489E+00 -.245E+01   -.710E-04 -.468E-04 0.116E-03
   0.238E+02 -.360E+02 -.106E+02   -.251E+02 0.381E+02 0.104E+02   0.137E+01 -.210E+01 0.197E+00   0.756E-04 0.636E-04 0.713E-04
   0.412E+02 0.658E+01 -.196E+02   -.434E+02 -.693E+01 0.206E+02   0.221E+01 0.349E+00 -.104E+01   0.311E-04 0.695E-04 -.310E-03
   0.318E+02 0.249E+02 0.234E+02   -.332E+02 -.272E+02 -.247E+02   0.142E+01 0.224E+01 0.132E+01   0.175E-03 -.232E-03 -.195E-03
   0.348E+02 -.288E+02 0.118E+02   -.364E+02 0.312E+02 -.121E+02   0.168E+01 -.242E+01 0.306E+00   0.158E-03 0.300E-03 -.649E-04
   0.122E+02 -.415E+02 0.109E+02   -.135E+02 0.436E+02 -.112E+02   0.133E+01 -.212E+01 0.231E+00   -.936E-04 -.709E-04 -.366E-04
   -.334E+02 -.196E+02 0.224E+02   0.356E+02 0.200E+02 -.235E+02   -.221E+01 -.403E+00 0.113E+01   -.144E-03 -.164E-03 -.177E-03
 -----------------------------------------------------------------------------------------------
   -.329E+00 0.466E+00 -.222E+01   -.142E-13 0.000E+00 -.355E-13   0.332E+00 -.465E+00 0.223E+01   0.714E-03 0.254E-03 -.780E-03
 
 
 POSITION                                       TOTAL-FORCE (eV/Angst)
 -----------------------------------------------------------------------------------
      9.47103     11.12779      7.67077        -0.006582      0.001390     -0.008119
      7.37944     10.78898      8.69213        -0.002701     -0.003183      0.012622
     12.30861     10.49289     11.32794        -0.007137     -0.002054      0.007912
     10.82894      9.15686      7.88912         0.002683     -0.007231      0.007351
     10.61557     12.96475      8.71565         0.002239      0.003664      0.009542
      7.64153     10.29544     11.03285         0.001941      0.000872     -0.003154
     11.19418      8.64784     10.26363        -0.000380      0.004034      0.008101
     10.97930     12.48235     11.09593         0.000358     -0.007057      0.005668
      9.00417      8.27272     11.30639         0.002433      0.000409      0.000291
      8.78664     12.15673     12.14975         0.002646     -0.000195      0.000246
      8.29834      7.05578     10.63625         0.005412      0.002902     -0.001457
      9.17282      7.93783     12.81869        -0.002441      0.005304     -0.000642
     12.06109      7.35348     10.38849         0.001210      0.008311     -0.001014
     13.65007     10.70524     10.69554         0.001306      0.000409     -0.001062
     12.52591     10.19005     12.77959        -0.002144      0.001712     -0.008302
     12.20104      9.36875      7.18229        -0.001828      0.010534     -0.001425
     10.14097      7.94193      7.19776        -0.005769      0.002931      0.005494
      9.27297     11.43289      6.21367        -0.005277      0.001015     -0.006418
     11.70584     13.69375     11.76462         0.002578     -0.007032     -0.004713
      8.95372     11.85231     13.66865        -0.001470     -0.005059     -0.003003
      7.93987     13.45903     12.02673         0.005788     -0.001230     -0.001770
      6.24041     10.07446     11.68902        -0.000529      0.002534     -0.011768
      6.66362      9.65314      8.02532         0.006854      0.000654     -0.001248
      6.53123     12.01533      8.53825         0.006609      0.001212     -0.000921
      9.78632     14.27594      8.57275        -0.005192     -0.005507      0.003550
     11.98576     13.21172      8.01657        -0.000608     -0.009342     -0.005759
 -----------------------------------------------------------------------------------
    total drift:                                0.003827      0.001200      0.000409


--------------------------------------------------------------------------------------------------------



  FREE ENERGIE OF THE ION-ELECTRON SYSTEM (eV)
  ---------------------------------------------------
  free  energy   TOTEN  =       -98.86819022 eV

  energy  without entropy=      -98.86819022  energy(sigma->0) =      -98.86819022
 
 d Force = 0.1237335E-04[ 0.293E-06, 0.245E-04]  d Energy = 0.1423473E-04-0.186E-05
 d Force = 0.2234352E+00[ 0.223E+00, 0.223E+00]  d Ewald  = 0.2234352E+00 0.198E-08


--------------------------------------------------------------------------------------------------------


    POTLOK:  cpu time    0.9749: real time    0.9757


--------------------------------------------------------------------------------------------------------




--------------------------------------------------------------------------------------------------------


  
 reached required accuracy - stopping structural energy minimisation
 writing wavefunctions
     LOOP+:  cpu time   21.6617: real time   22.0805
    4ORBIT:  cpu time    0.0000: real time    0.0000

 total amount of memory used by VASP MPI-rank0   131440. kBytes
=======================================================================

   base      :      30000. kBytes
   nonl-proj :      17624. kBytes
   fftplans  :      26957. kBytes
   grid      :      48673. kBytes
   one-center:         40. kBytes
   wavefun   :       8146. kBytes
 
  
  
 General timing and accounting informations for this job:
 ========================================================
  
                  Total CPU time used (sec):     1135.800
                            User time (sec):     1113.277
                          System time (sec):       22.524
                         Elapsed time (sec):     1139.973
  
                   Maximum memory used (kb):      185552.
                   Average memory used (kb):           0.
  
                          Minor page faults:      6087528
                          Major page faults:            6
                 Voluntary context switches:        10216
