 vasp.5.4.4.18Apr17-6-g9f103f2a35 (build Nov 06 2017 19:16:10) complex          
  
 executed on           IFC91_ompi date 2018.07.10  10:56:42
 running on   12 total cores
 distrk:  each k-point on   12 cores,    1 groups
 distr:  one band on NCORES_PER_BAND=   6 cores,    2 groups


--------------------------------------------------------------------------------------------------------


 INCAR:
 POTCAR:    PAW_PBE Si 05Jan2001                  
 POTCAR:    PAW_PBE Ge 05Jan2001                  
 POTCAR:    PAW_PBE H 15Jun2001                   
 POTCAR:    PAW_PBE Si 05Jan2001                  
   VRHFIN =Si: s2p2                                                             
   LEXCH  = PE                                                                  
   EATOM  =   103.0669 eV,    7.5752 Ry                                         
                                                                                
   TITEL  = PAW_PBE Si 05Jan2001                                                
   LULTRA =        F    use ultrasoft PP ?                                      
   IUNSCR =        1    unscreen: 0-lin 1-nonlin 2-no                           
   RPACOR =    1.500    partial core radius                                     
   POMASS =   28.085; ZVAL   =    4.000    mass and valenz                      
   RCORE  =    1.900    outmost cutoff radius                                   
   RWIGS  =    2.480; RWIGS  =    1.312    wigner-seitz radius (au A)           
   ENMAX  =  245.345; ENMIN  =  184.009 eV                                      
   ICORE  =        2    local potential                                         
   LCOR   =        T    correct aug charges                                     
   LPAW   =        T    paw PP                                                  
   EAUG   =  322.069                                                            
   DEXC   =    0.000                                                            
   RMAX   =    1.950    core radius for proj-oper                               
   RAUG   =    1.300    factor for augmentation sphere                          
   RDEP   =    1.993    radius for radial grids                                 
   RDEPT  =    1.837    core radius for aug-charge                              
                                                                                
   Atomic configuration                                                         
    6 entries                                                                   
     n  l   j            E        occ.                                          
     1  0  0.50     -1785.8828   2.0000                                         
     2  0  0.50      -139.4969   2.0000                                         
     2  1  1.50       -95.5546   6.0000                                         
     3  0  0.50       -10.8127   2.0000                                         
     3  1  0.50        -4.0811   2.0000                                         
     3  2  1.50        -4.0817   0.0000                                         
   Description                                                                  
     l       E           TYP  RCUT    TYP  RCUT                                 
     0    -10.8127223     23  1.900                                             
     0     -7.6451159     23  1.900                                             
     1     -4.0811372     23  1.900                                             
     1      2.4879257     23  1.900                                             
     2     -4.0817478      7  1.900                                             
  local pseudopotential read in
  partial core-charges read in
  partial kinetic energy density read in
  atomic valenz-charges read in
  non local Contribution for L=           0  read in
    real space projection operators read in
  non local Contribution for L=           0  read in
    real space projection operators read in
  non local Contribution for L=           1  read in
    real space projection operators read in
  non local Contribution for L=           1  read in
    real space projection operators read in
    PAW grid and wavefunctions read in
 
   number of l-projection  operators is LMAX  =           4
   number of lm-projection operators is LMMAX =           8
 
 POTCAR:    PAW_PBE Ge 05Jan2001                  
   VRHFIN =Ge: s2p2                                                             
   LEXCH  = PE                                                                  
   EATOM  =   104.9960 eV,    7.7170 Ry                                         
                                                                                
   TITEL  = PAW_PBE Ge 05Jan2001                                                
   LULTRA =        F    use ultrasoft PP ?                                      
   IUNSCR =        1    unscreen: 0-lin 1-nonlin 2-no                           
   RPACOR =    2.170    partial core radius                                     
   POMASS =   72.610; ZVAL   =    4.000    mass and valenz                      
   RCORE  =    2.300    outmost cutoff radius                                   
   RWIGS  =    2.300; RWIGS  =    1.217    wigner-seitz radius (au A)           
   ENMAX  =  173.807; ENMIN  =  130.355 eV                                      
   ICORE  =        3    local potential                                         
   LCOR   =        T    correct aug charges                                     
   LPAW   =        T    paw PP                                                  
   EAUG   =  385.843                                                            
   DEXC   =    0.000                                                            
   RMAX   =    2.342    core radius for proj-oper                               
   RAUG   =    1.300    factor for augmentation sphere                          
   RDEP   =    2.318    radius for radial grids                                 
   RDEPT  =    2.103    core radius for aug-charge                              
                                                                                
   Atomic configuration                                                         
   10 entries                                                                   
     n  l   j            E        occ.                                          
     1  0  0.50    -10959.8463   2.0000                                         
     2  0  0.50     -1371.6056   2.0000                                         
     2  1  1.50     -1198.4791   6.0000                                         
     3  0  0.50      -168.4733   2.0000                                         
     3  1  1.50      -115.6019   6.0000                                         
     3  2  2.50       -29.3106  10.0000                                         
     4  0  0.50       -11.7309   2.0000                                         
     4  1  0.50        -3.8952   2.0000                                         
     4  2  1.50        -4.0817   0.0000                                         
     4  3  2.50        -4.0817   0.0000                                         
   Description                                                                  
     l       E           TYP  RCUT    TYP  RCUT                                 
     0    -11.7309493     23  2.300                                             
     0     -7.4578696     23  2.300                                             
     1     -3.8952261     23  2.300                                             
     1      6.1178114     23  2.300                                             
     2     -4.0817478     23  2.300                                             
     3     -1.3605826      7  2.300                                             
  local pseudopotential read in
  partial core-charges read in
  partial kinetic energy density read in
  atomic valenz-charges read in
  non local Contribution for L=           0  read in
    real space projection operators read in
  non local Contribution for L=           0  read in
    real space projection operators read in
  non local Contribution for L=           1  read in
    real space projection operators read in
  non local Contribution for L=           1  read in
    real space projection operators read in
  non local Contribution for L=           2  read in
    real space projection operators read in
    PAW grid and wavefunctions read in
 
   number of l-projection  operators is LMAX  =           5
   number of lm-projection operators is LMMAX =          13
 
 POTCAR:    PAW_PBE H 15Jun2001                   
   VRHFIN =H: ultrasoft test                                                    
   LEXCH  = PE                                                                  
   EATOM  =    12.4884 eV,    0.9179 Ry                                         
                                                                                
   TITEL  = PAW_PBE H 15Jun2001                                                 
   LULTRA =        F    use ultrasoft PP ?                                      
   IUNSCR =        0    unscreen: 0-lin 1-nonlin 2-no                           
   RPACOR =    0.000    partial core radius                                     
   POMASS =    1.000; ZVAL   =    1.000    mass and valenz                      
   RCORE  =    1.100    outmost cutoff radius                                   
   RWIGS  =    0.700; RWIGS  =    0.370    wigner-seitz radius (au A)           
   ENMAX  =  250.000; ENMIN  =  200.000 eV                                      
   RCLOC  =    0.701    cutoff for local pot                                    
   LCOR   =        T    correct aug charges                                     
   LPAW   =        T    paw PP                                                  
   EAUG   =  400.000                                                            
   RMAX   =    1.123    core radius for proj-oper                               
   RAUG   =    1.200    factor for augmentation sphere                          
   RDEP   =    1.112    radius for radial grids                                 
   RDEPT  =    0.926    core radius for aug-charge                              
                                                                                
   Atomic configuration                                                         
    2 entries                                                                   
     n  l   j            E        occ.                                          
     1  0  0.50        -6.4927   1.0000                                         
     2  1  0.50        -3.4015   0.0000                                         
   Description                                                                  
     l       E           TYP  RCUT    TYP  RCUT                                 
     0     -6.4927494     23  1.100                                             
     0      6.8029130     23  1.100                                             
     1     -4.0817478     23  1.100                                             
  local pseudopotential read in
  atomic valenz-charges read in
  non local Contribution for L=           0  read in
    real space projection operators read in
  non local Contribution for L=           0  read in
    real space projection operators read in
  non local Contribution for L=           1  read in
    real space projection operators read in
    PAW grid and wavefunctions read in
 
   number of l-projection  operators is LMAX  =           3
   number of lm-projection operators is LMMAX =           5
 

 ----------------------------------------------------------------------------- 
|                                                                             |
|  ADVICE TO THIS USER RUNNING 'VASP/VAMP'   (HEAR YOUR MASTER'S VOICE ...):  |
|                                                                             |
|      You have a (more or less) 'large supercell' and for larger cells       |
|      it might be more efficient to use real space projection opertators     |
|      So try LREAL= Auto  in the INCAR   file.                               |
|      Mind:          For very  accurate calculation you might also keep the  |
|      reciprocal projection scheme          (i.e. LREAL=.FALSE.)             |
|                                                                             |
 ----------------------------------------------------------------------------- 

  PAW_PBE Si 05Jan2001                  :
 energy of atom  1       EATOM= -103.0669
 kinetic energy error for atom=    0.0012 (will be added to EATOM!!)
  PAW_PBE Ge 05Jan2001                  :
 energy of atom  2       EATOM= -104.9960
 kinetic energy error for atom=    0.0003 (will be added to EATOM!!)
  PAW_PBE H 15Jun2001                   :
 energy of atom  3       EATOM=  -12.4884
 kinetic energy error for atom=    0.0098 (will be added to EATOM!!)
 
 
 POSCAR: SiGeH16                                 
  positions in direct lattice
  No initial velocities read in
 exchange correlation table for  LEXCH =        8
   RHO(1)=    0.500       N(1)  =     2000
   RHO(2)=  100.500       N(2)  =     4000
 


--------------------------------------------------------------------------------------------------------


 ion  position               nearest neighbor table
   1  0.475  0.556  0.385-  18 1.55   6 2.39   4 2.39   5 2.39
   2  0.385  0.515  0.552-  22 1.55  10 2.39   9 2.39   4 2.39
   3  0.557  0.433  0.512-  13 1.55   5 2.39   8 2.39   9 2.39
   4  0.369  0.539  0.436-  23 1.55  24 1.55   2 2.39   1 2.39
   5  0.542  0.457  0.396-  17 1.55  16 1.55   3 2.39   1 2.39
   6  0.531  0.648  0.437-  25 1.55  26 1.55   7 2.39   1 2.39
   7  0.547  0.624  0.554-  19 1.55   6 2.39   8 2.39  10 2.39
   8  0.613  0.525  0.565-  15 1.55  14 1.55   7 2.39   3 2.39
   9  0.451  0.416  0.564-  12 1.55  11 1.55   2 2.39   3 2.39
  10  0.440  0.606  0.605-  20 1.55  21 1.55   2 2.39   7 2.39
  11  0.415  0.357  0.529-   9 1.55
  12  0.461  0.400  0.639-   9 1.55
  13  0.600  0.369  0.520-   3 1.55
  14  0.682  0.536  0.531-   8 1.55
  15  0.623  0.509  0.640-   8 1.55
  16  0.611  0.469  0.363-   5 1.55
  17  0.506  0.398  0.362-   5 1.55
  18  0.465  0.572  0.309-   1 1.55
  19  0.583  0.683  0.588-   7 1.55
  20  0.451  0.590  0.680-  10 1.55
  21  0.397  0.670  0.598-  10 1.55
  22  0.316  0.504  0.586-   2 1.55
  23  0.333  0.479  0.402-   4 1.55
  24  0.326  0.603  0.429-   4 1.55
  25  0.488  0.712  0.430-   6 1.55
  26  0.600  0.659  0.404-   6 1.55
 
  LATTYP: Found a simple cubic cell.
 ALAT       =    20.0000000000
  
  Lattice vectors:
  
 A1 = (  20.0000000000,   0.0000000000,   0.0000000000)
 A2 = (   0.0000000000,  20.0000000000,   0.0000000000)
 A3 = (   0.0000000000,   0.0000000000,  20.0000000000)


Analysis of symmetry for initial positions (statically):
=====================================================================
 Subroutine PRICEL returns:
 Original cell was already a primitive cell.
 

 Routine SETGRP: Setting up the symmetry group for a 
 simple cubic supercell.


 Subroutine GETGRP returns: Found  1 space group operations
 (whereof  1 operations were pure point group operations)
 out of a pool of 48 trial point group operations.


The static configuration has the point symmetry C_1 .


Analysis of symmetry for dynamics (positions and initial velocities):
=====================================================================
 Subroutine PRICEL returns:
 Original cell was already a primitive cell.
 

 Routine SETGRP: Setting up the symmetry group for a 
 simple cubic supercell.


 Subroutine GETGRP returns: Found  1 space group operations
 (whereof  1 operations were pure point group operations)
 out of a pool of 48 trial point group operations.


The dynamic configuration has the point symmetry C_1 .


 Subroutine INISYM returns: Found  1 space group operations
 (whereof  1 operations are pure point group operations),
 and found     1 'primitive' translations

 
 
 KPOINTS: Automatic mesh                          

Automatic generation of k-mesh.
Space group operators:
 irot       det(A)        alpha          n_x          n_y          n_z        tau_x        tau_y        tau_z
    1     1.000000     0.000000     1.000000     0.000000     0.000000     0.000000     0.000000     0.000000
 
 Subroutine IBZKPT returns following result:
 ===========================================
 
 Found      1 irreducible k-points:
 
 Following reciprocal coordinates:
            Coordinates               Weight
  0.000000  0.000000  0.000000      1.000000
 
 Following cartesian coordinates:
            Coordinates               Weight
  0.000000  0.000000  0.000000      1.000000
 


--------------------------------------------------------------------------------------------------------




 Dimension of arrays:
   k-points           NKPTS =      1   k-points in BZ     NKDIM =      1   number of bands    NBANDS=     42
   number of dos      NEDOS =    301   number of ions     NIONS =     26
   non local maximal  LDIM  =      5   non local SUM 2l+1 LMDIM =     13
   total plane-waves  NPLWV = 941192
   max r-space proj   IRMAX =      1   max aug-charges    IRDMAX=   6593
   dimension x,y,z NGX =    98 NGY =   98 NGZ =   98
   dimension x,y,z NGXF=   196 NGYF=  196 NGZF=  196
   support grid    NGXF=   196 NGYF=  196 NGZF=  196
   ions per type =               3   7  16
   NGX,Y,Z   is equivalent  to a cutoff of   8.15,  8.15,  8.15 a.u.
   NGXF,Y,Z  is equivalent  to a cutoff of  16.29, 16.29, 16.29 a.u.

 SYSTEM =  SiGe                                    
 POSCAR =  SiGeH16                                 

 Startparameter for this run:
   NWRITE =      2    write-flag & timer
   PREC   = normal    normal or accurate (medium, high low for compatibility)
   ISTART =      0    job   : 0-new  1-cont  2-samecut
   ICHARG =      2    charge: 1-file 2-atom 10-const
   ISPIN  =      1    spin polarized calculation?
   LNONCOLLINEAR =      F non collinear calculations
   LSORBIT =      F    spin-orbit coupling
   INIWAV =      1    electr: 0-lowe 1-rand  2-diag
   LASPH  =      F    aspherical Exc in radial PAW
   METAGGA=      F    non-selfconsistent MetaGGA calc.

 Electronic Relaxation 1
   ENCUT  =  400.0 eV  29.40 Ry    5.42 a.u.  32.61 32.61 32.61*2*pi/ulx,y,z
   ENINI  =  400.0     initial cutoff
   ENAUG  =  400.0 eV  augmentation charge cutoff
   NELM   =     60;   NELMIN=  2; NELMDL= -5     # of ELM steps 
   EDIFF  = 0.1E-05   stopping-criterion for ELM
   LREAL  =      F    real-space projection
   NLSPLINE    = F    spline interpolate recip. space projectors
   LCOMPAT=      F    compatible to vasp.4.4
   GGA_COMPAT  = T    GGA compatible to vasp.4.4-vasp.4.6
   LMAXPAW     = -100 max onsite density
   LMAXMIX     =    2 max onsite mixed and CHGCAR
   VOSKOWN=      0    Vosko Wilk Nusair interpolation
   ROPT   =    0.00000   0.00000   0.00000
 Ionic relaxation
   EDIFFG = -.2E-01   stopping-criterion for IOM
   NSW    =    200    number of steps for IOM
   NBLOCK =      1;   KBLOCK =    200    inner block; outer block 
   IBRION =      2    ionic relax: 0-MD 1-quasi-New 2-CG
   NFREE  =      1    steps in history (QN), initial steepest desc. (CG)
   ISIF   =      2    stress and relaxation
   IWAVPR =     11    prediction:  0-non 1-charg 2-wave 3-comb
   ISYM   =      2    0-nonsym 1-usesym 2-fastsym
   LCORR  =      T    Harris-Foulkes like correction to forces

   POTIM  = 0.5000    time-step for ionic-motion
   TEIN   =    0.0    initial temperature
   TEBEG  =    0.0;   TEEND  =   0.0 temperature during run
   SMASS  =  -3.00    Nose mass-parameter (am)
   estimated Nose-frequenzy (Omega)   =  0.10E-29 period in steps =****** mass=  -0.914E-26a.u.
   SCALEE = 1.0000    scale energy and forces
   NPACO  =    256;   APACO  = 16.0  distance and # of slots for P.C.
   PSTRESS=    0.0 pullay stress

  Mass of Ions in am
   POMASS =  28.09 72.61  1.00
  Ionic Valenz
   ZVAL   =   4.00  4.00  1.00
  Atomic Wigner-Seitz radii
   RWIGS  =  -1.00 -1.00 -1.00
  virtual crystal weights 
   VCA    =   1.00  1.00  1.00
   NELECT =      56.0000    total number of electrons
   NUPDOWN=      -1.0000    fix difference up-down

 DOS related values:
   EMIN   =  10.00;   EMAX   =-10.00  energy-range for DOS
   EFERMI =   0.00
   ISMEAR =     0;   SIGMA  =   0.20  broadening in eV -4-tet -1-fermi 0-gaus

 Electronic relaxation 2 (details)
   IALGO  =     38    algorithm
   LDIAG  =      T    sub-space diagonalisation (order eigenvalues)
   LSUBROT=      F    optimize rotation matrix (better conditioning)
   TURBO    =      0    0=normal 1=particle mesh
   IRESTART =      0    0=no restart 2=restart with 2 vectors
   NREBOOT  =      0    no. of reboots
   NMIN     =      0    reboot dimension
   EREF     =   0.00    reference energy to select bands
   IMIX   =      4    mixing-type and parameters
     AMIX     =   0.40;   BMIX     =  1.00
     AMIX_MAG =   1.60;   BMIX_MAG =  1.00
     AMIN     =   0.10
     WC   =   100.;   INIMIX=   1;  MIXPRE=   1;  MAXMIX= -45

 Intra band minimization:
   WEIMIN = 0.0010     energy-eigenvalue tresh-hold
   EBREAK =  0.60E-08  absolut break condition
   DEPER  =   0.30     relativ break condition  

   TIME   =   0.40     timestep for ELM

  volume/ion in A,a.u.               =     307.69      2076.41
  Fermi-wavevector in a.u.,A,eV,Ry     =   0.313166  0.591797  1.334361  0.098073
  Thomas-Fermi vector in A             =   1.193276
 
 Write flags
   LWAVE        =      T    write WAVECAR
   LDOWNSAMPLE  =      F    k-point downsampling of WAVECAR
   LCHARG       =      T    write CHGCAR
   LVTOT        =      F    write LOCPOT, total local potential
   LVHAR        =      F    write LOCPOT, Hartree potential only
   LELF         =      F    write electronic localiz. function (ELF)
   LORBIT       =      0    0 simple, 1 ext, 2 COOP (PROOUT), +10 PAW based schemes


 Dipole corrections
   LMONO  =      F    monopole corrections only (constant potential shift)
   LDIPOL =      F    correct potential (dipole corrections)
   IDIPOL =      0    1-x, 2-y, 3-z, 4-all directions 
   EPSILON=  1.0000000 bulk dielectric constant

 Exchange correlation treatment:
   GGA     =    --    GGA type
   LEXCH   =     8    internal setting for exchange type
   VOSKOWN=      0    Vosko Wilk Nusair interpolation
   LHFCALC =     F    Hartree Fock is set to
   LHFONE  =     F    Hartree Fock one center treatment
   AEXX    =    0.0000 exact exchange contribution

 Linear response parameters
   LEPSILON=     F    determine dielectric tensor
   LRPA    =     F    only Hartree local field effects (RPA)
   LNABLA  =     F    use nabla operator in PAW spheres
   LVEL    =     F    velocity operator in full k-point grid
   LINTERFAST=   F  fast interpolation
   KINTER  =     0    interpolate to denser k-point grid
   CSHIFT  =0.1000    complex shift for real part using Kramers Kronig
   OMEGAMAX=  -1.0    maximum frequency
   DEG_THRESHOLD= 0.2000000E-02 threshold for treating states as degnerate
   RTIME   =   -0.100 relaxation time in fs
  (WPLASMAI=    0.000 imaginary part of plasma frequency in eV, 0.658/RTIME)
   DFIELD  = 0.0000000 0.0000000 0.0000000 field for delta impulse in time
 
 Orbital magnetization related:
   ORBITALMAG=     F  switch on orbital magnetization
   LCHIMAG   =     F  perturbation theory with respect to B field
   DQ        =  0.001000  dq finite difference perturbation B field
   LLRAUG    =     F  two centre corrections for induced B field



--------------------------------------------------------------------------------------------------------


 conjugate gradient relaxation of ions
 charge density and potential will be updated during run
 non-spin polarized calculation
 Variant of blocked Davidson
 Davidson routine will perform the subspace rotation
 perform sub-space diagonalisation
    after iterative eigenvector-optimisation
 modified Broyden-mixing scheme, WC =      100.0
 initial mixing is a Kerker type mixing with AMIX =  0.4000 and BMIX =      1.0000
 Hartree-type preconditioning will be used
 using additional bands           14
 reciprocal scheme for non local part
 use partial core corrections
 calculate Harris-corrections to forces 
   (improved forces if not selfconsistent)
 use gradient corrections 
 use of overlap-Matrix (Vanderbilt PP)
 Gauss-broadening in eV      SIGMA  =   0.20


--------------------------------------------------------------------------------------------------------


  energy-cutoff  :      400.00
  volume of cell :     8000.00
      direct lattice vectors                 reciprocal lattice vectors
    20.000000000  0.000000000  0.000000000     0.050000000  0.000000000  0.000000000
     0.000000000 20.000000000  0.000000000     0.000000000  0.050000000  0.000000000
     0.000000000  0.000000000 20.000000000     0.000000000  0.000000000  0.050000000

  length of vectors
    20.000000000 20.000000000 20.000000000     0.050000000  0.050000000  0.050000000


 
 k-points in units of 2pi/SCALE and weight: Automatic mesh                          
   0.00000000  0.00000000  0.00000000       1.000
 
 k-points in reciprocal lattice and weights: Automatic mesh                          
   0.00000000  0.00000000  0.00000000       1.000
 
 position of ions in fractional coordinates (direct lattice) 
   0.47547100  0.55626000  0.38465300
   0.38461900  0.51474100  0.55243500
   0.55736800  0.43311000  0.51215000
   0.36907800  0.53906000  0.43641200
   0.54179100  0.45744600  0.39613600
   0.53111600  0.64794100  0.43749600
   0.54669200  0.62364400  0.55351800
   0.61299700  0.52481700  0.56496600
   0.45095700  0.41593600  0.56388300
   0.44028400  0.60643000  0.60524300
   0.41490100  0.35665000  0.52940300
   0.46117000  0.40042600  0.63910800
   0.60034800  0.36907000  0.51957800
   0.68182700  0.53600700  0.53118700
   0.62280400  0.50903400  0.64018900
   0.61080000  0.46880600  0.36278200
   0.50550800  0.39805500  0.36207700
   0.46538400  0.57201900  0.30946400
   0.58275500  0.68306700  0.58775000
   0.45052500  0.59044300  0.68036400
   0.39732000  0.67044900  0.59753500
   0.31566200  0.50359800  0.58596500
   0.33322800  0.47946500  0.40225200
   0.32629100  0.60324700  0.42912600
   0.48792300  0.71185500  0.43020800
   0.60015100  0.65882400  0.40403700
 
 position of ions in cartesian coordinates  (Angst):
   9.50942000 11.12520000  7.69306000
   7.69238000 10.29482000 11.04870000
  11.14736000  8.66220000 10.24300000
   7.38156000 10.78120000  8.72824000
  10.83582000  9.14892000  7.92272000
  10.62232000 12.95882000  8.74992000
  10.93384000 12.47288000 11.07036000
  12.25994000 10.49634000 11.29932000
   9.01914000  8.31872000 11.27766000
   8.80568000 12.12860000 12.10486000
   8.29802000  7.13300000 10.58806000
   9.22340000  8.00852000 12.78216000
  12.00696000  7.38140000 10.39156000
  13.63654000 10.72014000 10.62374000
  12.45608000 10.18068000 12.80378000
  12.21600000  9.37612000  7.25564000
  10.11016000  7.96110000  7.24154000
   9.30768000 11.44038000  6.18928000
  11.65510000 13.66134000 11.75500000
   9.01050000 11.80886000 13.60728000
   7.94640000 13.40898000 11.95070000
   6.31324000 10.07196000 11.71930000
   6.66456000  9.58930000  8.04504000
   6.52582000 12.06494000  8.58252000
   9.75846000 14.23710000  8.60416000
  12.00302000 13.17648000  8.08074000
 


--------------------------------------------------------------------------------------------------------


 k-point  1 :   0.0000 0.0000 0.0000  plane waves:  145165

 maximum and minimum number of plane-waves per node :     24209    24180

 maximum number of plane-waves:    145165
 maximum index in each direction: 
   IXMAX=   32   IYMAX=   32   IZMAX=   32
   IXMIN=  -32   IYMIN=  -32   IZMIN=  -32


 parallel 3D FFT for wavefunctions:
    minimum data exchange during FFTs selected (reduces bandwidth)
 parallel 3D FFT for charge:
    minimum data exchange during FFTs selected (reduces bandwidth)


 total amount of memory used by VASP MPI-rank0   131440. kBytes
=======================================================================

   base      :      30000. kBytes
   nonl-proj :      17624. kBytes
   fftplans  :      26957. kBytes
   grid      :      48673. kBytes
   one-center:         40. kBytes
   wavefun   :       8146. kBytes
 
     INWAV:  cpu time    0.0000: real time    0.0004
 Broyden mixing: mesh for mixing (old mesh)
   NGX = 65   NGY = 65   NGZ = 65
  (NGX  =196   NGY  =196   NGZ  =196)
  gives a total of 274625 points

 initial charge density was supplied:
 charge density of overlapping atoms calculated
 number of electron      56.0000000 magnetization 
 keeping initial charge density in first step


--------------------------------------------------------------------------------------------------------


 Maximum index for augmentation-charges          565 (set IRDMAX)


--------------------------------------------------------------------------------------------------------


 First call to EWALD:  gamma=   0.089
 Maximum number of real-space cells 3x 3x 3
 Maximum number of reciprocal cells 3x 3x 3

    FEWALD:  cpu time    0.0020: real time    0.0023


--------------------------------------- Iteration      1(   1)  ---------------------------------------


    POTLOK:  cpu time    0.9469: real time    1.0058
    SETDIJ:  cpu time    0.0060: real time    0.0062
     EDDAV:  cpu time    4.3583: real time    4.3567
       DOS:  cpu time    0.0000: real time    0.0003
    --------------------------------------------
      LOOP:  cpu time    5.3112: real time    5.3690

 eigenvalue-minimisations  :   116
 total energy-change (2. order) : 0.2103642E+03  (-0.1045641E+04)
 number of electron      56.0000000 magnetization 
 augmentation part       56.0000000 magnetization 

 Free energy of the ion-electron system (eV)
  ---------------------------------------------------
  alpha Z        PSCENC =         2.79095307
  Ewald energy   TEWEN  =      2629.98113996
  -Hartree energ DENC   =     -3439.39641246
  -exchange      EXHF   =         0.00000000
  -V(xc)+E(xc)   XCENC  =       -47.32466643
  PAW double counting   =       915.53220421     -761.48141222
  entropy T*S    EENTRO =        -0.43418519
  eigenvalues    EBANDS =      -333.12848614
  atomic energy  EATOM  =      1243.82505112
  Solvation  Ediel_sol  =         0.00000000
  ---------------------------------------------------
  free energy    TOTEN  =       210.36418591 eV

  energy without entropy =      210.79837110  energy(sigma->0) =      210.58127851


--------------------------------------------------------------------------------------------------------




--------------------------------------- Iteration      1(   2)  ---------------------------------------


     EDDAV:  cpu time    5.1752: real time    5.1733
       DOS:  cpu time    0.0000: real time    0.0002
    --------------------------------------------
      LOOP:  cpu time    5.1752: real time    5.1735

 eigenvalue-minimisations  :   144
 total energy-change (2. order) :-0.2335660E+03  (-0.2181078E+03)
 number of electron      56.0000000 magnetization 
 augmentation part       56.0000000 magnetization 

 Free energy of the ion-electron system (eV)
  ---------------------------------------------------
  alpha Z        PSCENC =         2.79095307
  Ewald energy   TEWEN  =      2629.98113996
  -Hartree energ DENC   =     -3439.39641246
  -exchange      EXHF   =         0.00000000
  -V(xc)+E(xc)   XCENC  =       -47.32466643
  PAW double counting   =       915.53220421     -761.48141222
  entropy T*S    EENTRO =        -0.00000000
  eigenvalues    EBANDS =      -567.12868442
  atomic energy  EATOM  =      1243.82505112
  Solvation  Ediel_sol  =         0.00000000
  ---------------------------------------------------
  free energy    TOTEN  =       -23.20182718 eV

  energy without entropy =      -23.20182718  energy(sigma->0) =      -23.20182718


--------------------------------------------------------------------------------------------------------




--------------------------------------- Iteration      1(   3)  ---------------------------------------


     EDDAV:  cpu time    4.0064: real time    4.0049
       DOS:  cpu time    0.0000: real time    0.0002
    --------------------------------------------
      LOOP:  cpu time    4.0064: real time    4.0051

 eigenvalue-minimisations  :   104
 total energy-change (2. order) :-0.7553692E+02  (-0.7534938E+02)
 number of electron      56.0000000 magnetization 
 augmentation part       56.0000000 magnetization 

 Free energy of the ion-electron system (eV)
  ---------------------------------------------------
  alpha Z        PSCENC =         2.79095307
  Ewald energy   TEWEN  =      2629.98113996
  -Hartree energ DENC   =     -3439.39641246
  -exchange      EXHF   =         0.00000000
  -V(xc)+E(xc)   XCENC  =       -47.32466643
  PAW double counting   =       915.53220421     -761.48141222
  entropy T*S    EENTRO =        -0.00000000
  eigenvalues    EBANDS =      -642.66560729
  atomic energy  EATOM  =      1243.82505112
  Solvation  Ediel_sol  =         0.00000000
  ---------------------------------------------------
  free energy    TOTEN  =       -98.73875005 eV

  energy without entropy =      -98.73875005  energy(sigma->0) =      -98.73875005


--------------------------------------------------------------------------------------------------------




--------------------------------------- Iteration      1(   4)  ---------------------------------------


     EDDAV:  cpu time    4.2304: real time    4.2295
       DOS:  cpu time    0.0010: real time    0.0002
    --------------------------------------------
      LOOP:  cpu time    4.2314: real time    4.2298

 eigenvalue-minimisations  :   112
 total energy-change (2. order) :-0.4390788E+01  (-0.4374658E+01)
 number of electron      56.0000000 magnetization 
 augmentation part       56.0000000 magnetization 

 Free energy of the ion-electron system (eV)
  ---------------------------------------------------
  alpha Z        PSCENC =         2.79095307
  Ewald energy   TEWEN  =      2629.98113996
  -Hartree energ DENC   =     -3439.39641246
  -exchange      EXHF   =         0.00000000
  -V(xc)+E(xc)   XCENC  =       -47.32466643
  PAW double counting   =       915.53220421     -761.48141222
  entropy T*S    EENTRO =        -0.00000000
  eigenvalues    EBANDS =      -647.05639561
  atomic energy  EATOM  =      1243.82505112
  Solvation  Ediel_sol  =         0.00000000
  ---------------------------------------------------
  free energy    TOTEN  =      -103.12953837 eV

  energy without entropy =     -103.12953837  energy(sigma->0) =     -103.12953837


--------------------------------------------------------------------------------------------------------




--------------------------------------- Iteration      1(   5)  ---------------------------------------


     EDDAV:  cpu time    4.4693: real time    4.4680
       DOS:  cpu time    0.0000: real time    0.0002
    CHARGE:  cpu time    0.2290: real time    0.2290
    MIXING:  cpu time    0.0230: real time    0.0232
    --------------------------------------------
      LOOP:  cpu time    4.7213: real time    4.7205

 eigenvalue-minimisations  :   120
 total energy-change (2. order) :-0.6364966E-01  (-0.6359510E-01)
 number of electron      56.0000027 magnetization 
 augmentation part       -4.7401202 magnetization 

 Broyden mixing:
  rms(total) = 0.14142E+01    rms(broyden)= 0.14141E+01
  rms(prec ) = 0.15099E+01
  weight for this iteration     100.00

 Free energy of the ion-electron system (eV)
  ---------------------------------------------------
  alpha Z        PSCENC =         2.79095307
  Ewald energy   TEWEN  =      2629.98113996
  -Hartree energ DENC   =     -3439.39641246
  -exchange      EXHF   =         0.00000000
  -V(xc)+E(xc)   XCENC  =       -47.32466643
  PAW double counting   =       915.53220421     -761.48141222
  entropy T*S    EENTRO =        -0.00000000
  eigenvalues    EBANDS =      -647.12004527
  atomic energy  EATOM  =      1243.82505112
  Solvation  Ediel_sol  =         0.00000000
  ---------------------------------------------------
  free energy    TOTEN  =      -103.19318803 eV

  energy without entropy =     -103.19318803  energy(sigma->0) =     -103.19318803


--------------------------------------------------------------------------------------------------------




--------------------------------------- Iteration      1(   6)  ---------------------------------------


    POTLOK:  cpu time    0.9399: real time    0.9531
    SETDIJ:  cpu time    0.0060: real time    0.0061
     EDDAV:  cpu time    3.7434: real time    3.7490
       DOS:  cpu time    0.0000: real time    0.0003
    CHARGE:  cpu time    0.2240: real time    0.2258
    MIXING:  cpu time    0.0250: real time    0.0244
    --------------------------------------------
      LOOP:  cpu time    4.9382: real time    4.9587

 eigenvalue-minimisations  :    96
 total energy-change (2. order) : 0.3098771E+01  (-0.1530617E+00)
 number of electron      56.0000025 magnetization 
 augmentation part       -4.7410935 magnetization 

 Broyden mixing:
  rms(total) = 0.81747E+00    rms(broyden)= 0.81746E+00
  rms(prec ) = 0.87623E+00
  weight for this iteration     100.00

 eigenvalues of (default mixing * dielectric matrix)
  average eigenvalue GAMMA=   2.2973
  2.2973

 Free energy of the ion-electron system (eV)
  ---------------------------------------------------
  alpha Z        PSCENC =         2.79095307
  Ewald energy   TEWEN  =      2629.98113996
  -Hartree energ DENC   =     -3470.04556836
  -exchange      EXHF   =         0.00000000
  -V(xc)+E(xc)   XCENC  =       -43.70954946
  PAW double counting   =      1702.96678507    -1549.86479020
  entropy T*S    EENTRO =        -0.00000000
  eigenvalues    EBANDS =      -616.03843804
  atomic energy  EATOM  =      1243.82505112
  Solvation  Ediel_sol  =         0.00000000
  ---------------------------------------------------
  free energy    TOTEN  =      -100.09441684 eV

  energy without entropy =     -100.09441684  energy(sigma->0) =     -100.09441684


--------------------------------------------------------------------------------------------------------




--------------------------------------- Iteration      1(   7)  ---------------------------------------


    POTLOK:  cpu time    0.9409: real time    0.9438
    SETDIJ:  cpu time    0.0070: real time    0.0061
     EDDAV:  cpu time    4.0234: real time    4.0285
       DOS:  cpu time    0.0010: real time    0.0004
    CHARGE:  cpu time    0.2300: real time    0.2308
    MIXING:  cpu time    0.0250: real time    0.0251
    --------------------------------------------
      LOOP:  cpu time    5.2272: real time    5.2347

 eigenvalue-minimisations  :   104
 total energy-change (2. order) : 0.1621256E+01  (-0.3896962E+00)
 number of electron      56.0000024 magnetization 
 augmentation part       -4.7424415 magnetization 

 Broyden mixing:
  rms(total) = 0.12108E+00    rms(broyden)= 0.12093E+00
  rms(prec ) = 0.15228E+00
  weight for this iteration     100.00

 eigenvalues of (default mixing * dielectric matrix)
  average eigenvalue GAMMA=   1.8577
  1.8577  1.8577

 Free energy of the ion-electron system (eV)
  ---------------------------------------------------
  alpha Z        PSCENC =         2.79095307
  Ewald energy   TEWEN  =      2629.98113996
  -Hartree energ DENC   =     -3524.36201104
  -exchange      EXHF   =         0.00000000
  -V(xc)+E(xc)   XCENC  =       -38.01343936
  PAW double counting   =      3373.26045866    -3221.40925742
  entropy T*S    EENTRO =        -0.00000000
  eigenvalues    EBANDS =      -564.54605576
  atomic energy  EATOM  =      1243.82505112
  Solvation  Ediel_sol  =         0.00000000
  ---------------------------------------------------
  free energy    TOTEN  =       -98.47316077 eV

  energy without entropy =      -98.47316077  energy(sigma->0) =      -98.47316077


--------------------------------------------------------------------------------------------------------




--------------------------------------- Iteration      1(   8)  ---------------------------------------


    POTLOK:  cpu time    0.9449: real time    0.9477
    SETDIJ:  cpu time    0.0060: real time    0.0062
     EDDAV:  cpu time    4.2104: real time    4.2156
       DOS:  cpu time    0.0000: real time    0.0002
    CHARGE:  cpu time    0.2320: real time    0.2323
    MIXING:  cpu time    0.0260: real time    0.0261
    --------------------------------------------
      LOOP:  cpu time    5.4192: real time    5.4280

 eigenvalue-minimisations  :   112
 total energy-change (2. order) : 0.5672694E-01  (-0.2543756E-01)
 number of electron      56.0000024 magnetization 
 augmentation part       -4.7327770 magnetization 

 Broyden mixing:
  rms(total) = 0.58298E-01    rms(broyden)= 0.58284E-01
  rms(prec ) = 0.77619E-01
  weight for this iteration     100.00

 eigenvalues of (default mixing * dielectric matrix)
  average eigenvalue GAMMA=   1.9987
  2.6902  1.6530  1.6530

 Free energy of the ion-electron system (eV)
  ---------------------------------------------------
  alpha Z        PSCENC =         2.79095307
  Ewald energy   TEWEN  =      2629.98113996
  -Hartree energ DENC   =     -3532.84341647
  -exchange      EXHF   =         0.00000000
  -V(xc)+E(xc)   XCENC  =       -38.00355856
  PAW double counting   =      3415.46165597    -3263.52490528
  entropy T*S    EENTRO =        -0.00000000
  eigenvalues    EBANDS =      -556.10335363
  atomic energy  EATOM  =      1243.82505112
  Solvation  Ediel_sol  =         0.00000000
  ---------------------------------------------------
  free energy    TOTEN  =       -98.41643383 eV

  energy without entropy =      -98.41643383  energy(sigma->0) =      -98.41643383


--------------------------------------------------------------------------------------------------------




--------------------------------------- Iteration      1(   9)  ---------------------------------------


    POTLOK:  cpu time    0.9519: real time    0.9527
    SETDIJ:  cpu time    0.0060: real time    0.0061
     EDDAV:  cpu time    4.4473: real time    4.4646
       DOS:  cpu time    0.0000: real time    0.0004
    CHARGE:  cpu time    0.2330: real time    0.2319
    MIXING:  cpu time    0.0270: real time    0.0272
    --------------------------------------------
      LOOP:  cpu time    5.6651: real time    5.6830

 eigenvalue-minimisations  :   120
 total energy-change (2. order) : 0.3600284E-01  (-0.6626712E-02)
 number of electron      56.0000024 magnetization 
 augmentation part       -4.7167831 magnetization 

 Broyden mixing:
  rms(total) = 0.32381E-01    rms(broyden)= 0.32380E-01
  rms(prec ) = 0.43862E-01
  weight for this iteration     100.00

 eigenvalues of (default mixing * dielectric matrix)
  average eigenvalue GAMMA=   1.7531
  2.5244  1.8315  1.8315  0.8251

 Free energy of the ion-electron system (eV)
  ---------------------------------------------------
  alpha Z        PSCENC =         2.79095307
  Ewald energy   TEWEN  =      2629.98113996
  -Hartree energ DENC   =     -3544.66484094
  -exchange      EXHF   =         0.00000000
  -V(xc)+E(xc)   XCENC  =       -37.28010875
  PAW double counting   =      3541.48165160    -3389.59744779
  entropy T*S    EENTRO =        -0.00000000
  eigenvalues    EBANDS =      -544.91682927
  atomic energy  EATOM  =      1243.82505112
  Solvation  Ediel_sol  =         0.00000000
  ---------------------------------------------------
  free energy    TOTEN  =       -98.38043099 eV

  energy without entropy =      -98.38043099  energy(sigma->0) =      -98.38043099


--------------------------------------------------------------------------------------------------------




--------------------------------------- Iteration      1(  10)  ---------------------------------------


    POTLOK:  cpu time    0.9559: real time    0.9585
    SETDIJ:  cpu time    0.0060: real time    0.0061
     EDDAV:  cpu time    4.2144: real time    4.2201
       DOS:  cpu time    0.0010: real time    0.0004
    CHARGE:  cpu time    0.2310: real time    0.2315
    MIXING:  cpu time    0.0280: real time    0.0284
    --------------------------------------------
      LOOP:  cpu time    5.4362: real time    5.4450

 eigenvalue-minimisations  :   112
 total energy-change (2. order) :-0.9992709E-03  (-0.2589171E-03)
 number of electron      56.0000024 magnetization 
 augmentation part       -4.7163875 magnetization 

 Broyden mixing:
  rms(total) = 0.13077E-01    rms(broyden)= 0.13077E-01
  rms(prec ) = 0.26581E-01
  weight for this iteration     100.00

 eigenvalues of (default mixing * dielectric matrix)
  average eigenvalue GAMMA=   1.9602
  2.9651  2.5516  1.0138  1.6353  1.6353

 Free energy of the ion-electron system (eV)
  ---------------------------------------------------
  alpha Z        PSCENC =         2.79095307
  Ewald energy   TEWEN  =      2629.98113996
  -Hartree energ DENC   =     -3546.81068280
  -exchange      EXHF   =         0.00000000
  -V(xc)+E(xc)   XCENC  =       -37.30021382
  PAW double counting   =      3461.84023786    -3309.89613264
  entropy T*S    EENTRO =        -0.00000000
  eigenvalues    EBANDS =      -542.81178302
  atomic energy  EATOM  =      1243.82505112
  Solvation  Ediel_sol  =         0.00000000
  ---------------------------------------------------
  free energy    TOTEN  =       -98.38143026 eV

  energy without entropy =      -98.38143026  energy(sigma->0) =      -98.38143026


--------------------------------------------------------------------------------------------------------




--------------------------------------- Iteration      1(  11)  ---------------------------------------


    POTLOK:  cpu time    0.9689: real time    0.9694
    SETDIJ:  cpu time    0.0060: real time    0.0062
     EDDAV:  cpu time    3.9754: real time    3.9806
       DOS:  cpu time    0.0000: real time    0.0002
    CHARGE:  cpu time    0.2300: real time    0.2307
    MIXING:  cpu time    0.0290: real time    0.0298
    --------------------------------------------
      LOOP:  cpu time    5.2092: real time    5.2169

 eigenvalue-minimisations  :   104
 total energy-change (2. order) : 0.1988051E-03  (-0.7031185E-03)
 number of electron      56.0000024 magnetization 
 augmentation part       -4.7148395 magnetization 

 Broyden mixing:
  rms(total) = 0.91932E-02    rms(broyden)= 0.91929E-02
  rms(prec ) = 0.14481E-01
  weight for this iteration     100.00

 eigenvalues of (default mixing * dielectric matrix)
  average eigenvalue GAMMA=   1.8830
  3.3013  2.5919  1.7384  1.7384  1.0298  0.8982

 Free energy of the ion-electron system (eV)
  ---------------------------------------------------
  alpha Z        PSCENC =         2.79095307
  Ewald energy   TEWEN  =      2629.98113996
  -Hartree energ DENC   =     -3553.80214373
  -exchange      EXHF   =         0.00000000
  -V(xc)+E(xc)   XCENC  =       -37.09267173
  PAW double counting   =      3429.40310634    -3277.42223667
  entropy T*S    EENTRO =        -0.00000000
  eigenvalues    EBANDS =      -536.06442982
  atomic energy  EATOM  =      1243.82505112
  Solvation  Ediel_sol  =         0.00000000
  ---------------------------------------------------
  free energy    TOTEN  =       -98.38123146 eV

  energy without entropy =      -98.38123146  energy(sigma->0) =      -98.38123146


--------------------------------------------------------------------------------------------------------




--------------------------------------- Iteration      1(  12)  ---------------------------------------


    POTLOK:  cpu time    0.9699: real time    0.9694
    SETDIJ:  cpu time    0.0060: real time    0.0061
     EDDAV:  cpu time    3.9794: real time    3.9848
       DOS:  cpu time    0.0000: real time    0.0003
    CHARGE:  cpu time    0.2240: real time    0.2245
    MIXING:  cpu time    0.0310: real time    0.0307
    --------------------------------------------
      LOOP:  cpu time    5.2102: real time    5.2158

 eigenvalue-minimisations  :   104
 total energy-change (2. order) :-0.4477328E-02  (-0.1015055E-03)
 number of electron      56.0000024 magnetization 
 augmentation part       -4.7139260 magnetization 

 Broyden mixing:
  rms(total) = 0.57393E-02    rms(broyden)= 0.57393E-02
  rms(prec ) = 0.96767E-02
  weight for this iteration     100.00

 eigenvalues of (default mixing * dielectric matrix)
  average eigenvalue GAMMA=   2.0684
  4.5273  2.4429  2.4429  1.5393  1.5393  0.9937  0.9937

 Free energy of the ion-electron system (eV)
  ---------------------------------------------------
  alpha Z        PSCENC =         2.79095307
  Ewald energy   TEWEN  =      2629.98113996
  -Hartree energ DENC   =     -3555.74206812
  -exchange      EXHF   =         0.00000000
  -V(xc)+E(xc)   XCENC  =       -37.05768672
  PAW double counting   =      3432.31274965    -3280.33700023
  entropy T*S    EENTRO =        -0.00000000
  eigenvalues    EBANDS =      -534.15884751
  atomic energy  EATOM  =      1243.82505112
  Solvation  Ediel_sol  =         0.00000000
  ---------------------------------------------------
  free energy    TOTEN  =       -98.38570879 eV

  energy without entropy =      -98.38570879  energy(sigma->0) =      -98.38570879


--------------------------------------------------------------------------------------------------------




--------------------------------------- Iteration      1(  13)  ---------------------------------------


    POTLOK:  cpu time    0.9669: real time    0.9681
    SETDIJ:  cpu time    0.0070: real time    0.0063
     EDDAV:  cpu time    4.2204: real time    4.2275
       DOS:  cpu time    0.0000: real time    0.0002
    CHARGE:  cpu time    0.2300: real time    0.2297
    MIXING:  cpu time    0.0320: real time    0.0321
    --------------------------------------------
      LOOP:  cpu time    5.4562: real time    5.4640

 eigenvalue-minimisations  :   112
 total energy-change (2. order) :-0.4781178E-02  (-0.1569643E-03)
 number of electron      56.0000024 magnetization 
 augmentation part       -4.7136875 magnetization 

 Broyden mixing:
  rms(total) = 0.33277E-02    rms(broyden)= 0.33275E-02
  rms(prec ) = 0.50946E-02
  weight for this iteration     100.00

 eigenvalues of (default mixing * dielectric matrix)
  average eigenvalue GAMMA=   2.2041
  5.6859  2.9783  2.3514  1.7841  1.7841  1.0685  0.9904  0.9904

 Free energy of the ion-electron system (eV)
  ---------------------------------------------------
  alpha Z        PSCENC =         2.79095307
  Ewald energy   TEWEN  =      2629.98113996
  -Hartree energ DENC   =     -3558.34251418
  -exchange      EXHF   =         0.00000000
  -V(xc)+E(xc)   XCENC  =       -37.00673049
  PAW double counting   =      3439.97805378    -3288.01137571
  entropy T*S    EENTRO =        -0.00000000
  eigenvalues    EBANDS =      -531.60506752
  atomic energy  EATOM  =      1243.82505112
  Solvation  Ediel_sol  =         0.00000000
  ---------------------------------------------------
  free energy    TOTEN  =       -98.39048997 eV

  energy without entropy =      -98.39048997  energy(sigma->0) =      -98.39048997


--------------------------------------------------------------------------------------------------------




--------------------------------------- Iteration      1(  14)  ---------------------------------------


    POTLOK:  cpu time    0.9629: real time    0.9641
    SETDIJ:  cpu time    0.0060: real time    0.0062
     EDDAV:  cpu time    4.2114: real time    4.2177
       DOS:  cpu time    0.0000: real time    0.0002
    CHARGE:  cpu time    0.2270: real time    0.2288
    MIXING:  cpu time    0.0340: real time    0.0339
    --------------------------------------------
      LOOP:  cpu time    5.4412: real time    5.4509

 eigenvalue-minimisations  :   112
 total energy-change (2. order) :-0.3741991E-02  (-0.3030267E-04)
 number of electron      56.0000024 magnetization 
 augmentation part       -4.7131572 magnetization 

 Broyden mixing:
  rms(total) = 0.15867E-02    rms(broyden)= 0.15867E-02
  rms(prec ) = 0.27235E-02
  weight for this iteration     100.00

 eigenvalues of (default mixing * dielectric matrix)
  average eigenvalue GAMMA=   2.3015
  6.5758  3.0216  2.8019  2.0121  1.6126  1.6126  1.1775  0.9495  0.9495

 Free energy of the ion-electron system (eV)
  ---------------------------------------------------
  alpha Z        PSCENC =         2.79095307
  Ewald energy   TEWEN  =      2629.98113996
  -Hartree energ DENC   =     -3559.09803342
  -exchange      EXHF   =         0.00000000
  -V(xc)+E(xc)   XCENC  =       -37.01936469
  PAW double counting   =      3439.35220399    -3287.38497313
  entropy T*S    EENTRO =        -0.00000000
  eigenvalues    EBANDS =      -530.84120885
  atomic energy  EATOM  =      1243.82505112
  Solvation  Ediel_sol  =         0.00000000
  ---------------------------------------------------
  free energy    TOTEN  =       -98.39423196 eV

  energy without entropy =      -98.39423196  energy(sigma->0) =      -98.39423196


--------------------------------------------------------------------------------------------------------




--------------------------------------- Iteration      1(  15)  ---------------------------------------


    POTLOK:  cpu time    0.9589: real time    0.9626
    SETDIJ:  cpu time    0.0070: real time    0.0062
     EDDAV:  cpu time    3.9784: real time    3.9843
       DOS:  cpu time    0.0000: real time    0.0002
    CHARGE:  cpu time    0.2300: real time    0.2301
    MIXING:  cpu time    0.0370: real time    0.0365
    --------------------------------------------
      LOOP:  cpu time    5.2112: real time    5.2200

 eigenvalue-minimisations  :   104
 total energy-change (2. order) :-0.4404978E-02  (-0.5368845E-04)
 number of electron      56.0000024 magnetization 
 augmentation part       -4.7128801 magnetization 

 Broyden mixing:
  rms(total) = 0.13850E-02    rms(broyden)= 0.13850E-02
  rms(prec ) = 0.18205E-02
  weight for this iteration     100.00

 eigenvalues of (default mixing * dielectric matrix)
  average eigenvalue GAMMA=   2.3144
  6.8032  3.8147  2.6197  1.9552  1.9148  1.9148  1.1974  0.9432  0.9907  0.9907

 Free energy of the ion-electron system (eV)
  ---------------------------------------------------
  alpha Z        PSCENC =         2.79095307
  Ewald energy   TEWEN  =      2629.98113996
  -Hartree energ DENC   =     -3559.33075632
  -exchange      EXHF   =         0.00000000
  -V(xc)+E(xc)   XCENC  =       -37.02788347
  PAW double counting   =      3441.35076505    -3289.38351625
  entropy T*S    EENTRO =        -0.00000000
  eigenvalues    EBANDS =      -530.60439009
  atomic energy  EATOM  =      1243.82505112
  Solvation  Ediel_sol  =         0.00000000
  ---------------------------------------------------
  free energy    TOTEN  =       -98.39863693 eV

  energy without entropy =      -98.39863693  energy(sigma->0) =      -98.39863693


--------------------------------------------------------------------------------------------------------




--------------------------------------- Iteration      1(  16)  ---------------------------------------


    POTLOK:  cpu time    0.9579: real time    0.9588
    SETDIJ:  cpu time    0.0060: real time    0.0061
     EDDAV:  cpu time    4.2044: real time    4.2101
       DOS:  cpu time    0.0000: real time    0.0003
    CHARGE:  cpu time    0.2300: real time    0.2300
    MIXING:  cpu time    0.0390: real time    0.0391
    --------------------------------------------
      LOOP:  cpu time    5.4372: real time    5.4445

 eigenvalue-minimisations  :   112
 total energy-change (2. order) :-0.1130829E-02  (-0.6448894E-05)
 number of electron      56.0000024 magnetization 
 augmentation part       -4.7131060 magnetization 

 Broyden mixing:
  rms(total) = 0.57421E-03    rms(broyden)= 0.57420E-03
  rms(prec ) = 0.90654E-03
  weight for this iteration     100.00

 eigenvalues of (default mixing * dielectric matrix)
  average eigenvalue GAMMA=   2.4740
  7.5372  4.9222  2.6998  2.6998  1.8514  1.8514  1.3658  1.3658  0.9768  0.9768
  0.9673

 Free energy of the ion-electron system (eV)
  ---------------------------------------------------
  alpha Z        PSCENC =         2.79095307
  Ewald energy   TEWEN  =      2629.98113996
  -Hartree energ DENC   =     -3559.39987430
  -exchange      EXHF   =         0.00000000
  -V(xc)+E(xc)   XCENC  =       -37.02766588
  PAW double counting   =      3440.48805807    -3288.51993536
  entropy T*S    EENTRO =        -0.00000000
  eigenvalues    EBANDS =      -530.53749444
  atomic energy  EATOM  =      1243.82505112
  Solvation  Ediel_sol  =         0.00000000
  ---------------------------------------------------
  free energy    TOTEN  =       -98.39976776 eV

  energy without entropy =      -98.39976776  energy(sigma->0) =      -98.39976776


--------------------------------------------------------------------------------------------------------




--------------------------------------- Iteration      1(  17)  ---------------------------------------


    POTLOK:  cpu time    0.9549: real time    0.9568
    SETDIJ:  cpu time    0.0060: real time    0.0061
     EDDAV:  cpu time    4.1984: real time    4.2066
       DOS:  cpu time    0.0000: real time    0.0005
    CHARGE:  cpu time    0.2300: real time    0.2282
    MIXING:  cpu time    0.0420: real time    0.0425
    --------------------------------------------
      LOOP:  cpu time    5.4312: real time    5.4408

 eigenvalue-minimisations  :   112
 total energy-change (2. order) :-0.1001039E-02  (-0.9090482E-05)
 number of electron      56.0000024 magnetization 
 augmentation part       -4.7133293 magnetization 

 Broyden mixing:
  rms(total) = 0.31857E-03    rms(broyden)= 0.31853E-03
  rms(prec ) = 0.44526E-03
  weight for this iteration     100.00

 eigenvalues of (default mixing * dielectric matrix)
  average eigenvalue GAMMA=   2.4449
  7.6536  5.2601  2.6897  2.6897  1.9825  1.9825  1.4815  1.4815  1.1834  0.9700
  0.9700  0.9947

 Free energy of the ion-electron system (eV)
  ---------------------------------------------------
  alpha Z        PSCENC =         2.79095307
  Ewald energy   TEWEN  =      2629.98113996
  -Hartree energ DENC   =     -3559.41495484
  -exchange      EXHF   =         0.00000000
  -V(xc)+E(xc)   XCENC  =       -37.02912223
  PAW double counting   =      3439.34434644    -3287.37481762
  entropy T*S    EENTRO =        -0.00000000
  eigenvalues    EBANDS =      -530.52336470
  atomic energy  EATOM  =      1243.82505112
  Solvation  Ediel_sol  =         0.00000000
  ---------------------------------------------------
  free energy    TOTEN  =       -98.40076880 eV

  energy without entropy =      -98.40076880  energy(sigma->0) =      -98.40076880


--------------------------------------------------------------------------------------------------------




--------------------------------------- Iteration      1(  18)  ---------------------------------------


    POTLOK:  cpu time    1.2658: real time    1.2677
    SETDIJ:  cpu time    0.0060: real time    0.0061
     EDDAV:  cpu time    4.0094: real time    4.0154
       DOS:  cpu time    0.0010: real time    0.0003
    CHARGE:  cpu time    0.2300: real time    0.2299
    MIXING:  cpu time    0.0470: real time    0.0471
    --------------------------------------------
      LOOP:  cpu time    5.5592: real time    5.5666

 eigenvalue-minimisations  :   104
 total energy-change (2. order) :-0.2455241E-03  (-0.8622765E-06)
 number of electron      56.0000024 magnetization 
 augmentation part       -4.7132978 magnetization 

 Broyden mixing:
  rms(total) = 0.19278E-03    rms(broyden)= 0.19275E-03
  rms(prec ) = 0.25699E-03
  weight for this iteration     100.00

 eigenvalues of (default mixing * dielectric matrix)
  average eigenvalue GAMMA=   2.5199
  8.1804  5.8950  3.2761  2.5647  2.5647  1.8295  1.8295  1.3717  1.3717  0.9986
  0.9986  0.9390  0.9390

 Free energy of the ion-electron system (eV)
  ---------------------------------------------------
  alpha Z        PSCENC =         2.79095307
  Ewald energy   TEWEN  =      2629.98113996
  -Hartree energ DENC   =     -3559.44458665
  -exchange      EXHF   =         0.00000000
  -V(xc)+E(xc)   XCENC  =       -37.02908101
  PAW double counting   =      3439.69648933    -3287.72768953
  entropy T*S    EENTRO =        -0.00000000
  eigenvalues    EBANDS =      -530.49329062
  atomic energy  EATOM  =      1243.82505112
  Solvation  Ediel_sol  =         0.00000000
  ---------------------------------------------------
  free energy    TOTEN  =       -98.40101433 eV

  energy without entropy =      -98.40101433  energy(sigma->0) =      -98.40101433


--------------------------------------------------------------------------------------------------------




--------------------------------------- Iteration      1(  19)  ---------------------------------------


    POTLOK:  cpu time    0.9699: real time    0.9716
    SETDIJ:  cpu time    0.0070: real time    0.0063
     EDDAV:  cpu time    3.9904: real time    3.9978
       DOS:  cpu time    0.0010: real time    0.0004
    CHARGE:  cpu time    0.2290: real time    0.2308
    MIXING:  cpu time    0.0520: real time    0.0527
    --------------------------------------------
      LOOP:  cpu time    5.2492: real time    5.2595

 eigenvalue-minimisations  :   104
 total energy-change (2. order) :-0.1342143E-03  (-0.4787077E-06)
 number of electron      56.0000024 magnetization 
 augmentation part       -4.7133097 magnetization 

 Broyden mixing:
  rms(total) = 0.15453E-03    rms(broyden)= 0.15452E-03
  rms(prec ) = 0.18513E-03
  weight for this iteration     100.00

 eigenvalues of (default mixing * dielectric matrix)
  average eigenvalue GAMMA=   2.5299
  8.4464  6.1890  3.5726  2.6399  2.2342  2.2342  1.7375  1.7375  1.3682  1.3682
  1.0000  1.0000  0.9455  0.9455

 Free energy of the ion-electron system (eV)
  ---------------------------------------------------
  alpha Z        PSCENC =         2.79095307
  Ewald energy   TEWEN  =      2629.98113996
  -Hartree energ DENC   =     -3559.46392889
  -exchange      EXHF   =         0.00000000
  -V(xc)+E(xc)   XCENC  =       -37.02799082
  PAW double counting   =      3439.54699310    -3287.57846351
  entropy T*S    EENTRO =        -0.00000000
  eigenvalues    EBANDS =      -530.47490256
  atomic energy  EATOM  =      1243.82505112
  Solvation  Ediel_sol  =         0.00000000
  ---------------------------------------------------
  free energy    TOTEN  =       -98.40114854 eV

  energy without entropy =      -98.40114854  energy(sigma->0) =      -98.40114854


--------------------------------------------------------------------------------------------------------




--------------------------------------- Iteration      1(  20)  ---------------------------------------


    POTLOK:  cpu time    0.9619: real time    0.9644
    SETDIJ:  cpu time    0.0060: real time    0.0062
     EDDAV:  cpu time    3.5215: real time    3.5244
       DOS:  cpu time    0.0000: real time    0.0002
    CHARGE:  cpu time    0.2300: real time    0.2298
    MIXING:  cpu time    0.0600: real time    0.0597
    --------------------------------------------
      LOOP:  cpu time    4.7793: real time    4.7847

 eigenvalue-minimisations  :    88
 total energy-change (2. order) :-0.4099263E-04  (-0.7717249E-07)
 number of electron      56.0000024 magnetization 
 augmentation part       -4.7132898 magnetization 

 Broyden mixing:
  rms(total) = 0.60114E-04    rms(broyden)= 0.60113E-04
  rms(prec ) = 0.80389E-04
  weight for this iteration     100.00

 eigenvalues of (default mixing * dielectric matrix)
  average eigenvalue GAMMA=   2.5630
  8.6685  6.4812  4.2047  3.0000  2.4959  2.0195  1.8821  1.8821  1.3830  1.3830
  1.1513  0.9970  0.9970  0.9879  0.9122

 Free energy of the ion-electron system (eV)
  ---------------------------------------------------
  alpha Z        PSCENC =         2.79095307
  Ewald energy   TEWEN  =      2629.98113996
  -Hartree energ DENC   =     -3559.46559196
  -exchange      EXHF   =         0.00000000
  -V(xc)+E(xc)   XCENC  =       -37.02899763
  PAW double counting   =      3439.39488745    -3287.42621248
  entropy T*S    EENTRO =        -0.00000000
  eigenvalues    EBANDS =      -530.47241905
  atomic energy  EATOM  =      1243.82505112
  Solvation  Ediel_sol  =         0.00000000
  ---------------------------------------------------
  free energy    TOTEN  =       -98.40118953 eV

  energy without entropy =      -98.40118953  energy(sigma->0) =      -98.40118953


--------------------------------------------------------------------------------------------------------




--------------------------------------- Iteration      1(  21)  ---------------------------------------


    POTLOK:  cpu time    0.9549: real time    0.9558
    SETDIJ:  cpu time    0.0060: real time    0.0061
     EDDAV:  cpu time    3.5225: real time    3.5296
       DOS:  cpu time    0.0010: real time    0.0004
    CHARGE:  cpu time    0.2410: real time    0.2415
    MIXING:  cpu time    0.0660: real time    0.0659
    --------------------------------------------
      LOOP:  cpu time    4.7913: real time    4.7993

 eigenvalue-minimisations  :    88
 total energy-change (2. order) :-0.1887962E-04  (-0.5941110E-07)
 number of electron      56.0000024 magnetization 
 augmentation part       -4.7132864 magnetization 

 Broyden mixing:
  rms(total) = 0.41667E-04    rms(broyden)= 0.41665E-04
  rms(prec ) = 0.53204E-04
  weight for this iteration     100.00

 eigenvalues of (default mixing * dielectric matrix)
  average eigenvalue GAMMA=   2.5333
  8.6132  6.7238  4.3210  3.0415  2.5871  2.1506  1.9275  1.9275  1.5636  1.5636
  1.1800  1.0330  1.0330  0.9494  0.9494  0.9687

 Free energy of the ion-electron system (eV)
  ---------------------------------------------------
  alpha Z        PSCENC =         2.79095307
  Ewald energy   TEWEN  =      2629.98113996
  -Hartree energ DENC   =     -3559.46783002
  -exchange      EXHF   =         0.00000000
  -V(xc)+E(xc)   XCENC  =       -37.02904774
  PAW double counting   =      3439.46344754    -3287.49479780
  entropy T*S    EENTRO =        -0.00000000
  eigenvalues    EBANDS =      -530.47012454
  atomic energy  EATOM  =      1243.82505112
  Solvation  Ediel_sol  =         0.00000000
  ---------------------------------------------------
  free energy    TOTEN  =       -98.40120841 eV

  energy without entropy =      -98.40120841  energy(sigma->0) =      -98.40120841


--------------------------------------------------------------------------------------------------------




--------------------------------------- Iteration      1(  22)  ---------------------------------------


    POTLOK:  cpu time    0.9549: real time    0.9550
    SETDIJ:  cpu time    0.0060: real time    0.0061
     EDDAV:  cpu time    3.5185: real time    3.5231
       DOS:  cpu time    0.0010: real time    0.0004
    CHARGE:  cpu time    0.2290: real time    0.2291
    MIXING:  cpu time    0.0730: real time    0.0732
    --------------------------------------------
      LOOP:  cpu time    4.7823: real time    4.7870

 eigenvalue-minimisations  :    88
 total energy-change (2. order) :-0.6207568E-05  (-0.1430079E-07)
 number of electron      56.0000024 magnetization 
 augmentation part       -4.7133012 magnetization 

 Broyden mixing:
  rms(total) = 0.16860E-04    rms(broyden)= 0.16860E-04
  rms(prec ) = 0.23785E-04
  weight for this iteration     100.00

 eigenvalues of (default mixing * dielectric matrix)
  average eigenvalue GAMMA=   2.5584
  8.8288  6.8000  4.8438  3.2895  2.5971  2.5971  1.9356  1.9356  1.6538  1.6538
  1.2137  1.2137  1.0721  0.9458  0.9458  0.9837  0.9837

 Free energy of the ion-electron system (eV)
  ---------------------------------------------------
  alpha Z        PSCENC =         2.79095307
  Ewald energy   TEWEN  =      2629.98113996
  -Hartree energ DENC   =     -3559.46696430
  -exchange      EXHF   =         0.00000000
  -V(xc)+E(xc)   XCENC  =       -37.02887379
  PAW double counting   =      3439.47580117    -3287.50709253
  entropy T*S    EENTRO =        -0.00000000
  eigenvalues    EBANDS =      -530.47122931
  atomic energy  EATOM  =      1243.82505112
  Solvation  Ediel_sol  =         0.00000000
  ---------------------------------------------------
  free energy    TOTEN  =       -98.40121462 eV

  energy without entropy =      -98.40121462  energy(sigma->0) =      -98.40121462


--------------------------------------------------------------------------------------------------------




--------------------------------------- Iteration      1(  23)  ---------------------------------------


    POTLOK:  cpu time    0.9569: real time    0.9599
    SETDIJ:  cpu time    0.0060: real time    0.0062
     EDDAV:  cpu time    3.5255: real time    3.5276
       DOS:  cpu time    0.0000: real time    0.0004
    CHARGE:  cpu time    0.2270: real time    0.2288
    MIXING:  cpu time    0.0810: real time    0.0798
    --------------------------------------------
      LOOP:  cpu time    4.7963: real time    4.8027

 eigenvalue-minimisations  :    88
 total energy-change (2. order) :-0.3272302E-05  (-0.7241857E-08)
 number of electron      56.0000024 magnetization 
 augmentation part       -4.7133067 magnetization 

 Broyden mixing:
  rms(total) = 0.11696E-04    rms(broyden)= 0.11695E-04
  rms(prec ) = 0.15888E-04
  weight for this iteration     100.00

 eigenvalues of (default mixing * dielectric matrix)
  average eigenvalue GAMMA=   2.5526
  8.8668  6.9438  5.0458  3.4017  2.7323  2.7323  1.9678  1.9678  1.9124  1.5545
  1.5545  1.1359  1.1359  0.9272  0.9847  0.9847  1.0496  1.0496

 Free energy of the ion-electron system (eV)
  ---------------------------------------------------
  alpha Z        PSCENC =         2.79095307
  Ewald energy   TEWEN  =      2629.98113996
  -Hartree energ DENC   =     -3559.46761215
  -exchange      EXHF   =         0.00000000
  -V(xc)+E(xc)   XCENC  =       -37.02892206
  PAW double counting   =      3439.45016686    -3287.48145332
  entropy T*S    EENTRO =        -0.00000000
  eigenvalues    EBANDS =      -530.47054136
  atomic energy  EATOM  =      1243.82505112
  Solvation  Ediel_sol  =         0.00000000
  ---------------------------------------------------
  free energy    TOTEN  =       -98.40121789 eV

  energy without entropy =      -98.40121789  energy(sigma->0) =      -98.40121789


--------------------------------------------------------------------------------------------------------




--------------------------------------- Iteration      1(  24)  ---------------------------------------


    POTLOK:  cpu time    0.9629: real time    0.9655
    SETDIJ:  cpu time    0.0060: real time    0.0062
     EDDAV:  cpu time    3.5265: real time    3.5307
       DOS:  cpu time    0.0010: real time    0.0005
    CHARGE:  cpu time    0.2380: real time    0.2382
    MIXING:  cpu time    0.0840: real time    0.0858
    --------------------------------------------
      LOOP:  cpu time    4.8183: real time    4.8268

 eigenvalue-minimisations  :    88
 total energy-change (2. order) :-0.1592159E-05  (-0.2372275E-08)
 number of electron      56.0000024 magnetization 
 augmentation part       -4.7133044 magnetization 

 Broyden mixing:
  rms(total) = 0.41924E-05    rms(broyden)= 0.41920E-05
  rms(prec ) = 0.62377E-05
  weight for this iteration     100.00

 eigenvalues of (default mixing * dielectric matrix)
  average eigenvalue GAMMA=   2.5822
  8.8664  7.1582  5.5481  3.9390  2.9937  2.5112  2.1189  2.1189  1.9382  1.9382
  1.4176  1.4176  1.1206  1.1206  0.9980  0.9980  0.9684  0.9684  0.9223

 Free energy of the ion-electron system (eV)
  ---------------------------------------------------
  alpha Z        PSCENC =         2.79095307
  Ewald energy   TEWEN  =      2629.98113996
  -Hartree energ DENC   =     -3559.46843067
  -exchange      EXHF   =         0.00000000
  -V(xc)+E(xc)   XCENC  =       -37.02893377
  PAW double counting   =      3439.43589624    -3287.46720128
  entropy T*S    EENTRO =        -0.00000000
  eigenvalues    EBANDS =      -530.46969415
  atomic energy  EATOM  =      1243.82505112
  Solvation  Ediel_sol  =         0.00000000
  ---------------------------------------------------
  free energy    TOTEN  =       -98.40121949 eV

  energy without entropy =      -98.40121949  energy(sigma->0) =      -98.40121949


--------------------------------------------------------------------------------------------------------




--------------------------------------- Iteration      1(  25)  ---------------------------------------


    POTLOK:  cpu time    0.9709: real time    0.9730
    SETDIJ:  cpu time    0.0060: real time    0.0061
     EDDAV:  cpu time    3.5585: real time    3.5622
       DOS:  cpu time    0.0000: real time    0.0002
    --------------------------------------------
      LOOP:  cpu time    4.5353: real time    4.5415

 eigenvalue-minimisations  :    88
 total energy-change (2. order) :-0.4949607E-06  (-0.6519265E-09)
 number of electron      56.0000024 magnetization 
 augmentation part       -4.7133044 magnetization 

 Free energy of the ion-electron system (eV)
  ---------------------------------------------------
  alpha Z        PSCENC =         2.79095307
  Ewald energy   TEWEN  =      2629.98113996
  -Hartree energ DENC   =     -3559.46883004
  -exchange      EXHF   =         0.00000000
  -V(xc)+E(xc)   XCENC  =       -37.02893481
  PAW double counting   =      3439.43620326    -3287.46751364
  entropy T*S    EENTRO =        -0.00000000
  eigenvalues    EBANDS =      -530.46928889
  atomic energy  EATOM  =      1243.82505112
  Solvation  Ediel_sol  =         0.00000000
  ---------------------------------------------------
  free energy    TOTEN  =       -98.40121998 eV

  energy without entropy =      -98.40121998  energy(sigma->0) =      -98.40121998


--------------------------------------------------------------------------------------------------------




 average (electrostatic) potential at core
  the test charge radii are     0.9892  1.1631  0.5201
  (the norm of the test charge is              1.0000)
       1 -93.4727       2 -93.4727       3 -93.4727       4 -40.3796       5 -40.3796
       6 -40.4204       7 -40.4651       8 -40.4204       9 -40.3796      10 -40.4204
      11 -41.0633      12 -41.0623      13 -40.6741      14 -41.0538      15 -41.0534
      16 -41.0628      17 -41.0643      18 -40.6742      19 -41.0416      20 -41.0534
      21 -41.0536      22 -40.6743      23 -41.0635      24 -41.0629      25 -41.0534
      26 -41.0535
 
 
 
 E-fermi :  -5.3570     XC(G=0):  -0.6114     alpha+bet : -0.3265


 k-point     1 :       0.0000    0.0000    0.0000
  band No.  band energies     occupation 
      1     -15.4079      2.00000
      2     -14.4886      2.00000
      3     -14.2540      2.00000
      4     -14.2540      2.00000
      5     -13.4040      2.00000
      6     -13.4040      2.00000
      7     -11.8534      2.00000
      8     -11.4735      2.00000
      9     -11.4734      2.00000
     10     -10.5222      2.00000
     11      -8.9630      2.00000
     12      -8.6361      2.00000
     13      -8.6357      2.00000
     14      -8.6357      2.00000
     15      -8.1646      2.00000
     16      -8.1582      2.00000
     17      -8.1582      2.00000
     18      -7.8525      2.00000
     19      -7.8453      2.00000
     20      -7.8453      2.00000
     21      -6.7530      2.00000
     22      -6.7530      2.00000
     23      -6.4428      2.00000
     24      -6.4296      2.00000
     25      -6.4295      2.00000
     26      -6.3355      2.00000
     27      -6.3354      2.00000
     28      -6.3263      2.00000
     29      -1.6731      0.00000
     30      -1.1731      0.00000
     31      -1.1464      0.00000
     32      -1.1463      0.00000
     33      -1.1409      0.00000
     34      -1.0665      0.00000
     35      -1.0664      0.00000
     36      -0.9543      0.00000
     37      -0.9541      0.00000
     38      -0.7046      0.00000
     39      -0.2725      0.00000
     40      -0.2721      0.00000
     41      -0.1958      0.00000
     42      -0.0750      0.00000


--------------------------------------------------------------------------------------------------------


 soft charge-density along one line, spin component           1
         0         1         2         3         4         5         6         7         8         9
 total charge-density along one line
 
 pseudopotential strength for first ion, spin component:           1
 19.623  27.384  -0.001   0.004   0.000  -0.002   0.008   0.001
 27.384  38.221  -0.001   0.006   0.001  -0.003   0.011   0.001
 -0.001  -0.001   4.360   0.000   0.000   8.134   0.000   0.000
  0.004   0.006   0.000   4.360  -0.000   0.000   8.133  -0.000
  0.000   0.001   0.000  -0.000   4.361   0.000  -0.000   8.134
 -0.002  -0.003   8.134   0.000   0.000  15.184   0.000   0.000
  0.008   0.011   0.000   8.133  -0.000   0.000  15.182  -0.000
  0.001   0.001   0.000  -0.000   8.134   0.000  -0.000  15.184
 total augmentation occupancy for first ion, spin component:           1
  5.503  -2.011   0.075  -0.354  -0.047  -0.023   0.106   0.014
 -2.011   0.805  -0.044   0.212   0.029   0.010  -0.046  -0.006
  0.075  -0.044   2.791  -0.103  -0.013  -0.600   0.036   0.005
 -0.354   0.212  -0.103   3.265   0.068   0.036  -0.766  -0.024
 -0.047   0.029  -0.013   0.068   2.777   0.005  -0.024  -0.595
 -0.023   0.010  -0.600   0.036   0.005   0.136  -0.010  -0.001
  0.106  -0.046   0.036  -0.766  -0.024  -0.010   0.183   0.007
  0.014  -0.006   0.005  -0.024  -0.595  -0.001   0.007   0.135


------------------------ aborting loop because EDIFF is reached ----------------------------------------


    CHARGE:  cpu time    0.2310: real time    0.2311
    FORLOC:  cpu time    0.1270: real time    0.1268
    FORNL :  cpu time    0.8489: real time    0.8494
    STRESS:  cpu time    2.8706: real time    2.8742
    FORCOR:  cpu time    1.0008: real time    1.0006
    FORHAR:  cpu time    0.3519: real time    0.3530
    MIXING:  cpu time    0.0930: real time    0.0932
    OFIELD:  cpu time    0.0000: real time    0.0000

  FORCE on cell =-STRESS in cart. coord.  units (eV):
  Direction    XX          YY          ZZ          XY          YZ          ZX
  --------------------------------------------------------------------------------------
  Alpha Z     2.79095     2.79095     2.79095
  Ewald     876.64706   876.62235   876.71007    -0.21850     0.02563    -0.50464
  Hartree  1186.55547  1186.27256  1186.64036    -0.42084    -0.17095    -0.61421
  E(xc)    -181.73256  -181.77184  -181.73048    -0.03782    -0.03589    -0.02186
  Local   -2536.32944 -2536.05705 -2536.47472     0.60444     0.11220     1.09930
  n-local   222.71330   222.95168   222.70113     0.22878     0.21690     0.13223
  augment    -7.10649    -7.11266    -7.10481    -0.00534    -0.00533    -0.00297
  Kinetic   437.60930   437.49067   437.61503    -0.11328    -0.10718    -0.06561
  Fock        0.00000     0.00000     0.00000     0.00000     0.00000     0.00000
  -------------------------------------------------------------------------------------
  Total       1.14759     1.18666     1.14753     0.03744     0.03539     0.02225
  in kB       0.22983     0.23766     0.22982     0.00750     0.00709     0.00446
  external pressure =        0.23 kB  Pullay stress =        0.00 kB


 VOLUME and BASIS-vectors are now :
 -----------------------------------------------------------------------------
  energy-cutoff  :      400.00
[...]
  ---------------------------------------------------
  free energy    TOTEN  =       -98.54074300 eV

  energy without entropy =      -98.54074300  energy(sigma->0) =      -98.54074300


--------------------------------------------------------------------------------------------------------




--------------------------------------- Iteration     15(   2)  ---------------------------------------


    POTLOK:  cpu time    0.9639: real time    0.9645
    SETDIJ:  cpu time    0.0070: real time    0.0063
     EDDAV:  cpu time    4.4723: real time    4.4713
       DOS:  cpu time    0.0000: real time    0.0004
    CHARGE:  cpu time    0.2300: real time    0.2300
    MIXING:  cpu time    0.0250: real time    0.0242
    --------------------------------------------
      LOOP:  cpu time    5.6981: real time    5.6967

 eigenvalue-minimisations  :   120
 total energy-change (2. order) :-0.1129791E-04  (-0.1930455E-04)
 number of electron      55.9999999 magnetization 
 augmentation part       -4.7019497 magnetization 

 Broyden mixing:
  rms(total) = 0.15509E-02    rms(broyden)= 0.15506E-02
  rms(prec ) = 0.16631E-02
  weight for this iteration     100.00

 eigenvalues of (default mixing * dielectric matrix)
  average eigenvalue GAMMA=   1.2951
  1.2951

 Free energy of the ion-electron system (eV)
  ---------------------------------------------------
  alpha Z        PSCENC =         2.79095307
  Ewald energy   TEWEN  =      2581.30545880
  -Hartree energ DENC   =     -3511.65750137
  -exchange      EXHF   =         0.00000000
  -V(xc)+E(xc)   XCENC  =       -37.26998370
  PAW double counting   =      3380.22425036    -3228.17854190
  entropy T*S    EENTRO =        -0.00000000
  eigenvalues    EBANDS =      -529.58044068
  atomic energy  EATOM  =      1243.82505112
  Solvation  Ediel_sol  =         0.00000000
  ---------------------------------------------------
  free energy    TOTEN  =       -98.54075430 eV

  energy without entropy =      -98.54075430  energy(sigma->0) =      -98.54075430


--------------------------------------------------------------------------------------------------------




--------------------------------------- Iteration     15(   3)  ---------------------------------------


    POTLOK:  cpu time    0.9639: real time    0.9643
    SETDIJ:  cpu time    0.0060: real time    0.0062
     EDDAV:  cpu time    4.4693: real time    4.5340
       DOS:  cpu time    0.0000: real time    0.0003
    CHARGE:  cpu time    0.2320: real time    0.2320
    MIXING:  cpu time    0.0250: real time    0.0259
    --------------------------------------------
      LOOP:  cpu time    5.6961: real time    5.7627

 eigenvalue-minimisations  :   120
 total energy-change (2. order) : 0.1155649E-05  (-0.9078951E-06)
 number of electron      55.9999999 magnetization 
 augmentation part       -4.7017846 magnetization 

 Broyden mixing:
  rms(total) = 0.70541E-03    rms(broyden)= 0.70539E-03
  rms(prec ) = 0.75125E-03
  weight for this iteration     100.00

 eigenvalues of (default mixing * dielectric matrix)
  average eigenvalue GAMMA=   1.6119
  1.0275  2.1964

 Free energy of the ion-electron system (eV)
  ---------------------------------------------------
  alpha Z        PSCENC =         2.79095307
  Ewald energy   TEWEN  =      2581.30545880
  -Hartree energ DENC   =     -3511.67685325
  -exchange      EXHF   =         0.00000000
  -V(xc)+E(xc)   XCENC  =       -37.26985471
  PAW double counting   =      3381.34562155    -3229.30104215
  entropy T*S    EENTRO =        -0.00000000
  eigenvalues    EBANDS =      -529.56008758
  atomic energy  EATOM  =      1243.82505112
  Solvation  Ediel_sol  =         0.00000000
  ---------------------------------------------------
  free energy    TOTEN  =       -98.54075315 eV

  energy without entropy =      -98.54075315  energy(sigma->0) =      -98.54075315


--------------------------------------------------------------------------------------------------------




--------------------------------------- Iteration     15(   4)  ---------------------------------------


    POTLOK:  cpu time    0.9649: real time    0.9646
    SETDIJ:  cpu time    0.0060: real time    0.0062
     EDDAV:  cpu time    3.5145: real time    3.5190
       DOS:  cpu time    0.0000: real time    0.0002
    --------------------------------------------
      LOOP:  cpu time    4.4853: real time    4.4899

 eigenvalue-minimisations  :    88
 total energy-change (2. order) :-0.5975892E-06  (-0.2331873E-06)
 number of electron      55.9999999 magnetization 
 augmentation part       -4.7017846 magnetization 

 Free energy of the ion-electron system (eV)
  ---------------------------------------------------
  alpha Z        PSCENC =         2.79095307
  Ewald energy   TEWEN  =      2581.30545880
  -Hartree energ DENC   =     -3511.68642505
  -exchange      EXHF   =         0.00000000
  -V(xc)+E(xc)   XCENC  =       -37.26956493
  PAW double counting   =      3382.14861620    -3230.10463679
  entropy T*S    EENTRO =        -0.00000000
  eigenvalues    EBANDS =      -529.55020615
  atomic energy  EATOM  =      1243.82505112
  Solvation  Ediel_sol  =         0.00000000
  ---------------------------------------------------
  free energy    TOTEN  =       -98.54075374 eV

  energy without entropy =      -98.54075374  energy(sigma->0) =      -98.54075374


--------------------------------------------------------------------------------------------------------




 average (electrostatic) potential at core
  the test charge radii are     0.9892  1.1631  0.5201
  (the norm of the test charge is              1.0000)
       1 -93.5097       2 -93.5096       3 -93.5099       4 -40.3992       5 -40.3993
       6 -40.4434       7 -40.5230       8 -40.4435       9 -40.3991      10 -40.4435
      11 -40.9928      12 -40.9942      13 -40.9229      14 -40.9954      15 -40.9953
      16 -40.9944      17 -40.9929      18 -40.9235      19 -41.0245      20 -40.9959
      21 -40.9953      22 -40.9229      23 -40.9934      24 -40.9942      25 -40.9958
      26 -40.9952
 
 
 
 E-fermi :  -5.3628     XC(G=0):  -0.6133     alpha+bet : -0.3265


 k-point     1 :       0.0000    0.0000    0.0000
  band No.  band energies     occupation 
      1     -15.2569      2.00000
      2     -14.3579      2.00000
      3     -14.2216      2.00000
      4     -14.2215      2.00000
      5     -13.3506      2.00000
      6     -13.3505      2.00000
      7     -11.8810      2.00000
      8     -11.5765      2.00000
      9     -11.5764      2.00000
     10     -10.6354      2.00000
     11      -9.0039      2.00000
     12      -8.5367      2.00000
     13      -8.5198      2.00000
     14      -8.5196      2.00000
     15      -8.0827      2.00000
     16      -8.0473      2.00000
     17      -8.0471      2.00000
     18      -7.9275      2.00000
     19      -7.9274      2.00000
     20      -7.8125      2.00000
     21      -6.7957      2.00000
     22      -6.7957      2.00000
     23      -6.4624      2.00000
     24      -6.4294      2.00000
     25      -6.4292      2.00000
     26      -6.3827      2.00000
     27      -6.3137      2.00000
     28      -6.3136      2.00000
     29      -1.6296      0.00000
     30      -1.3894      0.00000
     31      -1.2279      0.00000
     32      -1.2278      0.00000
     33      -1.2262      0.00000
     34      -1.1568      0.00000
     35      -1.1565      0.00000
     36      -1.0142      0.00000
     37      -1.0139      0.00000
     38      -0.7506      0.00000
     39      -0.2609      0.00000
     40      -0.2607      0.00000
     41      -0.1824      0.00000
     42      -0.0730      0.00000


--------------------------------------------------------------------------------------------------------


 soft charge-density along one line, spin component           1
         0         1         2         3         4         5         6         7         8         9
 total charge-density along one line
 
 pseudopotential strength for first ion, spin component:           1
 19.629  27.393  -0.001   0.004   0.001  -0.001   0.007   0.001
 27.393  38.233  -0.001   0.005   0.001  -0.002   0.010   0.001
 -0.001  -0.001   4.362   0.000   0.000   8.137   0.000   0.000
  0.004   0.005   0.000   4.362   0.000   0.000   8.137   0.000
  0.001   0.001   0.000   0.000   4.362   0.000   0.000   8.137
 -0.001  -0.002   8.137   0.000   0.000  15.188   0.000   0.000
  0.007   0.010   0.000   8.137   0.000   0.000  15.188  -0.000
  0.001   0.001   0.000   0.000   8.137   0.000  -0.000  15.188
 total augmentation occupancy for first ion, spin component:           1
  5.589  -2.055   0.104  -0.533  -0.076  -0.032   0.165   0.023
 -2.055   0.824  -0.057   0.299   0.043   0.014  -0.073  -0.010
  0.104  -0.057   2.751  -0.139  -0.016  -0.590   0.045   0.005
 -0.533   0.299  -0.139   3.446   0.104   0.045  -0.817  -0.034
 -0.076   0.043  -0.016   0.104   2.734   0.005  -0.034  -0.584
 -0.032   0.014  -0.590   0.045   0.005   0.134  -0.013  -0.001
  0.165  -0.073   0.045  -0.817  -0.034  -0.013   0.197   0.010
  0.023  -0.010   0.005  -0.034  -0.584  -0.001   0.010   0.132


------------------------ aborting loop because EDIFF is reached ----------------------------------------


    CHARGE:  cpu time    0.2310: real time    0.2311
    FORLOC:  cpu time    0.1260: real time    0.1260
    FORNL :  cpu time    0.8469: real time    0.8473
    STRESS:  cpu time    2.7846: real time    2.7887
    FORCOR:  cpu time    0.9978: real time    0.9997
    FORHAR:  cpu time    0.3519: real time    0.3512
    MIXING:  cpu time    0.0250: real time    0.0257
    OFIELD:  cpu time    0.0000: real time    0.0000

  FORCE on cell =-STRESS in cart. coord.  units (eV):
  Direction    XX          YY          ZZ          XY          YZ          ZX
  --------------------------------------------------------------------------------------
  Alpha Z     2.79095     2.79095     2.79095
  Ewald     861.03309   859.08922   861.18151    -1.46557    -1.14534    -1.28431
  Hartree  1171.30005  1168.87986  1171.49351    -1.96595    -1.62217    -1.55391
  E(xc)    -181.21999  -181.26336  -181.21751    -0.04165    -0.03951    -0.02394
  Local   -2504.63727 -2500.17271 -2504.98531     3.52786     2.85867     2.89315
  n-local   220.86435   221.02432   220.85534     0.15372     0.14513     0.08719
  augment    -7.23832    -7.21807    -7.23849     0.01910     0.01791     0.01108
  Kinetic   436.20524   435.90256   436.22206    -0.29269    -0.27583    -0.16498
  Fock        0.00000     0.00000     0.00000     0.00000     0.00000     0.00000
  -------------------------------------------------------------------------------------
  Total      -0.90190    -0.96723    -0.89792    -0.06517    -0.06115    -0.03573
  in kB      -0.18063    -0.19371    -0.17983    -0.01305    -0.01225    -0.00716
  external pressure =       -0.18 kB  Pullay stress =        0.00 kB


 VOLUME and BASIS-vectors are now :
 -----------------------------------------------------------------------------
  energy-cutoff  :      400.00
  volume of cell :     8000.00
      direct lattice vectors                 reciprocal lattice vectors
    20.000000000  0.000000000  0.000000000     0.050000000  0.000000000  0.000000000
     0.000000000 20.000000000  0.000000000     0.000000000  0.050000000  0.000000000
     0.000000000  0.000000000 20.000000000     0.000000000  0.000000000  0.050000000

  length of vectors
    20.000000000 20.000000000 20.000000000     0.050000000  0.050000000  0.050000000


 FORCES acting on ions
    electron-ion (+dipol)            ewald-force                    non-local-force                 convergence-correction
 -----------------------------------------------------------------------------------------------
   0.115E+02 -.183E+02 0.859E+02   -.117E+02 0.187E+02 -.878E+02   0.246E+00 -.383E+00 0.183E+01   -.174E-03 -.548E-03 0.348E-03
   0.788E+02 0.126E+02 -.386E+02   -.805E+02 -.128E+02 0.394E+02   0.168E+01 0.272E+00 -.817E+00   0.230E-03 -.344E-03 -.472E-03
   -.495E+02 0.731E+02 -.865E+01   0.505E+02 -.747E+02 0.883E+01   -.105E+01 0.156E+01 -.180E+00   -.593E-03 0.104E-03 -.291E-03
   0.876E+02 -.552E+01 0.463E+02   -.882E+02 0.556E+01 -.466E+02   0.641E+00 -.368E-01 0.338E+00   0.683E-03 -.313E-05 0.403E-03
   -.369E+02 0.534E+02 0.752E+02   0.372E+02 -.538E+02 -.757E+02   -.265E+00 0.392E+00 0.549E+00   -.261E-03 0.470E-03 0.621E-03
   -.292E+02 -.832E+02 0.439E+02   0.294E+02 0.838E+02 -.445E+02   -.146E+00 -.627E+00 0.644E+00   -.843E-03 -.139E-02 -.767E-03
   -.425E+02 -.699E+02 -.403E+02   0.428E+02 0.705E+02 0.407E+02   -.334E+00 -.551E+00 -.317E+00   -.611E-03 -.995E-03 -.560E-03
   -.867E+02 0.359E+01 -.462E+02   0.875E+02 -.391E+01 0.466E+02   -.778E+00 0.325E+00 -.340E+00   -.843E-03 -.137E-02 -.791E-03
   0.288E+02 0.832E+02 -.458E+02   -.290E+02 -.838E+02 0.462E+02   0.212E+00 0.610E+00 -.331E+00   0.222E-03 0.707E-03 -.333E-03
   0.350E+02 -.541E+02 -.745E+02   -.356E+02 0.544E+02 0.752E+02   0.557E+00 -.306E+00 -.652E+00   -.853E-03 -.137E-02 -.781E-03
   0.202E+02 0.396E+02 0.570E+01   -.214E+02 -.416E+02 -.676E+01   0.117E+01 0.195E+01 0.106E+01   0.848E-04 0.166E-03 0.640E-04
   0.119E+01 0.218E+02 -.392E+02   -.886E+00 -.224E+02 0.417E+02   -.297E+00 0.568E+00 -.243E+01   -.421E-04 -.169E-04 -.116E-03
   -.265E+02 0.402E+02 -.438E+01   0.281E+02 -.426E+02 0.463E+01   -.159E+01 0.244E+01 -.256E+00   -.124E-03 0.160E-03 -.273E-04
   -.439E+02 -.373E+01 0.531E+01   0.462E+02 0.409E+01 -.635E+01   -.226E+01 -.364E+00 0.104E+01   -.164E-03 -.211E-03 -.954E-04
   -.200E+02 0.732E+01 -.392E+02   0.204E+02 -.782E+01 0.416E+02   -.375E+00 0.496E+00 -.243E+01   -.132E-03 -.193E-03 -.161E-03
   -.351E+02 0.531E+01 0.276E+02   0.373E+02 -.500E+01 -.287E+02   -.222E+01 -.311E+00 0.113E+01   -.116E-03 -.577E-04 0.208E-04
   0.811E+01 0.343E+02 0.279E+02   -.923E+01 -.362E+02 -.290E+02   0.112E+01 0.193E+01 0.114E+01   0.686E-04 0.157E-03 0.106E-03
   0.658E+01 -.940E+01 0.468E+02   -.698E+01 0.995E+01 -.497E+02   0.403E+00 -.552E+00 0.285E+01   0.153E-04 -.585E-04 0.189E-03
   -.215E+02 -.353E+02 -.204E+02   0.226E+02 0.372E+02 0.215E+02   -.115E+01 -.189E+01 -.109E+01   0.612E-04 0.106E-03 0.635E-04
   0.246E+01 -.336E+01 -.443E+02   -.215E+01 0.289E+01 0.467E+02   -.310E+00 0.465E+00 -.245E+01   -.135E-03 -.196E-03 -.154E-03
   0.242E+02 -.360E+02 -.106E+02   -.256E+02 0.381E+02 0.104E+02   0.139E+01 -.209E+01 0.192E+00   -.106E-03 -.237E-03 -.114E-03
   0.430E+02 0.741E+01 -.207E+02   -.456E+02 -.787E+01 0.219E+02   0.261E+01 0.457E+00 -.124E+01   0.167E-03 0.151E-04 -.938E-04
   0.309E+02 0.235E+02 0.226E+02   -.321E+02 -.254E+02 -.237E+02   0.121E+01 0.189E+01 0.112E+01   0.105E-03 0.130E-03 0.954E-04
   0.337E+02 -.273E+02 0.116E+02   -.351E+02 0.294E+02 -.119E+02   0.144E+01 -.204E+01 0.274E+00   0.262E-04 -.122E-03 -.950E-05
   0.124E+02 -.412E+02 0.113E+02   -.137E+02 0.433E+02 -.115E+02   0.135E+01 -.210E+01 0.256E+00   -.110E-03 -.240E-03 -.107E-03
   -.335E+02 -.197E+02 0.220E+02   0.358E+02 0.201E+02 -.230E+02   -.223E+01 -.411E+00 0.109E+01   -.158E-03 -.213E-03 -.950E-04
 -----------------------------------------------------------------------------------------------
   -.103E+01 -.168E+01 -.972E+00   0.782E-13 0.604E-13 -.320E-13   0.103E+01 0.169E+01 0.976E+00   -.360E-02 -.554E-02 -.306E-02
 
 
 POSITION                                       TOTAL-FORCE (eV/Angst)
 -----------------------------------------------------------------------------------
      9.50502     11.13059      7.66339        -0.002180     -0.006867      0.005093
      7.66505     10.28986     11.06137         0.004939     -0.004086     -0.007103
     11.16366      8.63661     10.24548        -0.008026      0.001514     -0.003904
      7.37641     10.78459      8.72632        -0.000698     -0.002112     -0.000658
     10.84072      9.14780      7.91845        -0.001555     -0.001674     -0.000789
     10.62366     12.98389      8.70433         0.002392      0.002817      0.004549
     10.95304     12.50448     11.08859        -0.002002     -0.003246     -0.001941
     12.29902     10.46460     11.31258         0.000308      0.005494      0.002071
      9.01869      8.31522     11.28307        -0.001201     -0.001332     -0.001517
      8.76500     12.13456     12.13678         0.004501      0.003458      0.000920
      8.29237      7.10411     10.62305         0.004769      0.011715     -0.003277
      9.20454      7.96513     12.78984         0.003350      0.006068      0.002660
     11.97897      7.38329     10.37678         0.000756     -0.004232     -0.000612
     13.69801     10.68868     10.66506         0.003542     -0.005437     -0.002257
     12.53035     10.15528     12.82173         0.001264     -0.006444      0.001826
     12.22022      9.34335      7.22117         0.003068      0.005932      0.003606
     10.14075      7.94866      7.20987        -0.001733      0.008526      0.009348
      9.29836     11.41388      6.20404        -0.001422     -0.000632     -0.004043
     11.68029     13.70317     11.77910        -0.006454     -0.010742     -0.006152
      8.95620     11.84408     13.65528        -0.004431     -0.003627      0.003229
      7.90372     13.42700     12.01649        -0.006843     -0.000284      0.000248
      6.32509     10.05506     11.69538        -0.004367     -0.002347      0.000681
      6.62637      9.60905      8.02947         0.011167      0.002390      0.006628
      6.48663     12.05241      8.55814         0.003741      0.005462      0.003594
      9.78354     14.28601      8.54518        -0.003416      0.000903     -0.005433
     12.00373     13.23664      8.02737         0.000531     -0.001217     -0.006767
 -----------------------------------------------------------------------------------
    total drift:                               -0.000044     -0.000224      0.000868


--------------------------------------------------------------------------------------------------------



  FREE ENERGIE OF THE ION-ELECTRON SYSTEM (eV)
  ---------------------------------------------------
  free  energy   TOTEN  =       -98.54075374 eV

  energy  without entropy=      -98.54075374  energy(sigma->0) =      -98.54075374
 
 d Force = 0.1228373E-03[ 0.513E-04, 0.194E-03]  d Energy = 0.1273982E-03-0.456E-05
 d Force =-0.1052251E+01[-0.105E+01,-0.105E+01]  d Ewald  =-0.1052251E+01 0.290E-07


--------------------------------------------------------------------------------------------------------


    POTLOK:  cpu time    0.9689: real time    0.9707


--------------------------------------------------------------------------------------------------------




--------------------------------------------------------------------------------------------------------


  
 reached required accuracy - stopping structural energy minimisation
 writing wavefunctions
     LOOP+:  cpu time   27.2379: real time   27.7531
    4ORBIT:  cpu time    0.0000: real time    0.0000

 total amount of memory used by VASP MPI-rank0   131440. kBytes
=======================================================================

   base      :      30000. kBytes
   nonl-proj :      17624. kBytes
   fftplans  :      26957. kBytes
   grid      :      48673. kBytes
   one-center:         40. kBytes
   wavefun   :       8146. kBytes
 
  
  
 General timing and accounting informations for this job:
 ========================================================
  
                  Total CPU time used (sec):      922.613
                            User time (sec):      903.502
                          System time (sec):       19.111
                         Elapsed time (sec):      927.283
  
                   Maximum memory used (kb):      185628.
                   Average memory used (kb):           0.
  
                          Minor page faults:      4931292
                          Major page faults:            7
                 Voluntary context switches:         6470
