<?xml version="1.0" encoding="ISO-8859-1"?>
<modeling>
 <generator>
  <i name="program" type="string">vasp </i>
  <i name="version" type="string">5.4.4.18Apr17-6-g9f103f2a35  </i>
  <i name="subversion" type="string">(build Nov 06 2017 19:16:10) complex            parallel </i>
  <i name="platform" type="string">IFC91_ompi </i>
  <i name="date" type="string">2018 07 12 </i>
  <i name="time" type="string">21:24:28 </i>
 </generator>
 <incar>
  <i type="string" name="SYSTEM">SiGe</i>
  <i type="string" name="PREC">normal</i>
  <i type="int" name="IBRION">     5</i>
  <i type="int" name="NFREE">     2</i>
  <i name="EDIFF">      0.00000100</i>
  <i name="EDIFFG">     -0.01000000</i>
  <i type="int" name="NSW">   300</i>
  <i type="int" name="ISIF">     2</i>
  <i name="ENCUT">    400.00000000</i>
  <i name="POTIM">      0.02000000</i>
  <i type="logical" name="LREAL"> F  </i>
  <i type="int" name="ISMEAR">     0</i>
  <i type="logical" name="LWAVE"> F  </i>
  <i type="logical" name="LCHARG"> F  </i>
  <v type="int" name="KPOINT_BSE">    -1     0     0     0</v>
 </incar>
 <structure name="primitive_cell" >
  <crystal>
   <varray name="basis" >
    <v>      20.00000000       0.00000000       0.00000000 </v>
    <v>       0.00000000      20.00000000       0.00000000 </v>
    <v>       0.00000000       0.00000000      20.00000000 </v>
   </varray>
   <i name="volume">   8000.00000000 </i>
   <varray name="rec_basis" >
    <v>       0.05000000       0.00000000       0.00000000 </v>
    <v>       0.00000000       0.05000000       0.00000000 </v>
    <v>       0.00000000       0.00000000       0.05000000 </v>
   </varray>
  </crystal>
  <varray name="positions" >
   <v>       0.47359007      -0.44370460       0.38398521 </v>
   <v>       0.46238409      -0.42855544       0.31128888 </v>
   <v>       0.36977936      -0.46097689       0.43678077 </v>
   <v>      -0.46899395      -0.35168186       0.43567255 </v>
   <v>      -0.45832069       0.45784055       0.39432845 </v>
   <v>       0.33394000       0.48228723       0.40334402 </v>
   <v>       0.32732039      -0.39967830       0.42895380 </v>
   <v>      -0.38972612       0.46841885       0.35894896 </v>
   <v>      -0.40049675      -0.33930442       0.40069147 </v>
   <v>      -0.49291768       0.39711483       0.35989341 </v>
   <v>       0.48935152      -0.28621675       0.42863555 </v>
   <v>       0.38300606      -0.48509058      -0.44874047 </v>
   <v>      -0.45128623      -0.37615600      -0.44534025 </v>
   <v>      -0.44057196       0.43266761      -0.48683574 </v>
   <v>       0.44935810       0.41565963      -0.43520126 </v>
   <v>       0.43869044      -0.39386940      -0.39384423 </v>
   <v>      -0.38437997      -0.47533384      -0.43365493 </v>
   <v>       0.41422605       0.35468713      -0.46864427 </v>
   <v>       0.39649143      -0.32865339      -0.39988590 </v>
   <v>      -0.31727391      -0.46472242      -0.46524027 </v>
   <v>       0.31552997      -0.49565088      -0.41751244 </v>
   <v>      -0.41590471      -0.31546617      -0.41115412 </v>
   <v>      -0.39812195       0.36743732      -0.47998181 </v>
   <v>      -0.37369088      -0.49048704      -0.36106329 </v>
   <v>       0.45787728       0.39877293      -0.35962945 </v>
   <v>       0.44711002      -0.40893814      -0.31787762 </v>
  </varray>
 </structure>
 <varray name="primitive_index" >
  <v type="int" >        1 </v>
  <v type="int" >       18 </v>
  <v type="int" >        2 </v>
  <v type="int" >        6 </v>
  <v type="int" >        5 </v>
  <v type="int" >       23 </v>
  <v type="int" >       24 </v>
  <v type="int" >       16 </v>
  <v type="int" >       26 </v>
  <v type="int" >       17 </v>
  <v type="int" >       25 </v>
  <v type="int" >        3 </v>
  <v type="int" >        8 </v>
  <v type="int" >        7 </v>
  <v type="int" >        9 </v>
  <v type="int" >       10 </v>
  <v type="int" >        4 </v>
  <v type="int" >       11 </v>
  <v type="int" >       21 </v>
  <v type="int" >       14 </v>
  <v type="int" >       22 </v>
  <v type="int" >       19 </v>
  <v type="int" >       13 </v>
  <v type="int" >       15 </v>
  <v type="int" >       12 </v>
  <v type="int" >       20 </v>
 </varray>
 <kpoints>
  <generation param="Gamma">
   <v type="int" name="divisions">       1        1        1 </v>
   <v name="usershift">      0.00000000       0.00000000       0.00000000 </v>
   <v name="genvec1">      1.00000000       0.00000000       0.00000000 </v>
   <v name="genvec2">      0.00000000       1.00000000       0.00000000 </v>
   <v name="genvec3">      0.00000000       0.00000000       1.00000000 </v>
   <v name="shift">      0.00000000       0.00000000       0.00000000 </v>
  </generation>
  <varray name="kpointlist" >
   <v>       0.00000000       0.00000000       0.00000000 </v>
  </varray>
  <varray name="weights" >
   <v>       1.00000000 </v>
  </varray>
 </kpoints>
 <parameters>
  <separator name="general" >
   <i type="string" name="SYSTEM">SiGe</i>
   <i type="logical" name="LCOMPAT"> F  </i>
  </separator>
  <separator name="electronic" >
   <i type="string" name="PREC">normal</i>
   <i name="ENMAX">    400.00000000</i>
   <i name="ENAUG">    400.00000000</i>
   <i name="EDIFF">      0.00000100</i>
   <i type="int" name="IALGO">    38</i>
   <i type="int" name="IWAVPR">    11</i>
   <i type="int" name="NBANDS">    48</i>
   <i name="NELECT">     56.00000000</i>
   <i type="int" name="TURBO">     0</i>
   <i type="int" name="IRESTART">     0</i>
   <i type="int" name="NREBOOT">     0</i>
   <i type="int" name="NMIN">     0</i>
   <i name="EREF">      0.00000000</i>
   <separator name="electronic smearing" >
    <i type="int" name="ISMEAR">     0</i>
    <i name="SIGMA">      0.20000000</i>
    <i name="KSPACING">      0.50000000</i>
    <i type="logical" name="KGAMMA"> T  </i>
   </separator>
   <separator name="electronic projectors" >
    <i type="logical" name="LREAL"> F  </i>
    <v name="ROPT">      0.00000000      0.00000000      0.00000000</v>
    <i type="int" name="LMAXPAW">  -100</i>
    <i type="int" name="LMAXMIX">     2</i>
    <i type="logical" name="NLSPLINE"> F  </i>
   </separator>
   <separator name="electronic startup" >
    <i type="int" name="ISTART">     0</i>
    <i type="int" name="ICHARG">     2</i>
    <i type="int" name="INIWAV">     1</i>
   </separator>
   <separator name="electronic spin" >
    <i type="int" name="ISPIN">     1</i>
    <i type="logical" name="LNONCOLLINEAR"> F  </i>
    <v name="MAGMOM">      1.00000000      1.00000000      1.00000000      1.00000000      1.00000000      1.00000000      1.00000000      1.00000000      1.00000000      1.00000000      1.00000000      1.00000000      1.00000000      1.00000000      1.00000000      1.00000000      1.00000000      1.00000000      1.00000000      1.00000000
      1.00000000      1.00000000      1.00000000      1.00000000      1.00000000      1.00000000</v>
    <i name="NUPDOWN">     -1.00000000</i>
    <i type="logical" name="LSORBIT"> F  </i>
    <v name="SAXIS">      0.00000000      0.00000000      1.00000000</v>
    <i type="logical" name="LSPIRAL"> F  </i>
    <v name="QSPIRAL">      0.00000000      0.00000000      0.00000000</v>
    <i type="logical" name="LZEROZ"> F  </i>
   </separator>
   <separator name="electronic exchange-correlation" >
    <i type="logical" name="LASPH"> F  </i>
    <i type="logical" name="LMETAGGA"> F  </i>
   </separator>
   <separator name="electronic convergence" >
    <i type="int" name="NELM">    60</i>
    <i type="int" name="NELMDL">    -5</i>
    <i type="int" name="NELMIN">     2</i>
    <i name="ENINI">    400.00000000</i>
    <separator name="electronic convergence detail" >
     <i type="logical" name="LDIAG"> T  </i>
     <i type="logical" name="LSUBROT"> F  </i>
     <i name="WEIMIN">      0.00100000</i>
     <i name="EBREAK">      0.00000001</i>
     <i name="DEPER">      0.30000000</i>
     <i type="int" name="NRMM">     4</i>
     <i name="TIME">      0.40000000</i>
    </separator>
   </separator>
   <separator name="electronic mixer" >
    <i name="AMIX">      0.40000000</i>
    <i name="BMIX">      1.00000000</i>
    <i name="AMIN">      0.10000000</i>
    <i name="AMIX_MAG">      1.60000000</i>
    <i name="BMIX_MAG">      1.00000000</i>
    <separator name="electronic mixer details" >
     <i type="int" name="IMIX">     4</i>
     <i type="logical" name="MIXFIRST"> F  </i>
     <i type="int" name="MAXMIX">   -45</i>
     <i name="WC">    100.00000000</i>
     <i type="int" name="INIMIX">     1</i>
     <i type="int" name="MIXPRE">     1</i>
     <i type="int" name="MREMOVE">     5</i>
    </separator>
   </separator>
   <separator name="electronic dipolcorrection" >
    <i type="logical" name="LDIPOL"> F  </i>
    <i type="logical" name="LMONO"> F  </i>
    <i type="int" name="IDIPOL">     0</i>
    <i name="EPSILON">      1.00000000</i>
    <v name="DIPOL">   -100.00000000   -100.00000000   -100.00000000</v>
    <i name="EFIELD">      0.00000000</i>
   </separator>
  </separator>
  <separator name="grids" >
   <i type="int" name="NGX">    98</i>
   <i type="int" name="NGY">    98</i>
   <i type="int" name="NGZ">    98</i>
   <i type="int" name="NGXF">   196</i>
   <i type="int" name="NGYF">   196</i>
   <i type="int" name="NGZF">   196</i>
   <i type="logical" name="ADDGRID"> F  </i>
  </separator>
  <separator name="ionic" >
   <i type="int" name="NSW">   349</i>
   <i type="int" name="IBRION">     5</i>
   <i type="int" name="MDALGO">     0</i>
   <i type="int" name="ISIF">     2</i>
   <i name="PSTRESS">      0.00000000</i>
   <i name="EDIFFG">     -0.01000000</i>
   <i type="int" name="NFREE">     2</i>
   <i name="POTIM">      0.02000000</i>
   <i name="SMASS">     -3.00000000</i>
   <i name="SCALEE">      1.00000000</i>
  </separator>
  <separator name="ionic md" >
   <i name="TEBEG">      0.00010000</i>
   <i name="TEEND">      0.00010000</i>
   <i type="int" name="NBLOCK">     1</i>
   <i type="int" name="KBLOCK">   349</i>
   <i type="int" name="NPACO">   256</i>
   <i name="APACO">     16.00000000</i>
  </separator>
  <separator name="symmetry" >
   <i type="int" name="ISYM">     2</i>
   <i name="SYMPREC">      0.00001000</i>
  </separator>
  <separator name="dos" >
   <i type="int" name="LORBIT">     0</i>
   <v name="RWIGS">     -1.00000000     -1.00000000     -1.00000000</v>
   <i type="int" name="NEDOS">   301</i>
   <i name="EMIN">     10.00000000</i>
   <i name="EMAX">    -10.00000000</i>
   <i name="EFERMI">      0.00000000</i>
  </separator>
  <separator name="writing" >
   <i type="int" name="NWRITE">     2</i>
   <i type="logical" name="LWAVE"> F  </i>
   <i type="logical" name="LDOWNSAMPLE"> F  </i>
   <i type="logical" name="LCHARG"> F  </i>
   <i type="logical" name="LPARD"> F  </i>
   <i type="logical" name="LVTOT"> F  </i>
   <i type="logical" name="LVHAR"> F  </i>
   <i type="logical" name="LELF"> F  </i>
   <i type="logical" name="LOPTICS"> F  </i>
   <v name="STM">      0.00000000      0.00000000      0.00000000      0.00000000      0.00000000      0.00000000      0.00000000</v>
  </separator>
  <separator name="performance" >
   <i type="int" name="NPAR">    12</i>
   <i type="int" name="NSIM">     4</i>
   <i type="int" name="NBLK">    -1</i>
   <i type="logical" name="LPLANE"> T  </i>
   <i type="logical" name="LSCALAPACK"> T  </i>
   <i type="logical" name="LSCAAWARE"> F  </i>
   <i type="logical" name="LSCALU"> F  </i>
   <i type="logical" name="LASYNC"> F  </i>
   <i type="logical" name="LORBITALREAL"> F  </i>
  </separator>
  <separator name="miscellaneous" >
   <i type="int" name="IDIOT">     3</i>
   <i type="int" name="ISPECIAL">     0</i>
   <i type="logical" name="LMUSIC"> F  </i>
   <v name="POMASS">     28.08500000     72.61000000      1.00000000</v>
   <v name="DARWINR">      0.00000000      0.00000000      0.00000000</v>
   <v name="DARWINV">      1.00000000      1.00000000      1.00000000</v>
   <i type="logical" name="LCORR"> T  </i>
  </separator>
  <i type="logical" name="GGA_COMPAT"> T  </i>
  <i type="logical" name="LBERRY"> F  </i>
  <i type="int" name="ICORELEVEL">     0</i>
  <i type="logical" name="LDAU"> F  </i>
  <i type="int" name="I_CONSTRAINED_M">     0</i>
  <separator name="electronic exchange-correlation" >
   <i type="string" name="GGA">--</i>
   <i type="int" name="VOSKOWN">     0</i>
   <i type="logical" name="LHFCALC"> F  </i>
   <i type="string" name="PRECFOCK"></i>
   <i type="logical" name="LSYMGRAD"> F  </i>
   <i type="logical" name="LHFONE"> F  </i>
   <i type="logical" name="LRHFCALC"> F  </i>
   <i type="logical" name="LTHOMAS"> F  </i>
   <i type="logical" name="LMODELHF"> F  </i>
   <i name="ENCUT4O">     -1.00000000</i>
   <i type="int" name="EXXOEP">     0</i>
   <i type="int" name="FOURORBIT">     0</i>
   <i name="AEXX">      0.00000000</i>
   <i name="HFALPHA">      0.00000000</i>
   <i name="MCALPHA">      0.00000000</i>
   <i name="ALDAX">      1.00000000</i>
   <i name="AGGAX">      1.00000000</i>
   <i name="ALDAC">      1.00000000</i>
   <i name="AGGAC">      1.00000000</i>
   <i type="int" name="NKREDX">     1</i>
   <i type="int" name="NKREDY">     1</i>
   <i type="int" name="NKREDZ">     1</i>
   <i type="logical" name="SHIFTRED"> F  </i>
   <i type="logical" name="ODDONLY"> F  </i>
   <i type="logical" name="EVENONLY"> F  </i>
   <i type="int" name="LMAXFOCK">     0</i>
   <i type="int" name="NMAXFOCKAE">     0</i>
   <i type="logical" name="LFOCKAEDFT"> F  </i>
   <i name="HFSCREEN">      0.00000000</i>
   <i name="HFSCREENC">      0.00000000</i>
   <i type="int" name="NBANDSGWLOW">     0</i>
  </separator>
  <separator name="vdW DFT" >
   <i type="logical" name="LUSE_VDW"> F  </i>
   <i name="Zab_VDW">     -0.84910000</i>
   <i name="PARAM1">      0.12340000</i>
   <i name="PARAM2">      1.00000000</i>
   <i name="PARAM3">      0.00000000</i>
  </separator>
  <separator name="model GW" >
   <i type="int" name="MODEL_GW">     0</i>
   <i name="MODEL_EPS0">    184.61538462</i>
   <i name="MODEL_ALPHA">      1.00000000</i>
  </separator>
  <separator name="linear response parameters" >
   <i type="logical" name="LEPSILON"> F  </i>
   <i type="logical" name="LRPA"> F  </i>
   <i type="logical" name="LNABLA"> F  </i>
   <i type="logical" name="LVEL"> F  </i>
   <i type="int" name="KINTER">     0</i>
   <i name="CSHIFT">      0.10000000</i>
   <i name="OMEGAMAX">     -1.00000000</i>
   <i name="DEG_THRESHOLD">      0.00200000</i>
   <i name="RTIME">     -0.10000000</i>
   <i name="WPLASMAI">      0.00000000</i>
   <v name="DFIELD">      0.00000000      0.00000000      0.00000000</v>
   <v name="WPLASMA">      0.00000000      0.00000000      0.00000000      0.00000000      0.00000000      0.00000000      0.00000000      0.00000000      0.00000000</v>
  </separator>
  <separator name="orbital magnetization" >
   <i type="logical" name="NUCIND"> F  </i>
   <v name="MAGPOS">      0.00000000      0.00000000      0.00000000</v>
   <i type="logical" name="LNICSALL"> T  </i>
   <i type="logical" name="ORBITALMAG"> F  </i>
   <i type="logical" name="LMAGBLOCH"> F  </i>
   <i type="logical" name="LCHIMAG"> F  </i>
   <i type="logical" name="LGAUGE"> T  </i>
   <i type="int" name="MAGATOM">     0</i>
   <v name="MAGDIPOL">      0.00000000      0.00000000      0.00000000</v>
   <v name="AVECCONST">      0.00000000      0.00000000      0.00000000</v>
  </separator>
  <separator name="response functions" >
   <i type="logical" name="LADDER"> F  </i>
   <i type="logical" name="LRPAFORCE"> F  </i>
   <i type="logical" name="LFXC"> F  </i>
   <i type="logical" name="LHARTREE"> T  </i>
   <i type="int" name="IBSE">     0</i>
   <v type="int" name="KPOINT">    -1     0     0     0</v>
   <i type="logical" name="LTCTE"> F  </i>
   <i type="logical" name="LTETE"> F  </i>
   <i type="logical" name="LTRIPLET"> F  </i>
   <i type="logical" name="LFXCEPS"> F  </i>
   <i type="logical" name="LFXHEG"> F  </i>
   <i type="int" name="NATURALO">     2</i>
   <i type="logical" name="L2ORDER"> F  </i>
   <i type="logical" name="LMP2LT"> F  </i>
   <i type="logical" name="LUSEW"> F  </i>
   <i name="ENCUTGW">     -2.00000000</i>
   <i name="ENCUTGWSOFT">     -2.00000000</i>
   <i name="ENCUTLF">     -1.00000000</i>
   <i type="int" name="LMAXMP2">    -1</i>
   <i name="SCISSOR">      0.00000000</i>
   <i type="int" name="NOMEGA">     0</i>
   <i type="int" name="NOMEGAR">     0</i>
   <i type="int" name="NBANDSGW">    -1</i>
   <i type="int" name="NBANDSO">    -1</i>
   <i type="int" name="NBANDSV">    -1</i>
   <i type="int" name="NELM">     1</i>
   <i type="int" name="NELMHF">     1</i>
   <i type="int" name="DIM">     3</i>
   <i type="int" name="ANTIRES">     0</i>
   <i name="OMEGAMAX">    -30.00000000</i>
   <i name="OMEGAMIN">    -30.00000000</i>
   <i name="OMEGATL">   -200.00000000</i>
   <i type="int" name="OMEGAGRID">   140</i>
   <i name="CSHIFT">     -0.10000000</i>
   <i type="logical" name="SELFENERGY"> F  </i>
   <i type="logical" name="LSPECTRAL"> F  </i>
   <i type="logical" name="LSPECTRALGW"> F  </i>
   <i type="logical" name="LSINGLES"> F  </i>
   <i type="logical" name="LFERMIGW"> F  </i>
   <i type="logical" name="ODDONLYGW"> F  </i>
   <i type="logical" name="EVENONLYGW"> F  </i>
   <i type="int" name="NKREDLFX">     1</i>
   <i type="int" name="NKREDLFY">     1</i>
   <i type="int" name="NKREDLFZ">     1</i>
   <i type="int" name="MAXMEM">  2800</i>
   <i type="int" name="TELESCOPE">     0</i>
   <i type="int" name="TAUPAR">     1</i>
   <i type="int" name="OMEGAPAR">    -1</i>
   <i name="LAMBDA">      1.00000000</i>
  </separator>
  <separator name="External order field" >
   <i name="OFIELD_KAPPA">      0.00000000</i>
   <v name="OFIELD_K">      0.00000000      0.00000000      0.00000000</v>
   <i name="OFIELD_Q6_NEAR">      0.00000000</i>
   <i name="OFIELD_Q6_FAR">      0.00000000</i>
   <i name="OFIELD_A">      0.00000000</i>
  </separator>
 </parameters>
 <atominfo>
  <atoms>      26 </atoms>
  <types>       3 </types>
  <array name="atoms" >
   <dimension dim="1">ion</dimension>
   <field type="string">element</field>
   <field type="int">atomtype</field>
   <set>
    <rc><c>Si</c><c>   1</c></rc>
    <rc><c>Si</c><c>   1</c></rc>
    <rc><c>Si</c><c>   1</c></rc>
    <rc><c>Si</c><c>   1</c></rc>
    <rc><c>Ge</c><c>   2</c></rc>
    <rc><c>Ge</c><c>   2</c></rc>
    <rc><c>Ge</c><c>   2</c></rc>
    <rc><c>Ge</c><c>   2</c></rc>
    <rc><c>Ge</c><c>   2</c></rc>
    <rc><c>Ge</c><c>   2</c></rc>
    <rc><c>H </c><c>   3</c></rc>
    <rc><c>H </c><c>   3</c></rc>
    <rc><c>H </c><c>   3</c></rc>
    <rc><c>H </c><c>   3</c></rc>
    <rc><c>H </c><c>   3</c></rc>
    <rc><c>H </c><c>   3</c></rc>
    <rc><c>H </c><c>   3</c></rc>
    <rc><c>H </c><c>   3</c></rc>
    <rc><c>H </c><c>   3</c></rc>
    <rc><c>H </c><c>   3</c></rc>
    <rc><c>H </c><c>   3</c></rc>
    <rc><c>H </c><c>   3</c></rc>
    <rc><c>H </c><c>   3</c></rc>
    <rc><c>H </c><c>   3</c></rc>
    <rc><c>H </c><c>   3</c></rc>
    <rc><c>H </c><c>   3</c></rc>
   </set>
  </array>
  <array name="atomtypes" >
   <dimension dim="1">type</dimension>
   <field type="int">atomspertype</field>
   <field type="string">element</field>
   <field>mass</field>
   <field>valence</field>
   <field type="string">pseudopotential</field>
   <set>
    <rc><c>   4</c><c>Si</c><c>     28.08500000</c><c>      4.00000000</c><c>  PAW_PBE Si 05Jan2001                  </c></rc>
    <rc><c>   6</c><c>Ge</c><c>     72.61000000</c><c>      4.00000000</c><c>  PAW_PBE Ge 05Jan2001                  </c></rc>
    <rc><c>  16</c><c>H </c><c>      1.00000000</c><c>      1.00000000</c><c>  PAW_PBE H 15Jun2001                   </c></rc>
   </set>
  </array>
 </atominfo>
 <structure name="initialpos" >
  <crystal>
   <varray name="basis" >
    <v>      20.00000000       0.00000000       0.00000000 </v>
    <v>       0.00000000      20.00000000       0.00000000 </v>
    <v>       0.00000000       0.00000000      20.00000000 </v>
   </varray>
   <i name="volume">   8000.00000000 </i>
   <varray name="rec_basis" >
    <v>       0.05000000       0.00000000       0.00000000 </v>
    <v>       0.00000000       0.05000000       0.00000000 </v>
    <v>       0.00000000       0.00000000       0.05000000 </v>
   </varray>
  </crystal>
  <varray name="positions" >
   <v>       0.47359007       0.55629540       0.38398521 </v>
   <v>       0.36977936       0.53902311       0.43678077 </v>
   <v>       0.38300606       0.51490942       0.55125953 </v>
   <v>       0.61562003       0.52466616       0.56634507 </v>
   <v>       0.54167931       0.45784055       0.39432845 </v>
   <v>       0.53100605       0.64831814       0.43567255 </v>
   <v>       0.55942804       0.43266761       0.51316426 </v>
   <v>       0.54871377       0.62384400       0.55465975 </v>
   <v>       0.44935810       0.41565963       0.56479874 </v>
   <v>       0.43869044       0.60613060       0.60615577 </v>
   <v>       0.41422605       0.35468713       0.53135573 </v>
   <v>       0.45787728       0.39877293       0.64037055 </v>
   <v>       0.60187805       0.36743732       0.52001819 </v>
   <v>       0.68272609       0.53527758       0.53475973 </v>
   <v>       0.62630912       0.50951296       0.63893671 </v>
   <v>       0.61027388       0.46841885       0.35894896 </v>
   <v>       0.50708232       0.39711483       0.35989341 </v>
   <v>       0.46238409       0.57144456       0.31128888 </v>
   <v>       0.58409529       0.68453383       0.58884588 </v>
   <v>       0.44711002       0.59106186       0.68212238 </v>
   <v>       0.39649143       0.67134661       0.60011410 </v>
   <v>       0.31552997       0.50434912       0.58248756 </v>
   <v>       0.33394000       0.48228723       0.40334402 </v>
   <v>       0.32732039       0.60032170       0.42895380 </v>
   <v>       0.48935152       0.71378325       0.42863555 </v>
   <v>       0.59950325       0.66069558       0.40069147 </v>
  </varray>
 </structure>
 <calculation>
  <scstep>
   <time name="dav">    8.82    8.82</time>
   <time name="total">    9.86    9.86</time>
   <energy>
    <i name="alphaZ">      2.51538199 </i>
    <i name="ewald">   2596.33724000 </i>
    <i name="hartreedc">  -3406.81859236 </i>
    <i name="XCdc">    -49.33245792 </i>
    <i name="pawpsdc">    915.51080863 </i>
    <i name="pawaedc">   -758.35430496 </i>
    <i name="eentropy">     -0.44034370 </i>
    <i name="bandstr">   -293.81523183 </i>
    <i name="atom">   1241.89512738 </i>
    <i name="e_fr_energy">    247.49762723 </i>
    <i name="e_wo_entrp">    247.93797093 </i>
    <i name="e_0_energy">    247.71779908 </i>
   </energy>
  </scstep>
  <scstep>
   <time name="dav">   11.60   11.60</time>
   <time name="total">   11.60   11.60</time>
   <energy>
    <i name="e_fr_energy">    -30.26262031 </i>
    <i name="e_wo_entrp">    -30.26262031 </i>
    <i name="e_0_energy">    -30.26262031 </i>
   </energy>
  </scstep>
  <scstep>
   <time name="dav">    8.80    8.80</time>
   <time name="total">    8.80    8.80</time>
   <energy>
    <i name="e_fr_energy">   -101.81477665 </i>
    <i name="e_wo_entrp">   -101.81477665 </i>
    <i name="e_0_energy">   -101.81477665 </i>
   </energy>
  </scstep>
  <scstep>
   <time name="dav">    9.50    9.50</time>
   <time name="total">    9.50    9.50</time>
   <energy>
    <i name="e_fr_energy">   -105.01976430 </i>
    <i name="e_wo_entrp">   -105.01976430 </i>
    <i name="e_0_energy">   -105.01976430 </i>
   </energy>
  </scstep>
  <scstep>
   <time name="dav">   11.10   11.09</time>
   <time name="total">   11.39   11.38</time>
   <energy>
    <i name="e_fr_energy">   -105.07187145 </i>
    <i name="e_wo_entrp">   -105.07187145 </i>
    <i name="e_0_energy">   -105.07187145 </i>
   </energy>
  </scstep>
  <scstep>
   <time name="dav">    8.09    8.11</time>
   <time name="total">    9.40    9.43</time>
   <energy>
    <i name="e_fr_energy">   -101.73243834 </i>
    <i name="e_wo_entrp">   -101.73243834 </i>
    <i name="e_0_energy">   -101.73243834 </i>
   </energy>
  </scstep>
  <scstep>
   <time name="dav">    8.84    8.84</time>
   <time name="total">   10.17   10.27</time>
   <energy>
    <i name="e_fr_energy">   -100.04288935 </i>
    <i name="e_wo_entrp">   -100.04288935 </i>
    <i name="e_0_energy">   -100.04288935 </i>
   </energy>
  </scstep>
  <scstep>
   <time name="dav">    9.52    9.52</time>
   <time name="total">   10.81   10.81</time>
   <energy>
    <i name="e_fr_energy">    -99.98397401 </i>
    <i name="e_wo_entrp">    -99.98397401 </i>
    <i name="e_0_energy">    -99.98397401 </i>
   </energy>
  </scstep>
  <scstep>
   <time name="dav">   10.23   10.23</time>
   <time name="total">   11.52   11.51</time>
   <energy>
    <i name="e_fr_energy">    -99.95052980 </i>
    <i name="e_wo_entrp">    -99.95052980 </i>
    <i name="e_0_energy">    -99.95052980 </i>
   </energy>
  </scstep>
  <scstep>
   <time name="dav">    9.54    9.53</time>
   <time name="total">   10.82   10.82</time>
   <energy>
    <i name="e_fr_energy">    -99.94935874 </i>
    <i name="e_wo_entrp">    -99.94935874 </i>
    <i name="e_0_energy">    -99.94935874 </i>
   </energy>
  </scstep>
  <scstep>
   <time name="dav">    8.82    8.82</time>
   <time name="total">   10.12   10.12</time>
   <energy>
    <i name="e_fr_energy">    -99.94844074 </i>
    <i name="e_wo_entrp">    -99.94844074 </i>
    <i name="e_0_energy">    -99.94844074 </i>
   </energy>
  </scstep>
  <scstep>
   <time name="dav">    8.80    8.80</time>
   <time name="total">   10.43   10.43</time>
   <energy>
    <i name="e_fr_energy">    -99.95407169 </i>
    <i name="e_wo_entrp">    -99.95407169 </i>
    <i name="e_0_energy">    -99.95407169 </i>
   </energy>
  </scstep>
  <scstep>
   <time name="dav">    8.77    8.81</time>
   <time name="total">   10.07   10.12</time>
   <energy>
    <i name="e_fr_energy">    -99.95773586 </i>
    <i name="e_wo_entrp">    -99.95773586 </i>
    <i name="e_0_energy">    -99.95773586 </i>
   </energy>
  </scstep>
  <scstep>
   <time name="dav">   10.21   10.21</time>
   <time name="total">   11.51   11.51</time>
   <energy>
    <i name="e_fr_energy">    -99.96077098 </i>
    <i name="e_wo_entrp">    -99.96077098 </i>
    <i name="e_0_energy">    -99.96077098 </i>
   </energy>
  </scstep>
  <scstep>
   <time name="dav">    7.41    7.41</time>
   <time name="total">    8.71    8.71</time>
   <energy>
    <i name="e_fr_energy">    -99.96547489 </i>
    <i name="e_wo_entrp">    -99.96547489 </i>
    <i name="e_0_energy">    -99.96547489 </i>
   </energy>
  </scstep>
  <scstep>
   <time name="dav">    9.54    9.53</time>
   <time name="total">   10.84   10.83</time>
   <energy>
    <i name="e_fr_energy">    -99.96706912 </i>
    <i name="e_wo_entrp">    -99.96706912 </i>
    <i name="e_0_energy">    -99.96706912 </i>
   </energy>
  </scstep>
  <scstep>
   <time name="dav">    8.10    8.09</time>
   <time name="total">    9.41    9.41</time>
   <energy>
    <i name="e_fr_energy">    -99.96820331 </i>
    <i name="e_wo_entrp">    -99.96820331 </i>
    <i name="e_0_energy">    -99.96820331 </i>
   </energy>
  </scstep>
  <scstep>
   <time name="dav">    9.48    9.51</time>
   <time name="total">   10.89   11.08</time>
   <energy>
    <i name="e_fr_energy">    -99.96851493 </i>
    <i name="e_wo_entrp">    -99.96851493 </i>
    <i name="e_0_energy">    -99.96851493 </i>
   </energy>
  </scstep>
  <scstep>
   <time name="dav">    8.09    8.11</time>
   <time name="total">    9.78    9.81</time>
   <energy>
    <i name="e_fr_energy">    -99.96871666 </i>
    <i name="e_wo_entrp">    -99.96871666 </i>
    <i name="e_0_energy">    -99.96871666 </i>
   </energy>
  </scstep>
  <scstep>
   <time name="dav">    7.41    7.42</time>
   <time name="total">    8.73    8.75</time>
   <energy>
    <i name="e_fr_energy">    -99.96876713 </i>
    <i name="e_wo_entrp">    -99.96876713 </i>
    <i name="e_0_energy">    -99.96876713 </i>
   </energy>
  </scstep>
  <scstep>
   <time name="dav">    6.71    6.72</time>
   <time name="total">    8.05    8.07</time>
   <energy>
    <i name="e_fr_energy">    -99.96879270 </i>
    <i name="e_wo_entrp">    -99.96879270 </i>
    <i name="e_0_energy">    -99.96879270 </i>
   </energy>
  </scstep>
  <scstep>
   <time name="dav">    7.41    7.43</time>
   <time name="total">    8.74    8.76</time>
   <energy>
    <i name="e_fr_energy">    -99.96880647 </i>
    <i name="e_wo_entrp">    -99.96880647 </i>
    <i name="e_0_energy">    -99.96880647 </i>
   </energy>
  </scstep>
  <scstep>
   <time name="dav">    7.38    7.40</time>
   <time name="total">    8.72    8.74</time>
   <energy>
    <i name="e_fr_energy">    -99.96881011 </i>
    <i name="e_wo_entrp">    -99.96881011 </i>
    <i name="e_0_energy">    -99.96881011 </i>
   </energy>
  </scstep>
  <scstep>
   <time name="dav">    6.69    6.70</time>
   <time name="total">    8.04    8.05</time>
   <energy>
    <i name="e_fr_energy">    -99.96881393 </i>
    <i name="e_wo_entrp">    -99.96881393 </i>
    <i name="e_0_energy">    -99.96881393 </i>
   </energy>
  </scstep>
  <scstep>
   <time name="dav">    7.39    7.41</time>
   <time name="total">    8.39    8.41</time>
   <energy>
    <i name="alphaZ">      2.51538199 </i>
    <i name="ewald">   2596.33724000 </i>
    <i name="hartreedc">  -3528.21235008 </i>
    <i name="XCdc">    -38.84839233 </i>
    <i name="pawpsdc">   3676.66756896 </i>
    <i name="pawaedc">  -3521.41963718 </i>
    <i name="eentropy">     -0.00000000 </i>
    <i name="bandstr">   -528.90375315 </i>
    <i name="atom">   1241.89512738 </i>
    <i name="e_fr_energy">    -99.96881441 </i>
    <i name="e_wo_entrp">    -99.96881441 </i>
    <i name="e_0_energy">    -99.96881441 </i>
   </energy>
  </scstep>
  <structure>
   <crystal>
    <varray name="basis" >
     <v>      20.00000000       0.00000000       0.00000000 </v>
     <v>       0.00000000      20.00000000       0.00000000 </v>
     <v>       0.00000000       0.00000000      20.00000000 </v>
    </varray>
    <i name="volume">   8000.00000000 </i>
    <varray name="rec_basis" >
     <v>       0.05000000       0.00000000       0.00000000 </v>
     <v>       0.00000000       0.05000000       0.00000000 </v>
     <v>       0.00000000       0.00000000       0.05000000 </v>
    </varray>
   </crystal>
   <varray name="positions" >
    <v>       0.47359007       0.55629540       0.38398521 </v>
    <v>       0.36977936       0.53902311       0.43678077 </v>
    <v>       0.38300606       0.51490942       0.55125953 </v>
    <v>       0.61562003       0.52466616       0.56634507 </v>
    <v>       0.54167931       0.45784055       0.39432845 </v>
    <v>       0.53100605       0.64831814       0.43567255 </v>
    <v>       0.55942804       0.43266761       0.51316426 </v>
    <v>       0.54871377       0.62384400       0.55465975 </v>
    <v>       0.44935810       0.41565963       0.56479874 </v>
    <v>       0.43869044       0.60613060       0.60615577 </v>
    <v>       0.41422605       0.35468713       0.53135573 </v>
    <v>       0.45787728       0.39877293       0.64037055 </v>
    <v>       0.60187805       0.36743732       0.52001819 </v>
    <v>       0.68272609       0.53527758       0.53475973 </v>
    <v>       0.62630912       0.50951296       0.63893671 </v>
    <v>       0.61027388       0.46841885       0.35894896 </v>
    <v>       0.50708232       0.39711483       0.35989341 </v>
    <v>       0.46238409       0.57144456       0.31128888 </v>
    <v>       0.58409529       0.68453383       0.58884588 </v>
    <v>       0.44711002       0.59106186       0.68212238 </v>
    <v>       0.39649143       0.67134661       0.60011410 </v>
    <v>       0.31552997       0.50434912       0.58248756 </v>
    <v>       0.33394000       0.48228723       0.40334402 </v>
    <v>       0.32732039       0.60032170       0.42895380 </v>
    <v>       0.48935152       0.71378325       0.42863555 </v>
    <v>       0.59950325       0.66069558       0.40069147 </v>
   </varray>
  </structure>
  <varray name="forces" >
   <v>      -0.01113838       0.00057366      -0.00576611 </v>
   <v>       0.01614864      -0.00096886       0.00848727 </v>
   <v>      -0.01113408       0.00069808      -0.00592206 </v>
   <v>      -0.01033904       0.00067211      -0.00516479 </v>
   <v>       0.00391420      -0.00473140       0.00476260 </v>
   <v>       0.00357840       0.00263271       0.00630670 </v>
   <v>       0.00706158       0.01498682       0.00752199 </v>
   <v>       0.00880149      -0.01583810       0.00084734 </v>
   <v>       0.00694740      -0.00321715      -0.00079158 </v>
   <v>       0.00659553       0.00390886       0.00086134 </v>
   <v>       0.00256507       0.00785919      -0.00026843 </v>
   <v>      -0.00526179       0.00679741      -0.00142992 </v>
   <v>      -0.00276108       0.00808315       0.00081765 </v>
   <v>      -0.00270314      -0.00085761       0.00387431 </v>
   <v>       0.00155991       0.00107285      -0.00447564 </v>
   <v>      -0.00545158       0.00658470      -0.00109204 </v>
   <v>      -0.00015841       0.00641496       0.00485222 </v>
   <v>      -0.00574117      -0.00045539       0.00036763 </v>
   <v>      -0.00166701      -0.00770843      -0.00279929 </v>
   <v>      -0.00432080      -0.00619739      -0.00419001 </v>
   <v>       0.00324878      -0.00680252      -0.00304975 </v>
   <v>      -0.00272661       0.00097833      -0.00524926 </v>
   <v>       0.00364668      -0.00331092       0.00125872 </v>
   <v>       0.00322113       0.00298038       0.00245255 </v>
   <v>       0.00075243      -0.00785288       0.00166036 </v>
   <v>      -0.00463817      -0.00630258      -0.00387179 </v>
  </varray>
  <varray name="stress" >
   <v>      -0.19073393       0.00163049       0.00142729 </v>
   <v>       0.00163048      -0.22001905      -0.00580743 </v>
   <v>       0.00142728      -0.00580744      -0.19305350 </v>
  </varray>
  <energy>
   <i name="e_fr_energy">    -99.96881441 </i>
   <i name="e_wo_entrp">    -99.96881441 </i>
   <i name="e_0_energy">     -0.00000000 </i>
  </energy>
  <kpoints>
   <generation param="Gamma">
    <v type="int" name="divisions">       1        1        1 </v>
    <v name="usershift">      0.00000000       0.00000000       0.00000000 </v>
    <v name="genvec1">      1.00000000       0.00000000       0.00000000 </v>
    <v name="genvec2">      0.00000000       1.00000000       0.00000000 </v>
    <v name="genvec3">      0.00000000       0.00000000       1.00000000 </v>
    <v name="shift">      0.00000000       0.00000000       0.00000000 </v>
   </generation>
   <varray name="kpointlist" >
    <v>       0.00000000       0.00000000       0.00000000 </v>
   </varray>
   <varray name="weights" >
    <v>       1.00000000 </v>
   </varray>
  </kpoints>
  <time name="totalsc">  262.99  263.50</time>
 </calculation>
 <calculation>
  <scstep>
   <time name="dav">    7.39    7.41</time>
   <time name="total">    8.69    8.71</time>
   <energy>
    <i name="alphaZ">      2.51538199 </i>
    <i name="ewald">   2596.55181441 </i>
    <i name="hartreedc">  -3528.44055630 </i>
    <i name="XCdc">    -38.84965701 </i>
    <i name="pawpsdc">   3676.65826354 </i>
    <i name="pawaedc">  -3521.41034143 </i>
    <i name="eentropy">     -0.00000000 </i>
    <i name="bandstr">   -528.88521679 </i>
    <i name="atom">   1241.89512738 </i>
    <i name="e_fr_energy">    -99.96518422 </i>
    <i name="e_wo_entrp">    -99.96518422 </i>
    <i name="e_0_energy">    -99.96518422 </i>
   </energy>
  </scstep>
  <scstep>
   <time name="dav">    8.82    8.84</time>
   <time name="total">   10.11   10.13</time>
   <energy>
    <i name="e_fr_energy">    -99.96556225 </i>
    <i name="e_wo_entrp">    -99.96556225 </i>
    <i name="e_0_energy">    -99.96556225 </i>
   </energy>
  </scstep>
  <scstep>
   <time name="dav">   10.19   10.21</time>
   <time name="total">   11.49   11.51</time>
   <energy>
    <i name="e_fr_energy">    -99.96555305 </i>
    <i name="e_wo_entrp">    -99.96555305 </i>
    <i name="e_0_energy">    -99.96555305 </i>
   </energy>
  </scstep>
  <scstep>
   <time name="dav">    8.10    8.12</time>
   <time name="total">    9.39    9.41</time>
   <energy>
    <i name="e_fr_energy">    -99.96555577 </i>
    <i name="e_wo_entrp">    -99.96555577 </i>
    <i name="e_0_energy">    -99.96555577 </i>
   </energy>
  </scstep>
  <scstep>
   <time name="dav">    9.55    9.54</time>
   <time name="total">   10.68   10.68</time>
   <energy>
    <i name="alphaZ">      2.51538199 </i>
    <i name="ewald">   2596.55181441 </i>
    <i name="hartreedc">  -3528.42143344 </i>
    <i name="XCdc">    -38.85274333 </i>
    <i name="pawpsdc">   3672.79184643 </i>
    <i name="pawaedc">  -3517.54369538 </i>
    <i name="eentropy">     -0.00000000 </i>
    <i name="bandstr">   -528.90185313 </i>
    <i name="atom">   1241.89512738 </i>
    <i name="e_fr_energy">    -99.96555507 </i>
    <i name="e_wo_entrp">    -99.96555507 </i>
    <i name="e_0_energy">    -99.96555507 </i>
   </energy>
  </scstep>
  <structure>
   <crystal>
    <varray name="basis" >
     <v>      20.00000000       0.00000000       0.00000000 </v>
     <v>       0.00000000      20.00000000       0.00000000 </v>
     <v>       0.00000000       0.00000000      20.00000000 </v>
    </varray>
    <i name="volume">   8000.00000000 </i>
    <varray name="rec_basis" >
     <v>       0.05000000       0.00000000       0.00000000 </v>
     <v>       0.00000000       0.05000000       0.00000000 </v>
     <v>       0.00000000       0.00000000       0.05000000 </v>
    </varray>
   </crystal>
   <varray name="positions" >
    <v>       0.47459007       0.55629540       0.38398521 </v>
    <v>       0.36977936       0.53902311       0.43678077 </v>
    <v>       0.38300606       0.51490942       0.55125953 </v>
    <v>       0.61562003       0.52466616       0.56634507 </v>
    <v>       0.54167931       0.45784055       0.39432845 </v>
    <v>       0.53100605       0.64831814       0.43567255 </v>
    <v>       0.55942804       0.43266761       0.51316426 </v>
    <v>       0.54871377       0.62384400       0.55465975 </v>
    <v>       0.44935810       0.41565963       0.56479874 </v>
    <v>       0.43869044       0.60613060       0.60615577 </v>
    <v>       0.41422605       0.35468713       0.53135573 </v>
    <v>       0.45787728       0.39877293       0.64037055 </v>
    <v>       0.60187805       0.36743732       0.52001819 </v>
    <v>       0.68272609       0.53527758       0.53475973 </v>
    <v>       0.62630912       0.50951296       0.63893671 </v>
    <v>       0.61027388       0.46841885       0.35894896 </v>
    <v>       0.50708232       0.39711483       0.35989341 </v>
    <v>       0.46238409       0.57144456       0.31128888 </v>
    <v>       0.58409529       0.68453383       0.58884588 </v>
    <v>       0.44711002       0.59106186       0.68212238 </v>
    <v>       0.39649143       0.67134661       0.60011410 </v>
    <v>       0.31552997       0.50434912       0.58248756 </v>
    <v>       0.33394000       0.48228723       0.40334402 </v>
    <v>       0.32732039       0.60032170       0.42895380 </v>
    <v>       0.48935152       0.71378325       0.42863555 </v>
    <v>       0.59950325       0.66069558       0.40069147 </v>
   </varray>
  </structure>
  <varray name="forces" >
   <v>      -0.31369401       0.00560524      -0.02920964 </v>
   <v>       0.15008447       0.01457720      -0.03663639 </v>
   <v>      -0.01970319       0.00183526      -0.01313595 </v>
   <v>      -0.00905853       0.00131694      -0.00652017 </v>
   <v>       0.07502056      -0.06914874       0.00719236 </v>
   <v>       0.06159332       0.05474076       0.03137493 </v>
   <v>       0.00642823       0.01426063       0.01129869 </v>
   <v>       0.00825450      -0.01627708       0.00402060 </v>
   <v>       0.00381499      -0.00104853       0.00025259 </v>
   <v>       0.00403455       0.00119635       0.00091066 </v>
   <v>       0.00332635       0.00741808      -0.00045006 </v>
   <v>      -0.00370806       0.00588368      -0.00163784 </v>
   <v>      -0.00284486       0.00890637      -0.00135722 </v>
   <v>      -0.00269918      -0.00093437       0.00398060 </v>
   <v>       0.00104468       0.00093717      -0.00462216 </v>
   <v>       0.00127907      -0.00407095       0.00075586 </v>
   <v>      -0.00467752       0.01573469       0.00478722 </v>
   <v>       0.02793356      -0.00913172       0.04205107 </v>
   <v>      -0.00160388      -0.00765654      -0.00462164 </v>
   <v>      -0.00299525      -0.00515858      -0.00392133 </v>
   <v>       0.00390252      -0.00626762      -0.00302457 </v>
   <v>      -0.00179448      -0.00029880       0.00076730 </v>
   <v>       0.00857971      -0.00199258      -0.00097486 </v>
   <v>       0.00959725       0.00352984      -0.00074604 </v>
   <v>      -0.00340172      -0.01748119      -0.00291126 </v>
   <v>       0.00128691       0.00352449       0.00237726 </v>
  </varray>
  <varray name="stress" >
   <v>      -0.21522433      -0.01061317       0.02975344 </v>
   <v>      -0.01061316      -0.18198120       0.00707821 </v>
   <v>       0.02975343       0.00707821      -0.21003398 </v>
  </varray>
  <energy>
   <i name="e_fr_energy">    -99.96555507 </i>
   <i name="e_wo_entrp">    -99.96555507 </i>
   <i name="e_0_energy">     -0.00000000 </i>
  </energy>
  <kpoints>
   <generation param="Gamma">
    <v type="int" name="divisions">       1        1        1 </v>
    <v name="usershift">      0.00000000       0.00000000       0.00000000 </v>
    <v name="genvec1">      1.00000000       0.00000000       0.00000000 </v>
    <v name="genvec2">      0.00000000       1.00000000       0.00000000 </v>
    <v name="genvec3">      0.00000000       0.00000000       1.00000000 </v>
    <v name="shift">      0.00000000       0.00000000       0.00000000 </v>
   </generation>
   <varray name="kpointlist" >
    <v>       0.00000000       0.00000000       0.00000000 </v>
   </varray>
   <varray name="weights" >
    <v>       1.00000000 </v>
   </varray>
  </kpoints>
  <time name="totalsc">   67.00   67.09</time>
 </calculation>
 <calculation>
  <scstep>
   <time name="dav">    7.43    7.43</time>
   <time name="total">    8.73    8.72</time>
   <energy>
    <i name="alphaZ">      2.51538199 </i>
    <i name="ewald">   2596.12183012 </i>
    <i name="hartreedc">  -3527.95511404 </i>
    <i name="XCdc">    -38.85049893 </i>
    <i name="pawpsdc">   3672.69882604 </i>
    <i name="pawaedc">  -3517.45068489 </i>
    <i name="eentropy">     -0.00000000 </i>
    <i name="bandstr">   -528.93936448 </i>
    <i name="atom">   1241.89512738 </i>
    <i name="e_fr_energy">    -99.96449681 </i>
    <i name="e_wo_entrp">    -99.96449681 </i>
    <i name="e_0_energy">    -99.96449681 </i>
   </energy>
  </scstep>
  <scstep>
   <time name="dav">    8.85    8.85</time>
   <time name="total">   10.14   10.14</time>
   <energy>
    <i name="e_fr_energy">    -99.96596793 </i>
    <i name="e_wo_entrp">    -99.96596793 </i>
    <i name="e_0_energy">    -99.96596793 </i>
   </energy>
  </scstep>
  <scstep>
   <time name="dav">    8.83    8.83</time>
   <time name="total">   10.13   10.12</time>
   <energy>
    <i name="e_fr_energy">    -99.96593592 </i>
    <i name="e_wo_entrp">    -99.96593592 </i>
    <i name="e_0_energy">    -99.96593592 </i>
   </energy>
  </scstep>
  <scstep>
   <time name="dav">    8.84    8.84</time>
   <time name="total">   10.13   10.13</time>
   <energy>
    <i name="e_fr_energy">    -99.96595211 </i>
    <i name="e_wo_entrp">    -99.96595211 </i>
    <i name="e_0_energy">    -99.96595211 </i>
   </energy>
  </scstep>
  <scstep>
   <time name="dav">    9.49    9.55</time>
   <time name="total">   10.78   10.84</time>
   <energy>
    <i name="e_fr_energy">    -99.96594844 </i>
    <i name="e_wo_entrp">    -99.96594844 </i>
    <i name="e_0_energy">    -99.96594844 </i>
   </energy>
  </scstep>
  <scstep>
   <time name="dav">    8.82    8.82</time>
   <time name="total">    9.83    9.82</time>
   <energy>
    <i name="alphaZ">      2.51538199 </i>
    <i name="ewald">   2596.12183012 </i>
    <i name="hartreedc">  -3527.99428409 </i>
    <i name="XCdc">    -38.84444574 </i>
    <i name="pawpsdc">   3681.00815078 </i>
    <i name="pawaedc">  -3525.76071385 </i>
    <i name="eentropy">     -0.00000000 </i>
    <i name="bandstr">   -528.90699479 </i>
    <i name="atom">   1241.89512738 </i>
    <i name="e_fr_energy">    -99.96594820 </i>
    <i name="e_wo_entrp">    -99.96594820 </i>
    <i name="e_0_energy">    -99.96594820 </i>
   </energy>
  </scstep>
  <structure>
   <crystal>
    <varray name="basis" >
     <v>      20.00000000       0.00000000       0.00000000 </v>
     <v>       0.00000000      20.00000000       0.00000000 </v>
     <v>       0.00000000       0.00000000      20.00000000 </v>
    </varray>
    <i name="volume">   8000.00000000 </i>
    <varray name="rec_basis" >
     <v>       0.05000000       0.00000000       0.00000000 </v>
     <v>       0.00000000       0.05000000       0.00000000 </v>
     <v>       0.00000000       0.00000000       0.05000000 </v>
    </varray>
   </crystal>
   <varray name="positions" >
    <v>       0.47259007       0.55629540       0.38398521 </v>
    <v>       0.36977936       0.53902311       0.43678077 </v>
    <v>       0.38300606       0.51490942       0.55125953 </v>
    <v>       0.61562003       0.52466616       0.56634507 </v>
    <v>       0.54167931       0.45784055       0.39432845 </v>
    <v>       0.53100605       0.64831814       0.43567255 </v>
    <v>       0.55942804       0.43266761       0.51316426 </v>
    <v>       0.54871377       0.62384400       0.55465975 </v>
    <v>       0.44935810       0.41565963       0.56479874 </v>
    <v>       0.43869044       0.60613060       0.60615577 </v>
    <v>       0.41422605       0.35468713       0.53135573 </v>
    <v>       0.45787728       0.39877293       0.64037055 </v>
    <v>       0.60187805       0.36743732       0.52001819 </v>
    <v>       0.68272609       0.53527758       0.53475973 </v>
    <v>       0.62630912       0.50951296       0.63893671 </v>
    <v>       0.61027388       0.46841885       0.35894896 </v>
    <v>       0.50708232       0.39711483       0.35989341 </v>
    <v>       0.46238409       0.57144456       0.31128888 </v>
    <v>       0.58409529       0.68453383       0.58884588 </v>
    <v>       0.44711002       0.59106186       0.68212238 </v>
    <v>       0.39649143       0.67134661       0.60011410 </v>
    <v>       0.31552997       0.50434912       0.58248756 </v>
    <v>       0.33394000       0.48228723       0.40334402 </v>
    <v>       0.32732039       0.60032170       0.42895380 </v>
    <v>       0.48935152       0.71378325       0.42863555 </v>
    <v>       0.59950325       0.66069558       0.40069147 </v>
   </varray>
  </structure>
  <varray name="forces" >
   <v>       0.29654192      -0.00059581       0.00799075 </v>
   <v>      -0.12599369      -0.01818301       0.05857527 </v>
   <v>      -0.00247432      -0.00042397       0.00128958 </v>
   <v>      -0.01164003       0.00003483      -0.00382564 </v>
   <v>      -0.06640014       0.05632820       0.00307337 </v>
   <v>      -0.05449681      -0.04767432      -0.01725296 </v>
   <v>       0.00774036       0.01569006       0.00374278 </v>
   <v>       0.00937951      -0.01537461      -0.00232737 </v>
   <v>       0.01002926      -0.00538637      -0.00188846 </v>
   <v>       0.00912052       0.00663120       0.00078315 </v>
   <v>       0.00184733       0.00831064      -0.00007185 </v>
   <v>      -0.00680163       0.00770658      -0.00127188 </v>
   <v>      -0.00261740       0.00723521       0.00303130 </v>
   <v>      -0.00265897      -0.00078331       0.00376595 </v>
   <v>       0.00210864       0.00118343      -0.00423557 </v>
   <v>      -0.01148957       0.01699734      -0.00320410 </v>
   <v>       0.00431227      -0.00286090       0.00482905 </v>
   <v>      -0.03848297       0.00756795      -0.03853350 </v>
   <v>      -0.00167447      -0.00775752      -0.00093241 </v>
   <v>      -0.00563531      -0.00721666      -0.00450443 </v>
   <v>       0.00263741      -0.00735476      -0.00306777 </v>
   <v>      -0.00371842       0.00224271      -0.01123953 </v>
   <v>      -0.00132955      -0.00448522       0.00365653 </v>
   <v>      -0.00317342       0.00221160       0.00574781 </v>
   <v>       0.00485561       0.00172999       0.00612662 </v>
   <v>      -0.00998612      -0.01577326      -0.01025668 </v>
  </varray>
  <varray name="stress" >
   <v>      -0.16447046       0.01421652      -0.02897026 </v>
   <v>       0.01421651      -0.25623894      -0.01862932 </v>
   <v>      -0.02897024      -0.01862933      -0.17565215 </v>
  </varray>
  <energy>
   <i name="e_fr_energy">    -99.96594820 </i>
   <i name="e_wo_entrp">    -99.96594820 </i>
   <i name="e_0_energy">     -0.00000000 </i>
  </energy>
  <kpoints>
   <generation param="Gamma">
    <v type="int" name="divisions">       1        1        1 </v>
    <v name="usershift">      0.00000000       0.00000000       0.00000000 </v>
    <v name="genvec1">      1.00000000       0.00000000       0.00000000 </v>
    <v name="genvec2">      0.00000000       1.00000000       0.00000000 </v>
    <v name="genvec3">      0.00000000       0.00000000       1.00000000 </v>
    <v name="shift">      0.00000000       0.00000000       0.00000000 </v>
   </generation>
   <varray name="kpointlist" >
    <v>       0.00000000       0.00000000       0.00000000 </v>
   </varray>
   <varray name="weights" >
    <v>       1.00000000 </v>
   </varray>
  </kpoints>
  <time name="totalsc">   76.40   76.45</time>
 </calculation>
 <calculation>
  <scstep>
   <time name="dav">    7.41    7.41</time>
   <time name="total">    8.71    8.70</time>
   <energy>
    <i name="alphaZ">      2.51538199 </i>
    <i name="ewald">   2595.96230940 </i>
    <i name="hartreedc">  -3527.84773359 </i>
    <i name="XCdc">    -38.84715889 </i>
    <i name="pawpsdc">   3680.98749703 </i>
    <i name="pawaedc">  -3525.74004096 </i>
    <i name="eentropy">     -0.00000000 </i>
    <i name="bandstr">   -528.89054491 </i>
    <i name="atom">   1241.89512738 </i>
    <i name="e_fr_energy">    -99.96516256 </i>
    <i name="e_wo_entrp">    -99.96516256 </i>
    <i name="e_0_energy">    -99.96516256 </i>
   </energy>
  </scstep>
  <scstep>
   <time name="dav">    9.52    9.52</time>
   <time name="total">   10.81   10.80</time>
   <energy>
    <i name="e_fr_energy">    -99.96586078 </i>
    <i name="e_wo_entrp">    -99.96586078 </i>
    <i name="e_0_energy">    -99.96586078 </i>
   </energy>
  </scstep>
  <scstep>
   <time name="dav">    8.80    8.80</time>
   <time name="total">   10.10   10.11</time>
   <energy>
    <i name="e_fr_energy">    -99.96585515 </i>
    <i name="e_wo_entrp">    -99.96585515 </i>
    <i name="e_0_energy">    -99.96585515 </i>
   </energy>
  </scstep>
  <scstep>
   <time name="dav">    8.10    8.12</time>
   <time name="total">    9.38    9.41</time>
   <energy>
    <i name="e_fr_energy">    -99.96586664 </i>
    <i name="e_wo_entrp">    -99.96586664 </i>
    <i name="e_0_energy">    -99.96586664 </i>
   </energy>
  </scstep>
  <scstep>
   <time name="dav">    9.50    9.52</time>
   <time name="total">   10.74   10.77</time>
   <energy>
    <i name="alphaZ">      2.51538199 </i>
    <i name="ewald">   2595.96230940 </i>
    <i name="hartreedc">  -3527.84609410 </i>
    <i name="XCdc">    -38.84765992 </i>
    <i name="pawpsdc">   3676.48828802 </i>
    <i name="pawaedc">  -3521.24036776 </i>
    <i name="eentropy">     -0.00000000 </i>
    <i name="bandstr">   -528.89285131 </i>
    <i name="atom">   1241.89512738 </i>
    <i name="e_fr_energy">    -99.96586631 </i>
    <i name="e_wo_entrp">    -99.96586631 </i>
    <i name="e_0_energy">    -99.96586631 </i>
   </energy>
  </scstep>
  <structure>
   <crystal>
    <varray name="basis" >
     <v>      20.00000000       0.00000000       0.00000000 </v>
     <v>       0.00000000      20.00000000       0.00000000 </v>
     <v>       0.00000000       0.00000000      20.00000000 </v>
    </varray>
    <i name="volume">   8000.00000000 </i>
    <varray name="rec_basis" >
     <v>       0.05000000       0.00000000       0.00000000 </v>
     <v>       0.00000000       0.05000000       0.00000000 </v>
     <v>       0.00000000       0.00000000       0.05000000 </v>
    </varray>
   </crystal>
   <varray name="positions" >
    <v>       0.47359007       0.55729540       0.38398521 </v>
    <v>       0.36977936       0.53902311       0.43678077 </v>
    <v>       0.38300606       0.51490942       0.55125953 </v>
    <v>       0.61562003       0.52466616       0.56634507 </v>
    <v>       0.54167931       0.45784055       0.39432845 </v>
    <v>       0.53100605       0.64831814       0.43567255 </v>
    <v>       0.55942804       0.43266761       0.51316426 </v>
    <v>       0.54871377       0.62384400       0.55465975 </v>
    <v>       0.44935810       0.41565963       0.56479874 </v>
    <v>       0.43869044       0.60613060       0.60615577 </v>
    <v>       0.41422605       0.35468713       0.53135573 </v>
    <v>       0.45787728       0.39877293       0.64037055 </v>
    <v>       0.60187805       0.36743732       0.52001819 </v>
    <v>       0.68272609       0.53527758       0.53475973 </v>
    <v>       0.62630912       0.50951296       0.63893671 </v>
    <v>       0.61027388       0.46841885       0.35894896 </v>
    <v>       0.50708232       0.39711483       0.35989341 </v>
    <v>       0.46238409       0.57144456       0.31128888 </v>
    <v>       0.58409529       0.68453383       0.58884588 </v>
    <v>       0.44711002       0.59106186       0.68212238 </v>
    <v>       0.39649143       0.67134661       0.60011410 </v>
    <v>       0.31552997       0.50434912       0.58248756 </v>
    <v>       0.33394000       0.48228723       0.40334402 </v>
    <v>       0.32732039       0.60032170       0.42895380 </v>
    <v>       0.48935152       0.71378325       0.42863555 </v>
    <v>       0.59950325       0.66069558       0.40069147 </v>
   </varray>
  </structure>
  <varray name="forces" >
   <v>      -0.01411294      -0.29420951       0.02207530 </v>
   <v>       0.03641959       0.03240969      -0.00111439 </v>
   <v>      -0.00908838       0.00035982      -0.00735041 </v>
   <v>      -0.00984628      -0.00397672      -0.00640494 </v>
   <v>      -0.05719511       0.10973170       0.00123775 </v>
   <v>       0.05457882       0.11145468       0.04622069 </v>
   <v>       0.00670134       0.01483316       0.00168192 </v>
   <v>       0.00681473      -0.02285737       0.00537059 </v>
   <v>       0.00937506      -0.00319868      -0.00026286 </v>
   <v>       0.00378907       0.00373911       0.00039432 </v>
   <v>       0.00216032       0.00801419      -0.00022557 </v>
   <v>      -0.00625100       0.00671872      -0.00090412 </v>
   <v>      -0.00192786       0.00731397       0.00425927 </v>
   <v>      -0.00276176       0.00008876       0.00408376 </v>
   <v>       0.00137830       0.00341423      -0.00393752 </v>
   <v>      -0.00014830       0.00256192      -0.00170518 </v>
   <v>      -0.00628223       0.01292307       0.00303459 </v>
   <v>      -0.01406253       0.03631438      -0.05388240 </v>
   <v>      -0.00277487      -0.00663397      -0.00828114 </v>
   <v>      -0.00318303      -0.00575729      -0.00452239 </v>
   <v>       0.00373959      -0.00661644      -0.00296448 </v>
   <v>      -0.00300290       0.00143400      -0.00549374 </v>
   <v>       0.01512803      -0.00143404      -0.00484971 </v>
   <v>      -0.01020721      -0.00014810       0.00960237 </v>
   <v>       0.00673280      -0.00018076       0.00692519 </v>
   <v>      -0.00597326      -0.00629851      -0.00298690 </v>
  </varray>
  <varray name="stress" >
   <v>      -0.20231012       0.03985864       0.01470724 </v>
   <v>       0.03985864      -0.22556949       0.01399915 </v>
   <v>       0.01470724       0.01399916      -0.17275421 </v>
  </varray>
  <energy>
   <i name="e_fr_energy">    -99.96586631 </i>
   <i name="e_wo_entrp">    -99.96586631 </i>
   <i name="e_0_energy">     -0.00000000 </i>
  </energy>
  <kpoints>
   <generation param="Gamma">
    <v type="int" name="divisions">       1        1        1 </v>
    <v name="usershift">      0.00000000       0.00000000       0.00000000 </v>
    <v name="genvec1">      1.00000000       0.00000000       0.00000000 </v>
    <v name="genvec2">      0.00000000       1.00000000       0.00000000 </v>
    <v name="genvec3">      0.00000000       0.00000000       1.00000000 </v>
    <v name="shift">      0.00000000       0.00000000       0.00000000 </v>
   </generation>
   <varray name="kpointlist" >
    <v>       0.00000000       0.00000000       0.00000000 </v>
   </varray>
   <varray name="weights" >
    <v>       1.00000000 </v>
   </varray>
  </kpoints>
  <time name="totalsc">   66.36   66.46</time>
 </calculation>
 <calculation>
  <scstep>
   <time name="dav">    7.39    7.41</time>
   <time name="total">    8.66    8.69</time>
   <energy>
    <i name="alphaZ">      2.51538199 </i>
    <i name="ewald">   2596.70947879 </i>
    <i name="hartreedc">  -3528.60420431 </i>
    <i name="XCdc">    -38.84436976 </i>
    <i name="pawpsdc">   3676.32027435 </i>
    <i name="pawaedc">  -3521.07235892 </i>
    <i name="eentropy">     -0.00000000 </i>
    <i name="bandstr">   -528.88368831 </i>
    <i name="atom">   1241.89512738 </i>
    <i name="e_fr_energy">    -99.96435879 </i>
    <i name="e_wo_entrp">    -99.96435879 </i>
    <i name="e_0_energy">    -99.96435879 </i>
   </energy>
  </scstep>
  <scstep>
   <time name="dav">    8.09    8.11</time>
   <time name="total">    9.37    9.40</time>
   <energy>
    <i name="e_fr_energy">    -99.96580444 </i>
    <i name="e_wo_entrp">    -99.96580444 </i>
    <i name="e_0_energy">    -99.96580444 </i>
   </energy>
  </scstep>
  <scstep>
   <time name="dav">    8.11    8.14</time>
   <time name="total">    9.40    9.42</time>
   <energy>
    <i name="e_fr_energy">    -99.96580015 </i>
    <i name="e_wo_entrp">    -99.96580015 </i>
    <i name="e_0_energy">    -99.96580015 </i>
   </energy>
  </scstep>
  <scstep>
   <time name="dav">    8.81    8.81</time>
   <time name="total">   10.10   10.10</time>
   <energy>
    <i name="e_fr_energy">    -99.96581743 </i>
    <i name="e_wo_entrp">    -99.96581743 </i>
    <i name="e_0_energy">    -99.96581743 </i>
   </energy>
  </scstep>
  <scstep>
   <time name="dav">    8.81    8.81</time>
   <time name="total">   10.10   10.10</time>
   <energy>
    <i name="e_fr_energy">    -99.96581272 </i>
    <i name="e_wo_entrp">    -99.96581272 </i>
    <i name="e_0_energy">    -99.96581272 </i>
   </energy>
  </scstep>
  <scstep>
   <time name="dav">    9.51    9.51</time>
   <time name="total">   10.51   10.50</time>
   <energy>
    <i name="alphaZ">      2.51538199 </i>
    <i name="ewald">   2596.70947879 </i>
    <i name="hartreedc">  -3528.57416680 </i>
    <i name="XCdc">    -38.84949934 </i>
    <i name="pawpsdc">   3677.18280009 </i>
    <i name="pawaedc">  -3521.93504846 </i>
    <i name="eentropy">     -0.00000000 </i>
    <i name="bandstr">   -528.90988599 </i>
    <i name="atom">   1241.89512738 </i>
    <i name="e_fr_energy">    -99.96581233 </i>
    <i name="e_wo_entrp">    -99.96581233 </i>
    <i name="e_0_energy">    -99.96581233 </i>
   </energy>
  </scstep>
  <structure>
   <crystal>
    <varray name="basis" >
     <v>      20.00000000       0.00000000       0.00000000 </v>
     <v>       0.00000000      20.00000000       0.00000000 </v>
     <v>       0.00000000       0.00000000      20.00000000 </v>
    </varray>
    <i name="volume">   8000.00000000 </i>
    <varray name="rec_basis" >
     <v>       0.05000000       0.00000000       0.00000000 </v>
     <v>       0.00000000       0.05000000       0.00000000 </v>
     <v>       0.00000000       0.00000000       0.05000000 </v>
    </varray>
   </crystal>
   <varray name="positions" >
    <v>       0.47359007       0.55529540       0.38398521 </v>
    <v>       0.36977936       0.53902311       0.43678077 </v>
    <v>       0.38300606       0.51490942       0.55125953 </v>
    <v>       0.61562003       0.52466616       0.56634507 </v>
    <v>       0.54167931       0.45784055       0.39432845 </v>
    <v>       0.53100605       0.64831814       0.43567255 </v>
    <v>       0.55942804       0.43266761       0.51316426 </v>
    <v>       0.54871377       0.62384400       0.55465975 </v>
    <v>       0.44935810       0.41565963       0.56479874 </v>
    <v>       0.43869044       0.60613060       0.60615577 </v>
    <v>       0.41422605       0.35468713       0.53135573 </v>
    <v>       0.45787728       0.39877293       0.64037055 </v>
    <v>       0.60187805       0.36743732       0.52001819 </v>
    <v>       0.68272609       0.53527758       0.53475973 </v>
    <v>       0.62630912       0.50951296       0.63893671 </v>
    <v>       0.61027388       0.46841885       0.35894896 </v>
    <v>       0.50708232       0.39711483       0.35989341 </v>
    <v>       0.46238409       0.57144456       0.31128888 </v>
    <v>       0.58409529       0.68453383       0.58884588 </v>
    <v>       0.44711002       0.59106186       0.68212238 </v>
    <v>       0.39649143       0.67134661       0.60011410 </v>
    <v>       0.31552997       0.50434912       0.58248756 </v>
    <v>       0.33394000       0.48228723       0.40334402 </v>
    <v>       0.32732039       0.60032170       0.42895380 </v>
    <v>       0.48935152       0.71378325       0.42863555 </v>
    <v>       0.59950325       0.66069558       0.40069147 </v>
   </varray>
  </structure>
  <varray name="forces" >
   <v>      -0.01996719       0.29757183      -0.03953569 </v>
   <v>      -0.00264585      -0.03426118       0.01769104 </v>
   <v>      -0.01312247       0.00096312      -0.00460230 </v>
   <v>      -0.01086149       0.00529860      -0.00404418 </v>
   <v>       0.07020763      -0.12519997       0.00891314 </v>
   <v>      -0.04328852      -0.10156548      -0.02988751 </v>
   <v>       0.00749544       0.01507095       0.01336421 </v>
   <v>       0.01082228      -0.00886759      -0.00368153 </v>
   <v>       0.00467078      -0.00332773      -0.00141948 </v>
   <v>       0.00953023       0.00417954       0.00117652 </v>
   <v>       0.00292475       0.00772530      -0.00030478 </v>
   <v>      -0.00432546       0.00688171      -0.00191688 </v>
   <v>      -0.00364219       0.00885255      -0.00262814 </v>
   <v>      -0.00262018      -0.00175759       0.00362421 </v>
   <v>       0.00173433      -0.00125268      -0.00494762 </v>
   <v>      -0.01094437       0.01054600      -0.00046844 </v>
   <v>       0.00610880      -0.00012622       0.00680000 </v>
   <v>       0.00295992      -0.03932144       0.05683664 </v>
   <v>      -0.00059605      -0.00875218       0.00271166 </v>
   <v>      -0.00548363      -0.00666276      -0.00380607 </v>
   <v>       0.00271233      -0.00695987      -0.00312983 </v>
   <v>      -0.00275294       0.00050691      -0.00491991 </v>
   <v>      -0.00749159      -0.00470960       0.00742110 </v>
   <v>       0.01662709       0.00597131      -0.00488382 </v>
   <v>      -0.00534018      -0.01469918      -0.00343994 </v>
   <v>      -0.00271147      -0.00610434      -0.00492238 </v>
  </varray>
  <varray name="stress" >
   <v>      -0.17771506      -0.03723131      -0.01084965 </v>
   <v>      -0.03723131      -0.21204988      -0.02423102 </v>
   <v>      -0.01084967      -0.02423104      -0.21341034 </v>
  </varray>
  <energy>
   <i name="e_fr_energy">    -99.96581233 </i>
   <i name="e_wo_entrp">    -99.96581233 </i>
   <i name="e_0_energy">     -0.00000000 </i>
  </energy>
  <kpoints>
   <generation param="Gamma">
    <v type="int" name="divisions">       1        1        1 </v>
    <v name="usershift">      0.00000000       0.00000000       0.00000000 </v>
    <v name="genvec1">      1.00000000       0.00000000       0.00000000 </v>
    <v name="genvec2">      0.00000000       1.00000000       0.00000000 </v>
    <v name="genvec3">      0.00000000       0.00000000       1.00000000 </v>
    <v name="shift">      0.00000000       0.00000000       0.00000000 </v>
   </generation>
   <varray name="kpointlist" >
    <v>       0.00000000       0.00000000       0.00000000 </v>
   </varray>
   <varray name="weights" >
    <v>       1.00000000 </v>
   </varray>
  </kpoints>
  <time name="totalsc">   74.80   74.87</time>
 </calculation>
 <calculation>
  <scstep>
   <time name="dav">    7.41    7.41</time>
   <time name="total">    8.69    8.70</time>
   <energy>
    <i name="alphaZ">      2.51538199 </i>
    <i name="ewald">   2598.10955190 </i>
    <i name="hartreedc">  -3529.99521441 </i>
    <i name="XCdc">    -38.84404985 </i>
    <i name="pawpsdc">   3677.12872010 </i>
    <i name="pawaedc">  -3521.88098831 </i>
    <i name="eentropy">     -0.00000000 </i>
    <i name="bandstr">   -528.89203621 </i>
    <i name="atom">   1241.89512738 </i>
    <i name="e_fr_energy">    -99.96350740 </i>
    <i name="e_wo_entrp">    -99.96350740 </i>
    <i name="e_0_energy">    -99.96350740 </i>
   </energy>
  </scstep>
  <scstep>
   <time name="dav">    8.83    8.83</time>
   <time name="total">   10.11   10.11</time>
   <energy>
    <i name="e_fr_energy">    -99.96442796 </i>
    <i name="e_wo_entrp">    -99.96442796 </i>
    <i name="e_0_energy">    -99.96442796 </i>
   </energy>
  </scstep>
  <scstep>
   <time name="dav">    8.13    8.12</time>
   <time name="total">    9.81    9.81</time>
   <energy>
    <i name="e_fr_energy">    -99.96440248 </i>
    <i name="e_wo_entrp">    -99.96440248 </i>
    <i name="e_0_energy">    -99.96440248 </i>
   </energy>
  </scstep>
  <scstep>
   <time name="dav">    8.80    8.80</time>
   <time name="total">   10.09   10.08</time>
   <energy>
    <i name="e_fr_energy">    -99.96441053 </i>
    <i name="e_wo_entrp">    -99.96441053 </i>
    <i name="e_0_energy">    -99.96441053 </i>
   </energy>
  </scstep>
  <scstep>
   <time name="dav">    8.11    8.11</time>
   <time name="total">    9.40    9.40</time>
   <energy>
    <i name="e_fr_energy">    -99.96440915 </i>
    <i name="e_wo_entrp">    -99.96440915 </i>
    <i name="e_0_energy">    -99.96440915 </i>
   </energy>
  </scstep>
  <scstep>
   <time name="dav">    9.51    9.51</time>
   <time name="total">   10.80   10.80</time>
   <energy>
    <i name="e_fr_energy">    -99.96441101 </i>
    <i name="e_wo_entrp">    -99.96441101 </i>
    <i name="e_0_energy">    -99.96441101 </i>
   </energy>
  </scstep>
  <scstep>
   <time name="dav">    6.72    6.71</time>
   <time name="total">    8.01    8.01</time>
   <energy>
    <i name="e_fr_energy">    -99.96441655 </i>
    <i name="e_wo_entrp">    -99.96441655 </i>
    <i name="e_0_energy">    -99.96441655 </i>
   </energy>
  </scstep>
  <scstep>
   <time name="dav">    8.13    8.13</time>
   <time name="total">    9.42    9.43</time>
   <energy>
    <i name="e_fr_energy">    -99.96442211 </i>
    <i name="e_wo_entrp">    -99.96442211 </i>
    <i name="e_0_energy">    -99.96442211 </i>
   </energy>
  </scstep>
  <scstep>
   <time name="dav">    6.73    6.73</time>
   <time name="total">    8.02    8.02</time>
   <energy>
    <i name="e_fr_energy">    -99.96442890 </i>
    <i name="e_wo_entrp">    -99.96442890 </i>
    <i name="e_0_energy">    -99.96442890 </i>
   </energy>
  </scstep>
  <scstep>
   <time name="dav">    8.09    8.11</time>
   <time name="total">    9.39    9.42</time>
   <energy>
    <i name="e_fr_energy">    -99.96443485 </i>
    <i name="e_wo_entrp">    -99.96443485 </i>
    <i name="e_0_energy">    -99.96443485 </i>
   </energy>
  </scstep>
  <scstep>
   <time name="dav">    8.11    8.13</time>
   <time name="total">    9.41    9.43</time>
   <energy>
    <i name="e_fr_energy">    -99.96443676 </i>
    <i name="e_wo_entrp">    -99.96443676 </i>
    <i name="e_0_energy">    -99.96443676 </i>
   </energy>
  </scstep>
  <scstep>
   <time name="dav">    6.71    6.75</time>
   <time name="total">    8.02    8.06</time>
   <energy>
    <i name="e_fr_energy">    -99.96443867 </i>
    <i name="e_wo_entrp">    -99.96443867 </i>
    <i name="e_0_energy">    -99.96443867 </i>
   </energy>
  </scstep>
  <scstep>
   <time name="dav">    7.38    7.40</time>
   <time name="total">    8.69    8.71</time>
   <energy>
    <i name="e_fr_energy">    -99.96443979 </i>
    <i name="e_wo_entrp">    -99.96443979 </i>
    <i name="e_0_energy">    -99.96443979 </i>
   </energy>
  </scstep>
  <scstep>
   <time name="dav">    6.69    6.70</time>
   <time name="total">    7.70    7.73</time>
   <energy>
    <i name="alphaZ">      2.51538199 </i>
    <i name="ewald">   2598.10955190 </i>
    <i name="hartreedc">  -3529.91779635 </i>
    <i name="XCdc">    -38.85403275 </i>
    <i name="pawpsdc">   3677.54694988 </i>
    <i name="pawaedc">  -3522.29952332 </i>
    <i name="eentropy">     -0.00000000 </i>
    <i name="bandstr">   -528.96009936 </i>
    <i name="atom">   1241.89512738 </i>
    <i name="e_fr_energy">    -99.96444062 </i>
    <i name="e_wo_entrp">    -99.96444062 </i>
    <i name="e_0_energy">    -99.96444062 </i>
   </energy>
  </scstep>
  <structure>
   <crystal>
    <varray name="basis" >
     <v>      20.00000000       0.00000000       0.00000000 </v>
     <v>       0.00000000      20.00000000       0.00000000 </v>
     <v>       0.00000000       0.00000000      20.00000000 </v>
    </varray>
    <i name="volume">   8000.00000000 </i>
    <varray name="rec_basis" >
     <v>       0.05000000       0.00000000       0.00000000 </v>
     <v>       0.00000000       0.05000000       0.00000000 </v>
     <v>       0.00000000       0.00000000       0.05000000 </v>
    </varray>
   </crystal>
   <varray name="positions" >
    <v>       0.47359007       0.55629540       0.38498521 </v>
    <v>       0.36977936       0.53902311       0.43678077 </v>
    <v>       0.38300606       0.51490942       0.55125953 </v>
    <v>       0.61562003       0.52466616       0.56634507 </v>
    <v>       0.54167931       0.45784055       0.39432845 </v>
    <v>       0.53100605       0.64831814       0.43567255 </v>
    <v>       0.55942804       0.43266761       0.51316426 </v>
    <v>       0.54871377       0.62384400       0.55465975 </v>
    <v>       0.44935810       0.41565963       0.56479874 </v>
    <v>       0.43869044       0.60613060       0.60615577 </v>
    <v>       0.41422605       0.35468713       0.53135573 </v>
    <v>       0.45787728       0.39877293       0.64037055 </v>
    <v>       0.60187805       0.36743732       0.52001819 </v>
    <v>       0.68272609       0.53527758       0.53475973 </v>
    <v>       0.62630912       0.50951296       0.63893671 </v>
    <v>       0.61027388       0.46841885       0.35894896 </v>
    <v>       0.50708232       0.39711483       0.35989341 </v>
    <v>       0.46238409       0.57144456       0.31128888 </v>
    <v>       0.58409529       0.68453383       0.58884588 </v>
    <v>       0.44711002       0.59106186       0.68212238 </v>
    <v>       0.39649143       0.67134661       0.60011410 </v>
    <v>       0.31552997       0.50434912       0.58248756 </v>
    <v>       0.33394000       0.48228723       0.40334402 </v>
    <v>       0.32732039       0.60032170       0.42895380 </v>
    <v>       0.48935152       0.71378325       0.42863555 </v>
    <v>       0.59950325       0.66069558       0.40069147 </v>
   </varray>
  </structure>
  <varray name="forces" >
   <v>      -0.02630119       0.02693319      -0.42738110 </v>
   <v>      -0.04641302      -0.01109065       0.06907076 </v>
   <v>      -0.02260740      -0.00097302      -0.00209019 </v>
   <v>      -0.01111597      -0.00058208      -0.00475306 </v>
   <v>       0.01369878      -0.01961342       0.03343344 </v>
   <v>       0.03457812       0.05350616       0.05887397 </v>
   <v>       0.01437334       0.00480242       0.00426276 </v>
   <v>       0.01466285      -0.00655282       0.00444330 </v>
   <v>       0.00833971      -0.00306807      -0.00100999 </v>
   <v>       0.00680732       0.00394064       0.00042548 </v>
   <v>       0.00226384       0.00784257      -0.00038012 </v>
   <v>      -0.00574385       0.00710814      -0.00148178 </v>
   <v>      -0.00210789       0.00713787       0.00605724 </v>
   <v>      -0.00261240      -0.00060315       0.00374443 </v>
   <v>       0.00163937       0.00161398      -0.00443843 </v>
   <v>      -0.01129373       0.01375386      -0.00143481 </v>
   <v>      -0.00456216       0.01421209       0.00459286 </v>
   <v>       0.03192478      -0.05224180       0.27826419 </v>
   <v>      -0.00140607      -0.00856672       0.00045687 </v>
   <v>      -0.00429863      -0.00635860      -0.00457541 </v>
   <v>       0.00314405      -0.00669364      -0.00312431 </v>
   <v>      -0.00215928       0.00038130      -0.00193112 </v>
   <v>       0.01321422      -0.00204471      -0.00409088 </v>
   <v>       0.00739725       0.00384105       0.00015330 </v>
   <v>      -0.00023667      -0.01242895       0.00022117 </v>
   <v>      -0.01118535      -0.01425565      -0.00730857 </v>
  </varray>
  <varray name="stress" >
   <v>      -0.16329204       0.01446697      -0.01311104 </v>
   <v>       0.01446698      -0.20363249       0.01305499 </v>
   <v>      -0.01311104       0.01305498      -0.24138226 </v>
  </varray>
  <energy>
   <i name="e_fr_energy">    -99.96444062 </i>
   <i name="e_wo_entrp">    -99.96444062 </i>
   <i name="e_0_energy">     -0.00000000 </i>
  </energy>
  <kpoints>
   <generation param="Gamma">
    <v type="int" name="divisions">       1        1        1 </v>
    <v name="usershift">      0.00000000       0.00000000       0.00000000 </v>
    <v name="genvec1">      1.00000000       0.00000000       0.00000000 </v>
    <v name="genvec2">      0.00000000       1.00000000       0.00000000 </v>
    <v name="genvec3">      0.00000000       0.00000000       1.00000000 </v>
    <v name="shift">      0.00000000       0.00000000       0.00000000 </v>
   </generation>
   <varray name="kpointlist" >
    <v>       0.00000000       0.00000000       0.00000000 </v>
   </varray>
   <varray name="weights" >
    <v>       1.00000000 </v>
   </varray>
  </kpoints>
  <time name="totalsc">  144.23  144.40</time>
 </calculation>
 <calculation>
  <scstep>
   <time name="dav">    7.37    7.41</time>
   <time name="total">    8.67    8.72</time>
   <energy>
    <i name="alphaZ">      2.51538199 </i>
    <i name="ewald">   2594.57033982 </i>
    <i name="hartreedc">  -3526.31689738 </i>
    <i name="XCdc">    -38.86829525 </i>
    <i name="pawpsdc">   3677.54852270 </i>
    <i name="pawaedc">  -3522.30109572 </i>
    <i name="eentropy">     -0.00000000 </i>
    <i name="bandstr">   -529.00536879 </i>
    <i name="atom">   1241.89512738 </i>
    <i name="e_fr_energy">    -99.96228524 </i>
    <i name="e_wo_entrp">    -99.96228524 </i>
    <i name="e_0_energy">    -99.96228524 </i>
   </energy>
  </scstep>
  <scstep>
   <time name="dav">    8.79    8.81</time>
   <time name="total">   10.08   10.11</time>
   <energy>
    <i name="e_fr_energy">    -99.96455747 </i>
    <i name="e_wo_entrp">    -99.96455747 </i>
    <i name="e_0_energy">    -99.96455747 </i>
   </energy>
  </scstep>
  <scstep>
   <time name="dav">    9.52    9.54</time>
   <time name="total">   10.80   10.83</time>
   <energy>
    <i name="e_fr_energy">    -99.96440354 </i>
    <i name="e_wo_entrp">    -99.96440354 </i>
    <i name="e_0_energy">    -99.96440354 </i>
   </energy>
  </scstep>
  <scstep>
   <time name="dav">    8.79    8.81</time>
   <time name="total">   10.07   10.09</time>
   <energy>
    <i name="e_fr_energy">    -99.96440319 </i>
    <i name="e_wo_entrp">    -99.96440319 </i>
    <i name="e_0_energy">    -99.96440319 </i>
   </energy>
  </scstep>
  <scstep>
   <time name="dav">    8.79    8.82</time>
   <time name="total">   10.08   10.11</time>
   <energy>
    <i name="e_fr_energy">    -99.96439372 </i>
    <i name="e_wo_entrp">    -99.96439372 </i>
    <i name="e_0_energy">    -99.96439372 </i>
   </energy>
  </scstep>
  <scstep>
   <time name="dav">    8.81    8.83</time>
   <time name="total">   10.09   10.12</time>
   <energy>
    <i name="e_fr_energy">    -99.96439479 </i>
    <i name="e_wo_entrp">    -99.96439479 </i>
    <i name="e_0_energy">    -99.96439479 </i>
   </energy>
  </scstep>
  <scstep>
   <time name="dav">    7.40    7.43</time>
   <time name="total">    8.68    8.71</time>
   <energy>
    <i name="e_fr_energy">    -99.96440722 </i>
    <i name="e_wo_entrp">    -99.96440722 </i>
    <i name="e_0_energy">    -99.96440722 </i>
   </energy>
  </scstep>
  <scstep>
   <time name="dav">    8.11    8.10</time>
   <time name="total">    9.81    9.80</time>
   <energy>
    <i name="e_fr_energy">    -99.96442688 </i>
    <i name="e_wo_entrp">    -99.96442688 </i>
    <i name="e_0_energy">    -99.96442688 </i>
   </energy>
  </scstep>
  <scstep>
   <time name="dav">    8.73    8.82</time>
   <time name="total">   10.02   10.11</time>
   <energy>
    <i name="e_fr_energy">    -99.96444133 </i>
    <i name="e_wo_entrp">    -99.96444133 </i>
    <i name="e_0_energy">    -99.96444133 </i>
   </energy>
  </scstep>
  <scstep>
   <time name="dav">    7.41    7.43</time>
   <time name="total">    8.70    8.72</time>
   <energy>
    <i name="e_fr_energy">    -99.96446339 </i>
    <i name="e_wo_entrp">    -99.96446339 </i>
    <i name="e_0_energy">    -99.96446339 </i>
   </energy>
  </scstep>
  <scstep>
   <time name="dav">    8.11    8.13</time>
   <time name="total">    9.39    9.42</time>
   <energy>
    <i name="e_fr_energy">    -99.96446787 </i>
    <i name="e_wo_entrp">    -99.96446787 </i>
    <i name="e_0_energy">    -99.96446787 </i>
   </energy>
  </scstep>
  <scstep>
   <time name="dav">    6.71    6.95</time>
   <time name="total">    8.00    8.25</time>
   <energy>
    <i name="e_fr_energy">    -99.96447595 </i>
    <i name="e_wo_entrp">    -99.96447595 </i>
    <i name="e_0_energy">    -99.96447595 </i>
   </energy>
  </scstep>
  <scstep>
   <time name="dav">    7.43    7.44</time>
   <time name="total">    8.74    8.80</time>
   <energy>
    <i name="e_fr_energy">    -99.96447935 </i>
    <i name="e_wo_entrp">    -99.96447935 </i>
    <i name="e_0_energy">    -99.96447935 </i>
   </energy>
  </scstep>
  <scstep>
   <time name="dav">    6.73    6.73</time>
   <time name="total">    8.05    8.04</time>
   <energy>
    <i name="e_fr_energy">    -99.96448163 </i>
    <i name="e_wo_entrp">    -99.96448163 </i>
    <i name="e_0_energy">    -99.96448163 </i>
   </energy>
  </scstep>
  <scstep>
   <time name="dav">    7.40    7.41</time>
   <time name="total">    8.92    9.03</time>
   <energy>
    <i name="e_fr_energy">    -99.96448269 </i>
    <i name="e_wo_entrp">    -99.96448269 </i>
    <i name="e_0_energy">    -99.96448269 </i>
   </energy>
  </scstep>
  <scstep>
   <time name="dav">    6.65    6.73</time>
   <time name="total">    7.66    7.74</time>
   <energy>
    <i name="alphaZ">      2.51538199 </i>
    <i name="ewald">   2594.57033982 </i>
    <i name="hartreedc">  -3526.50128912 </i>
    <i name="XCdc">    -38.84278795 </i>
    <i name="pawpsdc">   3675.97628553 </i>
    <i name="pawaedc">  -3520.72813167 </i>
    <i name="eentropy">     -0.00000000 </i>
    <i name="bandstr">   -528.84940922 </i>
    <i name="atom">   1241.89512738 </i>
    <i name="e_fr_energy">    -99.96448325 </i>
    <i name="e_wo_entrp">    -99.96448325 </i>
    <i name="e_0_energy">    -99.96448325 </i>
   </energy>
  </scstep>
  <structure>
   <crystal>
    <varray name="basis" >
     <v>      20.00000000       0.00000000       0.00000000 </v>
[...]
    <v name="genvec3">      0.00000000       0.00000000       1.00000000 </v>
    <v name="shift">      0.00000000       0.00000000       0.00000000 </v>
   </generation>
   <varray name="kpointlist" >
    <v>       0.00000000       0.00000000       0.00000000 </v>
   </varray>
   <varray name="weights" >
    <v>       1.00000000 </v>
   </varray>
  </kpoints>
  <time name="totalsc">   63.43   63.47</time>
  <eigenvalues>
   <array>
    <dimension dim="1">band</dimension>
    <dimension dim="2">kpoint</dimension>
    <dimension dim="3">spin</dimension>
    <field>eigene</field>
    <field>occ</field>
    <set>
     <set comment="spin 1">
      <set comment="kpoint 1">
       <r>  -15.2227    1.0000 </r>
       <r>  -14.4073    1.0000 </r>
       <r>  -14.2062    1.0000 </r>
       <r>  -13.9704    1.0000 </r>
       <r>  -13.3190    1.0000 </r>
       <r>  -12.9322    1.0000 </r>
       <r>  -11.9630    1.0000 </r>
       <r>  -11.5761    1.0000 </r>
       <r>  -11.5414    1.0000 </r>
       <r>  -10.6246    1.0000 </r>
       <r>   -8.9844    1.0000 </r>
       <r>   -8.6353    1.0000 </r>
       <r>   -8.6125    1.0000 </r>
       <r>   -8.5316    1.0000 </r>
       <r>   -8.1888    1.0000 </r>
       <r>   -8.1293    1.0000 </r>
       <r>   -8.0398    1.0000 </r>
       <r>   -7.9195    1.0000 </r>
       <r>   -7.9053    1.0000 </r>
       <r>   -7.7849    1.0000 </r>
       <r>   -6.8531    1.0000 </r>
       <r>   -6.7606    1.0000 </r>
       <r>   -6.5526    1.0000 </r>
       <r>   -6.4017    1.0000 </r>
       <r>   -6.3935    1.0000 </r>
       <r>   -6.3393    1.0000 </r>
       <r>   -6.3352    1.0000 </r>
       <r>   -6.3069    1.0000 </r>
       <r>   -1.6274    0.0000 </r>
       <r>   -1.4371    0.0000 </r>
       <r>   -1.3479    0.0000 </r>
       <r>   -1.2598    0.0000 </r>
       <r>   -1.2508    0.0000 </r>
       <r>   -1.2423    0.0000 </r>
       <r>   -1.0549    0.0000 </r>
       <r>   -1.0455    0.0000 </r>
       <r>   -0.8074    0.0000 </r>
       <r>   -0.6142    0.0000 </r>
       <r>   -0.3616    0.0000 </r>
       <r>   -0.2096    0.0000 </r>
       <r>   -0.1712    0.0000 </r>
       <r>   -0.0831    0.0000 </r>
       <r>    0.0916    0.0000 </r>
       <r>    0.1174    0.0000 </r>
       <r>    0.1400    0.0000 </r>
       <r>    0.1418    0.0000 </r>
       <r>    0.1884    0.0000 </r>
       <r>    0.2031    0.0000 </r>
      </set>
     </set>
    </set>
   </array>
  </eigenvalues>
  <separator name="orbital magnetization" >
   <v name="MAGDIPOLOUT">      0.00000000      0.00000000      0.00000000</v>
  </separator>
  <dos>
   <i name="efermi">     -5.37291719 </i>
   <total>
    <array>
     <dimension dim="1">gridpoints</dimension>
     <dimension dim="2">spin</dimension>
     <field>energy</field>
     <field>total</field>
     <field>integrated</field>
     <set>
      <set comment="spin 1">
       <r>   -17.2227     0.0000     0.0000 </r>
       <r>   -17.1580     0.0000     0.0000 </r>
       <r>   -17.0932     0.0000     0.0000 </r>
       <r>   -17.0285     0.0000     0.0000 </r>
       <r>   -16.9637     0.0000     0.0000 </r>
       <r>   -16.8989     0.0000     0.0000 </r>
       <r>   -16.8342     0.0000     0.0000 </r>
       <r>   -16.7694     0.0000     0.0000 </r>
       <r>   -16.7047     0.0000     0.0000 </r>
       <r>   -16.6399     0.0000     0.0000 </r>
       <r>   -16.5752     0.0000     0.0000 </r>
       <r>   -16.5104     0.0000     0.0000 </r>
       <r>   -16.4457     0.0000     0.0000 </r>
       <r>   -16.3809     0.0000     0.0000 </r>
       <r>   -16.3162     0.0000     0.0000 </r>
       <r>   -16.2514     0.0000     0.0000 </r>
       <r>   -16.1867     0.0000     0.0000 </r>
       <r>   -16.1219     0.0000     0.0000 </r>
       <r>   -16.0572     0.0000     0.0000 </r>
       <r>   -15.9924     0.0000     0.0000 </r>
       <r>   -15.9277     0.0000     0.0000 </r>
       <r>   -15.8629     0.0001     0.0000 </r>
       <r>   -15.7982     0.0006     0.0000 </r>
       <r>   -15.7334     0.0040     0.0003 </r>
       <r>   -15.6686     0.0202     0.0016 </r>
       <r>   -15.6039     0.0836     0.0070 </r>
       <r>   -15.5391     0.2814     0.0253 </r>
       <r>   -15.4744     0.7703     0.0751 </r>
       <r>   -15.4096     1.7159     0.1862 </r>
       <r>   -15.3449     3.1103     0.3876 </r>
       <r>   -15.2801     4.5879     0.6847 </r>
       <r>   -15.2154     5.5075     1.0413 </r>
       <r>   -15.1506     5.3805     1.3897 </r>
       <r>   -15.0859     4.2779     1.6667 </r>
       <r>   -15.0211     2.7681     1.8460 </r>
       <r>   -14.9564     1.4588     1.9404 </r>
       <r>   -14.8916     0.6324     1.9814 </r>
       <r>   -14.8269     0.2548     1.9979 </r>
       <r>   -14.7621     0.2034     2.0111 </r>
       <r>   -14.6974     0.4555     2.0406 </r>
       <r>   -14.6326     1.1284     2.1136 </r>
       <r>   -14.5679     2.3648     2.2667 </r>
       <r>   -14.5031     4.1271     2.5340 </r>
       <r>   -14.4383     6.0812     2.9278 </r>
       <r>   -14.3736     7.7448     3.4292 </r>
       <r>   -14.3088     8.7904     3.9984 </r>
       <r>   -14.2441     9.1886     4.5934 </r>
       <r>   -14.1793     9.1125     5.1835 </r>
       <r>   -14.1146     8.7893     5.7526 </r>
       <r>   -14.0498     8.3638     6.2942 </r>
       <r>   -13.9851     7.7607     6.7967 </r>
       <r>   -13.9203     6.7379     7.2330 </r>
       <r>   -13.8556     5.2060     7.5701 </r>
       <r>   -13.7908     3.4483     7.7934 </r>
       <r>   -13.7261     1.9439     7.9193 </r>
       <r>   -13.6613     1.0387     7.9865 </r>
       <r>   -13.5966     0.8481     8.0414 </r>
       <r>   -13.5318     1.3742     8.1304 </r>
       <r>   -13.4671     2.5391     8.2948 </r>
       <r>   -13.4023     4.0416     8.5565 </r>
       <r>   -13.3376     5.2987     8.8996 </r>
       <r>   -13.2728     5.7504     9.2720 </r>
       <r>   -13.2080     5.3484     9.6183 </r>
       <r>   -13.1433     4.6809     9.9214 </r>
       <r>   -13.0785     4.4833    10.2117 </r>
       <r>   -13.0138     4.9640    10.5332 </r>
       <r>   -12.9490     5.6104    10.8964 </r>
       <r>   -12.8843     5.6646    11.2632 </r>
       <r>   -12.8195     4.7997    11.5740 </r>
       <r>   -12.7548     3.3405    11.7903 </r>
       <r>   -12.6900     1.8973    11.9132 </r>
       <r>   -12.6253     0.8776    11.9700 </r>
       <r>   -12.5605     0.3307    11.9914 </r>
       <r>   -12.4958     0.1034    11.9981 </r>
       <r>   -12.4310     0.0371    12.0005 </r>
       <r>   -12.3663     0.0578    12.0043 </r>
       <r>   -12.3015     0.1911    12.0167 </r>
       <r>   -12.2368     0.5590    12.0529 </r>
       <r>   -12.1720     1.3362    12.1394 </r>
       <r>   -12.1073     2.6009    12.3078 </r>
       <r>   -12.0425     4.1289    12.5752 </r>
       <r>   -11.9777     5.3753    12.9232 </r>
       <r>   -11.9130     5.8481    13.3019 </r>
       <r>   -11.8482     5.6387    13.6670 </r>
       <r>   -11.7835     5.5275    14.0249 </r>
       <r>   -11.7187     6.3901    14.4387 </r>
       <r>   -11.6540     8.3395    14.9787 </r>
       <r>   -11.5892    10.4098    15.6528 </r>
       <r>   -11.5245    11.1999    16.3780 </r>
       <r>   -11.4597     9.9965    17.0253 </r>
       <r>   -11.3950     7.3166    17.4991 </r>
       <r>   -11.3302     4.3766    17.7825 </r>
       <r>   -11.2655     2.1376    17.9209 </r>
       <r>   -11.2007     0.8527    17.9761 </r>
       <r>   -11.1360     0.2811    17.9943 </r>
       <r>   -11.0712     0.0935    18.0003 </r>
       <r>   -11.0065     0.0985    18.0067 </r>
       <r>   -10.9417     0.2811    18.0249 </r>
       <r>   -10.8770     0.7638    18.0744 </r>
       <r>   -10.8122     1.7040    18.1847 </r>
       <r>   -10.7474     3.0950    18.3851 </r>
       <r>   -10.6827     4.5748    18.6814 </r>
       <r>   -10.6179     5.5030    19.0377 </r>
       <r>   -10.5532     5.3872    19.3865 </r>
       <r>   -10.4884     4.2920    19.6645 </r>
       <r>   -10.4237     2.7828    19.8446 </r>
       <r>   -10.3589     1.4683    19.9397 </r>
       <r>   -10.2942     0.6304    19.9805 </r>
       <r>   -10.2294     0.2202    19.9948 </r>
       <r>   -10.1647     0.0626    19.9989 </r>
       <r>   -10.0999     0.0145    19.9998 </r>
       <r>   -10.0352     0.0027    20.0000 </r>
       <r>    -9.9704     0.0004    20.0000 </r>
       <r>    -9.9057     0.0001    20.0000 </r>
       <r>    -9.8409     0.0000    20.0000 </r>
       <r>    -9.7762     0.0000    20.0000 </r>
       <r>    -9.7114     0.0000    20.0000 </r>
       <r>    -9.6467     0.0000    20.0000 </r>
       <r>    -9.5819     0.0003    20.0000 </r>
       <r>    -9.5171     0.0022    20.0002 </r>
       <r>    -9.4524     0.0119    20.0009 </r>
       <r>    -9.3876     0.0528    20.0044 </r>
       <r>    -9.3229     0.1907    20.0167 </r>
       <r>    -9.2581     0.5600    20.0530 </r>
       <r>    -9.1934     1.3391    20.1397 </r>
       <r>    -9.1286     2.6104    20.3087 </r>
       <r>    -9.0639     4.1642    20.5784 </r>
       <r>    -8.9991     5.5019    20.9346 </r>
       <r>    -8.9344     6.2359    21.3384 </r>
       <r>    -8.8696     6.6131    21.7666 </r>
       <r>    -8.8049     7.5192    22.2535 </r>
       <r>    -8.7401     9.7059    22.8820 </r>
       <r>    -8.6754    12.8645    23.7150 </r>
       <r>    -8.6106    15.5388    24.7212 </r>
       <r>    -8.5459    16.1748    25.7685 </r>
       <r>    -8.4811    14.4443    26.7038 </r>
       <r>    -8.4164    11.6224    27.4564 </r>
       <r>    -8.3516     9.6944    28.0842 </r>
       <r>    -8.2868    10.0119    28.7325 </r>
       <r>    -8.2221    12.5462    29.5449 </r>
       <r>    -8.1573    16.1517    30.5907 </r>
       <r>    -8.0926    19.4709    31.8515 </r>
       <r>    -8.0278    21.6731    33.2549 </r>
       <r>    -7.9631    22.4841    34.7108 </r>
       <r>    -7.8983    21.7838    36.1214 </r>
       <r>    -7.8336    19.4667    37.3819 </r>
       <r>    -7.7688    15.7251    38.4001 </r>
       <r>    -7.7041    11.2568    39.1290 </r>
       <r>    -7.6393     7.0238    39.5838 </r>
       <r>    -7.5746     3.7684    39.8279 </r>
       <r>    -7.5098     1.7182    39.9391 </r>
       <r>    -7.4451     0.6594    39.9818 </r>
       <r>    -7.3803     0.2135    39.9956 </r>
       <r>    -7.3156     0.0707    40.0002 </r>
       <r>    -7.2508     0.0784    40.0053 </r>
       <r>    -7.1861     0.2453    40.0212 </r>
       <r>    -7.1213     0.7344    40.0687 </r>
       <r>    -7.0565     1.8275    40.1871 </r>
       <r>    -6.9918     3.7653    40.4309 </r>
       <r>    -6.9270     6.4573    40.8490 </r>
       <r>    -6.8623     9.3061    41.4516 </r>
       <r>    -6.7975    11.4851    42.1953 </r>
       <r>    -6.7328    12.6203    43.0125 </r>
       <r>    -6.6680    13.2798    43.8724 </r>
       <r>    -6.6033    14.7115    44.8250 </r>
       <r>    -6.5385    17.9315    45.9861 </r>
       <r>    -6.4738    22.7661    47.4603 </r>
       <r>    -6.4090    27.4942    49.2406 </r>
       <r>    -6.3443    29.5757    51.1557 </r>
       <r>    -6.2795    27.3270    52.9252 </r>
       <r>    -6.2148    21.2747    54.3028 </r>
       <r>    -6.1500    13.8088    55.1969 </r>
       <r>    -6.0853     7.4268    55.6778 </r>
       <r>    -6.0205     3.2972    55.8913 </r>
       <r>    -5.9558     1.2052    55.9694 </r>
       <r>    -5.8910     0.3621    55.9928 </r>
       <r>    -5.8262     0.0893    55.9986 </r>
       <r>    -5.7615     0.0180    55.9998 </r>
       <r>    -5.6967     0.0030    56.0000 </r>
       <r>    -5.6320     0.0004    56.0000 </r>
       <r>    -5.5672     0.0000    56.0000 </r>
       <r>    -5.5025     0.0000    56.0000 </r>
       <r>    -5.4377     0.0000    56.0000 </r>
       <r>    -5.3730     0.0000    56.0000 </r>
       <r>    -5.3082     0.0000    56.0000 </r>
       <r>    -5.2435     0.0000    56.0000 </r>
       <r>    -5.1787     0.0000    56.0000 </r>
       <r>    -5.1140     0.0000    56.0000 </r>
       <r>    -5.0492     0.0000    56.0000 </r>
       <r>    -4.9845     0.0000    56.0000 </r>
       <r>    -4.9197     0.0000    56.0000 </r>
       <r>    -4.8550     0.0000    56.0000 </r>
       <r>    -4.7902     0.0000    56.0000 </r>
       <r>    -4.7255     0.0000    56.0000 </r>
       <r>    -4.6607     0.0000    56.0000 </r>
       <r>    -4.5959     0.0000    56.0000 </r>
       <r>    -4.5312     0.0000    56.0000 </r>
       <r>    -4.4664     0.0000    56.0000 </r>
       <r>    -4.4017     0.0000    56.0000 </r>
       <r>    -4.3369     0.0000    56.0000 </r>
       <r>    -4.2722     0.0000    56.0000 </r>
       <r>    -4.2074     0.0000    56.0000 </r>
       <r>    -4.1427     0.0000    56.0000 </r>
       <r>    -4.0779     0.0000    56.0000 </r>
       <r>    -4.0132     0.0000    56.0000 </r>
       <r>    -3.9484     0.0000    56.0000 </r>
       <r>    -3.8837     0.0000    56.0000 </r>
       <r>    -3.8189     0.0000    56.0000 </r>
       <r>    -3.7542     0.0000    56.0000 </r>
       <r>    -3.6894     0.0000    56.0000 </r>
       <r>    -3.6247     0.0000    56.0000 </r>
       <r>    -3.5599     0.0000    56.0000 </r>
       <r>    -3.4952     0.0000    56.0000 </r>
       <r>    -3.4304     0.0000    56.0000 </r>
       <r>    -3.3656     0.0000    56.0000 </r>
       <r>    -3.3009     0.0000    56.0000 </r>
       <r>    -3.2361     0.0000    56.0000 </r>
       <r>    -3.1714     0.0000    56.0000 </r>
       <r>    -3.1066     0.0000    56.0000 </r>
       <r>    -3.0419     0.0000    56.0000 </r>
       <r>    -2.9771     0.0000    56.0000 </r>
       <r>    -2.9124     0.0000    56.0000 </r>
       <r>    -2.8476     0.0000    56.0000 </r>
       <r>    -2.7829     0.0000    56.0000 </r>
       <r>    -2.7181     0.0000    56.0000 </r>
       <r>    -2.6534     0.0000    56.0000 </r>
       <r>    -2.5886     0.0000    56.0000 </r>
       <r>    -2.5239     0.0000    56.0000 </r>
       <r>    -2.4591     0.0000    56.0000 </r>
       <r>    -2.3944     0.0000    56.0000 </r>
       <r>    -2.3296     0.0000    56.0000 </r>
       <r>    -2.2649     0.0001    56.0000 </r>
       <r>    -2.2001     0.0007    56.0001 </r>
       <r>    -2.1353     0.0043    56.0003 </r>
       <r>    -2.0706     0.0217    56.0017 </r>
       <r>    -2.0058     0.0892    56.0075 </r>
       <r>    -1.9411     0.2999    56.0269 </r>
       <r>    -1.8763     0.8265    56.0804 </r>
       <r>    -1.8116     1.8785    56.2021 </r>
       <r>    -1.7468     3.5657    56.4330 </r>
       <r>    -1.6821     5.7803    56.8073 </r>
       <r>    -1.6173     8.3063    57.3451 </r>
       <r>    -1.5526    11.1257    58.0655 </r>
       <r>    -1.4878    14.5212    59.0058 </r>
       <r>    -1.4231    18.6757    60.2151 </r>
       <r>    -1.3583    23.1008    61.7110 </r>
       <r>    -1.2936    26.5951    63.4331 </r>
       <r>    -1.2288    27.9733    65.2444 </r>
       <r>    -1.1641    26.9228    66.9877 </r>
       <r>    -1.0993    24.1070    68.5487 </r>
       <r>    -1.0346    20.5159    69.8772 </r>
       <r>    -0.9698    16.9328    70.9736 </r>
       <r>    -0.9050    13.9124    71.8745 </r>
       <r>    -0.8403    11.8141    72.6395 </r>
       <r>    -0.7755    10.6477    73.3289 </r>
       <r>    -0.7108    10.0695    73.9810 </r>
       <r>    -0.6460     9.6620    74.6066 </r>
       <r>    -0.5813     9.2475    75.2054 </r>
       <r>    -0.5165     9.0313    75.7902 </r>
       <r>    -0.4518     9.4849    76.4044 </r>
       <r>    -0.3870    10.9885    77.1159 </r>
       <r>    -0.3223    13.4865    77.9892 </r>
       <r>    -0.2575    16.4484    79.0543 </r>
       <r>    -0.1928    19.2004    80.2976 </r>
       <r>    -0.1280    21.4977    81.6896 </r>
       <r>    -0.0633    23.9120    83.2379 </r>
       <r>     0.0015    27.3335    85.0079 </r>
       <r>     0.0662    31.5987    87.0540 </r>
       <r>     0.1310    34.6964    89.3006 </r>
       <r>     0.1957    33.9787    91.5009 </r>
       <r>     0.2605    28.5225    93.3478 </r>
       <r>     0.3252    20.1109    94.6500 </r>
       <r>     0.3900    11.7968    95.4139 </r>
       <r>     0.4548     5.7299    95.7849 </r>
       <r>     0.5195     2.2985    95.9337 </r>
       <r>     0.5843     0.7602    95.9830 </r>
       <r>     0.6490     0.2070    95.9964 </r>
       <r>     0.7138     0.0463    95.9994 </r>
       <r>     0.7785     0.0085    95.9999 </r>
       <r>     0.8433     0.0013    96.0000 </r>
       <r>     0.9080     0.0002    96.0000 </r>
       <r>     0.9728     0.0000    96.0000 </r>
       <r>     1.0375     0.0000    96.0000 </r>
       <r>     1.1023     0.0000    96.0000 </r>
       <r>     1.1670     0.0000    96.0000 </r>
       <r>     1.2318     0.0000    96.0000 </r>
       <r>     1.2965     0.0000    96.0000 </r>
       <r>     1.3613     0.0000    96.0000 </r>
       <r>     1.4260     0.0000    96.0000 </r>
       <r>     1.4908     0.0000    96.0000 </r>
       <r>     1.5555     0.0000    96.0000 </r>
       <r>     1.6203     0.0000    96.0000 </r>
       <r>     1.6851     0.0000    96.0000 </r>
       <r>     1.7498     0.0000    96.0000 </r>
       <r>     1.8146     0.0000    96.0000 </r>
       <r>     1.8793     0.0000    96.0000 </r>
       <r>     1.9441     0.0000    96.0000 </r>
       <r>     2.0088     0.0000    96.0000 </r>
       <r>     2.0736     0.0000    96.0000 </r>
       <r>     2.1383     0.0000    96.0000 </r>
       <r>     2.2031     0.0000    96.0000 </r>
      </set>
     </set>
    </array>
   </total>
  </dos>
 </calculation>
 <structure name="finalpos" >
  <crystal>
   <varray name="basis" >
    <v>      20.00000000       0.00000000       0.00000000 </v>
    <v>       0.00000000      20.00000000       0.00000000 </v>
    <v>       0.00000000       0.00000000      20.00000000 </v>
   </varray>
   <i name="volume">   8000.00000000 </i>
   <varray name="rec_basis" >
    <v>       0.05000000       0.00000000       0.00000000 </v>
    <v>       0.00000000       0.05000000       0.00000000 </v>
    <v>       0.00000000       0.00000000       0.05000000 </v>
   </varray>
  </crystal>
  <varray name="positions" >
   <v>       0.47359007       0.55629540       0.38398521 </v>
   <v>       0.36977936       0.53902311       0.43678077 </v>
   <v>       0.38300606       0.51490942       0.55125953 </v>
   <v>       0.61562003       0.52466616       0.56634507 </v>
   <v>       0.54167931       0.45784055       0.39432845 </v>
   <v>       0.53100605       0.64831814       0.43567255 </v>
   <v>       0.55942804       0.43266761       0.51316426 </v>
   <v>       0.54871377       0.62384400       0.55465975 </v>
   <v>       0.44935810       0.41565963       0.56479874 </v>
   <v>       0.43869044       0.60613060       0.60615577 </v>
   <v>       0.41422605       0.35468713       0.53135573 </v>
   <v>       0.45787728       0.39877293       0.64037055 </v>
   <v>       0.60187805       0.36743732       0.52001819 </v>
   <v>       0.68272609       0.53527758       0.53475973 </v>
   <v>       0.62630912       0.50951296       0.63893671 </v>
   <v>       0.61027388       0.46841885       0.35894896 </v>
   <v>       0.50708232       0.39711483       0.35989341 </v>
   <v>       0.46238409       0.57144456       0.31128888 </v>
   <v>       0.58409529       0.68453383       0.58884588 </v>
   <v>       0.44711002       0.59106186       0.68212238 </v>
   <v>       0.39649143       0.67134661       0.60011410 </v>
   <v>       0.31552997       0.50434912       0.58248756 </v>
   <v>       0.33394000       0.48228723       0.40334402 </v>
   <v>       0.32732039       0.60032170       0.42895380 </v>
   <v>       0.48935152       0.71378325       0.42863555 </v>
   <v>       0.59950325       0.66069558       0.39969147 </v>
  </varray>
 </structure>
</modeling>
