  26  26   0   0
  0.3076923E+03  0.2000000E-08  0.2000000E-08  0.2000000E-08  0.2000000E-16
  1.000000000000000E-004
  CAR 
 SiGe                                    
      2.34069479    -17.38954578  301     -5.28826734      1.00000000
    -17.390  0.0000E+00  0.0000E+00
    -17.324  0.0000E+00  0.0000E+00
    -17.258  0.0000E+00  0.0000E+00
    -17.192  0.0000E+00  0.0000E+00
    -17.126  0.0000E+00  0.0000E+00
    -17.061  0.0000E+00  0.0000E+00
    -16.995  0.0000E+00  0.0000E+00
    -16.929  0.0000E+00  0.0000E+00
    -16.863  0.0000E+00  0.0000E+00
    -16.798  0.0000E+00  0.0000E+00
    -16.732  0.0000E+00  0.0000E+00
    -16.666  0.0000E+00  0.0000E+00
    -16.600  0.0000E+00  0.0000E+00
    -16.535  0.2418E-16  0.1591E-17
    -16.469  0.9867E-15  0.6649E-16
    -16.403  0.3252E-13  0.2205E-14
    -16.337  0.8659E-12  0.5915E-13
    -16.271  0.1861E-10  0.1283E-11
    -16.206  0.3232E-09  0.2254E-10
    -16.140  0.4532E-08  0.3206E-09
    -16.074  0.5135E-07  0.3698E-08
    -16.008  0.4700E-06  0.3461E-07
    -15.943  0.3476E-05  0.2632E-06
    -15.877  0.2078E-04  0.1630E-05
    -15.811  0.1004E-03  0.8232E-05
    -15.745  0.3920E-03  0.3401E-04
    -15.680  0.1237E-02  0.1154E-03
    -15.614  0.3158E-02  0.3231E-03
    -15.548  0.6517E-02  0.7517E-03
    -15.482  0.1087E-01  0.1467E-02
    -15.417  0.1467E-01  0.2432E-02
    -15.351  0.1601E-01  0.3485E-02
    -15.285  0.1412E-01  0.4413E-02
    -15.219  0.1008E-01  0.5076E-02
    -15.153  0.5812E-02  0.5458E-02
    -15.088  0.2711E-02  0.5637E-02
    -15.022  0.1025E-02  0.5704E-02
    -14.956  0.3306E-03  0.5726E-02
    -14.890  0.1821E-03  0.5738E-02
    -14.825  0.4905E-03  0.5770E-02
    -14.759  0.1737E-02  0.5884E-02
    -14.693  0.5116E-02  0.6221E-02
    -14.627  0.1220E-01  0.7023E-02
    -14.562  0.2354E-01  0.8571E-02
    -14.496  0.3671E-01  0.1099E-01
    -14.430  0.4630E-01  0.1403E-01
    -14.364  0.4722E-01  0.1714E-01
    -14.298  0.3895E-01  0.1970E-01
    -14.233  0.2598E-01  0.2141E-01
    -14.167  0.1401E-01  0.2233E-01
    -14.101  0.6109E-02  0.2273E-01
    -14.035  0.2154E-02  0.2287E-01
    -13.970  0.6147E-03  0.2291E-01
    -13.904  0.1468E-03  0.2292E-01
    -13.838  0.5931E-04  0.2292E-01
    -13.772  0.1678E-03  0.2294E-01
    -13.707  0.6591E-03  0.2298E-01
    -13.641  0.2140E-02  0.2312E-01
    -13.575  0.5623E-02  0.2349E-01
    -13.509  0.1195E-01  0.2428E-01
    -13.443  0.2052E-01  0.2563E-01
    -13.378  0.2851E-01  0.2750E-01
    -13.312  0.3203E-01  0.2961E-01
    -13.246  0.2910E-01  0.3152E-01
    -13.180  0.2138E-01  0.3293E-01
    -13.115  0.1270E-01  0.3376E-01
    -13.049  0.6103E-02  0.3416E-01
    -12.983  0.2371E-02  0.3432E-01
    -12.917  0.7447E-03  0.3437E-01
    -12.852  0.1891E-03  0.3438E-01
    -12.786  0.3882E-04  0.3438E-01
    -12.720  0.6450E-05  0.3438E-01
    -12.654  0.9792E-06  0.3438E-01
    -12.589  0.1179E-05  0.3438E-01
    -12.523  0.8250E-05  0.3438E-01
    -12.457  0.5056E-04  0.3439E-01
    -12.391  0.2507E-03  0.3440E-01
    -12.325  0.1005E-02  0.3447E-01
    -12.260  0.3256E-02  0.3468E-01
    -12.194  0.8531E-02  0.3525E-01
    -12.128  0.1807E-01  0.3643E-01
    -12.062  0.3096E-01  0.3847E-01
    -11.997  0.4289E-01  0.4129E-01
    -11.931  0.4805E-01  0.4445E-01
    -11.865  0.4353E-01  0.4731E-01
    -11.799  0.3189E-01  0.4941E-01
    -11.734  0.1890E-01  0.5065E-01
    -11.668  0.9054E-02  0.5125E-01
    -11.602  0.3507E-02  0.5148E-01
    -11.536  0.1099E-02  0.5155E-01
    -11.470  0.2813E-03  0.5157E-01
    -11.405  0.7577E-04  0.5158E-01
    -11.339  0.1015E-03  0.5158E-01
    -11.273  0.3653E-03  0.5161E-01
    -11.207  0.1164E-02  0.5168E-01
    -11.142  0.3007E-02  0.5188E-01
    -11.076  0.6283E-02  0.5229E-01
    -11.010  0.1062E-01  0.5299E-01
    -10.944  0.1450E-01  0.5395E-01
    -10.879  0.1602E-01  0.5500E-01
    -10.813  0.1431E-01  0.5594E-01
    -10.747  0.1034E-01  0.5662E-01
    -10.681  0.6038E-02  0.5702E-01
    -10.615  0.2852E-02  0.5721E-01
    -10.550  0.1089E-02  0.5728E-01
    -10.484  0.3362E-03  0.5730E-01
    -10.418  0.8390E-04  0.5731E-01
    -10.352  0.1693E-04  0.5731E-01
    -10.287  0.2760E-05  0.5731E-01
    -10.221  0.3636E-06  0.5731E-01
    -10.155  0.3871E-07  0.5731E-01
    -10.089  0.3330E-08  0.5731E-01
    -10.024  0.2314E-09  0.5731E-01
     -9.958  0.1299E-10  0.5731E-01
     -9.892  0.5993E-12  0.5731E-01
     -9.826  0.3257E-12  0.5731E-01
     -9.761  0.7011E-11  0.5731E-01
     -9.695  0.1305E-09  0.5731E-01
     -9.629  0.1962E-08  0.5731E-01
     -9.563  0.2383E-07  0.5731E-01
     -9.497  0.2338E-06  0.5731E-01
     -9.432  0.1854E-05  0.5731E-01
     -9.366  0.1188E-04  0.5731E-01
     -9.300  0.6150E-04  0.5731E-01
     -9.234  0.2574E-03  0.5733E-01
     -9.169  0.8711E-03  0.5739E-01
     -9.103  0.2384E-02  0.5754E-01
     -9.037  0.5283E-02  0.5789E-01
     -8.971  0.9506E-02  0.5852E-01
     -8.906  0.1402E-01  0.5944E-01
     -8.840  0.1741E-01  0.6058E-01
     -8.774  0.1955E-01  0.6187E-01
     -8.708  0.2254E-01  0.6335E-01
     -8.642  0.2898E-01  0.6526E-01
     -8.577  0.3865E-01  0.6780E-01
     -8.511  0.4714E-01  0.7090E-01
     -8.445  0.4917E-01  0.7413E-01
     -8.379  0.4389E-01  0.7702E-01
     -8.314  0.3648E-01  0.7942E-01
     -8.248  0.3387E-01  0.8165E-01
     -8.182  0.3881E-01  0.8420E-01
     -8.116  0.4788E-01  0.8735E-01
     -8.051  0.5523E-01  0.9098E-01
     -7.985  0.5813E-01  0.9480E-01
     -7.919  0.5842E-01  0.9864E-01
     -7.853  0.5830E-01  0.1025E+00
     -7.787  0.5636E-01  0.1062E+00
     -7.722  0.4937E-01  0.1094E+00
     -7.656  0.3704E-01  0.1119E+00
     -7.590  0.2304E-01  0.1134E+00
     -7.524  0.1171E-01  0.1142E+00
     -7.459  0.4833E-02  0.1145E+00
     -7.393  0.1616E-02  0.1146E+00
     -7.327  0.4392E-03  0.1146E+00
     -7.261  0.1114E-03  0.1146E+00
     -7.196  0.1031E-03  0.1146E+00
     -7.130  0.3813E-03  0.1146E+00
     -7.064  0.1346E-02  0.1147E+00
     -6.998  0.3862E-02  0.1150E+00
     -6.933  0.8965E-02  0.1156E+00
     -6.867  0.1684E-01  0.1167E+00
     -6.801  0.2563E-01  0.1184E+00
     -6.735  0.3184E-01  0.1205E+00
     -6.669  0.3313E-01  0.1226E+00
     -6.604  0.3150E-01  0.1247E+00
     -6.538  0.3321E-01  0.1269E+00
     -6.472  0.4431E-01  0.1298E+00
     -6.406  0.6475E-01  0.1341E+00
     -6.341  0.8595E-01  0.1397E+00
     -6.275  0.9560E-01  0.1460E+00
     -6.209  0.8701E-01  0.1517E+00
     -6.143  0.6440E-01  0.1560E+00
     -6.078  0.3871E-01  0.1585E+00
     -6.012  0.1888E-01  0.1598E+00
     -5.946  0.7474E-02  0.1602E+00
     -5.880  0.2400E-02  0.1604E+00
     -5.814  0.6250E-03  0.1604E+00
     -5.749  0.1320E-03  0.1605E+00
     -5.683  0.2260E-04  0.1605E+00
     -5.617  0.3135E-05  0.1605E+00
     -5.551  0.3525E-06  0.1605E+00
     -5.486  0.3209E-07  0.1605E+00
     -5.420  0.2366E-08  0.1605E+00
     -5.354  0.1412E-09  0.1605E+00
     -5.288  0.6820E-11  0.1605E+00
     -5.223  0.2665E-12  0.1605E+00
     -5.157  0.8436E-14  0.1605E+00
     -5.091  0.2128E-15  0.1605E+00
     -5.025  0.0000E+00  0.1605E+00
     -4.959  0.0000E+00  0.1605E+00
     -4.894  0.0000E+00  0.1605E+00
     -4.828  0.0000E+00  0.1605E+00
     -4.762  0.0000E+00  0.1605E+00
     -4.696  0.0000E+00  0.1605E+00
     -4.631  0.0000E+00  0.1605E+00
     -4.565  0.0000E+00  0.1605E+00
     -4.499  0.0000E+00  0.1605E+00
     -4.433  0.0000E+00  0.1605E+00
     -4.368  0.0000E+00  0.1605E+00
     -4.302  0.0000E+00  0.1605E+00
     -4.236  0.0000E+00  0.1605E+00
     -4.170  0.0000E+00  0.1605E+00
     -4.105  0.0000E+00  0.1605E+00
     -4.039  0.0000E+00  0.1605E+00
     -3.973  0.0000E+00  0.1605E+00
     -3.907  0.0000E+00  0.1605E+00
     -3.841  0.0000E+00  0.1605E+00
     -3.776  0.0000E+00  0.1605E+00
     -3.710  0.0000E+00  0.1605E+00
     -3.644  0.0000E+00  0.1605E+00
     -3.578  0.0000E+00  0.1605E+00
     -3.513  0.0000E+00  0.1605E+00
     -3.447  0.0000E+00  0.1605E+00
     -3.381  0.0000E+00  0.1605E+00
     -3.315  0.0000E+00  0.1605E+00
     -3.250  0.0000E+00  0.1605E+00
     -3.184  0.0000E+00  0.1605E+00
     -3.118  0.0000E+00  0.1605E+00
     -3.052  0.0000E+00  0.1605E+00
     -2.986  0.0000E+00  0.1605E+00
     -2.921  0.0000E+00  0.1605E+00
     -2.855  0.0000E+00  0.1605E+00
     -2.789  0.0000E+00  0.1605E+00
     -2.723  0.0000E+00  0.1605E+00
     -2.658  0.0000E+00  0.1605E+00
     -2.592  0.6772E-16  0.1605E+00
     -2.526  0.2491E-14  0.1605E+00
     -2.460  0.8107E-13  0.1605E+00
     -2.395  0.2136E-11  0.1605E+00
     -2.329  0.4566E-10  0.1605E+00
     -2.263  0.7922E-09  0.1605E+00
     -2.197  0.1116E-07  0.1605E+00
     -2.131  0.1278E-06  0.1605E+00
     -2.066  0.1190E-05  0.1605E+00
     -2.000  0.9016E-05  0.1605E+00
     -1.934  0.5561E-04  0.1605E+00
     -1.868  0.2794E-03  0.1605E+00
     -1.803  0.1145E-02  0.1606E+00
     -1.737  0.3824E-02  0.1608E+00
     -1.671  0.1043E-01  0.1615E+00
     -1.605  0.2322E-01  0.1630E+00
     -1.540  0.4234E-01  0.1658E+00
     -1.474  0.6343E-01  0.1700E+00
     -1.408  0.7894E-01  0.1752E+00
     -1.342  0.8398E-01  0.1807E+00
     -1.277  0.8144E-01  0.1860E+00
     -1.211  0.7954E-01  0.1913E+00
     -1.145  0.8282E-01  0.1967E+00
     -1.079  0.8674E-01  0.2024E+00
     -1.013  0.8250E-01  0.2079E+00
     -0.948  0.6662E-01  0.2122E+00
     -0.882  0.4432E-01  0.2152E+00
     -0.816  0.2402E-01  0.2167E+00
     -0.750  0.1055E-01  0.2174E+00
     -0.685  0.3759E-02  0.2177E+00
     -0.619  0.1114E-02  0.2177E+00
     -0.553  0.4343E-03  0.2178E+00
     -0.487  0.8434E-03  0.2178E+00
     -0.422  0.2811E-02  0.2180E+00
     -0.356  0.7994E-02  0.2185E+00
     -0.290  0.1846E-01  0.2198E+00
     -0.224  0.3462E-01  0.2220E+00
     -0.158  0.5313E-01  0.2255E+00
     -0.093  0.6785E-01  0.2300E+00
     -0.027  0.7501E-01  0.2349E+00
      0.039  0.7722E-01  0.2400E+00
      0.105  0.8048E-01  0.2453E+00
      0.170  0.8680E-01  0.2510E+00
      0.236  0.9137E-01  0.2570E+00
      0.302  0.8754E-01  0.2628E+00
      0.368  0.7337E-01  0.2676E+00
      0.433  0.5292E-01  0.2711E+00
      0.499  0.3257E-01  0.2732E+00
      0.565  0.1698E-01  0.2743E+00
      0.631  0.7435E-02  0.2748E+00
      0.697  0.2709E-02  0.2750E+00
      0.762  0.8154E-03  0.2751E+00
      0.828  0.2013E-03  0.2751E+00
      0.894  0.4059E-04  0.2751E+00
      0.960  0.6658E-05  0.2751E+00
      1.025  0.8867E-06  0.2751E+00
      1.091  0.9569E-07  0.2751E+00
      1.157  0.8359E-08  0.2751E+00
      1.223  0.5906E-09  0.2751E+00
      1.288  0.3374E-10  0.2751E+00
      1.354  0.1557E-11  0.2751E+00
      1.420  0.5806E-13  0.2751E+00
      1.486  0.1741E-14  0.2751E+00
      1.551  0.3870E-16  0.2751E+00
      1.617  0.0000E+00  0.2751E+00
      1.683  0.0000E+00  0.2751E+00
      1.749  0.0000E+00  0.2751E+00
      1.815  0.0000E+00  0.2751E+00
      1.880  0.0000E+00  0.2751E+00
      1.946  0.0000E+00  0.2751E+00
      2.012  0.0000E+00  0.2751E+00
      2.078  0.0000E+00  0.2751E+00
      2.143  0.0000E+00  0.2751E+00
      2.209  0.0000E+00  0.2751E+00
      2.275  0.0000E+00  0.2751E+00
      2.341  0.0000E+00  0.2751E+00
