       N       E                     dE             d eps       ncg     rms          rms(c)
DAV:   1     0.219154511232E+03    0.21915E+03   -0.10428E+04   116   0.546E+02
DAV:   2    -0.180324133458E+02   -0.23719E+03   -0.22140E+03   144   0.104E+02
DAV:   3    -0.951921924958E+02   -0.77160E+02   -0.77000E+02   112   0.564E+01
DAV:   4    -0.996833570288E+02   -0.44912E+01   -0.44754E+01   112   0.182E+01
DAV:   5    -0.997329839286E+02   -0.49627E-01   -0.49585E-01   120   0.185E+00    0.135E+01
DAV:   6    -0.966939483618E+02    0.30390E+01   -0.15812E+00   112   0.443E+00    0.770E+00
DAV:   7    -0.951243033319E+02    0.15696E+01   -0.37371E+00   112   0.635E+00    0.119E+00
DAV:   8    -0.950593069211E+02    0.64996E-01   -0.26881E-01   112   0.209E+00    0.541E-01
DAV:   9    -0.950258130112E+02    0.33494E-01   -0.58581E-02   112   0.682E-01    0.290E-01
DAV:  10    -0.950263794070E+02   -0.56640E-03   -0.28756E-03   112   0.198E-01    0.109E-01
DAV:  11    -0.950261990060E+02    0.18040E-03   -0.56516E-03   104   0.217E-01    0.107E-01
DAV:  12    -0.950324538001E+02   -0.62548E-02   -0.46800E-03   110   0.167E-01    0.424E-02
DAV:  13    -0.950371639300E+02   -0.47101E-02   -0.57645E-04   112   0.770E-02    0.413E-02
DAV:  14    -0.950417808001E+02   -0.46169E-02   -0.54464E-04   112   0.778E-02    0.188E-02
DAV:  15    -0.950443024148E+02   -0.25216E-02   -0.28226E-04   112   0.474E-02    0.602E-03
DAV:  16    -0.950454520583E+02   -0.11496E-02   -0.11733E-04   112   0.266E-02    0.499E-03
DAV:  17    -0.950461112577E+02   -0.65920E-03   -0.39141E-05   112   0.159E-02    0.184E-03
DAV:  18    -0.950462482067E+02   -0.13695E-03   -0.35459E-06    96   0.480E-03    0.139E-03
DAV:  19    -0.950463555062E+02   -0.10730E-03   -0.27956E-06   104   0.440E-03    0.802E-04
DAV:  20    -0.950463786360E+02   -0.23130E-04   -0.39219E-07    88   0.185E-03    0.527E-04
DAV:  21    -0.950463935623E+02   -0.14926E-04   -0.40511E-07    88   0.161E-03    0.213E-04
DAV:  22    -0.950463964510E+02   -0.28887E-05   -0.80276E-08    88   0.724E-04    0.218E-04
DAV:  23    -0.950464003350E+02   -0.38840E-05   -0.76819E-08    78   0.722E-04    0.726E-05
DAV:  24    -0.950464008805E+02   -0.54552E-06   -0.12494E-08    96   0.299E-04
   1 F= -.95046401E+02 E0= -.95046401E+02  d E =-.950464E+02
       N       E                     dE             d eps       ncg     rms          rms(c)
DAV:   1    -0.951122672674E+02   -0.65867E-01   -0.14602E+00    84   0.455E+00    0.401E-01
DAV:   2    -0.951215691109E+02   -0.93018E-02   -0.10691E-01   104   0.112E+00    0.241E-01
DAV:   3    -0.951210498901E+02    0.51922E-03   -0.20623E-03   120   0.174E-01    0.132E-01
DAV:   4    -0.951210591069E+02   -0.92168E-05   -0.98636E-04   112   0.113E-01    0.312E-02
DAV:   5    -0.951210305577E+02    0.28549E-04   -0.13549E-04   112   0.419E-02    0.115E-02
DAV:   6    -0.951210281618E+02    0.23959E-05   -0.18165E-05   112   0.128E-02    0.450E-03
DAV:   7    -0.951210343826E+02   -0.62209E-05   -0.10755E-06    80   0.383E-03    0.173E-03
DAV:   8    -0.951210441866E+02   -0.98040E-05   -0.35873E-06    94   0.537E-03    0.167E-03
DAV:   9    -0.951210567985E+02   -0.12612E-04   -0.81887E-07    88   0.287E-03    0.609E-04
DAV:  10    -0.951210649755E+02   -0.81769E-05   -0.50371E-07    88   0.173E-03    0.666E-04
DAV:  11    -0.951210725483E+02   -0.75729E-05   -0.20810E-07    88   0.118E-03    0.177E-04
DAV:  12    -0.951210745736E+02   -0.20253E-05   -0.40984E-08    88   0.549E-04    0.163E-04
DAV:  13    -0.951210771044E+02   -0.25307E-05   -0.29660E-08    88   0.443E-04    0.861E-05
DAV:  14    -0.951210783765E+02   -0.12721E-05   -0.16600E-08    88   0.314E-04    0.708E-05
DAV:  15    -0.951210791925E+02   -0.81603E-06   -0.91845E-09    88   0.251E-04
   2 F= -.95121079E+02 E0= -.95121079E+02  d E =-.746783E-01
       N       E                     dE             d eps       ncg     rms          rms(c)
DAV:   1    -0.951329589646E+02   -0.11881E-01   -0.91481E-01    84   0.359E+00    0.316E-01
DAV:   2    -0.951387082708E+02   -0.57493E-02   -0.66156E-02   104   0.879E-01    0.190E-01
DAV:   3    -0.951383916520E+02    0.31662E-03   -0.12680E-03   120   0.135E-01    0.104E-01
DAV:   4    -0.951383981469E+02   -0.64949E-05   -0.60661E-04   102   0.889E-02    0.240E-02
DAV:   5    -0.951383792214E+02    0.18926E-04   -0.83748E-05   112   0.328E-02    0.910E-03
DAV:   6    -0.951383770115E+02    0.22099E-05   -0.11469E-05   112   0.101E-02    0.355E-03
DAV:   7    -0.951383810403E+02   -0.40288E-05   -0.73792E-07    80   0.317E-03    0.135E-03
DAV:   8    -0.951383875875E+02   -0.65472E-05   -0.21873E-06    86   0.420E-03    0.130E-03
DAV:   9    -0.951383963289E+02   -0.87414E-05   -0.55766E-07    88   0.227E-03    0.530E-04
DAV:  10    -0.951384025248E+02   -0.61959E-05   -0.34148E-07    88   0.143E-03    0.569E-04
DAV:  11    -0.951384075235E+02   -0.49987E-05   -0.12304E-07    88   0.919E-04    0.162E-04
DAV:  12    -0.951384091185E+02   -0.15950E-05   -0.29112E-08    88   0.455E-04    0.116E-04
DAV:  13    -0.951384109083E+02   -0.17898E-05   -0.20133E-08    88   0.363E-04    0.640E-05
DAV:  14    -0.951384117913E+02   -0.88295E-06   -0.10649E-08    88   0.261E-04
   3 F= -.95138412E+02 E0= -.95138412E+02  d E =-.920109E-01
       N       E                     dE             d eps       ncg     rms          rms(c)
DAV:   1    -0.951843353078E+02   -0.45924E-01   -0.70498E-01    84   0.381E+00    0.243E-01
DAV:   2    -0.951845402740E+02   -0.20497E-03   -0.11846E-02   112   0.412E-01    0.143E-01
DAV:   3    -0.951840572922E+02    0.48298E-03   -0.97448E-04   120   0.106E-01    0.457E-02
DAV:   4    -0.951840617027E+02   -0.44105E-05   -0.26508E-04   112   0.535E-02    0.201E-02
DAV:   5    -0.951840799938E+02   -0.18291E-04   -0.18182E-05   112   0.166E-02    0.628E-03
DAV:   6    -0.951840964290E+02   -0.16435E-04   -0.10470E-05   102   0.106E-02    0.216E-03
DAV:   7    -0.951841091939E+02   -0.12765E-04   -0.59546E-07    88   0.297E-03    0.931E-04
DAV:   8    -0.951841212517E+02   -0.12058E-04   -0.71398E-07    88   0.223E-03    0.541E-04
DAV:   9    -0.951841312895E+02   -0.10038E-04   -0.38445E-07    88   0.155E-03    0.326E-04
DAV:  10    -0.951841375606E+02   -0.62711E-05   -0.39879E-07    88   0.123E-03    0.315E-04
DAV:  11    -0.951841393215E+02   -0.17609E-05   -0.51305E-08    88   0.517E-04    0.843E-05
DAV:  12    -0.951841404759E+02   -0.11544E-05   -0.26056E-08    88   0.393E-04    0.105E-04
DAV:  13    -0.951841411956E+02   -0.71967E-06   -0.11732E-08    88   0.275E-04
   4 F= -.95184141E+02 E0= -.95184141E+02  d E =-.457294E-01
       N       E                     dE             d eps       ncg     rms          rms(c)
DAV:   1    -0.952473428330E+02   -0.63202E-01   -0.62763E+00    84   0.114E+01    0.713E-01
DAV:   2    -0.952496893408E+02   -0.23465E-02   -0.10828E-01   104   0.124E+00    0.422E-01
DAV:   3    -0.952457598686E+02    0.39295E-02   -0.78419E-03   120   0.308E-01    0.139E-01
DAV:   4    -0.952458859129E+02   -0.12604E-03   -0.24883E-03   112   0.161E-01    0.602E-02
DAV:   5    -0.952459949139E+02   -0.10900E-03   -0.18507E-04   112   0.520E-02    0.191E-02
DAV:   6    -0.952460936050E+02   -0.98691E-04   -0.91751E-05   112   0.315E-02    0.591E-03
DAV:   7    -0.952461532915E+02   -0.59687E-04   -0.41722E-06   112   0.758E-03    0.309E-03
DAV:   8    -0.952462201093E+02   -0.66818E-04   -0.54699E-06   104   0.611E-03    0.139E-03
DAV:   9    -0.952462682513E+02   -0.48142E-04   -0.34825E-06   104   0.451E-03    0.138E-03
DAV:  10    -0.952462949034E+02   -0.26652E-04   -0.19975E-06    96   0.293E-03    0.820E-04
DAV:  11    -0.952463022877E+02   -0.73843E-05   -0.23018E-07    88   0.124E-03    0.214E-04
DAV:  12    -0.952463074243E+02   -0.51366E-05   -0.17673E-07    88   0.995E-04    0.315E-04
DAV:  13    -0.952463103952E+02   -0.29709E-05   -0.56165E-08    88   0.654E-04    0.168E-04
DAV:  14    -0.952463110600E+02   -0.66482E-06   -0.10370E-08    88   0.301E-04
   5 F= -.95246311E+02 E0= -.95246311E+02  d E =-.107899E+00
       N       E                     dE             d eps       ncg     rms          rms(c)
DAV:   1    -0.952466524330E+02   -0.34204E-03   -0.36934E-02    84   0.872E-01    0.542E-02
DAV:   2    -0.952466606858E+02   -0.82528E-05   -0.62119E-04    96   0.941E-02    0.317E-02
DAV:   3    -0.952466310593E+02    0.29627E-04   -0.46100E-05   120   0.235E-02    0.102E-02
DAV:   4    -0.952466286526E+02    0.24067E-05   -0.13388E-05   112   0.120E-02    0.447E-03
DAV:   5    -0.952466294617E+02   -0.80910E-06   -0.93219E-07    88   0.392E-03
   6 F= -.95246629E+02 E0= -.95246629E+02  d E =-.108218E+00
       N       E                     dE             d eps       ncg     rms          rms(c)
DAV:   1    -0.952574367286E+02   -0.10808E-01   -0.16679E-01    84   0.183E+00    0.101E-01
DAV:   2    -0.952575564201E+02   -0.11969E-03   -0.34061E-03   112   0.217E-01    0.572E-02
DAV:   3    -0.952574738479E+02    0.82572E-04   -0.17198E-04   112   0.489E-02    0.260E-02
DAV:   4    -0.952574500300E+02    0.23818E-04   -0.53146E-05   112   0.259E-02    0.786E-03
DAV:   5    -0.952574499293E+02    0.10064E-06   -0.47304E-06   112   0.900E-03
   7 F= -.95257450E+02 E0= -.95257450E+02  d E =-.108205E-01
       N       E                     dE             d eps       ncg     rms          rms(c)
DAV:   1    -0.952640624162E+02   -0.66124E-02   -0.14993E+00    84   0.549E+00    0.302E-01
DAV:   2    -0.952652080917E+02   -0.11457E-02   -0.31143E-02   110   0.655E-01    0.172E-01
DAV:   3    -0.952645056559E+02    0.70244E-03   -0.15325E-03   120   0.146E-01    0.787E-02
DAV:   4    -0.952643497868E+02    0.15587E-03   -0.47593E-04   112   0.777E-02    0.240E-02
DAV:   5    -0.952643805715E+02   -0.30785E-04   -0.44910E-05   110   0.275E-02    0.104E-02
DAV:   6    -0.952644650318E+02   -0.84460E-04   -0.24209E-05   102   0.155E-02    0.513E-03
DAV:   7    -0.952645488711E+02   -0.83839E-04   -0.44359E-06   104   0.645E-03    0.271E-03
DAV:   8    -0.952646619826E+02   -0.11311E-03   -0.10266E-05   104   0.731E-03    0.185E-03
DAV:   9    -0.952647438686E+02   -0.81886E-04   -0.69167E-06   104   0.577E-03    0.999E-04
DAV:  10    -0.952647683409E+02   -0.24472E-04   -0.88561E-07    88   0.239E-03    0.566E-04
DAV:  11    -0.952647952048E+02   -0.26864E-04   -0.16068E-06    96   0.263E-03    0.457E-04
DAV:  12    -0.952648030294E+02   -0.78245E-05   -0.29465E-07    88   0.124E-03    0.157E-04
DAV:  13    -0.952648066354E+02   -0.36060E-05   -0.73071E-08    88   0.646E-04    0.186E-04
DAV:  14    -0.952648079028E+02   -0.12674E-05   -0.20446E-08    88   0.405E-04    0.124E-04
DAV:  15    -0.952648086267E+02   -0.72398E-06   -0.92076E-09    88   0.296E-04
   8 F= -.95264809E+02 E0= -.95264809E+02  d E =-.181792E-01
       N       E                     dE             d eps       ncg     rms          rms(c)
DAV:   1    -0.952665691217E+02   -0.17612E-02   -0.14555E-01    84   0.171E+00    0.944E-02
DAV:   2    -0.952666993294E+02   -0.13021E-03   -0.30604E-03   112   0.205E-01    0.535E-02
DAV:   3    -0.952666400752E+02    0.59254E-04   -0.14830E-04   120   0.453E-02    0.246E-02
DAV:   4    -0.952666204875E+02    0.19588E-04   -0.44225E-05   112   0.236E-02    0.737E-03
DAV:   5    -0.952666150803E+02    0.54072E-05   -0.39204E-06   112   0.821E-03    0.311E-03
DAV:   6    -0.952666183772E+02   -0.32968E-05   -0.20677E-06    96   0.462E-03    0.152E-03
DAV:   7    -0.952666256590E+02   -0.72818E-05   -0.37334E-07    78   0.204E-03    0.806E-04
DAV:   8    -0.952666359510E+02   -0.10292E-04   -0.74622E-07    88   0.196E-03    0.508E-04
DAV:   9    -0.952666460543E+02   -0.10103E-04   -0.68754E-07    88   0.169E-03    0.291E-04
DAV:  10    -0.952666493605E+02   -0.33062E-05   -0.10156E-07    88   0.748E-04    0.160E-04
DAV:  11    -0.952666547864E+02   -0.54259E-05   -0.27065E-07    88   0.107E-03    0.162E-04
DAV:  12    -0.952666550029E+02   -0.21649E-06   -0.16816E-08    88   0.336E-04
   9 F= -.95266655E+02 E0= -.95266655E+02  d E =-.200255E-01
       N       E                     dE             d eps       ncg     rms          rms(c)
DAV:   1    -0.952757219680E+02   -0.90672E-02   -0.17857E-01    88   0.190E+00    0.967E-02
DAV:   2    -0.952757723946E+02   -0.50427E-04   -0.18560E-03   110   0.177E-01    0.532E-02
DAV:   3    -0.952757278638E+02    0.44531E-04   -0.15472E-04   112   0.487E-02    0.191E-02
DAV:   4    -0.952757342764E+02   -0.64127E-05   -0.52472E-05   104   0.249E-02    0.554E-03
DAV:   5    -0.952757354300E+02   -0.11536E-05   -0.35330E-06    96   0.743E-03    0.234E-03
DAV:   6    -0.952757363238E+02   -0.89375E-06   -0.87326E-07    88   0.332E-03
  10 F= -.95275736E+02 E0= -.95275736E+02  d E =-.908132E-02
       N       E                     dE             d eps       ncg     rms          rms(c)
DAV:   1    -0.952931602442E+02   -0.17425E-01   -0.16086E+00    88   0.570E+00    0.291E-01
DAV:   2    -0.952936379727E+02   -0.47773E-03   -0.16779E-02   110   0.533E-01    0.161E-01
DAV:   3    -0.952932286551E+02    0.40932E-03   -0.13678E-03   112   0.146E-01    0.577E-02
DAV:   4    -0.952932814053E+02   -0.52750E-04   -0.48549E-04   104   0.757E-02    0.166E-02
DAV:   5    -0.952932879142E+02   -0.65089E-05   -0.33879E-05   104   0.229E-02    0.739E-03
DAV:   6    -0.952932943778E+02   -0.64636E-05   -0.81713E-06   112   0.943E-03    0.179E-03
DAV:   7    -0.952932983911E+02   -0.40132E-05   -0.36147E-07    88   0.239E-03    0.736E-04
DAV:   8    -0.952933027797E+02   -0.43886E-05   -0.15972E-07    88   0.140E-03    0.299E-04
DAV:   9    -0.952933074044E+02   -0.46247E-05   -0.12399E-07    88   0.953E-04    0.134E-04
DAV:  10    -0.952933102910E+02   -0.28867E-05   -0.82757E-08    88   0.679E-04    0.146E-04
DAV:  11    -0.952933122173E+02   -0.19263E-05   -0.50418E-08    88   0.472E-04    0.640E-05
DAV:  12    -0.952933126688E+02   -0.45146E-06   -0.72945E-09    80   0.213E-04
  11 F= -.95293313E+02 E0= -.95293313E+02  d E =-.266577E-01
       N       E                     dE             d eps       ncg     rms          rms(c)
DAV:   1    -0.952846494786E+02    0.86627E-02   -0.64411E+00    88   0.114E+01    0.583E-01
DAV:   2    -0.952866974267E+02   -0.20479E-02   -0.68216E-02   110   0.108E+00    0.325E-01
DAV:   3    -0.952850055583E+02    0.16919E-02   -0.53267E-03   112   0.292E-01    0.117E-01
DAV:   4    -0.952852102629E+02   -0.20470E-03   -0.20343E-03   104   0.155E-01    0.336E-02
DAV:   5    -0.952852246552E+02   -0.14392E-04   -0.14259E-04   102   0.476E-02    0.153E-02
DAV:   6    -0.952852460150E+02   -0.21360E-04   -0.34717E-05   112   0.197E-02    0.366E-03
DAV:   7    -0.952852578341E+02   -0.11819E-04   -0.15555E-06    88   0.500E-03    0.150E-03
DAV:   8    -0.952852704332E+02   -0.12599E-04   -0.70628E-07    88   0.297E-03    0.647E-04
DAV:   9    -0.952852821574E+02   -0.11724E-04   -0.42955E-07    88   0.187E-03    0.285E-04
DAV:  10    -0.952852907130E+02   -0.85556E-05   -0.37885E-07    88   0.146E-03    0.304E-04
DAV:  11    -0.952852963020E+02   -0.55890E-05   -0.23159E-07    88   0.101E-03    0.138E-04
DAV:  12    -0.952852976317E+02   -0.13297E-05   -0.33189E-08    88   0.433E-04    0.832E-05
DAV:  13    -0.952852990016E+02   -0.13699E-05   -0.34040E-08    88   0.401E-04    0.577E-05
DAV:  14    -0.952852995304E+02   -0.52882E-06   -0.11843E-08    88   0.257E-04
  12 F= -.95285300E+02 E0= -.95285300E+02  d E =-.186445E-01
       N       E                     dE             d eps       ncg     rms          rms(c)
DAV:   1    -0.952967925117E+02   -0.11494E-01   -0.26306E+00    88   0.732E+00    0.372E-01
DAV:   2    -0.952975523078E+02   -0.75980E-03   -0.27160E-02   110   0.685E-01    0.205E-01
DAV:   3    -0.952969437713E+02    0.60854E-03   -0.23741E-03   112   0.191E-01    0.703E-02
DAV:   4    -0.952970143160E+02   -0.70545E-04   -0.71578E-04   104   0.939E-02    0.221E-02
DAV:   5    -0.952970122310E+02    0.20850E-05   -0.43235E-05   104   0.264E-02    0.906E-03
DAV:   6    -0.952970162349E+02   -0.40039E-05   -0.13215E-05   112   0.121E-02    0.219E-03
DAV:   7    -0.952970183554E+02   -0.21205E-05   -0.66587E-07    88   0.323E-03    0.888E-04
DAV:   8    -0.952970205035E+02   -0.21481E-05   -0.18218E-07    88   0.157E-03    0.399E-04
DAV:   9    -0.952970234308E+02   -0.29273E-05   -0.18898E-07    88   0.117E-03    0.198E-04
DAV:  10    -0.952970246939E+02   -0.12631E-05   -0.73166E-08    88   0.698E-04    0.212E-04
DAV:  11    -0.952970260246E+02   -0.13307E-05   -0.48959E-08    88   0.493E-04    0.883E-05
DAV:  12    -0.952970263930E+02   -0.36839E-06   -0.69968E-09    72   0.216E-04
  13 F= -.95297026E+02 E0= -.95297026E+02  d E =-.303714E-01
       N       E                     dE             d eps       ncg     rms          rms(c)
DAV:   1    -0.952980868035E+02   -0.10608E-02   -0.14728E-02    84   0.561E-01    0.303E-02
DAV:   2    -0.952980868372E+02   -0.33707E-07   -0.23317E-04   120   0.569E-02    0.188E-02
DAV:   3    -0.952980828744E+02    0.39628E-05   -0.19880E-05   112   0.137E-02    0.700E-03
DAV:   4    -0.952980826220E+02    0.25236E-06   -0.13181E-06    88   0.401E-03
  14 F= -.95298083E+02 E0= -.95298083E+02  d E =-.105623E-02
       N       E                     dE             d eps       ncg     rms          rms(c)
DAV:   1    -0.953002108367E+02   -0.21280E-02   -0.13251E-01    84   0.168E+00    0.909E-02
DAV:   2    -0.953002129339E+02   -0.20972E-05   -0.21037E-03   120   0.171E-01    0.563E-02
DAV:   3    -0.953001757337E+02    0.37200E-04   -0.17839E-04   112   0.410E-02    0.212E-02
DAV:   4    -0.953001736571E+02    0.20766E-05   -0.13635E-05   112   0.121E-02    0.642E-03
DAV:   5    -0.953001729438E+02    0.71337E-06   -0.14541E-06    88   0.419E-03
  15 F= -.95300173E+02 E0= -.95300173E+02  d E =-.314655E-02
       N       E                     dE             d eps       ncg     rms          rms(c)
DAV:   1    -0.952996781779E+02    0.49548E-03   -0.53042E-01    84   0.337E+00    0.182E-01
DAV:   2    -0.952996886369E+02   -0.10459E-04   -0.84474E-03   120   0.343E-01    0.113E-01
DAV:   3    -0.952995364349E+02    0.15220E-03   -0.73113E-04   112   0.830E-02    0.423E-02
DAV:   4    -0.952995302380E+02    0.61969E-05   -0.54551E-05   112   0.243E-02    0.131E-02
DAV:   5    -0.952995307824E+02   -0.54439E-06   -0.65380E-06   104   0.836E-03
  16 F= -.95299531E+02 E0= -.95299531E+02  d E =-.250439E-02
       N       E                     dE             d eps       ncg     rms          rms(c)
DAV:   1    -0.953007242157E+02   -0.11940E-02   -0.18779E-01    84   0.201E+00    0.109E-01
DAV:   2    -0.953007431944E+02   -0.18979E-04   -0.29809E-03   120   0.203E-01    0.670E-02
DAV:   3    -0.953007000861E+02    0.43108E-04   -0.25246E-04   112   0.487E-02    0.248E-02
DAV:   4    -0.953007063321E+02   -0.62459E-05   -0.19448E-05   112   0.143E-02    0.758E-03
DAV:   5    -0.953007100221E+02   -0.36900E-05   -0.22175E-06    96   0.493E-03    0.244E-03
DAV:   6    -0.953007115502E+02   -0.15281E-05   -0.51137E-07    88   0.234E-03    0.841E-04
DAV:   7    -0.953007125547E+02   -0.10045E-05   -0.12629E-07    88   0.137E-03    0.293E-04
DAV:   8    -0.953007131941E+02   -0.63944E-06   -0.50541E-08    88   0.776E-04
  17 F= -.95300713E+02 E0= -.95300713E+02  d E =-.368680E-02
       N       E                     dE             d eps       ncg     rms          rms(c)
DAV:   1    -0.953005372938E+02    0.17526E-03   -0.11136E-02    92   0.409E-01    0.373E-02
DAV:   2    -0.953006136986E+02   -0.76405E-04   -0.98693E-04   120   0.113E-01    0.214E-02
DAV:   3    -0.953006101601E+02    0.35386E-05   -0.13187E-05   120   0.133E-02    0.139E-02
DAV:   4    -0.953006038247E+02    0.63354E-05   -0.49075E-06   112   0.847E-03    0.232E-03
DAV:   5    -0.953006020320E+02    0.17927E-05   -0.90887E-07    88   0.400E-03    0.140E-03
DAV:   6    -0.953006016546E+02    0.37735E-06   -0.48703E-07    88   0.282E-03
  18 F= -.95300602E+02 E0= -.95300602E+02  d E =0.111539E-03
       N       E                     dE             d eps       ncg     rms          rms(c)
DAV:   1    -0.953007642148E+02   -0.16218E-03   -0.41341E-03    92   0.249E-01    0.227E-02
DAV:   2    -0.953007946879E+02   -0.30473E-04   -0.36329E-04   120   0.684E-02    0.129E-02
DAV:   3    -0.953007953763E+02   -0.68843E-06   -0.47557E-06   104   0.811E-03
  19 F= -.95300795E+02 E0= -.95300795E+02  d E =-.821822E-04
