 vasp.5.4.4.18Apr17-6-g9f103f2a35 (build Nov 06 2017 19:16:10) complex          
  
 executed on           IFC91_ompi date 2018.07.21  15:33:42
 running on   12 total cores
 distrk:  each k-point on   12 cores,    1 groups
 distr:  one band on NCORES_PER_BAND=   6 cores,    2 groups


--------------------------------------------------------------------------------------------------------


 INCAR:
 POTCAR:    PAW_PBE Si 05Jan2001                  
 POTCAR:    PAW_PBE H 15Jun2001                   
 POTCAR:    PAW_PBE Si 05Jan2001                  
   VRHFIN =Si: s2p2                                                             
   LEXCH  = PE                                                                  
   EATOM  =   103.0669 eV,    7.5752 Ry                                         
                                                                                
   TITEL  = PAW_PBE Si 05Jan2001                                                
   LULTRA =        F    use ultrasoft PP ?                                      
   IUNSCR =        1    unscreen: 0-lin 1-nonlin 2-no                           
   RPACOR =    1.500    partial core radius                                     
   POMASS =   28.085; ZVAL   =    4.000    mass and valenz                      
   RCORE  =    1.900    outmost cutoff radius                                   
   RWIGS  =    2.480; RWIGS  =    1.312    wigner-seitz radius (au A)           
   ENMAX  =  245.345; ENMIN  =  184.009 eV                                      
   ICORE  =        2    local potential                                         
   LCOR   =        T    correct aug charges                                     
   LPAW   =        T    paw PP                                                  
   EAUG   =  322.069                                                            
   DEXC   =    0.000                                                            
   RMAX   =    1.950    core radius for proj-oper                               
   RAUG   =    1.300    factor for augmentation sphere                          
   RDEP   =    1.993    radius for radial grids                                 
   RDEPT  =    1.837    core radius for aug-charge                              
                                                                                
   Atomic configuration                                                         
    6 entries                                                                   
     n  l   j            E        occ.                                          
     1  0  0.50     -1785.8828   2.0000                                         
     2  0  0.50      -139.4969   2.0000                                         
     2  1  1.50       -95.5546   6.0000                                         
     3  0  0.50       -10.8127   2.0000                                         
     3  1  0.50        -4.0811   2.0000                                         
     3  2  1.50        -4.0817   0.0000                                         
   Description                                                                  
     l       E           TYP  RCUT    TYP  RCUT                                 
     0    -10.8127223     23  1.900                                             
     0     -7.6451159     23  1.900                                             
     1     -4.0811372     23  1.900                                             
     1      2.4879257     23  1.900                                             
     2     -4.0817478      7  1.900                                             
  local pseudopotential read in
  partial core-charges read in
  partial kinetic energy density read in
  atomic valenz-charges read in
  non local Contribution for L=           0  read in
    real space projection operators read in
  non local Contribution for L=           0  read in
    real space projection operators read in
  non local Contribution for L=           1  read in
    real space projection operators read in
  non local Contribution for L=           1  read in
    real space projection operators read in
    PAW grid and wavefunctions read in
 
   number of l-projection  operators is LMAX  =           4
   number of lm-projection operators is LMMAX =           8
 
 POTCAR:    PAW_PBE H 15Jun2001                   
   VRHFIN =H: ultrasoft test                                                    
   LEXCH  = PE                                                                  
   EATOM  =    12.4884 eV,    0.9179 Ry                                         
                                                                                
   TITEL  = PAW_PBE H 15Jun2001                                                 
   LULTRA =        F    use ultrasoft PP ?                                      
   IUNSCR =        0    unscreen: 0-lin 1-nonlin 2-no                           
   RPACOR =    0.000    partial core radius                                     
   POMASS =    1.000; ZVAL   =    1.000    mass and valenz                      
   RCORE  =    1.100    outmost cutoff radius                                   
   RWIGS  =    0.700; RWIGS  =    0.370    wigner-seitz radius (au A)           
   ENMAX  =  250.000; ENMIN  =  200.000 eV                                      
   RCLOC  =    0.701    cutoff for local pot                                    
   LCOR   =        T    correct aug charges                                     
   LPAW   =        T    paw PP                                                  
   EAUG   =  400.000                                                            
   RMAX   =    1.123    core radius for proj-oper                               
   RAUG   =    1.200    factor for augmentation sphere                          
   RDEP   =    1.112    radius for radial grids                                 
   RDEPT  =    0.926    core radius for aug-charge                              
                                                                                
   Atomic configuration                                                         
    2 entries                                                                   
     n  l   j            E        occ.                                          
     1  0  0.50        -6.4927   1.0000                                         
     2  1  0.50        -3.4015   0.0000                                         
   Description                                                                  
     l       E           TYP  RCUT    TYP  RCUT                                 
     0     -6.4927494     23  1.100                                             
     0      6.8029130     23  1.100                                             
     1     -4.0817478     23  1.100                                             
  local pseudopotential read in
  atomic valenz-charges read in
  non local Contribution for L=           0  read in
    real space projection operators read in
  non local Contribution for L=           0  read in
    real space projection operators read in
  non local Contribution for L=           1  read in
    real space projection operators read in
    PAW grid and wavefunctions read in
 
   number of l-projection  operators is LMAX  =           3
   number of lm-projection operators is LMMAX =           5
 

 ----------------------------------------------------------------------------- 
|                                                                             |
|  ADVICE TO THIS USER RUNNING 'VASP/VAMP'   (HEAR YOUR MASTER'S VOICE ...):  |
|                                                                             |
|      You have a (more or less) 'large supercell' and for larger cells       |
|      it might be more efficient to use real space projection opertators     |
|      So try LREAL= Auto  in the INCAR   file.                               |
|      Mind:          For very  accurate calculation you might also keep the  |
|      reciprocal projection scheme          (i.e. LREAL=.FALSE.)             |
|                                                                             |
 ----------------------------------------------------------------------------- 

  PAW_PBE Si 05Jan2001                  :
 energy of atom  1       EATOM= -103.0669
 kinetic energy error for atom=    0.0012 (will be added to EATOM!!)
  PAW_PBE H 15Jun2001                   :
 energy of atom  2       EATOM=  -12.4884
 kinetic energy error for atom=    0.0098 (will be added to EATOM!!)
 
 
 POSCAR: SiH16                                   
  positions in direct lattice
  No initial velocities read in
 exchange correlation table for  LEXCH =        8
   RHO(1)=    0.500       N(1)  =     2000
   RHO(2)=  100.500       N(2)  =     4000
 


--------------------------------------------------------------------------------------------------------


 ion  position               nearest neighbor table
   1  0.475  0.556  0.385-  18 1.55   4 2.39   2 2.39   3 2.39
   2  0.369  0.539  0.436-  23 1.55  24 1.55   5 2.39   1 2.39
   3  0.542  0.457  0.396-  17 1.55  16 1.55   6 2.39   1 2.39
   4  0.531  0.648  0.437-  25 1.55  26 1.55   7 2.39   1 2.39
   5  0.385  0.515  0.552-  22 1.55  10 2.39   9 2.39   2 2.39
   6  0.557  0.433  0.512-  13 1.55   3 2.39   8 2.39   9 2.39
   7  0.547  0.624  0.554-  19 1.55   4 2.39   8 2.39  10 2.39
   8  0.613  0.525  0.565-  15 1.55  14 1.55   7 2.39   6 2.39
   9  0.451  0.416  0.564-  12 1.55  11 1.55   5 2.39   6 2.39
  10  0.440  0.606  0.605-  20 1.55  21 1.55   5 2.39   7 2.39
  11  0.415  0.357  0.529-   9 1.55
  12  0.461  0.400  0.639-   9 1.55
  13  0.600  0.369  0.520-   6 1.55
  14  0.682  0.536  0.531-   8 1.55
  15  0.623  0.509  0.640-   8 1.55
  16  0.611  0.469  0.363-   3 1.55
  17  0.506  0.398  0.362-   3 1.55
  18  0.465  0.572  0.309-   1 1.55
  19  0.583  0.683  0.588-   7 1.55
  20  0.451  0.590  0.680-  10 1.55
  21  0.397  0.670  0.598-  10 1.55
  22  0.316  0.504  0.586-   5 1.55
  23  0.333  0.479  0.402-   2 1.55
  24  0.326  0.603  0.429-   2 1.55
  25  0.488  0.712  0.430-   4 1.55
  26  0.600  0.659  0.404-   4 1.55
 
  LATTYP: Found a simple cubic cell.
 ALAT       =    20.0000000000
  
  Lattice vectors:
  
 A1 = (  20.0000000000,   0.0000000000,   0.0000000000)
 A2 = (   0.0000000000,  20.0000000000,   0.0000000000)
 A3 = (   0.0000000000,   0.0000000000,  20.0000000000)


Analysis of symmetry for initial positions (statically):
=====================================================================
 Subroutine PRICEL returns:
 Original cell was already a primitive cell.
 

 Routine SETGRP: Setting up the symmetry group for a 
 simple cubic supercell.


 Subroutine GETGRP returns: Found  1 space group operations
 (whereof  1 operations were pure point group operations)
 out of a pool of 48 trial point group operations.


The static configuration has the point symmetry C_1 .


Analysis of symmetry for dynamics (positions and initial velocities):
=====================================================================
 Subroutine PRICEL returns:
 Original cell was already a primitive cell.
 

 Routine SETGRP: Setting up the symmetry group for a 
 simple cubic supercell.


 Subroutine GETGRP returns: Found  1 space group operations
 (whereof  1 operations were pure point group operations)
 out of a pool of 48 trial point group operations.


The dynamic configuration has the point symmetry C_1 .


 Subroutine INISYM returns: Found  1 space group operations
 (whereof  1 operations are pure point group operations),
 and found     1 'primitive' translations

 
 
 KPOINTS: Automatic mesh                          

Automatic generation of k-mesh.
Space group operators:
 irot       det(A)        alpha          n_x          n_y          n_z        tau_x        tau_y        tau_z
    1     1.000000     0.000000     1.000000     0.000000     0.000000     0.000000     0.000000     0.000000
 
 Subroutine IBZKPT returns following result:
 ===========================================
 
 Found      1 irreducible k-points:
 
 Following reciprocal coordinates:
            Coordinates               Weight
  0.000000  0.000000  0.000000      1.000000
 
 Following cartesian coordinates:
            Coordinates               Weight
  0.000000  0.000000  0.000000      1.000000
 


--------------------------------------------------------------------------------------------------------




 Dimension of arrays:
   k-points           NKPTS =      1   k-points in BZ     NKDIM =      1   number of bands    NBANDS=     42
   number of dos      NEDOS =    301   number of ions     NIONS =     26
   non local maximal  LDIM  =      4   non local SUM 2l+1 LMDIM =      8
   total plane-waves  NPLWV = 941192
   max r-space proj   IRMAX =      1   max aug-charges    IRDMAX=   4133
   dimension x,y,z NGX =    98 NGY =   98 NGZ =   98
   dimension x,y,z NGXF=   196 NGYF=  196 NGZF=  196
   support grid    NGXF=   196 NGYF=  196 NGZF=  196
   ions per type =              10  16
   NGX,Y,Z   is equivalent  to a cutoff of   8.15,  8.15,  8.15 a.u.
   NGXF,Y,Z  is equivalent  to a cutoff of  16.29, 16.29, 16.29 a.u.

 SYSTEM =  SiGe                                    
 POSCAR =  SiH16                                   

 Startparameter for this run:
   NWRITE =      2    write-flag & timer
   PREC   = normal    normal or accurate (medium, high low for compatibility)
   ISTART =      0    job   : 0-new  1-cont  2-samecut
   ICHARG =      2    charge: 1-file 2-atom 10-const
   ISPIN  =      1    spin polarized calculation?
   LNONCOLLINEAR =      F non collinear calculations
   LSORBIT =      F    spin-orbit coupling
   INIWAV =      1    electr: 0-lowe 1-rand  2-diag
   LASPH  =      F    aspherical Exc in radial PAW
   METAGGA=      F    non-selfconsistent MetaGGA calc.

 Electronic Relaxation 1
   ENCUT  =  400.0 eV  29.40 Ry    5.42 a.u.  32.61 32.61 32.61*2*pi/ulx,y,z
   ENINI  =  400.0     initial cutoff
   ENAUG  =  400.0 eV  augmentation charge cutoff
   NELM   =     60;   NELMIN=  2; NELMDL= -5     # of ELM steps 
   EDIFF  = 0.1E-05   stopping-criterion for ELM
   LREAL  =      F    real-space projection
   NLSPLINE    = F    spline interpolate recip. space projectors
   LCOMPAT=      F    compatible to vasp.4.4
   GGA_COMPAT  = T    GGA compatible to vasp.4.4-vasp.4.6
   LMAXPAW     = -100 max onsite density
   LMAXMIX     =    2 max onsite mixed and CHGCAR
   VOSKOWN=      0    Vosko Wilk Nusair interpolation
   ROPT   =    0.00000   0.00000
 Ionic relaxation
   EDIFFG = -.2E-01   stopping-criterion for IOM
   NSW    =    200    number of steps for IOM
   NBLOCK =      1;   KBLOCK =    200    inner block; outer block 
   IBRION =      2    ionic relax: 0-MD 1-quasi-New 2-CG
   NFREE  =      1    steps in history (QN), initial steepest desc. (CG)
   ISIF   =      2    stress and relaxation
   IWAVPR =     11    prediction:  0-non 1-charg 2-wave 3-comb
   ISYM   =      2    0-nonsym 1-usesym 2-fastsym
   LCORR  =      T    Harris-Foulkes like correction to forces

   POTIM  = 0.5000    time-step for ionic-motion
   TEIN   =    0.0    initial temperature
   TEBEG  =    0.0;   TEEND  =   0.0 temperature during run
   SMASS  =  -3.00    Nose mass-parameter (am)
   estimated Nose-frequenzy (Omega)   =  0.10E-29 period in steps =****** mass=  -0.914E-26a.u.
   SCALEE = 1.0000    scale energy and forces
   NPACO  =    256;   APACO  = 16.0  distance and # of slots for P.C.
   PSTRESS=    0.0 pullay stress

  Mass of Ions in am
   POMASS =  28.09  1.00
  Ionic Valenz
   ZVAL   =   4.00  1.00
  Atomic Wigner-Seitz radii
   RWIGS  =  -1.00 -1.00
  virtual crystal weights 
   VCA    =   1.00  1.00
   NELECT =      56.0000    total number of electrons
   NUPDOWN=      -1.0000    fix difference up-down

 DOS related values:
   EMIN   =  10.00;   EMAX   =-10.00  energy-range for DOS
   EFERMI =   0.00
   ISMEAR =     0;   SIGMA  =   0.20  broadening in eV -4-tet -1-fermi 0-gaus

 Electronic relaxation 2 (details)
   IALGO  =     38    algorithm
   LDIAG  =      T    sub-space diagonalisation (order eigenvalues)
   LSUBROT=      F    optimize rotation matrix (better conditioning)
   TURBO    =      0    0=normal 1=particle mesh
   IRESTART =      0    0=no restart 2=restart with 2 vectors
   NREBOOT  =      0    no. of reboots
   NMIN     =      0    reboot dimension
   EREF     =   0.00    reference energy to select bands
   IMIX   =      4    mixing-type and parameters
     AMIX     =   0.40;   BMIX     =  1.00
     AMIX_MAG =   1.60;   BMIX_MAG =  1.00
     AMIN     =   0.10
     WC   =   100.;   INIMIX=   1;  MIXPRE=   1;  MAXMIX= -45

 Intra band minimization:
   WEIMIN = 0.0010     energy-eigenvalue tresh-hold
   EBREAK =  0.60E-08  absolut break condition
   DEPER  =   0.30     relativ break condition  

   TIME   =   0.40     timestep for ELM

  volume/ion in A,a.u.               =     307.69      2076.41
  Fermi-wavevector in a.u.,A,eV,Ry     =   0.313166  0.591797  1.334361  0.098073
  Thomas-Fermi vector in A             =   1.193276
 
 Write flags
   LWAVE        =      T    write WAVECAR
   LDOWNSAMPLE  =      F    k-point downsampling of WAVECAR
   LCHARG       =      T    write CHGCAR
   LVTOT        =      F    write LOCPOT, total local potential
   LVHAR        =      F    write LOCPOT, Hartree potential only
   LELF         =      F    write electronic localiz. function (ELF)
   LORBIT       =      0    0 simple, 1 ext, 2 COOP (PROOUT), +10 PAW based schemes


 Dipole corrections
   LMONO  =      F    monopole corrections only (constant potential shift)
   LDIPOL =      F    correct potential (dipole corrections)
   IDIPOL =      0    1-x, 2-y, 3-z, 4-all directions 
   EPSILON=  1.0000000 bulk dielectric constant

 Exchange correlation treatment:
   GGA     =    --    GGA type
   LEXCH   =     8    internal setting for exchange type
   VOSKOWN=      0    Vosko Wilk Nusair interpolation
   LHFCALC =     F    Hartree Fock is set to
   LHFONE  =     F    Hartree Fock one center treatment
   AEXX    =    0.0000 exact exchange contribution

 Linear response parameters
   LEPSILON=     F    determine dielectric tensor
   LRPA    =     F    only Hartree local field effects (RPA)
   LNABLA  =     F    use nabla operator in PAW spheres
   LVEL    =     F    velocity operator in full k-point grid
   LINTERFAST=   F  fast interpolation
   KINTER  =     0    interpolate to denser k-point grid
   CSHIFT  =0.1000    complex shift for real part using Kramers Kronig
   OMEGAMAX=  -1.0    maximum frequency
   DEG_THRESHOLD= 0.2000000E-02 threshold for treating states as degnerate
   RTIME   =   -0.100 relaxation time in fs
  (WPLASMAI=    0.000 imaginary part of plasma frequency in eV, 0.658/RTIME)
   DFIELD  = 0.0000000 0.0000000 0.0000000 field for delta impulse in time
 
 Orbital magnetization related:
   ORBITALMAG=     F  switch on orbital magnetization
   LCHIMAG   =     F  perturbation theory with respect to B field
   DQ        =  0.001000  dq finite difference perturbation B field
   LLRAUG    =     F  two centre corrections for induced B field



--------------------------------------------------------------------------------------------------------


 conjugate gradient relaxation of ions
 charge density and potential will be updated during run
 non-spin polarized calculation
 Variant of blocked Davidson
 Davidson routine will perform the subspace rotation
 perform sub-space diagonalisation
    after iterative eigenvector-optimisation
 modified Broyden-mixing scheme, WC =      100.0
 initial mixing is a Kerker type mixing with AMIX =  0.4000 and BMIX =      1.0000
 Hartree-type preconditioning will be used
 using additional bands           14
 reciprocal scheme for non local part
 use partial core corrections
 calculate Harris-corrections to forces 
   (improved forces if not selfconsistent)
 use gradient corrections 
 use of overlap-Matrix (Vanderbilt PP)
 Gauss-broadening in eV      SIGMA  =   0.20


--------------------------------------------------------------------------------------------------------


  energy-cutoff  :      400.00
  volume of cell :     8000.00
      direct lattice vectors                 reciprocal lattice vectors
    20.000000000  0.000000000  0.000000000     0.050000000  0.000000000  0.000000000
     0.000000000 20.000000000  0.000000000     0.000000000  0.050000000  0.000000000
     0.000000000  0.000000000 20.000000000     0.000000000  0.000000000  0.050000000

  length of vectors
    20.000000000 20.000000000 20.000000000     0.050000000  0.050000000  0.050000000


 
 k-points in units of 2pi/SCALE and weight: Automatic mesh                          
   0.00000000  0.00000000  0.00000000       1.000
 
 k-points in reciprocal lattice and weights: Automatic mesh                          
   0.00000000  0.00000000  0.00000000       1.000
 
 position of ions in fractional coordinates (direct lattice) 
   0.47547100  0.55626000  0.38465300
   0.36907800  0.53906000  0.43641200
   0.54179100  0.45744600  0.39613600
   0.53111600  0.64794100  0.43749600
   0.38461900  0.51474100  0.55243500
   0.55736800  0.43311000  0.51215000
   0.54669200  0.62364400  0.55351800
   0.61299700  0.52481700  0.56496600
   0.45095700  0.41593600  0.56388300
   0.44028400  0.60643000  0.60524300
   0.41490100  0.35665000  0.52940300
   0.46117000  0.40042600  0.63910800
   0.60034800  0.36907000  0.51957800
   0.68182700  0.53600700  0.53118700
   0.62280400  0.50903400  0.64018900
   0.61080000  0.46880600  0.36278200
   0.50550800  0.39805500  0.36207700
   0.46538400  0.57201900  0.30946400
   0.58275500  0.68306700  0.58775000
   0.45052500  0.59044300  0.68036400
   0.39732000  0.67044900  0.59753500
   0.31566200  0.50359800  0.58596500
   0.33322800  0.47946500  0.40225200
   0.32629100  0.60324700  0.42912600
   0.48792300  0.71185500  0.43020800
   0.60015100  0.65882400  0.40403700
 
 position of ions in cartesian coordinates  (Angst):
   9.50942000 11.12520000  7.69306000
   7.38156000 10.78120000  8.72824000
  10.83582000  9.14892000  7.92272000
  10.62232000 12.95882000  8.74992000
   7.69238000 10.29482000 11.04870000
  11.14736000  8.66220000 10.24300000
  10.93384000 12.47288000 11.07036000
  12.25994000 10.49634000 11.29932000
   9.01914000  8.31872000 11.27766000
   8.80568000 12.12860000 12.10486000
   8.29802000  7.13300000 10.58806000
   9.22340000  8.00852000 12.78216000
  12.00696000  7.38140000 10.39156000
  13.63654000 10.72014000 10.62374000
  12.45608000 10.18068000 12.80378000
  12.21600000  9.37612000  7.25564000
  10.11016000  7.96110000  7.24154000
   9.30768000 11.44038000  6.18928000
  11.65510000 13.66134000 11.75500000
   9.01050000 11.80886000 13.60728000
   7.94640000 13.40898000 11.95070000
   6.31324000 10.07196000 11.71930000
   6.66456000  9.58930000  8.04504000
   6.52582000 12.06494000  8.58252000
   9.75846000 14.23710000  8.60416000
  12.00302000 13.17648000  8.08074000
 


--------------------------------------------------------------------------------------------------------


 k-point  1 :   0.0000 0.0000 0.0000  plane waves:  145165

 maximum and minimum number of plane-waves per node :     24209    24180

 maximum number of plane-waves:    145165
 maximum index in each direction: 
   IXMAX=   32   IYMAX=   32   IZMAX=   32
   IXMIN=  -32   IYMIN=  -32   IZMIN=  -32


 parallel 3D FFT for wavefunctions:
    minimum data exchange during FFTs selected (reduces bandwidth)
 parallel 3D FFT for charge:
    minimum data exchange during FFTs selected (reduces bandwidth)


 total amount of memory used by VASP MPI-rank0   121682. kBytes
=======================================================================

   base      :      30000. kBytes
   nonl-proj :      13170. kBytes
   fftplans  :      26957. kBytes
   grid      :      43395. kBytes
   one-center:         15. kBytes
   wavefun   :       8145. kBytes
 
     INWAV:  cpu time    0.0010: real time    0.0004
 Broyden mixing: mesh for mixing (old mesh)
   NGX = 65   NGY = 65   NGZ = 65
  (NGX  =196   NGY  =196   NGZ  =196)
  gives a total of 274625 points

 initial charge density was supplied:
 charge density of overlapping atoms calculated
 number of electron      56.0000000 magnetization 
 keeping initial charge density in first step


--------------------------------------------------------------------------------------------------------


 Maximum index for augmentation-charges          348 (set IRDMAX)


--------------------------------------------------------------------------------------------------------


 First call to EWALD:  gamma=   0.089
 Maximum number of real-space cells 3x 3x 3
 Maximum number of reciprocal cells 3x 3x 3

    FEWALD:  cpu time    0.0030: real time    0.0029


--------------------------------------- Iteration      1(   1)  ---------------------------------------


    POTLOK:  cpu time    1.7437: real time    1.7446
    SETDIJ:  cpu time    0.0060: real time    0.0062
     EDDAV:  cpu time    9.3396: real time    9.3384
       DOS:  cpu time    0.0010: real time    0.0004
    --------------------------------------------
      LOOP:  cpu time   11.0903: real time   11.0896

 eigenvalue-minimisations  :   116
 total energy-change (2. order) : 0.1894244E+03  (-0.1052810E+04)
 number of electron      56.0000000 magnetization 
 augmentation part       56.0000000 magnetization 

 Free energy of the ion-electron system (eV)
  ---------------------------------------------------
  alpha Z        PSCENC =         0.86195555
  Ewald energy   TEWEN  =      2629.98113996
  -Hartree energ DENC   =     -3446.54718935
  -exchange      EXHF   =         0.00000000
  -V(xc)+E(xc)   XCENC  =       -61.02907278
  PAW double counting   =       915.38243513     -739.59166142
  entropy T*S    EENTRO =        -0.43342174
  eigenvalues    EBANDS =      -339.51539844
  atomic energy  EATOM  =      1230.31558492
  Solvation  Ediel_sol  =         0.00000000
  ---------------------------------------------------
  free energy    TOTEN  =       189.42437183 eV

  energy without entropy =      189.85779356  energy(sigma->0) =      189.64108270


--------------------------------------------------------------------------------------------------------




--------------------------------------- Iteration      1(   2)  ---------------------------------------


     EDDAV:  cpu time   10.0855: real time   10.0841
       DOS:  cpu time    0.0000: real time    0.0002
    --------------------------------------------
      LOOP:  cpu time   10.0855: real time   10.0843

 eigenvalue-minimisations  :   128
 total energy-change (2. order) :-0.2240295E+03  (-0.2096653E+03)
 number of electron      56.0000000 magnetization 
 augmentation part       56.0000000 magnetization 

 Free energy of the ion-electron system (eV)
  ---------------------------------------------------
  alpha Z        PSCENC =         0.86195555
  Ewald energy   TEWEN  =      2629.98113996
  -Hartree energ DENC   =     -3446.54718935
  -exchange      EXHF   =         0.00000000
  -V(xc)+E(xc)   XCENC  =       -61.02907278
  PAW double counting   =       915.38243513     -739.59166142
  entropy T*S    EENTRO =        -0.00000000
  eigenvalues    EBANDS =      -563.97828079
  atomic energy  EATOM  =      1230.31558492
  Solvation  Ediel_sol  =         0.00000000
  ---------------------------------------------------
  free energy    TOTEN  =       -34.60508878 eV

  energy without entropy =      -34.60508878  energy(sigma->0) =      -34.60508878


--------------------------------------------------------------------------------------------------------




--------------------------------------- Iteration      1(   3)  ---------------------------------------


     EDDAV:  cpu time    9.0226: real time    9.0204
       DOS:  cpu time    0.0010: real time    0.0003
    --------------------------------------------
      LOOP:  cpu time    9.0236: real time    9.0207

 eigenvalue-minimisations  :   112
 total energy-change (2. order) :-0.7326384E+02  (-0.7308756E+02)
 number of electron      56.0000000 magnetization 
 augmentation part       56.0000000 magnetization 

 Free energy of the ion-electron system (eV)
  ---------------------------------------------------
  alpha Z        PSCENC =         0.86195555
  Ewald energy   TEWEN  =      2629.98113996
  -Hartree energ DENC   =     -3446.54718935
  -exchange      EXHF   =         0.00000000
  -V(xc)+E(xc)   XCENC  =       -61.02907278
  PAW double counting   =       915.38243513     -739.59166142
  entropy T*S    EENTRO =        -0.00000000
  eigenvalues    EBANDS =      -637.24211650
  atomic energy  EATOM  =      1230.31558492
  Solvation  Ediel_sol  =         0.00000000
  ---------------------------------------------------
  free energy    TOTEN  =      -107.86892449 eV

  energy without entropy =     -107.86892449  energy(sigma->0) =     -107.86892449


--------------------------------------------------------------------------------------------------------




--------------------------------------- Iteration      1(   4)  ---------------------------------------


     EDDAV:  cpu time    9.0656: real time    9.0771
       DOS:  cpu time    0.0000: real time    0.0002
    --------------------------------------------
      LOOP:  cpu time    9.0656: real time    9.0773

 eigenvalue-minimisations  :   112
 total energy-change (2. order) :-0.4081704E+01  (-0.4067018E+01)
 number of electron      56.0000000 magnetization 
 augmentation part       56.0000000 magnetization 

 Free energy of the ion-electron system (eV)
  ---------------------------------------------------
  alpha Z        PSCENC =         0.86195555
  Ewald energy   TEWEN  =      2629.98113996
  -Hartree energ DENC   =     -3446.54718935
  -exchange      EXHF   =         0.00000000
  -V(xc)+E(xc)   XCENC  =       -61.02907278
  PAW double counting   =       915.38243513     -739.59166142
  entropy T*S    EENTRO =        -0.00000000
  eigenvalues    EBANDS =      -641.32382073
  atomic energy  EATOM  =      1230.31558492
  Solvation  Ediel_sol  =         0.00000000
  ---------------------------------------------------
  free energy    TOTEN  =      -111.95062872 eV

  energy without entropy =     -111.95062872  energy(sigma->0) =     -111.95062872


--------------------------------------------------------------------------------------------------------




--------------------------------------- Iteration      1(   5)  ---------------------------------------


     EDDAV:  cpu time   10.5874: real time   10.5849
       DOS:  cpu time    0.0000: real time    0.0003
    CHARGE:  cpu time    0.4789: real time    0.4792
    MIXING:  cpu time    0.0440: real time    0.0431
    --------------------------------------------
      LOOP:  cpu time   11.1103: real time   11.1076

 eigenvalue-minimisations  :   136
 total energy-change (2. order) :-0.1031909E+00  (-0.1031309E+00)
 number of electron      56.0000022 magnetization 
 augmentation part       -1.9344974 magnetization 

 Broyden mixing:
  rms(total) = 0.16067E+01    rms(broyden)= 0.16066E+01
  rms(prec ) = 0.17033E+01
  weight for this iteration     100.00

 Free energy of the ion-electron system (eV)
  ---------------------------------------------------
  alpha Z        PSCENC =         0.86195555
  Ewald energy   TEWEN  =      2629.98113996
  -Hartree energ DENC   =     -3446.54718935
  -exchange      EXHF   =         0.00000000
  -V(xc)+E(xc)   XCENC  =       -61.02907278
  PAW double counting   =       915.38243513     -739.59166142
  entropy T*S    EENTRO =        -0.00000000
  eigenvalues    EBANDS =      -641.42701158
  atomic energy  EATOM  =      1230.31558492
  Solvation  Ediel_sol  =         0.00000000
  ---------------------------------------------------
  free energy    TOTEN  =      -112.05381957 eV

  energy without entropy =     -112.05381957  energy(sigma->0) =     -112.05381957


--------------------------------------------------------------------------------------------------------




--------------------------------------- Iteration      1(   6)  ---------------------------------------


    POTLOK:  cpu time    1.6777: real time    1.6776
    SETDIJ:  cpu time    0.0070: real time    0.0065
     EDDAV:  cpu time    8.6017: real time    8.6000
       DOS:  cpu time    0.0000: real time    0.0003
    CHARGE:  cpu time    0.4869: real time    0.4874
    MIXING:  cpu time    0.0460: real time    0.0459
    --------------------------------------------
      LOOP:  cpu time   10.8194: real time   10.8177

 eigenvalue-minimisations  :   104
 total energy-change (2. order) : 0.3356327E+01  (-0.1626839E+00)
 number of electron      56.0000021 magnetization 
 augmentation part       -1.9371325 magnetization 

 Broyden mixing:
  rms(total) = 0.93862E+00    rms(broyden)= 0.93862E+00
  rms(prec ) = 0.99700E+00
  weight for this iteration     100.00

 eigenvalues of (default mixing * dielectric matrix)
  average eigenvalue GAMMA=   2.3334
  2.3334

 Free energy of the ion-electron system (eV)
  ---------------------------------------------------
  alpha Z        PSCENC =         0.86195555
  Ewald energy   TEWEN  =      2629.98113996
  -Hartree energ DENC   =     -3478.96075172
  -exchange      EXHF   =         0.00000000
  -V(xc)+E(xc)   XCENC  =       -57.38016998
  PAW double counting   =      2025.13901473    -1849.90318884
  entropy T*S    EENTRO =        -0.00000000
  eigenvalues    EBANDS =      -608.75107724
  atomic energy  EATOM  =      1230.31558492
  Solvation  Ediel_sol  =         0.00000000
  ---------------------------------------------------
  free energy    TOTEN  =      -108.69749261 eV

  energy without entropy =     -108.69749261  energy(sigma->0) =     -108.69749261


--------------------------------------------------------------------------------------------------------




--------------------------------------- Iteration      1(   7)  ---------------------------------------


    POTLOK:  cpu time    1.6937: real time    1.7078
    SETDIJ:  cpu time    0.0070: real time    0.0068
     EDDAV:  cpu time    8.9536: real time    8.9523
       DOS:  cpu time    0.0000: real time    0.0003
    CHARGE:  cpu time    0.5019: real time    0.5010
    MIXING:  cpu time    0.0470: real time    0.0465
    --------------------------------------------
      LOOP:  cpu time   11.2033: real time   11.2146

 eigenvalue-minimisations  :   110
 total energy-change (2. order) : 0.1775356E+01  (-0.4374163E+00)
 number of electron      56.0000019 magnetization 
 augmentation part       -1.9384329 magnetization 

 Broyden mixing:
  rms(total) = 0.12520E+00    rms(broyden)= 0.12505E+00
  rms(prec ) = 0.15596E+00
  weight for this iteration     100.00

 eigenvalues of (default mixing * dielectric matrix)
  average eigenvalue GAMMA=   1.8253
  1.6062  2.0443

 Free energy of the ion-electron system (eV)
  ---------------------------------------------------
  alpha Z        PSCENC =         0.86195555
  Ewald energy   TEWEN  =      2629.98113996
  -Hartree energ DENC   =     -3537.42864092
  -exchange      EXHF   =         0.00000000
  -V(xc)+E(xc)   XCENC  =       -51.49729549
  PAW double counting   =      4609.64669749    -4435.18176425
  entropy T*S    EENTRO =        -0.00000000
  eigenvalues    EBANDS =      -553.61981344
  atomic energy  EATOM  =      1230.31558492
  Solvation  Ediel_sol  =         0.00000000
  ---------------------------------------------------
  free energy    TOTEN  =      -106.92213617 eV

  energy without entropy =     -106.92213617  energy(sigma->0) =     -106.92213617


--------------------------------------------------------------------------------------------------------




--------------------------------------- Iteration      1(   8)  ---------------------------------------


    POTLOK:  cpu time    1.6757: real time    1.6809
    SETDIJ:  cpu time    0.0070: real time    0.0070
     EDDAV:  cpu time    8.5997: real time    8.6181
       DOS:  cpu time    0.0000: real time    0.0003
    CHARGE:  cpu time    0.4809: real time    0.4821
    MIXING:  cpu time    0.0490: real time    0.0492
    --------------------------------------------
      LOOP:  cpu time   10.8124: real time   10.8375

 eigenvalue-minimisations  :   104
 total energy-change (2. order) : 0.4707194E-01  (-0.2769268E-01)
 number of electron      56.0000019 magnetization 
 augmentation part       -1.9365567 magnetization 

 Broyden mixing:
  rms(total) = 0.64733E-01    rms(broyden)= 0.64719E-01
  rms(prec ) = 0.83762E-01
  weight for this iteration     100.00

 eigenvalues of (default mixing * dielectric matrix)
  average eigenvalue GAMMA=   2.0015
  2.6363  1.6841  1.6841

 Free energy of the ion-electron system (eV)
  ---------------------------------------------------
  alpha Z        PSCENC =         0.86195555
  Ewald energy   TEWEN  =      2629.98113996
  -Hartree energ DENC   =     -3544.36985605
  -exchange      EXHF   =         0.00000000
  -V(xc)+E(xc)   XCENC  =       -51.62076541
  PAW double counting   =      4599.12171685    -4424.56212947
  entropy T*S    EENTRO =        -0.00000000
  eigenvalues    EBANDS =      -546.60271058
  atomic energy  EATOM  =      1230.31558492
  Solvation  Ediel_sol  =         0.00000000
  ---------------------------------------------------
  free energy    TOTEN  =      -106.87506424 eV

  energy without entropy =     -106.87506424  energy(sigma->0) =     -106.87506424


--------------------------------------------------------------------------------------------------------




--------------------------------------- Iteration      1(   9)  ---------------------------------------


    POTLOK:  cpu time    1.6907: real time    1.6942
    SETDIJ:  cpu time    0.0070: real time    0.0074
     EDDAV:  cpu time    9.5885: real time    9.6133
       DOS:  cpu time    0.0010: real time    0.0003
    CHARGE:  cpu time    0.4859: real time    0.4867
    MIXING:  cpu time    0.0520: real time    0.0518
    --------------------------------------------
      LOOP:  cpu time   11.8252: real time   11.8537

 eigenvalue-minimisations  :   120
 total energy-change (2. order) : 0.3458982E-01  (-0.7712825E-02)
 number of electron      56.0000019 magnetization 
 augmentation part       -1.9296050 magnetization 

 Broyden mixing:
  rms(total) = 0.38968E-01    rms(broyden)= 0.38968E-01
  rms(prec ) = 0.49628E-01
  weight for this iteration     100.00

 eigenvalues of (default mixing * dielectric matrix)
  average eigenvalue GAMMA=   1.7190
  2.4697  1.8367  1.8367  0.7330

 Free energy of the ion-electron system (eV)
  ---------------------------------------------------
  alpha Z        PSCENC =         0.86195555
  Ewald energy   TEWEN  =      2629.98113996
  -Hartree energ DENC   =     -3556.23784305
  -exchange      EXHF   =         0.00000000
  -V(xc)+E(xc)   XCENC  =       -50.95086996
  PAW double counting   =      4723.83725717    -4549.27869736
  entropy T*S    EENTRO =        -0.00000000
  eigenvalues    EBANDS =      -535.36900165
  atomic energy  EATOM  =      1230.31558492
  Solvation  Ediel_sol  =         0.00000000
  ---------------------------------------------------
  free energy    TOTEN  =      -106.84047442 eV

  energy without entropy =     -106.84047442  energy(sigma->0) =     -106.84047442


--------------------------------------------------------------------------------------------------------




--------------------------------------- Iteration      1(  10)  ---------------------------------------


    POTLOK:  cpu time    1.6957: real time    1.6975
    SETDIJ:  cpu time    0.0070: real time    0.0072
     EDDAV:  cpu time    9.1056: real time    9.1097
       DOS:  cpu time    0.0010: real time    0.0003
    CHARGE:  cpu time    0.4809: real time    0.4808
    MIXING:  cpu time    0.0540: real time    0.0541
    --------------------------------------------
      LOOP:  cpu time   11.3443: real time   11.3496

 eigenvalue-minimisations  :   112
 total energy-change (2. order) :-0.4482428E-03  (-0.3588155E-03)
 number of electron      56.0000019 magnetization 
 augmentation part       -1.9294853 magnetization 

 Broyden mixing:
  rms(total) = 0.18267E-01    rms(broyden)= 0.18266E-01
  rms(prec ) = 0.30937E-01
  weight for this iteration     100.00

 eigenvalues of (default mixing * dielectric matrix)
  average eigenvalue GAMMA=   1.9206
  2.8523  1.0424  2.2282  1.7399  1.7399

 Free energy of the ion-electron system (eV)
  ---------------------------------------------------
  alpha Z        PSCENC =         0.86195555
  Ewald energy   TEWEN  =      2629.98113996
  -Hartree energ DENC   =     -3558.01845983
  -exchange      EXHF   =         0.00000000
  -V(xc)+E(xc)   XCENC  =       -50.98394567
  PAW double counting   =      4611.90320284    -4437.30008523
  entropy T*S    EENTRO =        -0.00000000
  eigenvalues    EBANDS =      -533.60031520
  atomic energy  EATOM  =      1230.31558492
  Solvation  Ediel_sol  =         0.00000000
  ---------------------------------------------------
  free energy    TOTEN  =      -106.84092266 eV

  energy without entropy =     -106.84092266  energy(sigma->0) =     -106.84092266


--------------------------------------------------------------------------------------------------------




--------------------------------------- Iteration      1(  11)  ---------------------------------------


    POTLOK:  cpu time    1.7037: real time    1.7058
    SETDIJ:  cpu time    0.0080: real time    0.0070
     EDDAV:  cpu time    8.5717: real time    8.5754
       DOS:  cpu time    0.0000: real time    0.0003
    CHARGE:  cpu time    0.4879: real time    0.4873
    MIXING:  cpu time    0.0570: real time    0.0570
    --------------------------------------------
      LOOP:  cpu time   10.8284: real time   10.8328

 eigenvalue-minimisations  :   104
 total energy-change (2. order) : 0.8459094E-03  (-0.8158158E-03)
 number of electron      56.0000019 magnetization 
 augmentation part       -1.9290316 magnetization 

 Broyden mixing:
  rms(total) = 0.84634E-02    rms(broyden)= 0.84631E-02
  rms(prec ) = 0.14444E-01
  weight for this iteration     100.00

 eigenvalues of (default mixing * dielectric matrix)
  average eigenvalue GAMMA=   1.8356
  3.1710  2.4815  1.7559  1.7559  1.0221  0.8271

 Free energy of the ion-electron system (eV)
  ---------------------------------------------------
  alpha Z        PSCENC =         0.86195555
  Ewald energy   TEWEN  =      2629.98113996
  -Hartree energ DENC   =     -3565.64585144
  -exchange      EXHF   =         0.00000000
  -V(xc)+E(xc)   XCENC  =       -50.76613278
  PAW double counting   =      4544.39813869    -4369.74490653
  entropy T*S    EENTRO =        -0.00000000
  eigenvalues    EBANDS =      -526.24000512
  atomic energy  EATOM  =      1230.31558492
  Solvation  Ediel_sol  =         0.00000000
  ---------------------------------------------------
  free energy    TOTEN  =      -106.84007675 eV

  energy without entropy =     -106.84007675  energy(sigma->0) =     -106.84007675


--------------------------------------------------------------------------------------------------------




--------------------------------------- Iteration      1(  12)  ---------------------------------------


    POTLOK:  cpu time    1.7077: real time    1.7139
    SETDIJ:  cpu time    0.0070: real time    0.0066
     EDDAV:  cpu time    8.9126: real time    8.9160
       DOS:  cpu time    0.0000: real time    0.0003
    CHARGE:  cpu time    0.4849: real time    0.4849
    MIXING:  cpu time    0.0600: real time    0.0601
    --------------------------------------------
      LOOP:  cpu time   11.1723: real time   11.1819

 eigenvalue-minimisations  :   110
 total energy-change (2. order) :-0.3035073E-02  (-0.6030630E-04)
 number of electron      56.0000019 magnetization 
 augmentation part       -1.9288486 magnetization 

 Broyden mixing:
  rms(total) = 0.61747E-02    rms(broyden)= 0.61747E-02
  rms(prec ) = 0.11056E-01
  weight for this iteration     100.00

 eigenvalues of (default mixing * dielectric matrix)
  average eigenvalue GAMMA=   2.0394
  4.3833  2.5417  2.3166  1.5972  1.5972  0.9198  0.9198

 Free energy of the ion-electron system (eV)
  ---------------------------------------------------
  alpha Z        PSCENC =         0.86195555
  Ewald energy   TEWEN  =      2629.98113996
  -Hartree energ DENC   =     -3567.05122115
  -exchange      EXHF   =         0.00000000
  -V(xc)+E(xc)   XCENC  =       -50.74685283
  PAW double counting   =      4540.54572422    -4365.89166704
  entropy T*S    EENTRO =        -0.00000000
  eigenvalues    EBANDS =      -524.85777547
  atomic energy  EATOM  =      1230.31558492
  Solvation  Ediel_sol  =         0.00000000
  ---------------------------------------------------
  free energy    TOTEN  =      -106.84311183 eV

  energy without entropy =     -106.84311183  energy(sigma->0) =     -106.84311183


--------------------------------------------------------------------------------------------------------




--------------------------------------- Iteration      1(  13)  ---------------------------------------


    POTLOK:  cpu time    1.7207: real time    1.7242
    SETDIJ:  cpu time    0.0070: real time    0.0073
     EDDAV:  cpu time    8.3947: real time    8.4025
       DOS:  cpu time    0.0010: real time    0.0004
    CHARGE:  cpu time    0.4799: real time    0.4799
    MIXING:  cpu time    0.0640: real time    0.0647
    --------------------------------------------
      LOOP:  cpu time   10.6674: real time   10.6790

 eigenvalue-minimisations  :   102
 total energy-change (2. order) :-0.5427247E-02  (-0.2360910E-03)
 number of electron      56.0000019 magnetization 
 augmentation part       -1.9287056 magnetization 

 Broyden mixing:
  rms(total) = 0.41106E-02    rms(broyden)= 0.41105E-02
  rms(prec ) = 0.57383E-02
  weight for this iteration     100.00

 eigenvalues of (default mixing * dielectric matrix)
  average eigenvalue GAMMA=   2.1775
  5.7566  2.8557  2.4786  1.7634  1.7634  0.9936  0.9042  0.9042

 Free energy of the ion-electron system (eV)
  ---------------------------------------------------
  alpha Z        PSCENC =         0.86195555
  Ewald energy   TEWEN  =      2629.98113996
  -Hartree energ DENC   =     -3570.38709751
  -exchange      EXHF   =         0.00000000
  -V(xc)+E(xc)   XCENC  =       -50.69072177
  PAW double counting   =      4543.65560994    -4369.00716102
  entropy T*S    EENTRO =        -0.00000000
  eigenvalues    EBANDS =      -521.57784915
  atomic energy  EATOM  =      1230.31558492
  Solvation  Ediel_sol  =         0.00000000
  ---------------------------------------------------
  free energy    TOTEN  =      -106.84853907 eV

  energy without entropy =     -106.84853907  energy(sigma->0) =     -106.84853907


--------------------------------------------------------------------------------------------------------




--------------------------------------- Iteration      1(  14)  ---------------------------------------


    POTLOK:  cpu time    1.6997: real time    1.7003
    SETDIJ:  cpu time    0.0060: real time    0.0063
     EDDAV:  cpu time    9.0166: real time    9.0273
       DOS:  cpu time    0.0010: real time    0.0003
    CHARGE:  cpu time    0.4829: real time    0.4822
    MIXING:  cpu time    0.0700: real time    0.0704
    --------------------------------------------
      LOOP:  cpu time   11.2763: real time   11.2870

 eigenvalue-minimisations  :   112
 total energy-change (2. order) :-0.3659009E-02  (-0.3188403E-04)
 number of electron      56.0000019 magnetization 
 augmentation part       -1.9284229 magnetization 

 Broyden mixing:
  rms(total) = 0.19055E-02    rms(broyden)= 0.19055E-02
  rms(prec ) = 0.30781E-02
  weight for this iteration     100.00

 eigenvalues of (default mixing * dielectric matrix)
  average eigenvalue GAMMA=   2.3084
  6.6658  2.9019  2.9019  2.0928  1.6480  1.6480  1.0976  0.9098  0.9098

 Free energy of the ion-electron system (eV)
  ---------------------------------------------------
  alpha Z        PSCENC =         0.86195555
  Ewald energy   TEWEN  =      2629.98113996
  -Hartree energ DENC   =     -3571.25981668
  -exchange      EXHF   =         0.00000000
  -V(xc)+E(xc)   XCENC  =       -50.69057110
  PAW double counting   =      4546.89215041    -4372.24748401
  entropy T*S    EENTRO =        -0.00000000
  eigenvalues    EBANDS =      -520.70515713
  atomic energy  EATOM  =      1230.31558492
  Solvation  Ediel_sol  =         0.00000000
  ---------------------------------------------------
  free energy    TOTEN  =      -106.85219808 eV

  energy without entropy =     -106.85219808  energy(sigma->0) =     -106.85219808


--------------------------------------------------------------------------------------------------------




--------------------------------------- Iteration      1(  15)  ---------------------------------------


    POTLOK:  cpu time    1.6977: real time    1.6989
    SETDIJ:  cpu time    0.0080: real time    0.0074
     EDDAV:  cpu time    8.5187: real time    8.5222
       DOS:  cpu time    0.0000: real time    0.0004
    CHARGE:  cpu time    0.4819: real time    0.4815
    MIXING:  cpu time    0.0770: real time    0.0775
    --------------------------------------------
      LOOP:  cpu time   10.7834: real time   10.7878

 eigenvalue-minimisations  :   104
 total energy-change (2. order) :-0.5386632E-02  (-0.7944537E-04)
 number of electron      56.0000019 magnetization 
 augmentation part       -1.9281908 magnetization 

 Broyden mixing:
  rms(total) = 0.23201E-02    rms(broyden)= 0.23200E-02
  rms(prec ) = 0.26846E-02
  weight for this iteration     100.00

 eigenvalues of (default mixing * dielectric matrix)
  average eigenvalue GAMMA=   2.3370
  6.8538  4.0551  2.6251  2.2755  1.8200  1.8200  1.0780  0.9464  0.9480  0.9480

 Free energy of the ion-electron system (eV)
  ---------------------------------------------------
  alpha Z        PSCENC =         0.86195555
  Ewald energy   TEWEN  =      2629.98113996
  -Hartree energ DENC   =     -3571.43824318
  -exchange      EXHF   =         0.00000000
  -V(xc)+E(xc)   XCENC  =       -50.70888666
  PAW double counting   =      4552.53783531    -4377.89218473
  entropy T*S    EENTRO =        -0.00000000
  eigenvalues    EBANDS =      -520.51478588
  atomic energy  EATOM  =      1230.31558492
  Solvation  Ediel_sol  =         0.00000000
  ---------------------------------------------------
  free energy    TOTEN  =      -106.85758471 eV

  energy without entropy =     -106.85758471  energy(sigma->0) =     -106.85758471


--------------------------------------------------------------------------------------------------------




--------------------------------------- Iteration      1(  16)  ---------------------------------------


    POTLOK:  cpu time    1.6967: real time    1.6985
    SETDIJ:  cpu time    0.0060: real time    0.0068
     EDDAV:  cpu time    9.0516: real time    9.0541
       DOS:  cpu time    0.0000: real time    0.0003
    CHARGE:  cpu time    0.4839: real time    0.4840
    MIXING:  cpu time    0.0860: real time    0.0863
    --------------------------------------------
      LOOP:  cpu time   11.3243: real time   11.3301

 eigenvalue-minimisations  :   112
 total energy-change (2. order) :-0.1018178E-02  (-0.6410470E-05)
 number of electron      56.0000019 magnetization 
 augmentation part       -1.9282939 magnetization 

 Broyden mixing:
  rms(total) = 0.11155E-02    rms(broyden)= 0.11155E-02
  rms(prec ) = 0.13388E-02
  weight for this iteration     100.00

 eigenvalues of (default mixing * dielectric matrix)
  average eigenvalue GAMMA=   2.4585
  7.5237  4.9280  2.6799  2.6799  1.8409  1.8409  1.3716  1.3716  0.9782  0.9145
  0.9145

 Free energy of the ion-electron system (eV)
  ---------------------------------------------------
  alpha Z        PSCENC =         0.86195555
  Ewald energy   TEWEN  =      2629.98113996
  -Hartree energ DENC   =     -3571.55670080
  -exchange      EXHF   =         0.00000000
  -V(xc)+E(xc)   XCENC  =       -50.70688748
  PAW double counting   =      4551.98547452    -4377.33787578
  entropy T*S    EENTRO =        -0.00000000
  eigenvalues    EBANDS =      -520.40129378
  atomic energy  EATOM  =      1230.31558492
  Solvation  Ediel_sol  =         0.00000000
  ---------------------------------------------------
  free energy    TOTEN  =      -106.85860289 eV

  energy without entropy =     -106.85860289  energy(sigma->0) =     -106.85860289


--------------------------------------------------------------------------------------------------------




--------------------------------------- Iteration      1(  17)  ---------------------------------------


    POTLOK:  cpu time    1.6947: real time    1.6953
    SETDIJ:  cpu time    0.0070: real time    0.0079
     EDDAV:  cpu time    8.4027: real time    8.4112
       DOS:  cpu time    0.0000: real time    0.0004
    CHARGE:  cpu time    0.4809: real time    0.4819
    MIXING:  cpu time    0.0950: real time    0.0954
    --------------------------------------------
      LOOP:  cpu time   10.6804: real time   10.6922

 eigenvalue-minimisations  :   102
 total energy-change (2. order) :-0.9372571E-03  (-0.8335305E-05)
 number of electron      56.0000019 magnetization 
 augmentation part       -1.9284586 magnetization 

 Broyden mixing:
  rms(total) = 0.33694E-03    rms(broyden)= 0.33688E-03
  rms(prec ) = 0.46928E-03
  weight for this iteration     100.00

 eigenvalues of (default mixing * dielectric matrix)
  average eigenvalue GAMMA=   2.3444
  7.4926  4.9929  2.7018  2.7018  1.8897  1.8897  1.4259  1.4259  0.9259  0.9259
  0.9349  0.8262

 Free energy of the ion-electron system (eV)
  ---------------------------------------------------
  alpha Z        PSCENC =         0.86195555
  Ewald energy   TEWEN  =      2629.98113996
  -Hartree energ DENC   =     -3571.59993678
  -exchange      EXHF   =         0.00000000
  -V(xc)+E(xc)   XCENC  =       -50.70614849
  PAW double counting   =      4549.47456432    -4374.82590954
  entropy T*S    EENTRO =        -0.00000000
  eigenvalues    EBANDS =      -520.36079010
  atomic energy  EATOM  =      1230.31558492
  Solvation  Ediel_sol  =         0.00000000
  ---------------------------------------------------
  free energy    TOTEN  =      -106.85954015 eV

  energy without entropy =     -106.85954015  energy(sigma->0) =     -106.85954015


--------------------------------------------------------------------------------------------------------




--------------------------------------- Iteration      1(  18)  ---------------------------------------


    POTLOK:  cpu time    1.6967: real time    1.6962
    SETDIJ:  cpu time    0.0060: real time    0.0066
     EDDAV:  cpu time    9.0766: real time    9.0805
       DOS:  cpu time    0.0000: real time    0.0003
    CHARGE:  cpu time    0.4859: real time    0.4863
    MIXING:  cpu time    0.1050: real time    0.1047
    --------------------------------------------
      LOOP:  cpu time   11.3703: real time   11.3746

 eigenvalue-minimisations  :   112
 total energy-change (2. order) :-0.1753531E-03  (-0.5519272E-06)
 number of electron      56.0000019 magnetization 
 augmentation part       -1.9284797 magnetization 

 Broyden mixing:
  rms(total) = 0.27411E-03    rms(broyden)= 0.27407E-03
  rms(prec ) = 0.35568E-03
  weight for this iteration     100.00

 eigenvalues of (default mixing * dielectric matrix)
  average eigenvalue GAMMA=   2.4855
  8.1355  5.6333  3.1288  2.7360  2.2175  1.8494  1.8494  1.4490  1.4490  1.0567
  0.9717  0.9176  0.9176

 Free energy of the ion-electron system (eV)
  ---------------------------------------------------
  alpha Z        PSCENC =         0.86195555
  Ewald energy   TEWEN  =      2629.98113996
  -Hartree energ DENC   =     -3571.61262372
  -exchange      EXHF   =         0.00000000
  -V(xc)+E(xc)   XCENC  =       -50.70644048
  PAW double counting   =      4549.03050422    -4374.38244807
  entropy T*S    EENTRO =        -0.00000000
  eigenvalues    EBANDS =      -520.34738788
  atomic energy  EATOM  =      1230.31558492
  Solvation  Ediel_sol  =         0.00000000
  ---------------------------------------------------
  free energy    TOTEN  =      -106.85971550 eV

  energy without entropy =     -106.85971550  energy(sigma->0) =     -106.85971550


--------------------------------------------------------------------------------------------------------




--------------------------------------- Iteration      1(  19)  ---------------------------------------


    POTLOK:  cpu time    1.7347: real time    1.7362
    SETDIJ:  cpu time    0.0070: real time    0.0066
     EDDAV:  cpu time    7.9158: real time    7.9164
       DOS:  cpu time    0.0010: real time    0.0003
    CHARGE:  cpu time    0.4829: real time    0.4837
    MIXING:  cpu time    0.1190: real time    0.1188
    --------------------------------------------
      LOOP:  cpu time   10.2604: real time   10.2620

 eigenvalue-minimisations  :    94
 total energy-change (2. order) :-0.2200465E-03  (-0.8956468E-06)
 number of electron      56.0000019 magnetization 
 augmentation part       -1.9284825 magnetization 

 Broyden mixing:
  rms(total) = 0.24394E-03    rms(broyden)= 0.24394E-03
  rms(prec ) = 0.27727E-03
  weight for this iteration     100.00

 eigenvalues of (default mixing * dielectric matrix)
  average eigenvalue GAMMA=   2.4827
  8.3120  6.2346  3.5064  2.6574  2.5104  1.8689  1.8689  1.4323  1.4323  0.9123
  0.9123  1.0049  1.0528  1.0528

 Free energy of the ion-electron system (eV)
  ---------------------------------------------------
  alpha Z        PSCENC =         0.86195555
  Ewald energy   TEWEN  =      2629.98113996
  -Hartree energ DENC   =     -3571.63990848
  -exchange      EXHF   =         0.00000000
  -V(xc)+E(xc)   XCENC  =       -50.70511326
  PAW double counting   =      4548.59085705    -4373.94328970
  entropy T*S    EENTRO =        -0.00000000
  eigenvalues    EBANDS =      -520.32116159
  atomic energy  EATOM  =      1230.31558492
  Solvation  Ediel_sol  =         0.00000000
  ---------------------------------------------------
  free energy    TOTEN  =      -106.85993555 eV

  energy without entropy =     -106.85993555  energy(sigma->0) =     -106.85993555


--------------------------------------------------------------------------------------------------------




--------------------------------------- Iteration      1(  20)  ---------------------------------------


    POTLOK:  cpu time    1.7017: real time    1.7019
    SETDIJ:  cpu time    0.0070: real time    0.0069
     EDDAV:  cpu time    7.5638: real time    7.5754
       DOS:  cpu time    0.0000: real time    0.0003
    CHARGE:  cpu time    0.4849: real time    0.4844
    MIXING:  cpu time    0.1300: real time    0.1306
    --------------------------------------------
      LOOP:  cpu time    9.8875: real time    9.8995

 eigenvalue-minimisations  :    88
 total energy-change (2. order) :-0.3718225E-04  (-0.9506460E-07)
 number of electron      56.0000019 magnetization 
 augmentation part       -1.9284584 magnetization 

 Broyden mixing:
  rms(total) = 0.79516E-04    rms(broyden)= 0.79515E-04
  rms(prec ) = 0.10197E-03
  weight for this iteration     100.00

 eigenvalues of (default mixing * dielectric matrix)
  average eigenvalue GAMMA=   2.4855
  8.4962  6.2889  3.8203  2.6802  2.6802  1.8510  1.8510  1.7284  1.7284  1.2297
  1.2297  0.9236  0.9236  0.9472  0.9046

 Free energy of the ion-electron system (eV)
  ---------------------------------------------------
  alpha Z        PSCENC =         0.86195555
  Ewald energy   TEWEN  =      2629.98113996
  -Hartree energ DENC   =     -3571.64389162
  -exchange      EXHF   =         0.00000000
  -V(xc)+E(xc)   XCENC  =       -50.70586167
  PAW double counting   =      4548.79342285    -4374.14607985
  entropy T*S    EENTRO =        -0.00000000
  eigenvalues    EBANDS =      -520.31624287
  atomic energy  EATOM  =      1230.31558492
  Solvation  Ediel_sol  =         0.00000000
  ---------------------------------------------------
  free energy    TOTEN  =      -106.85997273 eV

  energy without entropy =     -106.85997273  energy(sigma->0) =     -106.85997273


--------------------------------------------------------------------------------------------------------




--------------------------------------- Iteration      1(  21)  ---------------------------------------


    POTLOK:  cpu time    1.6967: real time    1.6967
    SETDIJ:  cpu time    0.0070: real time    0.0069
     EDDAV:  cpu time    7.0989: real time    7.0986
       DOS:  cpu time    0.0000: real time    0.0003
    CHARGE:  cpu time    0.4789: real time    0.4792
    MIXING:  cpu time    0.1440: real time    0.1433
    --------------------------------------------
      LOOP:  cpu time    9.4256: real time    9.4251

 eigenvalue-minimisations  :    80
 total energy-change (2. order) :-0.2526971E-04  (-0.5251703E-07)
 number of electron      56.0000019 magnetization 
 augmentation part       -1.9284514 magnetization 

 Broyden mixing:
  rms(total) = 0.94503E-04    rms(broyden)= 0.94501E-04
  rms(prec ) = 0.10339E-03
  weight for this iteration     100.00

 eigenvalues of (default mixing * dielectric matrix)
  average eigenvalue GAMMA=   2.4964
  8.5725  6.6383  4.1109  3.0268  2.6478  2.2150  1.9132  1.9132  1.4780  1.4780
  0.9121  0.9121  0.9583  1.0862  1.0401  1.0401

 Free energy of the ion-electron system (eV)
  ---------------------------------------------------
  alpha Z        PSCENC =         0.86195555
  Ewald energy   TEWEN  =      2629.98113996
  -Hartree energ DENC   =     -3571.64959097
  -exchange      EXHF   =         0.00000000
  -V(xc)+E(xc)   XCENC  =       -50.70577572
  PAW double counting   =      4549.27740673    -4374.62998158
  entropy T*S    EENTRO =        -0.00000000
  eigenvalues    EBANDS =      -520.31073690
  atomic energy  EATOM  =      1230.31558492
  Solvation  Ediel_sol  =         0.00000000
  ---------------------------------------------------
  free energy    TOTEN  =      -106.85999800 eV

  energy without entropy =     -106.85999800  energy(sigma->0) =     -106.85999800


--------------------------------------------------------------------------------------------------------




--------------------------------------- Iteration      1(  22)  ---------------------------------------


    POTLOK:  cpu time    1.6837: real time    1.6969
    SETDIJ:  cpu time    0.0070: real time    0.0069
     EDDAV:  cpu time    7.0819: real time    7.0850
       DOS:  cpu time    0.0010: real time    0.0004
    CHARGE:  cpu time    0.4839: real time    0.4845
    MIXING:  cpu time    0.1530: real time    0.1533
    --------------------------------------------
      LOOP:  cpu time    9.4106: real time    9.4269

 eigenvalue-minimisations  :    80
 total energy-change (2. order) :-0.9323066E-05  (-0.2375926E-07)
 number of electron      56.0000019 magnetization 
 augmentation part       -1.9284569 magnetization 

 Broyden mixing:
  rms(total) = 0.44585E-04    rms(broyden)= 0.44585E-04
  rms(prec ) = 0.48859E-04
  weight for this iteration     100.00

 eigenvalues of (default mixing * dielectric matrix)
  average eigenvalue GAMMA=   2.4659
  8.7807  6.6819  4.5052  3.1112  2.5137  2.5137  1.7730  1.7730  1.5751  1.5751
  1.1854  1.1854  0.9965  0.9965  0.9188  0.9188  0.9164

 Free energy of the ion-electron system (eV)
  ---------------------------------------------------
  alpha Z        PSCENC =         0.86195555
  Ewald energy   TEWEN  =      2629.98113996
  -Hartree energ DENC   =     -3571.64646938
  -exchange      EXHF   =         0.00000000
  -V(xc)+E(xc)   XCENC  =       -50.70601143
  PAW double counting   =      4549.22953149    -4374.58193842
  entropy T*S    EENTRO =        -0.00000000
  eigenvalues    EBANDS =      -520.31380001
  atomic energy  EATOM  =      1230.31558492
  Solvation  Ediel_sol  =         0.00000000
  ---------------------------------------------------
  free energy    TOTEN  =      -106.86000732 eV

  energy without entropy =     -106.86000732  energy(sigma->0) =     -106.86000732


--------------------------------------------------------------------------------------------------------




--------------------------------------- Iteration      1(  23)  ---------------------------------------


    POTLOK:  cpu time    1.6847: real time    1.6852
    SETDIJ:  cpu time    0.0060: real time    0.0067
     EDDAV:  cpu time    7.5658: real time    7.5733
       DOS:  cpu time    0.0000: real time    0.0003
    CHARGE:  cpu time    0.4859: real time    0.4874
    MIXING:  cpu time    0.1650: real time    0.1641
    --------------------------------------------
      LOOP:  cpu time    9.9075: real time    9.9171

 eigenvalue-minimisations  :    88
 total energy-change (2. order) :-0.2296842E-05  (-0.4672625E-08)
 number of electron      56.0000019 magnetization 
 augmentation part       -1.9284549 magnetization 

 Broyden mixing:
  rms(total) = 0.44689E-04    rms(broyden)= 0.44689E-04
  rms(prec ) = 0.49248E-04
  weight for this iteration     100.00

 eigenvalues of (default mixing * dielectric matrix)
  average eigenvalue GAMMA=   2.5334
  8.8338  6.8547  4.9890  3.4551  2.8660  2.5256  2.3047  1.7562  1.7562  1.5557
  1.5557  1.1695  1.1695  1.0644  0.9159  0.9159  0.9824  0.9310

 Free energy of the ion-electron system (eV)
  ---------------------------------------------------
  alpha Z        PSCENC =         0.86195555
  Ewald energy   TEWEN  =      2629.98113996
  -Hartree energ DENC   =     -3571.64615028
  -exchange      EXHF   =         0.00000000
  -V(xc)+E(xc)   XCENC  =       -50.70618860
  PAW double counting   =      4549.05546608    -4374.40788990
  entropy T*S    EENTRO =        -0.00000000
  eigenvalues    EBANDS =      -520.31392735
  atomic energy  EATOM  =      1230.31558492
  Solvation  Ediel_sol  =         0.00000000
  ---------------------------------------------------
  free energy    TOTEN  =      -106.86000962 eV

  energy without entropy =     -106.86000962  energy(sigma->0) =     -106.86000962


--------------------------------------------------------------------------------------------------------




--------------------------------------- Iteration      1(  24)  ---------------------------------------


    POTLOK:  cpu time    1.6987: real time    1.6991
    SETDIJ:  cpu time    0.0060: real time    0.0068
     EDDAV:  cpu time    6.9339: real time    6.9369
       DOS:  cpu time    0.0010: real time    0.0003
    CHARGE:  cpu time    0.4849: real time    0.4858
    MIXING:  cpu time    0.1800: real time    0.1794
    --------------------------------------------
      LOOP:  cpu time    9.3046: real time    9.3083

 eigenvalue-minimisations  :    78
 total energy-change (2. order) :-0.4060144E-05  (-0.8809701E-08)
 number of electron      56.0000019 magnetization 
 augmentation part       -1.9284592 magnetization 

 Broyden mixing:
  rms(total) = 0.21943E-04    rms(broyden)= 0.21943E-04
  rms(prec ) = 0.24520E-04
  weight for this iteration     100.00

 eigenvalues of (default mixing * dielectric matrix)
  average eigenvalue GAMMA=   2.4907
  8.8818  6.9870  5.2592  3.7341  2.7597  2.6129  2.2855  1.8040  1.8040  1.5190
  1.5190  1.2102  1.2102  1.1033  0.9873  0.9249  0.9249  0.8978  0.8978

 Free energy of the ion-electron system (eV)
  ---------------------------------------------------
  alpha Z        PSCENC =         0.86195555
  Ewald energy   TEWEN  =      2629.98113996
  -Hartree energ DENC   =     -3571.64824581
  -exchange      EXHF   =         0.00000000
  -V(xc)+E(xc)   XCENC  =       -50.70593930
  PAW double counting   =      4549.04539958    -4374.39782033
  entropy T*S    EENTRO =        -0.00000000
  eigenvalues    EBANDS =      -520.31208826
  atomic energy  EATOM  =      1230.31558492
  Solvation  Ediel_sol  =         0.00000000
  ---------------------------------------------------
  free energy    TOTEN  =      -106.86001368 eV

  energy without entropy =     -106.86001368  energy(sigma->0) =     -106.86001368


--------------------------------------------------------------------------------------------------------




--------------------------------------- Iteration      1(  25)  ---------------------------------------


    POTLOK:  cpu time    1.7017: real time    1.7037
    SETDIJ:  cpu time    0.0060: real time    0.0067
     EDDAV:  cpu time    7.0859: real time    7.0880
       DOS:  cpu time    0.0010: real time    0.0003
    --------------------------------------------
      LOOP:  cpu time    8.7947: real time    8.7987

 eigenvalue-minimisations  :    80
 total energy-change (2. order) :-0.5195407E-06  (-0.1204178E-08)
 number of electron      56.0000019 magnetization 
 augmentation part       -1.9284592 magnetization 

 Free energy of the ion-electron system (eV)
  ---------------------------------------------------
  alpha Z        PSCENC =         0.86195555
  Ewald energy   TEWEN  =      2629.98113996
  -Hartree energ DENC   =     -3571.64781123
  -exchange      EXHF   =         0.00000000
  -V(xc)+E(xc)   XCENC  =       -50.70599159
  PAW double counting   =      4549.02823290    -4374.38066587
  entropy T*S    EENTRO =        -0.00000000
  eigenvalues    EBANDS =      -520.31245885
  atomic energy  EATOM  =      1230.31558492
  Solvation  Ediel_sol  =         0.00000000
  ---------------------------------------------------
  free energy    TOTEN  =      -106.86001420 eV

  energy without entropy =     -106.86001420  energy(sigma->0) =     -106.86001420


--------------------------------------------------------------------------------------------------------




 average (electrostatic) potential at core
  the test charge radii are     0.9892  0.5201
  (the norm of the test charge is              1.0000)
       1 -93.3684       2 -93.4384       3 -93.4384       4 -93.4383       5 -93.3684
       6 -93.3684       7 -93.3684       8 -93.4384       9 -93.4384      10 -93.4384
      11 -40.7101      12 -40.7099      13 -40.7179      14 -40.7105      15 -40.7100
      16 -40.7104      17 -40.7111      18 -40.7180      19 -40.7183      20 -40.7100
      21 -40.7102      22 -40.7181      23 -40.7103      24 -40.7105      25 -40.7100
      26 -40.7101
 
 
 
 E-fermi :  -5.4676     XC(G=0):  -0.6041     alpha+bet : -0.3550


 k-point     1 :       0.0000    0.0000    0.0000
  band No.  band energies     occupation 
      1     -14.6779      2.00000
      2     -13.6473      2.00000
      3     -13.6473      2.00000
      4     -13.6473      2.00000
      5     -12.5429      2.00000
      6     -12.5429      2.00000
      7     -11.2322      2.00000
      8     -11.2322      2.00000
      9     -11.2322      2.00000
     10     -10.2499      2.00000
     11      -8.9339      2.00000
     12      -8.6101      2.00000
     13      -8.6101      2.00000
     14      -8.6101      2.00000
     15      -8.1943      2.00000
     16      -8.1943      2.00000
     17      -8.1942      2.00000
     18      -7.8674      2.00000
     19      -7.8673      2.00000
     20      -7.8673      2.00000
     21      -6.8182      2.00000
     22      -6.8182      2.00000
     23      -6.5107      2.00000
     24      -6.5107      2.00000
     25      -6.5106      2.00000
     26      -6.4623      2.00000
     27      -6.4623      2.00000
     28      -6.4623      2.00000
     29      -1.8765      0.00000
     30      -1.4987      0.00000
     31      -1.4987      0.00000
     32      -1.4986      0.00000
     33      -1.1830      0.00000
     34      -1.1828      0.00000
     35      -0.9803      0.00000
     36      -0.9803      0.00000
     37      -0.9801      0.00000
     38      -0.5926      0.00000
     39      -0.5926      0.00000
     40      -0.5925      0.00000
     41      -0.4376      0.00000
     42      -0.3005      0.00000


--------------------------------------------------------------------------------------------------------


 soft charge-density along one line, spin component           1
         0         1         2         3         4         5         6         7         8         9
 total charge-density along one line
 
 pseudopotential strength for first ion, spin component:           1
 19.610  27.366  -0.000   0.002   0.000  -0.001   0.004   0.000
 27.366  38.195  -0.001   0.003   0.000  -0.001   0.005   0.001
 -0.000  -0.001   4.358  -0.000  -0.000   8.129  -0.000  -0.000
  0.002   0.003  -0.000   4.358   0.000  -0.000   8.129   0.000
  0.000   0.000  -0.000   0.000   4.358  -0.000   0.000   8.129
 -0.001  -0.001   8.129  -0.000  -0.000  15.174  -0.000  -0.000
  0.004   0.005  -0.000   8.129   0.000  -0.000  15.175   0.000
  0.000   0.001  -0.000   0.000   8.129  -0.000   0.000  15.174
 total augmentation occupancy for first ion, spin component:           1
  5.579  -2.047   0.069  -0.330  -0.044  -0.021   0.099   0.013
 -2.047   0.810  -0.042   0.201   0.027   0.009  -0.045  -0.006
  0.069  -0.042   2.867  -0.094  -0.013  -0.624   0.034   0.005
 -0.330   0.201  -0.094   3.295   0.060   0.034  -0.780  -0.022
 -0.044   0.027  -0.013   0.060   2.855   0.005  -0.022  -0.620
 -0.021   0.009  -0.624   0.034   0.005   0.142  -0.010  -0.001
  0.099  -0.045   0.034  -0.780  -0.022  -0.010   0.187   0.006
  0.013  -0.006   0.005  -0.022  -0.620  -0.001   0.006   0.140


------------------------ aborting loop because EDIFF is reached ----------------------------------------


    CHARGE:  cpu time    0.4849: real time    0.4844
    FORLOC:  cpu time    0.1620: real time    0.1624
    FORNL :  cpu time    0.9679: real time    0.9682
    STRESS:  cpu time    5.9181: real time    5.9258
    FORCOR:  cpu time    1.6697: real time    1.6692
    FORHAR:  cpu time    0.5629: real time    0.5627
    MIXING:  cpu time    0.2050: real time    0.2053
    OFIELD:  cpu time    0.0010: real time    0.0000

  FORCE on cell =-STRESS in cart. coord.  units (eV):
  Direction    XX          YY          ZZ          XY          YZ          ZX
  --------------------------------------------------------------------------------------
  Alpha Z     0.86196     0.86196     0.86196
  Ewald     876.64706   876.62235   876.71007    -0.21850     0.02563    -0.50464
  Hartree  1190.53501  1190.50934  1190.60504    -0.21472     0.02543    -0.49596
  E(xc)    -171.05008  -171.05016  -171.05045    -0.00000     0.00001    -0.00006
  Local   -2611.05804 -2611.00800 -2611.19001     0.43332    -0.05116     1.00083
  n-local   340.62337   340.62459   340.62454     0.00017    -0.00000     0.00074
  augment   -54.76728   -54.76853   -54.76796    -0.00016    -0.00004    -0.00015
  Kinetic   417.76077   417.76008   417.75978    -0.00016     0.00014    -0.00038
  Fock        0.00000     0.00000     0.00000     0.00000     0.00000     0.00000
  -------------------------------------------------------------------------------------
  Total     -10.44724   -10.44836   -10.44704    -0.00005    -0.00000     0.00038
  in kB      -2.09229    -2.09252    -2.09225    -0.00001    -0.00000     0.00008
  external pressure =       -2.09 kB  Pullay stress =        0.00 kB


 VOLUME and BASIS-vectors are now :
 -----------------------------------------------------------------------------
  energy-cutoff  :      400.00
  volume of cell :     8000.00
      direct lattice vectors                 reciprocal lattice vectors
    20.000000000  0.000000000  0.000000000     0.050000000  0.000000000  0.000000000
     0.000000000 20.000000000  0.000000000     0.000000000  0.050000000  0.000000000
     0.000000000  0.000000000 20.000000000     0.000000000  0.000000000  0.050000000

  length of vectors
    20.000000000 20.000000000 20.000000000     0.050000000  0.050000000  0.050000000


 FORCES acting on ions
    electron-ion (+dipol)            ewald-force                    non-local-force                 convergence-correction
 -----------------------------------------------------------------------------------------------
   0.122E+02 -.191E+02 0.907E+02   -.123E+02 0.192E+02 -.914E+02   0.563E-01 -.885E-01 0.421E+00   -.168E-04 0.218E-04 -.148E-03
   0.902E+02 -.529E+01 0.478E+02   -.910E+02 0.534E+01 -.482E+02   0.486E+00 -.280E-01 0.257E+00   -.124E-03 -.170E-05 -.629E-04
   -.377E+02 0.553E+02 0.775E+02   0.380E+02 -.558E+02 -.781E+02   -.203E+00 0.298E+00 0.417E+00   0.527E-04 -.701E-04 -.103E-03
   -.298E+02 -.859E+02 0.470E+02   0.300E+02 0.866E+02 -.474E+02   -.160E+00 -.463E+00 0.252E+00   0.450E-04 0.121E-03 -.677E-04
   0.832E+02 0.135E+02 -.405E+02   -.839E+02 -.136E+02 0.409E+02   0.386E+00 0.625E-01 -.188E+00   -.136E-03 -.285E-04 0.646E-04
   -.520E+02 0.773E+02 -.897E+01   0.524E+02 -.779E+02 0.904E+01   -.241E+00 0.358E+00 -.414E-01   0.795E-04 -.123E-03 0.115E-04
   -.436E+02 -.718E+02 -.414E+02   0.440E+02 0.723E+02 0.417E+02   -.202E+00 -.333E+00 -.191E+00   0.738E-04 0.116E-03 0.691E-04
   -.902E+02 0.530E+01 -.477E+02   0.910E+02 -.534E+01 0.481E+02   -.486E+00 0.286E-01 -.256E+00   0.131E-03 -.936E-05 0.628E-04
   0.298E+02 0.859E+02 -.469E+02   -.301E+02 -.866E+02 0.473E+02   0.160E+00 0.463E+00 -.252E+00   -.409E-04 -.117E-03 0.612E-04
   0.377E+02 -.553E+02 -.774E+02   -.380E+02 0.557E+02 0.781E+02   0.202E+00 -.297E+00 -.417E+00   -.547E-04 0.746E-04 0.115E-03
   0.208E+02 0.404E+02 0.656E+01   -.217E+02 -.419E+02 -.737E+01   0.126E+01 0.207E+01 0.122E+01   -.583E-05 -.171E-04 0.461E-05
   0.863E+00 0.218E+02 -.405E+02   -.635E+00 -.222E+02 0.424E+02   -.363E+00 0.530E+00 -.263E+01   -.384E-05 -.135E-04 0.119E-04
   -.266E+02 0.395E+02 -.460E+01   0.277E+02 -.411E+02 0.479E+01   -.148E+01 0.221E+01 -.256E+00   0.578E-05 -.102E-04 0.529E-06
   -.452E+02 -.388E+01 0.611E+01   0.470E+02 0.415E+01 -.691E+01   -.240E+01 -.393E+00 0.119E+01   0.197E-04 -.669E-06 0.443E-05
   -.201E+02 0.773E+01 -.406E+02   0.204E+02 -.812E+01 0.425E+02   -.329E+00 0.553E+00 -.263E+01   0.146E-04 -.179E-05 0.123E-04
   -.363E+02 0.487E+01 0.279E+02   0.380E+02 -.463E+01 -.288E+02   -.241E+01 -.407E+00 0.116E+01   0.108E-04 -.557E-05 -.136E-04
   0.897E+01 0.352E+02 0.282E+02   -.983E+01 -.367E+02 -.291E+02   0.128E+01 0.207E+01 0.118E+01   0.218E-05 -.130E-04 -.144E-04
   0.626E+01 -.978E+01 0.462E+02   -.652E+01 0.102E+02 -.482E+02   0.348E+00 -.543E+00 0.259E+01   -.156E-06 0.868E-06 -.146E-04
   -.223E+02 -.367E+02 -.212E+02   0.233E+02 0.382E+02 0.221E+02   -.124E+01 -.205E+01 -.118E+01   0.554E-05 0.994E-05 0.534E-05
   0.225E+01 -.288E+01 -.457E+02   -.203E+01 0.253E+01 0.476E+02   -.366E+00 0.570E+00 -.262E+01   -.533E-05 0.651E-05 0.190E-04
   0.251E+02 -.372E+02 -.103E+02   -.262E+02 0.388E+02 0.102E+02   0.150E+01 -.224E+01 0.283E+00   -.874E-05 0.130E-04 0.119E-04
   0.425E+02 0.692E+01 -.208E+02   -.442E+02 -.720E+01 0.216E+02   0.238E+01 0.384E+00 -.116E+01   -.118E-04 -.159E-05 0.488E-05
   0.312E+02 0.247E+02 0.231E+02   -.321E+02 -.262E+02 -.240E+02   0.124E+01 0.209E+01 0.119E+01   -.160E-04 -.333E-05 -.836E-05
   0.341E+02 -.285E+02 0.116E+02   -.353E+02 0.301E+02 -.118E+02   0.149E+01 -.225E+01 0.247E+00   -.182E-04 0.446E-05 -.654E-05
   0.133E+02 -.424E+02 0.114E+02   -.144E+02 0.440E+02 -.116E+02   0.152E+01 -.223E+01 0.248E+00   0.198E-05 0.202E-04 -.735E-05
   -.349E+02 -.198E+02 0.226E+02   0.366E+02 0.201E+02 -.235E+02   -.242E+01 -.367E+00 0.117E+01   0.973E-05 0.137E-04 -.970E-05
 -----------------------------------------------------------------------------------------------
   -.104E-03 0.688E-04 0.449E-03   -.355E-13 0.213E-13 0.711E-14   -.685E-03 0.112E-02 0.753E-03   0.102E-04 -.144E-04 0.335E-05
 
 
 POSITION                                       TOTAL-FORCE (eV/Angst)
 -----------------------------------------------------------------------------------
      9.50942     11.12520      7.69306        -0.043553      0.067298     -0.322720
[...]
  ---------------------------------------------------
  free energy    TOTEN  =      -107.26664950 eV

  energy without entropy =     -107.26664950  energy(sigma->0) =     -107.26664950


--------------------------------------------------------------------------------------------------------




--------------------------------------- Iteration     17(   2)  ---------------------------------------


    POTLOK:  cpu time    1.6667: real time    1.6779
    SETDIJ:  cpu time    0.0070: real time    0.0068
     EDDAV:  cpu time    9.1236: real time    9.1412
       DOS:  cpu time    0.0000: real time    0.0003
    CHARGE:  cpu time    0.4789: real time    0.4804
    MIXING:  cpu time    0.0450: real time    0.0453
    --------------------------------------------
      LOOP:  cpu time   11.3213: real time   11.3519

 eigenvalue-minimisations  :   112
 total energy-change (2. order) : 0.6284099E-06  (-0.4136095E-05)
 number of electron      56.0000009 magnetization 
 augmentation part       -1.9322429 magnetization 

 Broyden mixing:
  rms(total) = 0.10619E-02    rms(broyden)= 0.10618E-02
  rms(prec ) = 0.11411E-02
  weight for this iteration     100.00

 eigenvalues of (default mixing * dielectric matrix)
  average eigenvalue GAMMA=   1.7967
  1.7967

 Free energy of the ion-electron system (eV)
  ---------------------------------------------------
  alpha Z        PSCENC =         0.86195555
  Ewald energy   TEWEN  =      2734.53553730
  -Hartree energ DENC   =     -3672.63530112
  -exchange      EXHF   =         0.00000000
  -V(xc)+E(xc)   XCENC  =       -48.83656624
  PAW double counting   =      5230.58623676    -5056.26533400
  entropy T*S    EENTRO =        -0.00000000
  eigenvalues    EBANDS =      -525.82876204
  atomic energy  EATOM  =      1230.31558492
  Solvation  Ediel_sol  =         0.00000000
  ---------------------------------------------------
  free energy    TOTEN  =      -107.26664887 eV

  energy without entropy =     -107.26664887  energy(sigma->0) =     -107.26664887


--------------------------------------------------------------------------------------------------------




--------------------------------------- Iteration     17(   3)  ---------------------------------------


    POTLOK:  cpu time    1.6757: real time    1.6787
    SETDIJ:  cpu time    0.0060: real time    0.0066
     EDDAV:  cpu time    9.6445: real time    9.6605
       DOS:  cpu time    0.0000: real time    0.0003
    CHARGE:  cpu time    0.4849: real time    0.4866
    MIXING:  cpu time    0.0480: real time    0.0481
    --------------------------------------------
      LOOP:  cpu time   11.8592: real time   11.8808

 eigenvalue-minimisations  :   120
 total energy-change (2. order) : 0.1574705E-05  (-0.5998226E-06)
 number of electron      56.0000009 magnetization 
 augmentation part       -1.9321796 magnetization 

 Broyden mixing:
  rms(total) = 0.28592E-03    rms(broyden)= 0.28589E-03
  rms(prec ) = 0.30933E-03
  weight for this iteration     100.00

 eigenvalues of (default mixing * dielectric matrix)
  average eigenvalue GAMMA=   1.6584
  0.9915  2.3254

 Free energy of the ion-electron system (eV)
  ---------------------------------------------------
  alpha Z        PSCENC =         0.86195555
  Ewald energy   TEWEN  =      2734.53553730
  -Hartree energ DENC   =     -3672.66696013
  -exchange      EXHF   =         0.00000000
  -V(xc)+E(xc)   XCENC  =       -48.83528261
  PAW double counting   =      5231.45770023    -5057.13729529
  entropy T*S    EENTRO =        -0.00000000
  eigenvalues    EBANDS =      -525.79788726
  atomic energy  EATOM  =      1230.31558492
  Solvation  Ediel_sol  =         0.00000000
  ---------------------------------------------------
  free energy    TOTEN  =      -107.26664729 eV

  energy without entropy =     -107.26664729  energy(sigma->0) =     -107.26664729


--------------------------------------------------------------------------------------------------------




--------------------------------------- Iteration     17(   4)  ---------------------------------------


    POTLOK:  cpu time    1.6767: real time    1.6788
    SETDIJ:  cpu time    0.0060: real time    0.0066
     EDDAV:  cpu time    5.5951: real time    5.6063
       DOS:  cpu time    0.0000: real time    0.0003
    --------------------------------------------
      LOOP:  cpu time    7.2779: real time    7.2918

 eigenvalue-minimisations  :    56
 total energy-change (2. order) :-0.4504955E-07  (-0.4800498E-07)
 number of electron      56.0000009 magnetization 
 augmentation part       -1.9321796 magnetization 

 Free energy of the ion-electron system (eV)
  ---------------------------------------------------
  alpha Z        PSCENC =         0.86195555
  Ewald energy   TEWEN  =      2734.53553730
  -Hartree energ DENC   =     -3672.67712848
  -exchange      EXHF   =         0.00000000
  -V(xc)+E(xc)   XCENC  =       -48.83473480
  PAW double counting   =      5231.80121597    -5057.48080776
  entropy T*S    EENTRO =        -0.00000000
  eigenvalues    EBANDS =      -525.78827004
  atomic energy  EATOM  =      1230.31558492
  Solvation  Ediel_sol  =         0.00000000
  ---------------------------------------------------
  free energy    TOTEN  =      -107.26664734 eV

  energy without entropy =     -107.26664734  energy(sigma->0) =     -107.26664734


--------------------------------------------------------------------------------------------------------




 average (electrostatic) potential at core
  the test charge radii are     0.9892  0.5201
  (the norm of the test charge is              1.0000)
       1 -93.2184       2 -93.2501       3 -93.2500       4 -93.2503       5 -93.2184
       6 -93.2183       7 -93.2186       8 -93.2502       9 -93.2500      10 -93.2503
      11 -40.8198      12 -40.8196      13 -40.8641      14 -40.8206      15 -40.8207
      16 -40.8200      17 -40.8199      18 -40.8636      19 -40.8641      20 -40.8200
      21 -40.8205      22 -40.8634      23 -40.8197      24 -40.8201      25 -40.8205
      26 -40.8203
 
 
 
 E-fermi :  -5.5410     XC(G=0):  -0.5845     alpha+bet : -0.3550


 k-point     1 :       0.0000    0.0000    0.0000
  band No.  band energies     occupation 
      1     -14.8855      2.00000
      2     -13.8134      2.00000
      3     -13.8133      2.00000
      4     -13.8133      2.00000
      5     -12.6874      2.00000
      6     -12.6874      2.00000
      7     -11.3570      2.00000
      8     -11.3569      2.00000
      9     -11.3568      2.00000
     10     -10.3767      2.00000
     11      -9.1166      2.00000
     12      -8.7083      2.00000
     13      -8.7083      2.00000
     14      -8.7081      2.00000
     15      -8.2556      2.00000
     16      -8.2555      2.00000
     17      -8.2554      2.00000
     18      -7.9679      2.00000
     19      -7.9678      2.00000
     20      -7.9678      2.00000
     21      -6.8777      2.00000
     22      -6.8776      2.00000
     23      -6.5411      2.00000
     24      -6.5410      2.00000
     25      -6.5409      2.00000
     26      -6.4857      2.00000
     27      -6.4855      2.00000
     28      -6.4854      2.00000
     29      -1.7666      0.00000
     30      -1.4424      0.00000
     31      -1.4422      0.00000
     32      -1.4420      0.00000
     33      -1.1013      0.00000
     34      -1.1012      0.00000
     35      -0.7867      0.00000
     36      -0.7864      0.00000
     37      -0.7863      0.00000
     38      -0.4470      0.00000
     39      -0.4467      0.00000
     40      -0.4466      0.00000
     41      -0.3220      0.00000
     42      -0.0825      0.00000


--------------------------------------------------------------------------------------------------------


 soft charge-density along one line, spin component           1
         0         1         2         3         4         5         6         7         8         9
 total charge-density along one line
 
 pseudopotential strength for first ion, spin component:           1
 19.604  27.357  -0.000   0.002   0.000  -0.001   0.004   0.000
 27.357  38.183  -0.001   0.003   0.000  -0.001   0.005   0.001
 -0.000  -0.001   4.361  -0.000  -0.000   8.134  -0.000  -0.000
  0.002   0.003  -0.000   4.361   0.000  -0.000   8.135   0.000
  0.000   0.000  -0.000   0.000   4.361  -0.000   0.000   8.134
 -0.001  -0.001   8.134  -0.000  -0.000  15.183  -0.000  -0.000
  0.004   0.005  -0.000   8.135   0.000  -0.000  15.185   0.000
  0.000   0.001  -0.000   0.000   8.134  -0.000   0.000  15.183
 total augmentation occupancy for first ion, spin component:           1
  6.091  -2.327   0.085  -0.406  -0.054  -0.026   0.125   0.017
 -2.327   0.945  -0.050   0.236   0.032   0.012  -0.057  -0.008
  0.085  -0.050   3.063  -0.115  -0.015  -0.682   0.041   0.005
 -0.406   0.236  -0.115   3.587   0.073   0.041  -0.870  -0.026
 -0.054   0.032  -0.015   0.073   3.049   0.005  -0.026  -0.677
 -0.026   0.012  -0.682   0.041   0.005   0.158  -0.012  -0.002
  0.125  -0.057   0.041  -0.870  -0.026  -0.012   0.214   0.008
  0.017  -0.008   0.005  -0.026  -0.677  -0.002   0.008   0.157


------------------------ aborting loop because EDIFF is reached ----------------------------------------


    CHARGE:  cpu time    0.5889: real time    0.5910
    FORLOC:  cpu time    0.1610: real time    0.1612
    FORNL :  cpu time    0.9729: real time    0.9738
    STRESS:  cpu time    5.7421: real time    5.7520
    FORCOR:  cpu time    1.6607: real time    1.6630
    FORHAR:  cpu time    0.5589: real time    0.5609
    MIXING:  cpu time    0.0480: real time    0.0484
    OFIELD:  cpu time    0.0000: real time    0.0000

  FORCE on cell =-STRESS in cart. coord.  units (eV):
  Direction    XX          YY          ZZ          XY          YZ          ZX
  --------------------------------------------------------------------------------------
  Alpha Z     0.86196     0.86196     0.86196
  Ewald     911.50519   911.50138   911.52723    -0.21740    -0.00325    -0.49085
  Hartree  1224.22229  1224.21465  1224.26706    -0.21460     0.00685    -0.47902
  E(xc)    -173.51175  -173.51172  -173.51165    -0.00000    -0.00002     0.00001
  Local   -2682.96671 -2682.95602 -2683.03281     0.43193    -0.00350     0.96975
  n-local   345.93451   345.93550   345.93262     0.00048    -0.00115    -0.00064
  augment   -54.98596   -54.98648   -54.98355    -0.00005    -0.00011     0.00005
  Kinetic   428.05504   428.05179   428.05395     0.00049     0.00365    -0.00010
  Fock        0.00000     0.00000     0.00000     0.00000     0.00000     0.00000
  -------------------------------------------------------------------------------------
  Total      -0.88543    -0.88896    -0.88519     0.00086     0.00246    -0.00080
  in kB      -0.17733    -0.17803    -0.17728     0.00017     0.00049    -0.00016
  external pressure =       -0.18 kB  Pullay stress =        0.00 kB


 VOLUME and BASIS-vectors are now :
 -----------------------------------------------------------------------------
  energy-cutoff  :      400.00
  volume of cell :     8000.00
      direct lattice vectors                 reciprocal lattice vectors
    20.000000000  0.000000000  0.000000000     0.050000000  0.000000000  0.000000000
     0.000000000 20.000000000  0.000000000     0.000000000  0.050000000  0.000000000
     0.000000000  0.000000000 20.000000000     0.000000000  0.000000000  0.050000000

  length of vectors
    20.000000000 20.000000000 20.000000000     0.050000000  0.050000000  0.050000000


 FORCES acting on ions
    electron-ion (+dipol)            ewald-force                    non-local-force                 convergence-correction
 -----------------------------------------------------------------------------------------------
   0.125E+02 -.195E+02 0.929E+02   -.127E+02 0.198E+02 -.940E+02   0.145E+00 -.225E+00 0.107E+01   0.370E-04 -.916E-04 0.443E-03
   0.913E+02 -.536E+01 0.483E+02   -.928E+02 0.544E+01 -.491E+02   0.149E+01 -.855E-01 0.786E+00   -.188E-03 0.484E-05 -.846E-04
   -.381E+02 0.559E+02 0.784E+02   0.387E+02 -.568E+02 -.797E+02   -.621E+00 0.912E+00 0.128E+01   0.609E-04 -.145E-03 -.156E-03
   -.301E+02 -.869E+02 0.475E+02   0.306E+02 0.883E+02 -.483E+02   -.490E+00 -.142E+01 0.774E+00   0.385E-04 0.197E-03 -.814E-04
   0.853E+02 0.138E+02 -.415E+02   -.862E+02 -.140E+02 0.420E+02   0.986E+00 0.159E+00 -.479E+00   0.363E-03 0.671E-04 -.221E-03
   -.532E+02 0.792E+02 -.918E+01   0.539E+02 -.801E+02 0.929E+01   -.613E+00 0.914E+00 -.108E+00   -.254E-03 0.340E-03 -.681E-04
   -.447E+02 -.735E+02 -.424E+02   0.452E+02 0.744E+02 0.429E+02   -.517E+00 -.848E+00 -.490E+00   -.215E-03 -.310E-03 -.209E-03
   -.913E+02 0.536E+01 -.483E+02   0.927E+02 -.544E+01 0.490E+02   -.149E+01 0.874E-01 -.785E+00   0.183E-03 -.680E-05 0.818E-04
   0.301E+02 0.869E+02 -.474E+02   -.306E+02 -.883E+02 0.482E+02   0.489E+00 0.142E+01 -.773E+00   -.777E-04 -.191E-03 0.537E-04
   0.381E+02 -.559E+02 -.783E+02   -.388E+02 0.568E+02 0.796E+02   0.622E+00 -.911E+00 -.128E+01   -.960E-04 0.140E-03 0.129E-03
   0.215E+02 0.421E+02 0.627E+01   -.228E+02 -.444E+02 -.753E+01   0.138E+01 0.229E+01 0.126E+01   -.519E-04 -.925E-04 -.361E-04
   0.115E+01 0.230E+02 -.418E+02   -.791E+00 -.237E+02 0.447E+02   -.364E+00 0.641E+00 -.286E+01   0.230E-05 -.442E-04 0.979E-04
   -.275E+02 0.409E+02 -.477E+01   0.292E+02 -.433E+02 0.505E+01   -.161E+01 0.240E+01 -.279E+00   0.937E-04 -.147E-03 0.111E-04
   -.470E+02 -.391E+01 0.581E+01   0.496E+02 0.433E+01 -.704E+01   -.265E+01 -.417E+00 0.124E+01   0.105E-03 0.114E-04 -.296E-04
   -.213E+02 0.793E+01 -.419E+02   0.218E+02 -.853E+01 0.448E+02   -.430E+00 0.597E+00 -.286E+01   0.360E-04 -.205E-04 0.104E-03
   -.374E+02 0.547E+01 0.292E+02   0.400E+02 -.508E+01 -.305E+02   -.262E+01 -.390E+00 0.131E+01   0.864E-04 -.715E-05 -.562E-04
   0.880E+01 0.364E+02 0.295E+02   -.101E+02 -.387E+02 -.309E+02   0.134E+01 0.227E+01 0.133E+01   -.360E-04 -.878E-04 -.572E-04
   0.649E+01 -.101E+02 0.479E+02   -.687E+01 0.107E+02 -.508E+02   0.378E+00 -.591E+00 0.282E+01   -.271E-04 0.368E-04 -.173E-03
   -.231E+02 -.380E+02 -.220E+02   0.245E+02 0.402E+02 0.233E+02   -.135E+01 -.223E+01 -.128E+01   0.774E-04 0.137E-03 0.739E-04
   0.265E+01 -.345E+01 -.474E+02   -.229E+01 0.289E+01 0.503E+02   -.359E+00 0.564E+00 -.288E+01   0.446E-06 -.848E-06 0.109E-03
   0.260E+02 -.385E+02 -.113E+02   -.276E+02 0.409E+02 0.110E+02   0.164E+01 -.244E+01 0.237E+00   -.634E-04 0.947E-04 0.534E-05
   0.440E+02 0.717E+01 -.215E+02   -.466E+02 -.759E+01 0.228E+02   0.259E+01 0.418E+00 -.126E+01   -.154E-03 -.235E-04 0.679E-04
   0.327E+02 0.252E+02 0.240E+02   -.341E+02 -.274E+02 -.253E+02   0.141E+01 0.224E+01 0.132E+01   -.618E-04 -.691E-04 -.491E-04
   0.357E+02 -.292E+02 0.122E+02   -.374E+02 0.316E+02 -.125E+02   0.167E+01 -.242E+01 0.307E+00   -.703E-04 0.759E-04 -.177E-04
   0.133E+02 -.441E+02 0.121E+02   -.149E+02 0.465E+02 -.124E+02   0.160E+01 -.246E+01 0.306E+00   -.453E-04 0.979E-04 -.173E-04
   -.359E+02 -.210E+02 0.235E+02   0.385E+02 0.214E+02 -.248E+02   -.262E+01 -.467E+00 0.129E+01   0.823E-04 0.382E-04 -.479E-04
 -----------------------------------------------------------------------------------------------
   0.532E-03 -.649E-02 -.214E-02   0.497E-13 -.213E-13 -.711E-13   -.747E-04 0.803E-02 0.208E-02   -.175E-03 0.388E-05 -.128E-03
 
 
 POSITION                                       TOTAL-FORCE (eV/Angst)
 -----------------------------------------------------------------------------------
      9.51408     11.11778      7.72866        -0.000205      0.000549     -0.002874
      7.42147     10.77895      8.74933         0.014494     -0.000970      0.007902
     10.81919      9.17341      7.95700        -0.005844      0.009042      0.013094
     10.60916     12.92091      8.77056        -0.004534     -0.014072      0.007655
      7.72508     10.30009     11.03284        -0.002770     -0.000788      0.001079
     11.12709      8.69248     10.23954         0.001656     -0.002827     -0.000069
     10.91676     12.44480     11.05415         0.001414      0.002706      0.001013
     12.22000     10.49870     11.27830        -0.014693      0.000709     -0.007868
      9.03232      8.35664     11.25687         0.005183      0.014199     -0.007445
      8.82226     12.10428     12.07061         0.006120     -0.009226     -0.012469
      8.33428      7.19668     10.61325         0.000642      0.000112      0.001778
      9.21792      8.03291     12.70872        -0.001122     -0.001370     -0.001564
     11.95995      7.45148     10.38366         0.009952     -0.014857      0.001931
     13.56351     10.71073     10.64816        -0.000296     -0.000375      0.001729
     12.43620     10.19569     12.73039         0.001886      0.000579     -0.001334
     12.14928      9.37298      7.29508        -0.001812     -0.001236     -0.000342
     10.13830      8.02118      7.28187         0.001961      0.000706     -0.000536
      9.31870     11.42308      6.27155        -0.002501      0.003688     -0.017633
     11.61581     13.59618     11.71761         0.008538      0.013752      0.008056
      9.00566     11.81657     13.53030        -0.001124      0.001738     -0.000791
      7.98943     13.34460     11.94801         0.000125     -0.000526      0.001627
      6.38876     10.08395     11.68252        -0.016114     -0.002724      0.007860
      6.70801      9.64211      8.08174        -0.000658      0.001892      0.000170
      6.57528     12.00664      8.59487        -0.000462     -0.002085     -0.000585
      9.79356     14.16913      8.61620         0.002187     -0.000107     -0.000706
     11.93735     13.15607      8.11656        -0.002023      0.001490      0.000322
 -----------------------------------------------------------------------------------
    total drift:                                0.000282      0.001547     -0.000196


--------------------------------------------------------------------------------------------------------



  FREE ENERGIE OF THE ION-ELECTRON SYSTEM (eV)
  ---------------------------------------------------
  free  energy   TOTEN  =      -107.26664734 eV

  energy  without entropy=     -107.26664734  energy(sigma->0) =     -107.26664734
 
 d Force = 0.4399959E-04[ 0.519E-06, 0.875E-04]  d Energy = 0.4407137E-04-0.718E-07
 d Force =-0.2463750E+00[-0.246E+00,-0.246E+00]  d Ewald  =-0.2463751E+00 0.452E-07


--------------------------------------------------------------------------------------------------------


    POTLOK:  cpu time    1.6887: real time    1.6920


--------------------------------------------------------------------------------------------------------




--------------------------------------------------------------------------------------------------------


  
 reached required accuracy - stopping structural energy minimisation
 writing wavefunctions
     LOOP+:  cpu time   52.4970: real time   53.0533
    4ORBIT:  cpu time    0.0000: real time    0.0000

 total amount of memory used by VASP MPI-rank0   121682. kBytes
=======================================================================

   base      :      30000. kBytes
   nonl-proj :      13170. kBytes
   fftplans  :      26957. kBytes
   grid      :      43395. kBytes
   one-center:         15. kBytes
   wavefun   :       8145. kBytes
 
  
  
 General timing and accounting informations for this job:
 ========================================================
  
                  Total CPU time used (sec):     1915.223
                            User time (sec):     1888.242
                          System time (sec):       26.981
                         Elapsed time (sec):     1921.326
  
                   Maximum memory used (kb):      177052.
                   Average memory used (kb):           0.
  
                          Minor page faults:      4920251
                          Major page faults:            5
                 Voluntary context switches:         3683
