 vasp.5.4.4.18Apr17-6-g9f103f2a35 (build Nov 06 2017 19:16:10) complex          
  
 executed on           IFC91_ompi date 2018.07.22  00:48:50
 running on   12 total cores
 distrk:  each k-point on   12 cores,    1 groups
 distr:  one band on NCORES_PER_BAND=   6 cores,    2 groups


--------------------------------------------------------------------------------------------------------


 INCAR:
 POTCAR:    PAW_PBE Ge 05Jan2001                  
 POTCAR:    PAW_PBE H 15Jun2001                   
 POTCAR:    PAW_PBE Ge 05Jan2001                  
   VRHFIN =Ge: s2p2                                                             
   LEXCH  = PE                                                                  
   EATOM  =   104.9960 eV,    7.7170 Ry                                         
                                                                                
   TITEL  = PAW_PBE Ge 05Jan2001                                                
   LULTRA =        F    use ultrasoft PP ?                                      
   IUNSCR =        1    unscreen: 0-lin 1-nonlin 2-no                           
   RPACOR =    2.170    partial core radius                                     
   POMASS =   72.610; ZVAL   =    4.000    mass and valenz                      
   RCORE  =    2.300    outmost cutoff radius                                   
   RWIGS  =    2.300; RWIGS  =    1.217    wigner-seitz radius (au A)           
   ENMAX  =  173.807; ENMIN  =  130.355 eV                                      
   ICORE  =        3    local potential                                         
   LCOR   =        T    correct aug charges                                     
   LPAW   =        T    paw PP                                                  
   EAUG   =  385.843                                                            
   DEXC   =    0.000                                                            
   RMAX   =    2.342    core radius for proj-oper                               
   RAUG   =    1.300    factor for augmentation sphere                          
   RDEP   =    2.318    radius for radial grids                                 
   RDEPT  =    2.103    core radius for aug-charge                              
                                                                                
   Atomic configuration                                                         
   10 entries                                                                   
     n  l   j            E        occ.                                          
     1  0  0.50    -10959.8463   2.0000                                         
     2  0  0.50     -1371.6056   2.0000                                         
     2  1  1.50     -1198.4791   6.0000                                         
     3  0  0.50      -168.4733   2.0000                                         
     3  1  1.50      -115.6019   6.0000                                         
     3  2  2.50       -29.3106  10.0000                                         
     4  0  0.50       -11.7309   2.0000                                         
     4  1  0.50        -3.8952   2.0000                                         
     4  2  1.50        -4.0817   0.0000                                         
     4  3  2.50        -4.0817   0.0000                                         
   Description                                                                  
     l       E           TYP  RCUT    TYP  RCUT                                 
     0    -11.7309493     23  2.300                                             
     0     -7.4578696     23  2.300                                             
     1     -3.8952261     23  2.300                                             
     1      6.1178114     23  2.300                                             
     2     -4.0817478     23  2.300                                             
     3     -1.3605826      7  2.300                                             
  local pseudopotential read in
  partial core-charges read in
  partial kinetic energy density read in
  atomic valenz-charges read in
  non local Contribution for L=           0  read in
    real space projection operators read in
  non local Contribution for L=           0  read in
    real space projection operators read in
  non local Contribution for L=           1  read in
    real space projection operators read in
  non local Contribution for L=           1  read in
    real space projection operators read in
  non local Contribution for L=           2  read in
    real space projection operators read in
    PAW grid and wavefunctions read in
 
   number of l-projection  operators is LMAX  =           5
   number of lm-projection operators is LMMAX =          13
 
 POTCAR:    PAW_PBE H 15Jun2001                   
   VRHFIN =H: ultrasoft test                                                    
   LEXCH  = PE                                                                  
   EATOM  =    12.4884 eV,    0.9179 Ry                                         
                                                                                
   TITEL  = PAW_PBE H 15Jun2001                                                 
   LULTRA =        F    use ultrasoft PP ?                                      
   IUNSCR =        0    unscreen: 0-lin 1-nonlin 2-no                           
   RPACOR =    0.000    partial core radius                                     
   POMASS =    1.000; ZVAL   =    1.000    mass and valenz                      
   RCORE  =    1.100    outmost cutoff radius                                   
   RWIGS  =    0.700; RWIGS  =    0.370    wigner-seitz radius (au A)           
   ENMAX  =  250.000; ENMIN  =  200.000 eV                                      
   RCLOC  =    0.701    cutoff for local pot                                    
   LCOR   =        T    correct aug charges                                     
   LPAW   =        T    paw PP                                                  
   EAUG   =  400.000                                                            
   RMAX   =    1.123    core radius for proj-oper                               
   RAUG   =    1.200    factor for augmentation sphere                          
   RDEP   =    1.112    radius for radial grids                                 
   RDEPT  =    0.926    core radius for aug-charge                              
                                                                                
   Atomic configuration                                                         
    2 entries                                                                   
     n  l   j            E        occ.                                          
     1  0  0.50        -6.4927   1.0000                                         
     2  1  0.50        -3.4015   0.0000                                         
   Description                                                                  
     l       E           TYP  RCUT    TYP  RCUT                                 
     0     -6.4927494     23  1.100                                             
     0      6.8029130     23  1.100                                             
     1     -4.0817478     23  1.100                                             
  local pseudopotential read in
  atomic valenz-charges read in
  non local Contribution for L=           0  read in
    real space projection operators read in
  non local Contribution for L=           0  read in
    real space projection operators read in
  non local Contribution for L=           1  read in
    real space projection operators read in
    PAW grid and wavefunctions read in
 
   number of l-projection  operators is LMAX  =           3
   number of lm-projection operators is LMMAX =           5
 

 ----------------------------------------------------------------------------- 
|                                                                             |
|  ADVICE TO THIS USER RUNNING 'VASP/VAMP'   (HEAR YOUR MASTER'S VOICE ...):  |
|                                                                             |
|      You have a (more or less) 'large supercell' and for larger cells       |
|      it might be more efficient to use real space projection opertators     |
|      So try LREAL= Auto  in the INCAR   file.                               |
|      Mind:          For very  accurate calculation you might also keep the  |
|      reciprocal projection scheme          (i.e. LREAL=.FALSE.)             |
|                                                                             |
 ----------------------------------------------------------------------------- 

  PAW_PBE Ge 05Jan2001                  :
 energy of atom  1       EATOM= -104.9960
 kinetic energy error for atom=    0.0003 (will be added to EATOM!!)
  PAW_PBE H 15Jun2001                   :
 energy of atom  2       EATOM=  -12.4884
 kinetic energy error for atom=    0.0098 (will be added to EATOM!!)
 
 
 POSCAR: GeH16                                   
  positions in direct lattice
  No initial velocities read in
 exchange correlation table for  LEXCH =        8
   RHO(1)=    0.500       N(1)  =     2000
   RHO(2)=  100.500       N(2)  =     4000
 


--------------------------------------------------------------------------------------------------------


 ion  position               nearest neighbor table
   1  0.475  0.556  0.385-  18 1.55   4 2.39   2 2.39   3 2.39
   2  0.369  0.539  0.436-  23 1.55  24 1.55   5 2.39   1 2.39
   3  0.542  0.457  0.396-  17 1.55  16 1.55   6 2.39   1 2.39
   4  0.531  0.648  0.437-  25 1.55  26 1.55   7 2.39   1 2.39
   5  0.385  0.515  0.552-  22 1.55  10 2.39   9 2.39   2 2.39
   6  0.557  0.433  0.512-  13 1.55   3 2.39   8 2.39   9 2.39
   7  0.547  0.624  0.554-  19 1.55   4 2.39   8 2.39  10 2.39
   8  0.613  0.525  0.565-  15 1.55  14 1.55   7 2.39   6 2.39
   9  0.451  0.416  0.564-  12 1.55  11 1.55   5 2.39   6 2.39
  10  0.440  0.606  0.605-  20 1.55  21 1.55   5 2.39   7 2.39
  11  0.415  0.357  0.529-   9 1.55
  12  0.461  0.400  0.639-   9 1.55
  13  0.600  0.369  0.520-   6 1.55
  14  0.682  0.536  0.531-   8 1.55
  15  0.623  0.509  0.640-   8 1.55
  16  0.611  0.469  0.363-   3 1.55
  17  0.506  0.398  0.362-   3 1.55
  18  0.465  0.572  0.309-   1 1.55
  19  0.583  0.683  0.588-   7 1.55
  20  0.451  0.590  0.680-  10 1.55
  21  0.397  0.670  0.598-  10 1.55
  22  0.316  0.504  0.586-   5 1.55
  23  0.333  0.479  0.402-   2 1.55
  24  0.326  0.603  0.429-   2 1.55
  25  0.488  0.712  0.430-   4 1.55
  26  0.600  0.659  0.404-   4 1.55
 
  LATTYP: Found a simple cubic cell.
 ALAT       =    20.0000000000
  
  Lattice vectors:
  
 A1 = (  20.0000000000,   0.0000000000,   0.0000000000)
 A2 = (   0.0000000000,  20.0000000000,   0.0000000000)
 A3 = (   0.0000000000,   0.0000000000,  20.0000000000)


Analysis of symmetry for initial positions (statically):
=====================================================================
 Subroutine PRICEL returns:
 Original cell was already a primitive cell.
 

 Routine SETGRP: Setting up the symmetry group for a 
 simple cubic supercell.


 Subroutine GETGRP returns: Found  1 space group operations
 (whereof  1 operations were pure point group operations)
 out of a pool of 48 trial point group operations.


The static configuration has the point symmetry C_1 .


Analysis of symmetry for dynamics (positions and initial velocities):
=====================================================================
 Subroutine PRICEL returns:
 Original cell was already a primitive cell.
 

 Routine SETGRP: Setting up the symmetry group for a 
 simple cubic supercell.


 Subroutine GETGRP returns: Found  1 space group operations
 (whereof  1 operations were pure point group operations)
 out of a pool of 48 trial point group operations.


The dynamic configuration has the point symmetry C_1 .


 Subroutine INISYM returns: Found  1 space group operations
 (whereof  1 operations are pure point group operations),
 and found     1 'primitive' translations

 
 
 KPOINTS: Automatic mesh                          

Automatic generation of k-mesh.
Space group operators:
 irot       det(A)        alpha          n_x          n_y          n_z        tau_x        tau_y        tau_z
    1     1.000000     0.000000     1.000000     0.000000     0.000000     0.000000     0.000000     0.000000
 
 Subroutine IBZKPT returns following result:
 ===========================================
 
 Found      1 irreducible k-points:
 
 Following reciprocal coordinates:
            Coordinates               Weight
  0.000000  0.000000  0.000000      1.000000
 
 Following cartesian coordinates:
            Coordinates               Weight
  0.000000  0.000000  0.000000      1.000000
 


--------------------------------------------------------------------------------------------------------




 Dimension of arrays:
   k-points           NKPTS =      1   k-points in BZ     NKDIM =      1   number of bands    NBANDS=     42
   number of dos      NEDOS =    301   number of ions     NIONS =     26
   non local maximal  LDIM  =      5   non local SUM 2l+1 LMDIM =     13
   total plane-waves  NPLWV = 941192
   max r-space proj   IRMAX =      1   max aug-charges    IRDMAX=   6593
   dimension x,y,z NGX =    98 NGY =   98 NGZ =   98
   dimension x,y,z NGXF=   196 NGYF=  196 NGZF=  196
   support grid    NGXF=   196 NGYF=  196 NGZF=  196
   ions per type =              10  16
   NGX,Y,Z   is equivalent  to a cutoff of   8.15,  8.15,  8.15 a.u.
   NGXF,Y,Z  is equivalent  to a cutoff of  16.29, 16.29, 16.29 a.u.

 SYSTEM =  SiGe                                    
 POSCAR =  GeH16                                   

 Startparameter for this run:
   NWRITE =      2    write-flag & timer
   PREC   = normal    normal or accurate (medium, high low for compatibility)
   ISTART =      0    job   : 0-new  1-cont  2-samecut
   ICHARG =      2    charge: 1-file 2-atom 10-const
   ISPIN  =      1    spin polarized calculation?
   LNONCOLLINEAR =      F non collinear calculations
   LSORBIT =      F    spin-orbit coupling
   INIWAV =      1    electr: 0-lowe 1-rand  2-diag
   LASPH  =      F    aspherical Exc in radial PAW
   METAGGA=      F    non-selfconsistent MetaGGA calc.

 Electronic Relaxation 1
   ENCUT  =  400.0 eV  29.40 Ry    5.42 a.u.  32.61 32.61 32.61*2*pi/ulx,y,z
   ENINI  =  400.0     initial cutoff
   ENAUG  =  400.0 eV  augmentation charge cutoff
   NELM   =     60;   NELMIN=  2; NELMDL= -5     # of ELM steps 
   EDIFF  = 0.1E-05   stopping-criterion for ELM
   LREAL  =      F    real-space projection
   NLSPLINE    = F    spline interpolate recip. space projectors
   LCOMPAT=      F    compatible to vasp.4.4
   GGA_COMPAT  = T    GGA compatible to vasp.4.4-vasp.4.6
   LMAXPAW     = -100 max onsite density
   LMAXMIX     =    2 max onsite mixed and CHGCAR
   VOSKOWN=      0    Vosko Wilk Nusair interpolation
   ROPT   =    0.00000   0.00000
 Ionic relaxation
   EDIFFG = -.2E-01   stopping-criterion for IOM
   NSW    =    200    number of steps for IOM
   NBLOCK =      1;   KBLOCK =    200    inner block; outer block 
   IBRION =      2    ionic relax: 0-MD 1-quasi-New 2-CG
   NFREE  =      1    steps in history (QN), initial steepest desc. (CG)
   ISIF   =      2    stress and relaxation
   IWAVPR =     11    prediction:  0-non 1-charg 2-wave 3-comb
   ISYM   =      2    0-nonsym 1-usesym 2-fastsym
   LCORR  =      T    Harris-Foulkes like correction to forces

   POTIM  = 0.5000    time-step for ionic-motion
   TEIN   =    0.0    initial temperature
   TEBEG  =    0.0;   TEEND  =   0.0 temperature during run
   SMASS  =  -3.00    Nose mass-parameter (am)
   estimated Nose-frequenzy (Omega)   =  0.10E-29 period in steps =****** mass=  -0.914E-26a.u.
   SCALEE = 1.0000    scale energy and forces
   NPACO  =    256;   APACO  = 16.0  distance and # of slots for P.C.
   PSTRESS=    0.0 pullay stress

  Mass of Ions in am
   POMASS =  72.61  1.00
  Ionic Valenz
   ZVAL   =   4.00  1.00
  Atomic Wigner-Seitz radii
   RWIGS  =  -1.00 -1.00
  virtual crystal weights 
   VCA    =   1.00  1.00
   NELECT =      56.0000    total number of electrons
   NUPDOWN=      -1.0000    fix difference up-down

 DOS related values:
   EMIN   =  10.00;   EMAX   =-10.00  energy-range for DOS
   EFERMI =   0.00
   ISMEAR =     0;   SIGMA  =   0.20  broadening in eV -4-tet -1-fermi 0-gaus

 Electronic relaxation 2 (details)
   IALGO  =     38    algorithm
   LDIAG  =      T    sub-space diagonalisation (order eigenvalues)
   LSUBROT=      F    optimize rotation matrix (better conditioning)
   TURBO    =      0    0=normal 1=particle mesh
   IRESTART =      0    0=no restart 2=restart with 2 vectors
   NREBOOT  =      0    no. of reboots
   NMIN     =      0    reboot dimension
   EREF     =   0.00    reference energy to select bands
   IMIX   =      4    mixing-type and parameters
     AMIX     =   0.40;   BMIX     =  1.00
     AMIX_MAG =   1.60;   BMIX_MAG =  1.00
     AMIN     =   0.10
     WC   =   100.;   INIMIX=   1;  MIXPRE=   1;  MAXMIX= -45

 Intra band minimization:
   WEIMIN = 0.0010     energy-eigenvalue tresh-hold
   EBREAK =  0.60E-08  absolut break condition
   DEPER  =   0.30     relativ break condition  

   TIME   =   0.40     timestep for ELM

  volume/ion in A,a.u.               =     307.69      2076.41
  Fermi-wavevector in a.u.,A,eV,Ry     =   0.313166  0.591797  1.334361  0.098073
  Thomas-Fermi vector in A             =   1.193276
 
 Write flags
   LWAVE        =      T    write WAVECAR
   LDOWNSAMPLE  =      F    k-point downsampling of WAVECAR
   LCHARG       =      T    write CHGCAR
   LVTOT        =      F    write LOCPOT, total local potential
   LVHAR        =      F    write LOCPOT, Hartree potential only
   LELF         =      F    write electronic localiz. function (ELF)
   LORBIT       =      0    0 simple, 1 ext, 2 COOP (PROOUT), +10 PAW based schemes


 Dipole corrections
   LMONO  =      F    monopole corrections only (constant potential shift)
   LDIPOL =      F    correct potential (dipole corrections)
   IDIPOL =      0    1-x, 2-y, 3-z, 4-all directions 
   EPSILON=  1.0000000 bulk dielectric constant

 Exchange correlation treatment:
   GGA     =    --    GGA type
   LEXCH   =     8    internal setting for exchange type
   VOSKOWN=      0    Vosko Wilk Nusair interpolation
   LHFCALC =     F    Hartree Fock is set to
   LHFONE  =     F    Hartree Fock one center treatment
   AEXX    =    0.0000 exact exchange contribution

 Linear response parameters
   LEPSILON=     F    determine dielectric tensor
   LRPA    =     F    only Hartree local field effects (RPA)
   LNABLA  =     F    use nabla operator in PAW spheres
   LVEL    =     F    velocity operator in full k-point grid
   LINTERFAST=   F  fast interpolation
   KINTER  =     0    interpolate to denser k-point grid
   CSHIFT  =0.1000    complex shift for real part using Kramers Kronig
   OMEGAMAX=  -1.0    maximum frequency
   DEG_THRESHOLD= 0.2000000E-02 threshold for treating states as degnerate
   RTIME   =   -0.100 relaxation time in fs
  (WPLASMAI=    0.000 imaginary part of plasma frequency in eV, 0.658/RTIME)
   DFIELD  = 0.0000000 0.0000000 0.0000000 field for delta impulse in time
 
 Orbital magnetization related:
   ORBITALMAG=     F  switch on orbital magnetization
   LCHIMAG   =     F  perturbation theory with respect to B field
   DQ        =  0.001000  dq finite difference perturbation B field
   LLRAUG    =     F  two centre corrections for induced B field



--------------------------------------------------------------------------------------------------------


 conjugate gradient relaxation of ions
 charge density and potential will be updated during run
 non-spin polarized calculation
 Variant of blocked Davidson
 Davidson routine will perform the subspace rotation
 perform sub-space diagonalisation
    after iterative eigenvector-optimisation
 modified Broyden-mixing scheme, WC =      100.0
 initial mixing is a Kerker type mixing with AMIX =  0.4000 and BMIX =      1.0000
 Hartree-type preconditioning will be used
 using additional bands           14
 reciprocal scheme for non local part
 use partial core corrections
 calculate Harris-corrections to forces 
   (improved forces if not selfconsistent)
 use gradient corrections 
 use of overlap-Matrix (Vanderbilt PP)
 Gauss-broadening in eV      SIGMA  =   0.20


--------------------------------------------------------------------------------------------------------


  energy-cutoff  :      400.00
  volume of cell :     8000.00
      direct lattice vectors                 reciprocal lattice vectors
    20.000000000  0.000000000  0.000000000     0.050000000  0.000000000  0.000000000
     0.000000000 20.000000000  0.000000000     0.000000000  0.050000000  0.000000000
     0.000000000  0.000000000 20.000000000     0.000000000  0.000000000  0.050000000

  length of vectors
    20.000000000 20.000000000 20.000000000     0.050000000  0.050000000  0.050000000


 
 k-points in units of 2pi/SCALE and weight: Automatic mesh                          
   0.00000000  0.00000000  0.00000000       1.000
 
 k-points in reciprocal lattice and weights: Automatic mesh                          
   0.00000000  0.00000000  0.00000000       1.000
 
 position of ions in fractional coordinates (direct lattice) 
   0.47547100  0.55626000  0.38465300
   0.36907800  0.53906000  0.43641200
   0.54179100  0.45744600  0.39613600
   0.53111600  0.64794100  0.43749600
   0.38461900  0.51474100  0.55243500
   0.55736800  0.43311000  0.51215000
   0.54669200  0.62364400  0.55351800
   0.61299700  0.52481700  0.56496600
   0.45095700  0.41593600  0.56388300
   0.44028400  0.60643000  0.60524300
   0.41490100  0.35665000  0.52940300
   0.46117000  0.40042600  0.63910800
   0.60034800  0.36907000  0.51957800
   0.68182700  0.53600700  0.53118700
   0.62280400  0.50903400  0.64018900
   0.61080000  0.46880600  0.36278200
   0.50550800  0.39805500  0.36207700
   0.46538400  0.57201900  0.30946400
   0.58275500  0.68306700  0.58775000
   0.45052500  0.59044300  0.68036400
   0.39732000  0.67044900  0.59753500
   0.31566200  0.50359800  0.58596500
   0.33322800  0.47946500  0.40225200
   0.32629100  0.60324700  0.42912600
   0.48792300  0.71185500  0.43020800
   0.60015100  0.65882400  0.40403700
 
 position of ions in cartesian coordinates  (Angst):
   9.50942000 11.12520000  7.69306000
   7.38156000 10.78120000  8.72824000
  10.83582000  9.14892000  7.92272000
  10.62232000 12.95882000  8.74992000
   7.69238000 10.29482000 11.04870000
  11.14736000  8.66220000 10.24300000
  10.93384000 12.47288000 11.07036000
  12.25994000 10.49634000 11.29932000
   9.01914000  8.31872000 11.27766000
   8.80568000 12.12860000 12.10486000
   8.29802000  7.13300000 10.58806000
   9.22340000  8.00852000 12.78216000
  12.00696000  7.38140000 10.39156000
  13.63654000 10.72014000 10.62374000
  12.45608000 10.18068000 12.80378000
  12.21600000  9.37612000  7.25564000
  10.11016000  7.96110000  7.24154000
   9.30768000 11.44038000  6.18928000
  11.65510000 13.66134000 11.75500000
   9.01050000 11.80886000 13.60728000
   7.94640000 13.40898000 11.95070000
   6.31324000 10.07196000 11.71930000
   6.66456000  9.58930000  8.04504000
   6.52582000 12.06494000  8.58252000
   9.75846000 14.23710000  8.60416000
  12.00302000 13.17648000  8.08074000
 


--------------------------------------------------------------------------------------------------------


 k-point  1 :   0.0000 0.0000 0.0000  plane waves:  145165

 maximum and minimum number of plane-waves per node :     24209    24180

 maximum number of plane-waves:    145165
 maximum index in each direction: 
   IXMAX=   32   IYMAX=   32   IZMAX=   32
   IXMIN=  -32   IYMIN=  -32   IZMIN=  -32


 parallel 3D FFT for wavefunctions:
    minimum data exchange during FFTs selected (reduces bandwidth)
 parallel 3D FFT for charge:
    minimum data exchange during FFTs selected (reduces bandwidth)


 total amount of memory used by VASP MPI-rank0   123647. kBytes
=======================================================================

   base      :      30000. kBytes
   nonl-proj :      15107. kBytes
   fftplans  :      26957. kBytes
   grid      :      43395. kBytes
   one-center:         40. kBytes
   wavefun   :       8148. kBytes
 
     INWAV:  cpu time    0.0000: real time    0.0000
 Broyden mixing: mesh for mixing (old mesh)
   NGX = 65   NGY = 65   NGZ = 65
  (NGX  =196   NGY  =196   NGZ  =196)
  gives a total of 274625 points

 initial charge density was supplied:
 charge density of overlapping atoms calculated
 number of electron      56.0000000 magnetization 
 keeping initial charge density in first step


--------------------------------------------------------------------------------------------------------


 Maximum index for augmentation-charges          565 (set IRDMAX)


--------------------------------------------------------------------------------------------------------


 First call to EWALD:  gamma=   0.089
 Maximum number of real-space cells 3x 3x 3
 Maximum number of reciprocal cells 3x 3x 3

    FEWALD:  cpu time    0.0030: real time    0.0027


--------------------------------------- Iteration      1(   1)  ---------------------------------------


    POTLOK:  cpu time    1.7477: real time    1.7548
    SETDIJ:  cpu time    0.0100: real time    0.0096
     EDDAV:  cpu time   12.6021: real time   12.6131
       DOS:  cpu time    0.0000: real time    0.0003
    --------------------------------------------
      LOOP:  cpu time   14.3598: real time   14.3777

 eigenvalue-minimisations  :   116
 total energy-change (2. order) : 0.2191545E+03  (-0.1042787E+04)
 number of electron      56.0000000 magnetization 
 augmentation part       56.0000000 magnetization 

 Free energy of the ion-electron system (eV)
  ---------------------------------------------------
  alpha Z        PSCENC =         3.61766629
  Ewald energy   TEWEN  =      2629.98113996
  -Hartree energ DENC   =     -3436.20520230
  -exchange      EXHF   =         0.00000000
  -V(xc)+E(xc)   XCENC  =       -41.41351981
  PAW double counting   =       915.59639097     -770.86273399
  entropy T*S    EENTRO =        -0.43223717
  eigenvalues    EBANDS =      -330.74181506
  atomic energy  EATOM  =      1249.61482235
  Solvation  Ediel_sol  =         0.00000000
  ---------------------------------------------------
  free energy    TOTEN  =       219.15451123 eV

  energy without entropy =      219.58674840  energy(sigma->0) =      219.37062982


--------------------------------------------------------------------------------------------------------




--------------------------------------- Iteration      1(   2)  ---------------------------------------


     EDDAV:  cpu time   15.3677: real time   15.7187
       DOS:  cpu time    0.0000: real time    0.0002
    --------------------------------------------
      LOOP:  cpu time   15.3677: real time   15.7189

 eigenvalue-minimisations  :   144
 total energy-change (2. order) :-0.2371869E+03  (-0.2213956E+03)
 number of electron      56.0000000 magnetization 
 augmentation part       56.0000000 magnetization 

 Free energy of the ion-electron system (eV)
  ---------------------------------------------------
  alpha Z        PSCENC =         3.61766629
  Ewald energy   TEWEN  =      2629.98113996
  -Hartree energ DENC   =     -3436.20520230
  -exchange      EXHF   =         0.00000000
  -V(xc)+E(xc)   XCENC  =       -41.41351981
  PAW double counting   =       915.59639097     -770.86273399
  entropy T*S    EENTRO =        -0.00000000
  eigenvalues    EBANDS =      -568.36097681
  atomic energy  EATOM  =      1249.61482235
  Solvation  Ediel_sol  =         0.00000000
  ---------------------------------------------------
  free energy    TOTEN  =       -18.03241335 eV

  energy without entropy =      -18.03241335  energy(sigma->0) =      -18.03241335


--------------------------------------------------------------------------------------------------------




--------------------------------------- Iteration      1(   3)  ---------------------------------------


     EDDAV:  cpu time   12.2951: real time   12.2931
       DOS:  cpu time    0.0000: real time    0.0003
    --------------------------------------------
      LOOP:  cpu time   12.2951: real time   12.2934

 eigenvalue-minimisations  :   112
 total energy-change (2. order) :-0.7715978E+02  (-0.7699996E+02)
 number of electron      56.0000000 magnetization 
 augmentation part       56.0000000 magnetization 

 Free energy of the ion-electron system (eV)
  ---------------------------------------------------
  alpha Z        PSCENC =         3.61766629
  Ewald energy   TEWEN  =      2629.98113996
  -Hartree energ DENC   =     -3436.20520230
  -exchange      EXHF   =         0.00000000
  -V(xc)+E(xc)   XCENC  =       -41.41351981
  PAW double counting   =       915.59639097     -770.86273399
  entropy T*S    EENTRO =        -0.00000000
  eigenvalues    EBANDS =      -645.52075596
  atomic energy  EATOM  =      1249.61482235
  Solvation  Ediel_sol  =         0.00000000
  ---------------------------------------------------
  free energy    TOTEN  =       -95.19219250 eV

  energy without entropy =      -95.19219250  energy(sigma->0) =      -95.19219250


--------------------------------------------------------------------------------------------------------




--------------------------------------- Iteration      1(   4)  ---------------------------------------


     EDDAV:  cpu time   12.2721: real time   12.2706
       DOS:  cpu time    0.0000: real time    0.0003
    --------------------------------------------
      LOOP:  cpu time   12.2721: real time   12.2709

 eigenvalue-minimisations  :   112
 total energy-change (2. order) :-0.4491165E+01  (-0.4475350E+01)
 number of electron      56.0000000 magnetization 
 augmentation part       56.0000000 magnetization 

 Free energy of the ion-electron system (eV)
  ---------------------------------------------------
  alpha Z        PSCENC =         3.61766629
  Ewald energy   TEWEN  =      2629.98113996
  -Hartree energ DENC   =     -3436.20520230
  -exchange      EXHF   =         0.00000000
  -V(xc)+E(xc)   XCENC  =       -41.41351981
  PAW double counting   =       915.59639097     -770.86273399
  entropy T*S    EENTRO =        -0.00000000
  eigenvalues    EBANDS =      -650.01192049
  atomic energy  EATOM  =      1249.61482235
  Solvation  Ediel_sol  =         0.00000000
  ---------------------------------------------------
  free energy    TOTEN  =       -99.68335703 eV

  energy without entropy =      -99.68335703  energy(sigma->0) =      -99.68335703


--------------------------------------------------------------------------------------------------------




--------------------------------------- Iteration      1(   5)  ---------------------------------------


     EDDAV:  cpu time   12.9380: real time   12.9404
       DOS:  cpu time    0.0000: real time    0.0002
    CHARGE:  cpu time    0.4849: real time    0.4851
    MIXING:  cpu time    0.0440: real time    0.0436
    --------------------------------------------
      LOOP:  cpu time   13.4670: real time   13.4694

 eigenvalue-minimisations  :   120
 total energy-change (2. order) :-0.4962690E-01  (-0.4958460E-01)
 number of electron      56.0000024 magnetization 
 augmentation part       -5.9765327 magnetization 

 Broyden mixing:
  rms(total) = 0.13473E+01    rms(broyden)= 0.13472E+01
  rms(prec ) = 0.14434E+01
  weight for this iteration     100.00

 Free energy of the ion-electron system (eV)
  ---------------------------------------------------
  alpha Z        PSCENC =         3.61766629
  Ewald energy   TEWEN  =      2629.98113996
  -Hartree energ DENC   =     -3436.20520230
  -exchange      EXHF   =         0.00000000
  -V(xc)+E(xc)   XCENC  =       -41.41351981
  PAW double counting   =       915.59639097     -770.86273399
  entropy T*S    EENTRO =        -0.00000000
  eigenvalues    EBANDS =      -650.06154739
  atomic energy  EATOM  =      1249.61482235
  Solvation  Ediel_sol  =         0.00000000
  ---------------------------------------------------
  free energy    TOTEN  =       -99.73298393 eV

  energy without entropy =      -99.73298393  energy(sigma->0) =      -99.73298393


--------------------------------------------------------------------------------------------------------




--------------------------------------- Iteration      1(   6)  ---------------------------------------


    POTLOK:  cpu time    1.6927: real time    1.7077
    SETDIJ:  cpu time    0.0100: real time    0.0102
     EDDAV:  cpu time   12.2951: real time   12.2922
       DOS:  cpu time    0.0000: real time    0.0010
    CHARGE:  cpu time    0.4849: real time    0.4853
    MIXING:  cpu time    0.0450: real time    0.0455
    --------------------------------------------
      LOOP:  cpu time   14.5278: real time   14.5419

 eigenvalue-minimisations  :   112
 total energy-change (2. order) : 0.3039036E+01  (-0.1581200E+00)
 number of electron      56.0000023 magnetization 
 augmentation part       -5.9737141 magnetization 

 Broyden mixing:
  rms(total) = 0.77028E+00    rms(broyden)= 0.77028E+00
  rms(prec ) = 0.82973E+00
  weight for this iteration     100.00

 eigenvalues of (default mixing * dielectric matrix)
  average eigenvalue GAMMA=   2.2668
  2.2668

 Free energy of the ion-electron system (eV)
  ---------------------------------------------------
  alpha Z        PSCENC =         3.61766629
  Ewald energy   TEWEN  =      2629.98113996
  -Hartree energ DENC   =     -3466.08817084
  -exchange      EXHF   =         0.00000000
  -V(xc)+E(xc)   XCENC  =       -37.81284985
  PAW double counting   =      1581.70127645    -1438.04740479
  entropy T*S    EENTRO =        -0.00000000
  eigenvalues    EBANDS =      -619.66042793
  atomic energy  EATOM  =      1249.61482235
  Solvation  Ediel_sol  =         0.00000000
  ---------------------------------------------------
  free energy    TOTEN  =       -96.69394836 eV

  energy without entropy =      -96.69394836  energy(sigma->0) =      -96.69394836


--------------------------------------------------------------------------------------------------------




--------------------------------------- Iteration      1(   7)  ---------------------------------------


    POTLOK:  cpu time    1.6907: real time    1.6894
    SETDIJ:  cpu time    0.0100: real time    0.0100
     EDDAV:  cpu time   12.2591: real time   12.2607
       DOS:  cpu time    0.0000: real time    0.0003
    CHARGE:  cpu time    0.4909: real time    0.4910
    MIXING:  cpu time    0.0470: real time    0.0474
    --------------------------------------------
      LOOP:  cpu time   14.4978: real time   14.4988

 eigenvalue-minimisations  :   112
 total energy-change (2. order) : 0.1569645E+01  (-0.3737078E+00)
 number of electron      56.0000021 magnetization 
 augmentation part       -5.9694424 magnetization 

 Broyden mixing:
  rms(total) = 0.11908E+00    rms(broyden)= 0.11893E+00
  rms(prec ) = 0.15096E+00
  weight for this iteration     100.00

 eigenvalues of (default mixing * dielectric matrix)
  average eigenvalue GAMMA=   1.9230
  1.9230  1.9230

 Free energy of the ion-electron system (eV)
  ---------------------------------------------------
  alpha Z        PSCENC =         3.61766629
  Ewald energy   TEWEN  =      2629.98113996
  -Hartree energ DENC   =     -3518.43678883
  -exchange      EXHF   =         0.00000000
  -V(xc)+E(xc)   XCENC  =       -32.21994455
  PAW double counting   =      2893.85313134    -2751.61501847
  entropy T*S    EENTRO =        -0.00000000
  eigenvalues    EBANDS =      -569.91931142
  atomic energy  EATOM  =      1249.61482235
  Solvation  Ediel_sol  =         0.00000000
  ---------------------------------------------------
  free energy    TOTEN  =       -95.12430333 eV

  energy without entropy =      -95.12430333  energy(sigma->0) =      -95.12430333


--------------------------------------------------------------------------------------------------------




--------------------------------------- Iteration      1(   8)  ---------------------------------------


    POTLOK:  cpu time    1.6977: real time    1.6981
    SETDIJ:  cpu time    0.0110: real time    0.0103
     EDDAV:  cpu time   12.2861: real time   12.2839
       DOS:  cpu time    0.0010: real time    0.0003
    CHARGE:  cpu time    0.4859: real time    0.4862
    MIXING:  cpu time    0.0510: real time    0.0510
    --------------------------------------------
      LOOP:  cpu time   14.5328: real time   14.5298

 eigenvalue-minimisations  :   112
 total energy-change (2. order) : 0.6499641E-01  (-0.2688055E-01)
 number of electron      56.0000021 magnetization 
 augmentation part       -5.9528206 magnetization 

 Broyden mixing:
  rms(total) = 0.54097E-01    rms(broyden)= 0.54085E-01
  rms(prec ) = 0.73061E-01
  weight for this iteration     100.00

 eigenvalues of (default mixing * dielectric matrix)
  average eigenvalue GAMMA=   2.0003
  2.6960  1.6524  1.6524

 Free energy of the ion-electron system (eV)
  ---------------------------------------------------
  alpha Z        PSCENC =         3.61766629
  Ewald energy   TEWEN  =      2629.98113996
  -Hartree energ DENC   =     -3528.42659186
  -exchange      EXHF   =         0.00000000
  -V(xc)+E(xc)   XCENC  =       -32.10161968
  PAW double counting   =      2959.05827684    -2816.76740366
  entropy T*S    EENTRO =        -0.00000000
  eigenvalues    EBANDS =      -560.03559716
  atomic energy  EATOM  =      1249.61482235
  Solvation  Ediel_sol  =         0.00000000
  ---------------------------------------------------
  free energy    TOTEN  =       -95.05930692 eV

  energy without entropy =      -95.05930692  energy(sigma->0) =      -95.05930692


--------------------------------------------------------------------------------------------------------




--------------------------------------- Iteration      1(   9)  ---------------------------------------


    POTLOK:  cpu time    1.7027: real time    1.7023
    SETDIJ:  cpu time    0.0110: real time    0.0107
     EDDAV:  cpu time   12.2931: real time   12.2971
       DOS:  cpu time    0.0000: real time    0.0003
    CHARGE:  cpu time    0.4869: real time    0.4867
    MIXING:  cpu time    0.0550: real time    0.0553
    --------------------------------------------
      LOOP:  cpu time   14.5488: real time   14.5523

 eigenvalue-minimisations  :   112
 total energy-change (2. order) : 0.3349391E-01  (-0.5858082E-02)
 number of electron      56.0000021 magnetization 
 augmentation part       -5.9350544 magnetization 

 Broyden mixing:
  rms(total) = 0.28973E-01    rms(broyden)= 0.28972E-01
  rms(prec ) = 0.41300E-01
  weight for this iteration     100.00

 eigenvalues of (default mixing * dielectric matrix)
  average eigenvalue GAMMA=   1.7799
  2.5304  1.8481  1.8481  0.8932

 Free energy of the ion-electron system (eV)
  ---------------------------------------------------
  alpha Z        PSCENC =         3.61766629
  Ewald energy   TEWEN  =      2629.98113996
  -Hartree energ DENC   =     -3539.46935018
  -exchange      EXHF   =         0.00000000
  -V(xc)+E(xc)   XCENC  =       -31.37387410
  PAW double counting   =      3071.04857045    -2928.83628830
  entropy T*S    EENTRO =        -0.00000000
  eigenvalues    EBANDS =      -549.60849948
  atomic energy  EATOM  =      1249.61482235
  Solvation  Ediel_sol  =         0.00000000
  ---------------------------------------------------
  free energy    TOTEN  =       -95.02581301 eV

  energy without entropy =      -95.02581301  energy(sigma->0) =      -95.02581301


--------------------------------------------------------------------------------------------------------




--------------------------------------- Iteration      1(  10)  ---------------------------------------


    POTLOK:  cpu time    1.7107: real time    1.7092
    SETDIJ:  cpu time    0.0100: real time    0.0103
     EDDAV:  cpu time   12.2521: real time   12.2507
       DOS:  cpu time    0.0010: real time    0.0003
    CHARGE:  cpu time    0.4849: real time    0.4851
    MIXING:  cpu time    0.0560: real time    0.0549
    --------------------------------------------
      LOOP:  cpu time   14.5148: real time   14.5104

 eigenvalue-minimisations  :   112
 total energy-change (2. order) :-0.5663958E-03  (-0.2875572E-03)
 number of electron      56.0000022 magnetization 
 augmentation part       -5.9360269 magnetization 

 Broyden mixing:
  rms(total) = 0.10878E-01    rms(broyden)= 0.10878E-01
  rms(prec ) = 0.23789E-01
  weight for this iteration     100.00

 eigenvalues of (default mixing * dielectric matrix)
  average eigenvalue GAMMA=   1.9864
  3.1240  2.6964  1.5788  1.5788  0.9540

 Free energy of the ion-electron system (eV)
  ---------------------------------------------------
  alpha Z        PSCENC =         3.61766629
  Ewald energy   TEWEN  =      2629.98113996
  -Hartree energ DENC   =     -3542.54340613
  -exchange      EXHF   =         0.00000000
  -V(xc)+E(xc)   XCENC  =       -31.37069195
  PAW double counting   =      3000.92858900    -2858.63723881
  entropy T*S    EENTRO =        -0.00000000
  eigenvalues    EBANDS =      -546.61726011
  atomic energy  EATOM  =      1249.61482235
  Solvation  Ediel_sol  =         0.00000000
  ---------------------------------------------------
  free energy    TOTEN  =       -95.02637941 eV

  energy without entropy =      -95.02637941  energy(sigma->0) =      -95.02637941


--------------------------------------------------------------------------------------------------------




--------------------------------------- Iteration      1(  11)  ---------------------------------------


    POTLOK:  cpu time    1.9957: real time    1.9996
    SETDIJ:  cpu time    0.0100: real time    0.0101
     EDDAV:  cpu time   11.5522: real time   11.5563
       DOS:  cpu time    0.0000: real time    0.0004
    CHARGE:  cpu time    0.4849: real time    0.4852
    MIXING:  cpu time    0.0590: real time    0.0587
    --------------------------------------------
      LOOP:  cpu time   14.1019: real time   14.1102

 eigenvalue-minimisations  :   104
 total energy-change (2. order) : 0.1804009E-03  (-0.5651550E-03)
 number of electron      56.0000021 magnetization 
 augmentation part       -5.9336085 magnetization 

 Broyden mixing:
  rms(total) = 0.10745E-01    rms(broyden)= 0.10745E-01
  rms(prec ) = 0.15554E-01
  weight for this iteration     100.00

 eigenvalues of (default mixing * dielectric matrix)
  average eigenvalue GAMMA=   2.1245
  3.9005  2.4893  2.4281  0.9547  1.5389  1.4354

 Free energy of the ion-electron system (eV)
  ---------------------------------------------------
  alpha Z        PSCENC =         3.61766629
  Ewald energy   TEWEN  =      2629.98113996
  -Hartree energ DENC   =     -3548.56818954
  -exchange      EXHF   =         0.00000000
  -V(xc)+E(xc)   XCENC  =       -31.18763889
  PAW double counting   =      2989.46150264    -2847.14480001
  entropy T*S    EENTRO =        -0.00000000
  eigenvalues    EBANDS =      -540.80070179
  atomic energy  EATOM  =      1249.61482235
  Solvation  Ediel_sol  =         0.00000000
  ---------------------------------------------------
  free energy    TOTEN  =       -95.02619901 eV

  energy without entropy =      -95.02619901  energy(sigma->0) =      -95.02619901


--------------------------------------------------------------------------------------------------------




--------------------------------------- Iteration      1(  12)  ---------------------------------------


    POTLOK:  cpu time    1.7247: real time    1.7238
    SETDIJ:  cpu time    0.0140: real time    0.0138
     EDDAV:  cpu time   12.0712: real time   12.0699
       DOS:  cpu time    0.0010: real time    0.0003
    CHARGE:  cpu time    0.4889: real time    0.4883
    MIXING:  cpu time    0.0600: real time    0.0604
    --------------------------------------------
      LOOP:  cpu time   14.3608: real time   14.3566

 eigenvalue-minimisations  :   110
 total energy-change (2. order) :-0.6254794E-02  (-0.4680009E-03)
 number of electron      56.0000021 magnetization 
 augmentation part       -5.9314602 magnetization 

 Broyden mixing:
  rms(total) = 0.42396E-02    rms(broyden)= 0.42394E-02
  rms(prec ) = 0.65603E-02
  weight for this iteration     100.00

 eigenvalues of (default mixing * dielectric matrix)
  average eigenvalue GAMMA=   2.2594
  5.1453  2.6957  2.6957  1.6250  1.6250  1.0146  1.0146

 Free energy of the ion-electron system (eV)
  ---------------------------------------------------
  alpha Z        PSCENC =         3.61766629
  Ewald energy   TEWEN  =      2629.98113996
  -Hartree energ DENC   =     -3552.67606401
  -exchange      EXHF   =         0.00000000
  -V(xc)+E(xc)   XCENC  =       -31.09361954
  PAW double counting   =      3002.18613264    -2859.89163799
  entropy T*S    EENTRO =        -0.00000000
  eigenvalues    EBANDS =      -536.77089350
  atomic energy  EATOM  =      1249.61482235
  Solvation  Ediel_sol  =         0.00000000
  ---------------------------------------------------
  free energy    TOTEN  =       -95.03245380 eV

  energy without entropy =      -95.03245380  energy(sigma->0) =      -95.03245380


--------------------------------------------------------------------------------------------------------




--------------------------------------- Iteration      1(  13)  ---------------------------------------


    POTLOK:  cpu time    1.7177: real time    1.7172
    SETDIJ:  cpu time    0.0100: real time    0.0099
     EDDAV:  cpu time   12.3021: real time   12.3043
       DOS:  cpu time    0.0000: real time    0.0004
    CHARGE:  cpu time    0.4849: real time    0.4840
    MIXING:  cpu time    0.0650: real time    0.0645
    --------------------------------------------
      LOOP:  cpu time   14.5788: real time   14.5804

 eigenvalue-minimisations  :   112
 total energy-change (2. order) :-0.4710130E-02  (-0.5764538E-04)
 number of electron      56.0000021 magnetization 
 augmentation part       -5.9313572 magnetization 

 Broyden mixing:
  rms(total) = 0.41330E-02    rms(broyden)= 0.41330E-02
  rms(prec ) = 0.52975E-02
  weight for this iteration     100.00

 eigenvalues of (default mixing * dielectric matrix)
  average eigenvalue GAMMA=   2.3628
  6.1303  3.1459  2.3335  2.3335  1.4622  1.4622  1.0126  1.0222

 Free energy of the ion-electron system (eV)
  ---------------------------------------------------
  alpha Z        PSCENC =         3.61766629
  Ewald energy   TEWEN  =      2629.98113996
  -Hartree energ DENC   =     -3553.64858972
  -exchange      EXHF   =         0.00000000
  -V(xc)+E(xc)   XCENC  =       -31.07958775
  PAW double counting   =      3004.30424290    -2862.01441849
  entropy T*S    EENTRO =        -0.00000000
  eigenvalues    EBANDS =      -535.81243946
  atomic energy  EATOM  =      1249.61482235
  Solvation  Ediel_sol  =         0.00000000
  ---------------------------------------------------
  free energy    TOTEN  =       -95.03716393 eV

  energy without entropy =      -95.03716393  energy(sigma->0) =      -95.03716393


--------------------------------------------------------------------------------------------------------




--------------------------------------- Iteration      1(  14)  ---------------------------------------


    POTLOK:  cpu time    1.7117: real time    1.7119
    SETDIJ:  cpu time    0.0100: real time    0.0100
     EDDAV:  cpu time   12.2661: real time   12.2627
       DOS:  cpu time    0.0010: real time    0.0003
    CHARGE:  cpu time    0.4889: real time    0.4888
    MIXING:  cpu time    0.0710: real time    0.0718
    --------------------------------------------
      LOOP:  cpu time   14.5488: real time   14.5455

 eigenvalue-minimisations  :   112
 total energy-change (2. order) :-0.4616870E-02  (-0.5446365E-04)
 number of electron      56.0000021 magnetization 
 augmentation part       -5.9306557 magnetization 

 Broyden mixing:
  rms(total) = 0.18833E-02    rms(broyden)= 0.18832E-02
  rms(prec ) = 0.26685E-02
  weight for this iteration     100.00

 eigenvalues of (default mixing * dielectric matrix)
  average eigenvalue GAMMA=   2.3861
  6.7356  3.3669  2.7068  1.8659  1.8659  1.7333  1.2750  0.9626  0.9626

 Free energy of the ion-electron system (eV)
  ---------------------------------------------------
  alpha Z        PSCENC =         3.61766629
  Ewald energy   TEWEN  =      2629.98113996
  -Hartree energ DENC   =     -3553.99080524
  -exchange      EXHF   =         0.00000000
  -V(xc)+E(xc)   XCENC  =       -31.11602146
  PAW double counting   =      3001.55638156    -2859.26010263
  entropy T*S    EENTRO =        -0.00000000
  eigenvalues    EBANDS =      -535.44486162
  atomic energy  EATOM  =      1249.61482235
  Solvation  Ediel_sol  =         0.00000000
  ---------------------------------------------------
  free energy    TOTEN  =       -95.04178080 eV

  energy without entropy =      -95.04178080  energy(sigma->0) =      -95.04178080


--------------------------------------------------------------------------------------------------------




--------------------------------------- Iteration      1(  15)  ---------------------------------------


    POTLOK:  cpu time    1.7127: real time    1.7119
    SETDIJ:  cpu time    0.0100: real time    0.0095
     EDDAV:  cpu time   12.1881: real time   12.1926
       DOS:  cpu time    0.0010: real time    0.0003
    CHARGE:  cpu time    0.4869: real time    0.4866
    MIXING:  cpu time    0.0790: real time    0.0787
    --------------------------------------------
      LOOP:  cpu time   14.4778: real time   14.4795

 eigenvalue-minimisations  :   112
 total energy-change (2. order) :-0.2521615E-02  (-0.2822561E-04)
 number of electron      56.0000021 magnetization 
 augmentation part       -5.9309334 magnetization 

 Broyden mixing:
  rms(total) = 0.60180E-03    rms(broyden)= 0.60176E-03
  rms(prec ) = 0.10846E-02
  weight for this iteration     100.00

 eigenvalues of (default mixing * dielectric matrix)
  average eigenvalue GAMMA=   2.4407
  6.9428  4.5034  2.5401  2.5401  1.8318  1.8318  1.1451  1.1451  0.9632  0.9632

 Free energy of the ion-electron system (eV)
  ---------------------------------------------------
  alpha Z        PSCENC =         3.61766629
  Ewald energy   TEWEN  =      2629.98113996
  -Hartree energ DENC   =     -3554.11003868
  -exchange      EXHF   =         0.00000000
  -V(xc)+E(xc)   XCENC  =       -31.10977846
  PAW double counting   =      3003.03051003    -2860.73441453
  entropy T*S    EENTRO =        -0.00000000
  eigenvalues    EBANDS =      -535.33420937
  atomic energy  EATOM  =      1249.61482235
  Solvation  Ediel_sol  =         0.00000000
  ---------------------------------------------------
  free energy    TOTEN  =       -95.04430241 eV

  energy without entropy =      -95.04430241  energy(sigma->0) =      -95.04430241


--------------------------------------------------------------------------------------------------------




--------------------------------------- Iteration      1(  16)  ---------------------------------------


    POTLOK:  cpu time    1.9227: real time    1.9364
    SETDIJ:  cpu time    0.0160: real time    0.0161
     EDDAV:  cpu time   12.2531: real time   12.2501
       DOS:  cpu time    0.0010: real time    0.0005
    CHARGE:  cpu time    0.4859: real time    0.4855
    MIXING:  cpu time    0.0860: real time    0.0854
    --------------------------------------------
      LOOP:  cpu time   14.7648: real time   14.7740

 eigenvalue-minimisations  :   112
 total energy-change (2. order) :-0.1149643E-02  (-0.1173322E-04)
 number of electron      56.0000021 magnetization 
 augmentation part       -5.9314362 magnetization 

 Broyden mixing:
  rms(total) = 0.49918E-03    rms(broyden)= 0.49912E-03
  rms(prec ) = 0.73105E-03
  weight for this iteration     100.00

 eigenvalues of (default mixing * dielectric matrix)
  average eigenvalue GAMMA=   2.4795
  7.2566  4.8367  2.6361  2.6361  2.1724  1.7697  1.7697  0.9876  0.9876  1.1110
  1.1110

 Free energy of the ion-electron system (eV)
  ---------------------------------------------------
  alpha Z        PSCENC =         3.61766629
  Ewald energy   TEWEN  =      2629.98113996
  -Hartree energ DENC   =     -3554.11571151
  -exchange      EXHF   =         0.00000000
  -V(xc)+E(xc)   XCENC  =       -31.11235655
  PAW double counting   =      3002.16116198    -2859.86369198
  entropy T*S    EENTRO =        -0.00000000
  eigenvalues    EBANDS =      -535.32848259
  atomic energy  EATOM  =      1249.61482235
  Solvation  Ediel_sol  =         0.00000000
  ---------------------------------------------------
  free energy    TOTEN  =       -95.04545206 eV

  energy without entropy =      -95.04545206  energy(sigma->0) =      -95.04545206


--------------------------------------------------------------------------------------------------------




--------------------------------------- Iteration      1(  17)  ---------------------------------------


    POTLOK:  cpu time    1.7137: real time    1.7144
    SETDIJ:  cpu time    0.0110: real time    0.0104
     EDDAV:  cpu time   12.2761: real time   12.2774
       DOS:  cpu time    0.0010: real time    0.0006
    CHARGE:  cpu time    0.4859: real time    0.4864
    MIXING:  cpu time    0.0960: real time    0.0959
    --------------------------------------------
      LOOP:  cpu time   14.5838: real time   14.5852

 eigenvalue-minimisations  :   112
 total energy-change (2. order) :-0.6591995E-03  (-0.3914069E-05)
 number of electron      56.0000021 magnetization 
 augmentation part       -5.9313415 magnetization 

 Broyden mixing:
  rms(total) = 0.18430E-03    rms(broyden)= 0.18425E-03
  rms(prec ) = 0.28826E-03
  weight for this iteration     100.00

 eigenvalues of (default mixing * dielectric matrix)
  average eigenvalue GAMMA=   2.5379
  8.0177  5.6052  3.1661  2.4945  2.3983  1.7974  1.7974  0.9658  1.0223  1.0223
  1.0841  1.0841

 Free energy of the ion-electron system (eV)
  ---------------------------------------------------
  alpha Z        PSCENC =         3.61766629
  Ewald energy   TEWEN  =      2629.98113996
  -Hartree energ DENC   =     -3554.17418151
  -exchange      EXHF   =         0.00000000
  -V(xc)+E(xc)   XCENC  =       -31.11298215
  PAW double counting   =      3001.51289965    -2859.21619369
  entropy T*S    EENTRO =        -0.00000000
  eigenvalues    EBANDS =      -535.26928216
  atomic energy  EATOM  =      1249.61482235
  Solvation  Ediel_sol  =         0.00000000
  ---------------------------------------------------
  free energy    TOTEN  =       -95.04611126 eV

  energy without entropy =      -95.04611126  energy(sigma->0) =      -95.04611126


--------------------------------------------------------------------------------------------------------




--------------------------------------- Iteration      1(  18)  ---------------------------------------


    POTLOK:  cpu time    1.7127: real time    1.7122
    SETDIJ:  cpu time    0.0110: real time    0.0108
     EDDAV:  cpu time   10.8633: real time   10.8602
       DOS:  cpu time    0.0010: real time    0.0005
    CHARGE:  cpu time    0.4839: real time    0.4844
    MIXING:  cpu time    0.1060: real time    0.1055
    --------------------------------------------
      LOOP:  cpu time   13.1780: real time   13.1736

 eigenvalue-minimisations  :    96
 total energy-change (2. order) :-0.1369490E-03  (-0.3545904E-06)
 number of electron      56.0000021 magnetization 
 augmentation part       -5.9312868 magnetization 

 Broyden mixing:
  rms(total) = 0.13868E-03    rms(broyden)= 0.13868E-03
  rms(prec ) = 0.20136E-03
  weight for this iteration     100.00

 eigenvalues of (default mixing * dielectric matrix)
  average eigenvalue GAMMA=   2.5905
  8.3647  5.9158  3.3941  2.7103  2.2350  2.2350  1.7181  1.7181  1.1835  1.1835
  0.9986  1.0102  1.0102

 Free energy of the ion-electron system (eV)
  ---------------------------------------------------
  alpha Z        PSCENC =         3.61766629
  Ewald energy   TEWEN  =      2629.98113996
  -Hartree energ DENC   =     -3554.20651787
  -exchange      EXHF   =         0.00000000
  -V(xc)+E(xc)   XCENC  =       -31.11194511
  PAW double counting   =      3001.72200573    -2859.42548678
  entropy T*S    EENTRO =        -0.00000000
  eigenvalues    EBANDS =      -535.23793277
  atomic energy  EATOM  =      1249.61482235
  Solvation  Ediel_sol  =         0.00000000
  ---------------------------------------------------
  free energy    TOTEN  =       -95.04624821 eV

  energy without entropy =      -95.04624821  energy(sigma->0) =      -95.04624821


--------------------------------------------------------------------------------------------------------




--------------------------------------- Iteration      1(  19)  ---------------------------------------


    POTLOK:  cpu time    1.7227: real time    1.7219
    SETDIJ:  cpu time    0.0150: real time    0.0160
     EDDAV:  cpu time   11.5632: real time   11.5592
       DOS:  cpu time    0.0000: real time    0.0005
    CHARGE:  cpu time    0.4739: real time    0.4788
    MIXING:  cpu time    0.1180: real time    0.1182
    --------------------------------------------
      LOOP:  cpu time   13.8929: real time   13.8946

 eigenvalue-minimisations  :   104
 total energy-change (2. order) :-0.1072994E-03  (-0.2795592E-06)
 number of electron      56.0000021 magnetization 
 augmentation part       -5.9312862 magnetization 

 Broyden mixing:
  rms(total) = 0.80161E-04    rms(broyden)= 0.80156E-04
  rms(prec ) = 0.10620E-03
  weight for this iteration     100.00

 eigenvalues of (default mixing * dielectric matrix)
  average eigenvalue GAMMA=   2.5757
  8.4757  6.2729  3.8188  2.8087  2.5016  2.2117  1.7568  1.7568  1.1837  1.1837
  0.9798  0.9798  0.9854  1.1443

 Free energy of the ion-electron system (eV)
  ---------------------------------------------------
  alpha Z        PSCENC =         3.61766629
  Ewald energy   TEWEN  =      2629.98113996
  -Hartree energ DENC   =     -3554.20271455
  -exchange      EXHF   =         0.00000000
  -V(xc)+E(xc)   XCENC  =       -31.11305197
  PAW double counting   =      3001.78708701    -2859.49029326
  entropy T*S    EENTRO =        -0.00000000
  eigenvalues    EBANDS =      -535.24101133
  atomic energy  EATOM  =      1249.61482235
  Solvation  Ediel_sol  =         0.00000000
  ---------------------------------------------------
  free energy    TOTEN  =       -95.04635551 eV

  energy without entropy =      -95.04635551  energy(sigma->0) =      -95.04635551


--------------------------------------------------------------------------------------------------------




--------------------------------------- Iteration      1(  20)  ---------------------------------------


    POTLOK:  cpu time    1.7167: real time    1.7155
    SETDIJ:  cpu time    0.0190: real time    0.0190
     EDDAV:  cpu time   10.1715: real time   10.1679
       DOS:  cpu time    0.0000: real time    0.0006
    CHARGE:  cpu time    0.4839: real time    0.4842
    MIXING:  cpu time    0.1310: real time    0.1295
    --------------------------------------------
      LOOP:  cpu time   12.5221: real time   12.5167

 eigenvalue-minimisations  :    88
 total energy-change (2. order) :-0.2312985E-04  (-0.3921931E-07)
 number of electron      56.0000021 magnetization 
 augmentation part       -5.9312754 magnetization 

 Broyden mixing:
  rms(total) = 0.52669E-04    rms(broyden)= 0.52667E-04
  rms(prec ) = 0.70737E-04
  weight for this iteration     100.00

 eigenvalues of (default mixing * dielectric matrix)
  average eigenvalue GAMMA=   2.6168
  8.4915  6.6647  4.0412  3.2899  2.6245  2.1402  1.8362  1.8362  1.5878  1.4849
  1.1569  1.1569  0.9807  0.9807  0.9797

 Free energy of the ion-electron system (eV)
  ---------------------------------------------------
  alpha Z        PSCENC =         3.61766629
  Ewald energy   TEWEN  =      2629.98113996
  -Hartree energ DENC   =     -3554.21199766
  -exchange      EXHF   =         0.00000000
  -V(xc)+E(xc)   XCENC  =       -31.11278032
  PAW double counting   =      3001.85791038    -2859.56122269
  entropy T*S    EENTRO =        -0.00000000
  eigenvalues    EBANDS =      -535.23191695
  atomic energy  EATOM  =      1249.61482235
  Solvation  Ediel_sol  =         0.00000000
  ---------------------------------------------------
  free energy    TOTEN  =       -95.04637864 eV

  energy without entropy =      -95.04637864  energy(sigma->0) =      -95.04637864


--------------------------------------------------------------------------------------------------------




--------------------------------------- Iteration      1(  21)  ---------------------------------------


    POTLOK:  cpu time    2.1757: real time    2.1796
    SETDIJ:  cpu time    0.0110: real time    0.0102
     EDDAV:  cpu time   10.2044: real time   10.2013
       DOS:  cpu time    0.0000: real time    0.0004
    CHARGE:  cpu time    0.4899: real time    0.4959
    MIXING:  cpu time    0.1420: real time    0.1414
    --------------------------------------------
      LOOP:  cpu time   13.0230: real time   13.0288

 eigenvalue-minimisations  :    88
 total energy-change (2. order) :-0.1492628E-04  (-0.4051142E-07)
 number of electron      56.0000021 magnetization 
 augmentation part       -5.9312858 magnetization 

 Broyden mixing:
  rms(total) = 0.21339E-04    rms(broyden)= 0.21339E-04
  rms(prec ) = 0.29739E-04
  weight for this iteration     100.00

 eigenvalues of (default mixing * dielectric matrix)
  average eigenvalue GAMMA=   2.5602
  8.6504  6.7261  4.4410  3.1384  2.5424  2.2756  2.0281  1.6325  1.6325  1.5161
  1.1474  1.1474  0.9848  0.9973  0.9973  1.1068

 Free energy of the ion-electron system (eV)
  ---------------------------------------------------
  alpha Z        PSCENC =         3.61766629
  Ewald energy   TEWEN  =      2629.98113996
  -Hartree energ DENC   =     -3554.21342020
  -exchange      EXHF   =         0.00000000
  -V(xc)+E(xc)   XCENC  =       -31.11262119
  PAW double counting   =      3001.89368822    -2859.59702199
  entropy T*S    EENTRO =        -0.00000000
  eigenvalues    EBANDS =      -535.23064700
  atomic energy  EATOM  =      1249.61482235
  Solvation  Ediel_sol  =         0.00000000
  ---------------------------------------------------
  free energy    TOTEN  =       -95.04639356 eV

  energy without entropy =      -95.04639356  energy(sigma->0) =      -95.04639356


--------------------------------------------------------------------------------------------------------




--------------------------------------- Iteration      1(  22)  ---------------------------------------


    POTLOK:  cpu time    1.7037: real time    1.7030
    SETDIJ:  cpu time    0.0100: real time    0.0099
     EDDAV:  cpu time   10.1905: real time   10.2056
       DOS:  cpu time    0.0010: real time    0.0004
    CHARGE:  cpu time    0.4859: real time    0.4859
    MIXING:  cpu time    0.1550: real time    0.1551
    --------------------------------------------
      LOOP:  cpu time   12.5461: real time   12.5599

 eigenvalue-minimisations  :    88
 total energy-change (2. order) :-0.2888652E-05  (-0.8027550E-08)
 number of electron      56.0000021 magnetization 
 augmentation part       -5.9312968 magnetization 

 Broyden mixing:
  rms(total) = 0.21813E-04    rms(broyden)= 0.21811E-04
  rms(prec ) = 0.28512E-04
  weight for this iteration     100.00

 eigenvalues of (default mixing * dielectric matrix)
  average eigenvalue GAMMA=   2.6194
  8.7673  6.8240  4.8495  3.3564  2.6069  2.5198  2.5198  1.8046  1.8046  1.5803
  1.5803  1.1788  1.1788  0.9977  0.9977  0.9817  0.9817

 Free energy of the ion-electron system (eV)
  ---------------------------------------------------
  alpha Z        PSCENC =         3.61766629
  Ewald energy   TEWEN  =      2629.98113996
  -Hartree energ DENC   =     -3554.21321023
  -exchange      EXHF   =         0.00000000
  -V(xc)+E(xc)   XCENC  =       -31.11259626
  PAW double counting   =      3001.85662586    -2859.55992545
  entropy T*S    EENTRO =        -0.00000000
  eigenvalues    EBANDS =      -535.23091897
  atomic energy  EATOM  =      1249.61482235
  Solvation  Ediel_sol  =         0.00000000
  ---------------------------------------------------
  free energy    TOTEN  =       -95.04639645 eV

  energy without entropy =      -95.04639645  energy(sigma->0) =      -95.04639645


--------------------------------------------------------------------------------------------------------




--------------------------------------- Iteration      1(  23)  ---------------------------------------


    POTLOK:  cpu time    1.7087: real time    1.7115
    SETDIJ:  cpu time    0.0110: real time    0.0105
     EDDAV:  cpu time    9.2996: real time    9.3013
       DOS:  cpu time    0.0000: real time    0.0003
    CHARGE:  cpu time    0.4879: real time    0.4878
    MIXING:  cpu time    0.1670: real time    0.1670
    --------------------------------------------
      LOOP:  cpu time   11.6742: real time   11.6784

 eigenvalue-minimisations  :    78
 total energy-change (2. order) :-0.3883991E-05  (-0.7681942E-08)
 number of electron      56.0000021 magnetization 
 augmentation part       -5.9312901 magnetization 

 Broyden mixing:
  rms(total) = 0.72587E-05    rms(broyden)= 0.72585E-05
  rms(prec ) = 0.10443E-04
  weight for this iteration     100.00

 eigenvalues of (default mixing * dielectric matrix)
  average eigenvalue GAMMA=   2.5834
  8.8530  6.9334  5.2377  3.6310  2.8647  2.5253  2.1353  1.8436  1.8436  1.5882
  1.5882  1.1548  1.1548  1.2197  0.9873  0.9873  0.9953  0.9581

 Free energy of the ion-electron system (eV)
  ---------------------------------------------------
  alpha Z        PSCENC =         3.61766629
  Ewald energy   TEWEN  =      2629.98113996
  -Hartree energ DENC   =     -3554.21486087
  -exchange      EXHF   =         0.00000000
  -V(xc)+E(xc)   XCENC  =       -31.11269596
  PAW double counting   =      3001.84561169    -2859.54893607
  entropy T*S    EENTRO =        -0.00000000
  eigenvalues    EBANDS =      -535.22914773
  atomic energy  EATOM  =      1249.61482235
  Solvation  Ediel_sol  =         0.00000000
  ---------------------------------------------------
  free energy    TOTEN  =       -95.04640033 eV

  energy without entropy =      -95.04640033  energy(sigma->0) =      -95.04640033


--------------------------------------------------------------------------------------------------------




--------------------------------------- Iteration      1(  24)  ---------------------------------------


    POTLOK:  cpu time    1.7197: real time    1.7186
    SETDIJ:  cpu time    0.0170: real time    0.0174
     EDDAV:  cpu time   10.8803: real time   10.8841
       DOS:  cpu time    0.0000: real time    0.0002
    --------------------------------------------
      LOOP:  cpu time   12.6171: real time   12.6203

 eigenvalue-minimisations  :    96
 total energy-change (2. order) :-0.5455179E-06  (-0.1249353E-08)
 number of electron      56.0000021 magnetization 
 augmentation part       -5.9312901 magnetization 

 Free energy of the ion-electron system (eV)
  ---------------------------------------------------
  alpha Z        PSCENC =         3.61766629
  Ewald energy   TEWEN  =      2629.98113996
  -Hartree energ DENC   =     -3554.21456756
  -exchange      EXHF   =         0.00000000
  -V(xc)+E(xc)   XCENC  =       -31.11269311
  PAW double counting   =      3001.84472268    -2859.54803586
  entropy T*S    EENTRO =        -0.00000000
  eigenvalues    EBANDS =      -535.22945562
  atomic energy  EATOM  =      1249.61482235
  Solvation  Ediel_sol  =         0.00000000
  ---------------------------------------------------
  free energy    TOTEN  =       -95.04640088 eV

  energy without entropy =      -95.04640088  energy(sigma->0) =      -95.04640088


--------------------------------------------------------------------------------------------------------




 average (electrostatic) potential at core
  the test charge radii are     1.1631  0.5201
  (the norm of the test charge is              1.0000)
       1 -40.4538       2 -40.4642       3 -40.4642       4 -40.4642       5 -40.4538
       6 -40.4538       7 -40.4538       8 -40.4642       9 -40.4642      10 -40.4642
      11 -41.0488      12 -41.0486      13 -41.0329      14 -41.0491      15 -41.0487
      16 -41.0491      17 -41.0498      18 -41.0331      19 -41.0333      20 -41.0487
      21 -41.0489      22 -41.0331      23 -41.0490      24 -41.0491      25 -41.0486
      26 -41.0487
 
 
 
 E-fermi :  -5.3295     XC(G=0):  -0.6155     alpha+bet : -0.3143


 k-point     1 :       0.0000    0.0000    0.0000
  band No.  band energies     occupation 
      1     -15.7153      2.00000
      2     -14.6374      2.00000
      3     -14.6373      2.00000
      4     -14.6373      2.00000
      5     -13.4265      2.00000
      6     -13.4265      2.00000
      7     -11.9561      2.00000
      8     -11.9561      2.00000
      9     -11.9561      2.00000
     10     -10.7971      2.00000
     11      -9.0098      2.00000
     12      -8.6452      2.00000
     13      -8.6452      2.00000
     14      -8.6452      2.00000
     15      -8.1770      2.00000
     16      -8.1770      2.00000
     17      -8.1770      2.00000
     18      -7.8475      2.00000
     19      -7.8474      2.00000
     20      -7.8474      2.00000
     21      -6.7174      2.00000
     22      -6.7174      2.00000
     23      -6.4017      2.00000
     24      -6.4016      2.00000
     25      -6.4016      2.00000
     26      -6.2702      2.00000
     27      -6.2702      2.00000
     28      -6.2701      2.00000
     29      -1.4767      0.00000
     30      -1.1028      0.00000
     31      -1.1027      0.00000
     32      -1.1025      0.00000
     33      -0.9928      0.00000
     34      -0.9927      0.00000
     35      -0.9925      0.00000
     36      -0.9339      0.00000
     37      -0.9135      0.00000
     38      -0.9129      0.00000
     39      -0.0976      0.00000
     40      -0.0577      0.00000
     41      -0.0570      0.00000
     42      -0.0555      0.00000


--------------------------------------------------------------------------------------------------------


 soft charge-density along one line, spin component           1
         0         1         2         3         4         5         6         7         8         9
 total charge-density along one line
 
 pseudopotential strength for first ion, spin component:           1
 16.823  21.060   0.000  -0.002  -0.000   0.001  -0.003  -0.000
 21.060  26.383   0.000  -0.002  -0.000   0.001  -0.004  -0.000
  0.000   0.000   3.621  -0.000  -0.000   6.203  -0.001  -0.000
 -0.002  -0.002  -0.000   3.622   0.000  -0.001   6.206   0.000
 -0.000  -0.000  -0.000   0.000   3.620  -0.000   0.000   6.203
  0.001   0.001   6.203  -0.001  -0.000  10.690  -0.001  -0.000
 -0.003  -0.004  -0.001   6.206   0.000  -0.001  10.695   0.001
 -0.000  -0.000  -0.000   0.000   6.203  -0.000   0.001  10.690
 -0.000  -0.000   0.003   0.001  -0.001   0.005   0.002  -0.001
 -0.001  -0.001   0.001   0.003   0.001   0.001   0.005   0.002
  0.002   0.003   0.002  -0.007  -0.001   0.003  -0.011  -0.002
  0.001   0.001   0.001  -0.002   0.002   0.002  -0.003   0.003
 -0.000  -0.000  -0.000   0.000  -0.003  -0.000   0.001  -0.004
 total augmentation occupancy for first ion, spin component:           1
  4.152  -1.362   0.047  -0.226  -0.030  -0.011   0.055   0.007  -0.003  -0.023   0.061   0.015  -0.001
 -1.362   0.521  -0.033   0.155   0.021   0.005  -0.022  -0.003   0.002   0.012  -0.033  -0.008   0.001
  0.047  -0.033   2.295  -0.070  -0.009  -0.397   0.022   0.003   0.179   0.090   0.101   0.061  -0.010
 -0.226   0.155  -0.070   2.615   0.045   0.022  -0.496  -0.014   0.061   0.127  -0.281  -0.080   0.025
 -0.030   0.021  -0.009   0.045   2.286   0.003  -0.014  -0.395  -0.059   0.061  -0.064   0.140  -0.148
 -0.011   0.005  -0.397   0.022   0.003   0.074  -0.005  -0.001  -0.031  -0.017  -0.019  -0.011   0.001
  0.055  -0.022   0.022  -0.496  -0.014  -0.005   0.097   0.003  -0.011  -0.023   0.051   0.015  -0.004
  0.007  -0.003   0.003  -0.014  -0.395  -0.001   0.003   0.074   0.010  -0.011   0.012  -0.025   0.025
 -0.003   0.002   0.179   0.061  -0.059  -0.031  -0.011   0.010   0.024   0.008   0.002  -0.000   0.004
 -0.023   0.012   0.090   0.127   0.061  -0.017  -0.023  -0.011   0.008   0.017  -0.014   0.001  -0.003
  0.061  -0.033   0.101  -0.281  -0.064  -0.019   0.051   0.012   0.002  -0.014   0.047   0.009   0.001
  0.015  -0.008   0.061  -0.080   0.140  -0.011   0.015  -0.025  -0.000   0.001   0.009   0.018  -0.010
 -0.001   0.001  -0.010   0.025  -0.148   0.001  -0.004   0.025   0.004  -0.003   0.001  -0.010   0.017


------------------------ aborting loop because EDIFF is reached ----------------------------------------


    CHARGE:  cpu time    0.4769: real time    0.4766
    FORLOC:  cpu time    0.1610: real time    0.1611
    FORNL :  cpu time    1.3198: real time    1.3190
    STRESS:  cpu time   10.3864: real time   10.3819
    FORCOR:  cpu time    1.6967: real time    1.6970
    FORHAR:  cpu time    0.5649: real time    0.5647
    MIXING:  cpu time    0.1770: real time    0.1774
    OFIELD:  cpu time    0.0000: real time    0.0000

  FORCE on cell =-STRESS in cart. coord.  units (eV):
  Direction    XX          YY          ZZ          XY          YZ          ZX
  --------------------------------------------------------------------------------------
  Alpha Z     3.61767     3.61767     3.61767
  Ewald     876.64706   876.62235   876.71007    -0.21850     0.02563    -0.50464
  Hartree  1184.72336  1184.69747  1184.79368    -0.21486     0.02551    -0.49606
  E(xc)    -186.39550  -186.39556  -186.39568    -0.00001    -0.00001    -0.00007
  Local   -2503.37956 -2503.32771 -2503.51231     0.43343    -0.05107     1.00130
  n-local   170.33591   170.33634   170.33753     0.00023    -0.00005     0.00054
  augment    13.73299    13.73173    13.73479     0.00013    -0.00019     0.00001
  Kinetic   446.84840   446.84772   446.84716    -0.00018     0.00021    -0.00044
  Fock        0.00000     0.00000     0.00000     0.00000     0.00000     0.00000
  -------------------------------------------------------------------------------------
  Total       6.13033     6.13001     6.13290     0.00023     0.00003     0.00064
  in kB       1.22773     1.22767     1.22825     0.00005     0.00001     0.00013
  external pressure =        1.23 kB  Pullay stress =        0.00 kB


 VOLUME and BASIS-vectors are now :
 -----------------------------------------------------------------------------
  energy-cutoff  :      400.00
  volume of cell :     8000.00
      direct lattice vectors                 reciprocal lattice vectors
    20.000000000  0.000000000  0.000000000     0.050000000  0.000000000  0.000000000
     0.000000000 20.000000000  0.000000000     0.000000000  0.050000000  0.000000000
     0.000000000  0.000000000 20.000000000     0.000000000  0.000000000  0.050000000

  length of vectors
    20.000000000 20.000000000 20.000000000     0.050000000  0.050000000  0.050000000


 FORCES acting on ions
    electron-ion (+dipol)            ewald-force                    non-local-force                 convergence-correction
 -----------------------------------------------------------------------------------------------
   0.122E+02 -.190E+02 0.906E+02   -.123E+02 0.192E+02 -.914E+02   0.632E-01 -.985E-01 0.470E+00   0.641E-05 -.873E-05 0.178E-04
   0.902E+02 -.529E+01 0.477E+02   -.910E+02 0.534E+01 -.482E+02   0.480E+00 -.279E-01 0.253E+00   0.173E-04 -.229E-05 0.156E-04
   -.376E+02 0.552E+02 0.774E+02   0.380E+02 -.558E+02 -.781E+02   -.200E+00 0.293E+00 0.411E+00   -.833E-05 0.153E-04 0.109E-04
   -.297E+02 -.858E+02 0.469E+02   0.300E+02 0.866E+02 -.474E+02   -.158E+00 -.457E+00 0.248E+00   -.346E-05 -.181E-04 0.162E-04
   0.831E+02 0.135E+02 -.405E+02   -.839E+02 -.136E+02 0.409E+02   0.431E+00 0.695E-01 -.209E+00   0.172E-04 0.190E-05 -.102E-04
   -.519E+02 0.772E+02 -.895E+01   0.524E+02 -.779E+02 0.904E+01   -.268E+00 0.400E+00 -.459E-01   -.138E-04 0.196E-04 -.300E-05
   -.435E+02 -.717E+02 -.413E+02   0.440E+02 0.723E+02 0.417E+02   -.225E+00 -.371E+00 -.213E+00   -.624E-05 -.150E-04 -.909E-05
   -.901E+02 0.529E+01 -.477E+02   0.910E+02 -.534E+01 0.481E+02   -.480E+00 0.279E-01 -.253E+00   -.198E-04 0.915E-05 -.106E-04
   0.298E+02 0.858E+02 -.469E+02   -.301E+02 -.866E+02 0.473E+02   0.158E+00 0.457E+00 -.249E+00   0.391E-05 0.207E-04 -.919E-05
   0.377E+02 -.552E+02 -.774E+02   -.380E+02 0.557E+02 0.781E+02   0.200E+00 -.293E+00 -.412E+00   0.123E-04 -.142E-04 -.184E-04
   0.204E+02 0.399E+02 0.626E+01   -.217E+02 -.419E+02 -.737E+01   0.119E+01 0.194E+01 0.115E+01   0.362E-05 0.388E-05 0.111E-05
   0.950E+00 0.216E+02 -.398E+02   -.635E+00 -.222E+02 0.424E+02   -.343E+00 0.496E+00 -.248E+01   0.199E-06 0.326E-05 -.536E-05
   -.262E+02 0.389E+02 -.453E+01   0.277E+02 -.411E+02 0.479E+01   -.140E+01 0.208E+01 -.241E+00   -.476E-05 0.520E-05 -.911E-06
   -.445E+02 -.378E+01 0.582E+01   0.470E+02 0.415E+01 -.691E+01   -.226E+01 -.371E+00 0.112E+01   -.457E-05 -.176E-07 0.991E-06
   -.200E+02 0.758E+01 -.399E+02   0.204E+02 -.812E+01 0.425E+02   -.307E+00 0.521E+00 -.248E+01   -.303E-05 0.226E-05 -.613E-05
   -.356E+02 0.496E+01 0.276E+02   0.380E+02 -.463E+01 -.288E+02   -.227E+01 -.385E+00 0.109E+01   -.658E-05 0.155E-05 0.309E-05
   0.864E+01 0.346E+02 0.279E+02   -.983E+01 -.367E+02 -.291E+02   0.121E+01 0.195E+01 0.111E+01   0.219E-05 0.608E-05 0.325E-05
   0.617E+01 -.963E+01 0.455E+02   -.652E+01 0.102E+02 -.482E+02   0.327E+00 -.512E+00 0.244E+01   0.272E-05 -.321E-05 0.626E-05
   -.220E+02 -.361E+02 -.209E+02   0.233E+02 0.382E+02 0.221E+02   -.117E+01 -.193E+01 -.111E+01   -.630E-05 -.889E-05 -.624E-05
   0.233E+01 -.301E+01 -.450E+02   -.203E+01 0.253E+01 0.476E+02   -.346E+00 0.539E+00 -.247E+01   0.105E-05 -.132E-05 -.276E-05
   0.247E+02 -.366E+02 -.104E+02   -.262E+02 0.388E+02 0.102E+02   0.141E+01 -.210E+01 0.269E+00   0.333E-05 -.338E-05 -.195E-05
   0.418E+02 0.681E+01 -.205E+02   -.442E+02 -.720E+01 0.216E+02   0.224E+01 0.362E+00 -.109E+01   0.857E-05 0.242E-05 -.551E-05
   0.309E+02 0.242E+02 0.228E+02   -.321E+02 -.262E+02 -.240E+02   0.117E+01 0.197E+01 0.112E+01   0.319E-05 0.477E-05 0.422E-05
   0.337E+02 -.280E+02 0.115E+02   -.353E+02 0.301E+02 -.118E+02   0.140E+01 -.212E+01 0.231E+00   0.310E-05 -.523E-05 0.303E-05
   0.130E+02 -.418E+02 0.113E+02   -.144E+02 0.440E+02 -.116E+02   0.143E+01 -.210E+01 0.232E+00   0.232E-05 -.293E-05 0.285E-05
   -.343E+02 -.197E+02 0.223E+02   0.366E+02 0.201E+02 -.235E+02   -.228E+01 -.344E+00 0.110E+01   -.468E-05 -.270E-05 0.377E-05
 -----------------------------------------------------------------------------------------------
   0.170E-03 0.113E-03 0.462E-03   -.355E-13 0.213E-13 0.711E-14   0.218E-02 -.158E-03 -.650E-03   0.579E-05 0.101E-04 -.304E-06
 
 
 POSITION                                       TOTAL-FORCE (eV/Angst)
 -----------------------------------------------------------------------------------
      9.50942     11.12520      7.69306        -0.054208      0.084597     -0.404237
      7.38156     10.78120      8.72824        -0.370280      0.021800     -0.195216
     10.83582      9.14892      7.92272         0.154065     -0.226159     -0.317755
     10.62232     12.95882      8.74992         0.121916      0.352205     -0.192183
      7.69238     10.29482     11.04870        -0.370916     -0.060052      0.180545
[...]
  rms(total) = 0.22728E-02    rms(broyden)= 0.22726E-02
  rms(prec ) = 0.23987E-02
  weight for this iteration     100.00

 Free energy of the ion-electron system (eV)
  ---------------------------------------------------
  alpha Z        PSCENC =         3.61766629
  Ewald energy   TEWEN  =      2504.43630309
  -Hartree energ DENC   =     -3432.62392620
  -exchange      EXHF   =         0.00000000
  -V(xc)+E(xc)   XCENC  =       -32.06944834
  PAW double counting   =      2774.33074357    -2631.79479132
  entropy T*S    EENTRO =        -0.00000000
  eigenvalues    EBANDS =      -530.81213367
  atomic energy  EATOM  =      1249.61482235
  Solvation  Ediel_sol  =         0.00000000
  ---------------------------------------------------
  free energy    TOTEN  =       -95.30076421 eV

  energy without entropy =      -95.30076421  energy(sigma->0) =      -95.30076421


--------------------------------------------------------------------------------------------------------




--------------------------------------- Iteration     19(   2)  ---------------------------------------


    POTLOK:  cpu time    1.7547: real time    1.7568
    SETDIJ:  cpu time    0.0100: real time    0.0100
     EDDAV:  cpu time   12.9610: real time   12.9640
       DOS:  cpu time    0.0000: real time    0.0003
    CHARGE:  cpu time    0.4889: real time    0.4892
    MIXING:  cpu time    0.0470: real time    0.0465
    --------------------------------------------
      LOOP:  cpu time   15.2617: real time   15.2667

 eigenvalue-minimisations  :   120
 total energy-change (2. order) :-0.3047306E-04  (-0.3632888E-04)
 number of electron      56.0000011 magnetization 
 augmentation part       -5.9028596 magnetization 

 Broyden mixing:
  rms(total) = 0.12947E-02    rms(broyden)= 0.12940E-02
  rms(prec ) = 0.13860E-02
  weight for this iteration     100.00

 eigenvalues of (default mixing * dielectric matrix)
  average eigenvalue GAMMA=   0.9083
  0.9083

 Free energy of the ion-electron system (eV)
  ---------------------------------------------------
  alpha Z        PSCENC =         3.61766629
  Ewald energy   TEWEN  =      2504.43630309
  -Hartree energ DENC   =     -3432.60698329
  -exchange      EXHF   =         0.00000000
  -V(xc)+E(xc)   XCENC  =       -32.06996311
  PAW double counting   =      2774.15009187    -2631.61364992
  entropy T*S    EENTRO =        -0.00000000
  eigenvalues    EBANDS =      -530.82908197
  atomic energy  EATOM  =      1249.61482235
  Solvation  Ediel_sol  =         0.00000000
  ---------------------------------------------------
  free energy    TOTEN  =       -95.30079469 eV

  energy without entropy =      -95.30079469  energy(sigma->0) =      -95.30079469


--------------------------------------------------------------------------------------------------------




--------------------------------------- Iteration     19(   3)  ---------------------------------------


    POTLOK:  cpu time    1.7167: real time    1.7159
    SETDIJ:  cpu time    0.0090: real time    0.0097
     EDDAV:  cpu time   11.5422: real time   11.5461
       DOS:  cpu time    0.0010: real time    0.0002
    --------------------------------------------
      LOOP:  cpu time   13.2690: real time   13.2720

 eigenvalue-minimisations  :   104
 total energy-change (2. order) :-0.6884268E-06  (-0.4755688E-06)
 number of electron      56.0000011 magnetization 
 augmentation part       -5.9028596 magnetization 

 Free energy of the ion-electron system (eV)
  ---------------------------------------------------
  alpha Z        PSCENC =         3.61766629
  Ewald energy   TEWEN  =      2504.43630309
  -Hartree energ DENC   =     -3432.59417665
  -exchange      EXHF   =         0.00000000
  -V(xc)+E(xc)   XCENC  =       -32.07095810
  PAW double counting   =      2773.96765685    -2631.43099715
  entropy T*S    EENTRO =        -0.00000000
  eigenvalues    EBANDS =      -530.84111205
  atomic energy  EATOM  =      1249.61482235
  Solvation  Ediel_sol  =         0.00000000
  ---------------------------------------------------
  free energy    TOTEN  =       -95.30079538 eV

  energy without entropy =      -95.30079538  energy(sigma->0) =      -95.30079538


--------------------------------------------------------------------------------------------------------




 average (electrostatic) potential at core
  the test charge radii are     1.1631  0.5201
  (the norm of the test charge is              1.0000)
       1 -40.5493       2 -40.5146       3 -40.5145       4 -40.5146       5 -40.5490
       6 -40.5491       7 -40.5490       8 -40.5144       9 -40.5147      10 -40.5145
      11 -41.0101      12 -41.0100      13 -41.0357      14 -41.0089      15 -41.0107
      16 -41.0097      17 -41.0098      18 -41.0363      19 -41.0355      20 -41.0106
      21 -41.0099      22 -41.0353      23 -41.0099      24 -41.0098      25 -41.0101
      26 -41.0101
 
 
 
 E-fermi :  -5.2971     XC(G=0):  -0.6286     alpha+bet : -0.3143


 k-point     1 :       0.0000    0.0000    0.0000
  band No.  band energies     occupation 
      1     -15.3888      2.00000
      2     -14.4236      2.00000
      3     -14.4235      2.00000
      4     -14.4233      2.00000
      5     -13.3429      2.00000
      6     -13.3428      2.00000
      7     -11.9615      2.00000
      8     -11.9613      2.00000
      9     -11.9612      2.00000
     10     -10.9141      2.00000
     11      -8.8556      2.00000
     12      -8.4978      2.00000
     13      -8.4978      2.00000
     14      -8.4977      2.00000
     15      -8.0848      2.00000
     16      -8.0846      2.00000
     17      -8.0844      2.00000
     18      -7.7966      2.00000
     19      -7.7963      2.00000
     20      -7.7961      2.00000
     21      -6.7360      2.00000
     22      -6.7359      2.00000
     23      -6.3210      2.00000
     24      -6.3209      2.00000
     25      -6.3206      2.00000
     26      -6.2840      2.00000
     27      -6.2838      2.00000
     28      -6.2837      2.00000
     29      -1.4586      0.00000
     30      -1.4099      0.00000
     31      -1.4097      0.00000
     32      -1.4095      0.00000
     33      -1.3494      0.00000
     34      -1.0763      0.00000
     35      -1.0758      0.00000
     36      -1.0645      0.00000
     37      -1.0642      0.00000
     38      -1.0640      0.00000
     39      -0.1055      0.00000
     40      -0.0948      0.00000
     41      -0.0945      0.00000
     42      -0.0937      0.00000


--------------------------------------------------------------------------------------------------------


 soft charge-density along one line, spin component           1
         0         1         2         3         4         5         6         7         8         9
 total charge-density along one line
 
 pseudopotential strength for first ion, spin component:           1
 16.825  21.063   0.001  -0.006  -0.001   0.002  -0.010  -0.001
 21.063  26.387   0.001  -0.007  -0.001   0.003  -0.012  -0.002
  0.001   0.001   3.617  -0.001  -0.000   6.197  -0.001  -0.000
 -0.006  -0.007  -0.001   3.620   0.000  -0.001   6.201   0.001
 -0.001  -0.001  -0.000   0.000   3.617  -0.000   0.001   6.197
  0.002   0.003   6.197  -0.001  -0.000  10.679  -0.002  -0.000
 -0.010  -0.012  -0.001   6.201   0.001  -0.002  10.686   0.001
 -0.001  -0.002  -0.000   0.001   6.197  -0.000   0.001  10.679
 -0.000  -0.000   0.002   0.001  -0.000   0.002   0.001  -0.000
 -0.001  -0.001  -0.001   0.003   0.001  -0.002   0.004   0.001
  0.003   0.004   0.001  -0.008  -0.001   0.002  -0.013  -0.001
  0.001   0.001   0.001  -0.002  -0.001   0.001  -0.003  -0.001
 -0.000  -0.000  -0.001   0.000  -0.002  -0.001   0.001  -0.003
 total augmentation occupancy for first ion, spin component:           1
  3.878  -1.201   0.057  -0.273  -0.037  -0.014   0.068   0.009  -0.003  -0.025   0.068   0.016  -0.002
 -1.201   0.444  -0.038   0.183   0.024   0.006  -0.029  -0.004   0.002   0.014  -0.036  -0.009   0.001
  0.057  -0.038   2.113  -0.084  -0.011  -0.354   0.024   0.003   0.161   0.078   0.095   0.056  -0.010
 -0.273   0.183  -0.084   2.498   0.054   0.024  -0.465  -0.016   0.056   0.122  -0.274  -0.077   0.023
 -0.037   0.024  -0.011   0.054   2.102   0.003  -0.016  -0.351  -0.053   0.056  -0.060   0.124  -0.134
 -0.014   0.006  -0.354   0.024   0.003   0.064  -0.005  -0.001  -0.027  -0.014  -0.017  -0.010   0.001
  0.068  -0.029   0.024  -0.465  -0.016  -0.005   0.089   0.003  -0.010  -0.022   0.050   0.014  -0.004
  0.009  -0.004   0.003  -0.016  -0.351  -0.001   0.003   0.064   0.009  -0.010   0.011  -0.022   0.022
 -0.003   0.002   0.161   0.056  -0.053  -0.027  -0.010   0.009   0.021   0.008   0.001  -0.000   0.003
 -0.025   0.014   0.078   0.122   0.056  -0.014  -0.022  -0.010   0.008   0.015  -0.014   0.001  -0.003
  0.068  -0.036   0.095  -0.274  -0.060  -0.017   0.050   0.011   0.001  -0.014   0.045   0.009   0.000
  0.016  -0.009   0.056  -0.077   0.124  -0.010   0.014  -0.022  -0.000   0.001   0.009   0.016  -0.009
 -0.002   0.001  -0.010   0.023  -0.134   0.001  -0.004   0.022   0.003  -0.003   0.000  -0.009   0.015


------------------------ aborting loop because EDIFF is reached ----------------------------------------


    CHARGE:  cpu time    0.4919: real time    0.4916
    FORLOC:  cpu time    0.1570: real time    0.1565
    FORNL :  cpu time    1.2728: real time    1.2722
    STRESS:  cpu time    9.9605: real time    9.9567
    FORCOR:  cpu time    1.6967: real time    1.6959
    FORHAR:  cpu time    0.5659: real time    0.5659
    MIXING:  cpu time    0.0470: real time    0.0471
    OFIELD:  cpu time    0.0000: real time    0.0000

  FORCE on cell =-STRESS in cart. coord.  units (eV):
  Direction    XX          YY          ZZ          XY          YZ          ZX
  --------------------------------------------------------------------------------------
  Alpha Z     3.61767     3.61767     3.61767
  Ewald     834.78167   834.75170   834.90129    -0.24007     0.03135    -0.60123
  Hartree  1144.14666  1144.12395  1144.26082    -0.23453     0.02965    -0.58087
  E(xc)    -184.57508  -184.57521  -184.57556     0.00009    -0.00003    -0.00009
  Local   -2418.36853 -2418.31431 -2418.59657     0.47475    -0.06101     1.18332
  n-local   165.12531   165.12663   165.13192    -0.00065     0.00075     0.00065
  augment    13.41546    13.41632    13.41558    -0.00001    -0.00007     0.00012
  Kinetic   440.98994   440.98984   440.98274    -0.00076    -0.00259     0.00096
  Fock        0.00000     0.00000     0.00000     0.00000     0.00000     0.00000
  -------------------------------------------------------------------------------------
  Total      -0.86689    -0.86342    -0.86213    -0.00118    -0.00195     0.00286
  in kB      -0.17361    -0.17292    -0.17266    -0.00024    -0.00039     0.00057
  external pressure =       -0.17 kB  Pullay stress =        0.00 kB


 VOLUME and BASIS-vectors are now :
 -----------------------------------------------------------------------------
  energy-cutoff  :      400.00
  volume of cell :     8000.00
      direct lattice vectors                 reciprocal lattice vectors
    20.000000000  0.000000000  0.000000000     0.050000000  0.000000000  0.000000000
     0.000000000 20.000000000  0.000000000     0.000000000  0.050000000  0.000000000
     0.000000000  0.000000000 20.000000000     0.000000000  0.000000000  0.050000000

  length of vectors
    20.000000000 20.000000000 20.000000000     0.050000000  0.050000000  0.050000000


 FORCES acting on ions
    electron-ion (+dipol)            ewald-force                    non-local-force                 convergence-correction
 -----------------------------------------------------------------------------------------------
   0.115E+02 -.179E+02 0.851E+02   -.116E+02 0.181E+02 -.858E+02   0.989E-01 -.153E+00 0.734E+00   -.311E-03 0.198E-03 0.487E-04
   0.834E+02 -.489E+01 0.442E+02   -.844E+02 0.495E+01 -.447E+02   0.950E+00 -.554E-01 0.501E+00   0.863E-03 0.121E-03 0.117E-02
   -.349E+02 0.511E+02 0.716E+02   0.353E+02 -.517E+02 -.725E+02   -.393E+00 0.580E+00 0.815E+00   -.327E-03 0.985E-03 0.132E-02
   -.275E+02 -.794E+02 0.434E+02   0.278E+02 0.803E+02 -.439E+02   -.310E+00 -.903E+00 0.491E+00   -.335E-03 -.131E-02 0.938E-03
   0.781E+02 0.127E+02 -.381E+02   -.788E+02 -.128E+02 0.384E+02   0.673E+00 0.109E+00 -.327E+00   -.660E-03 0.158E-03 0.361E-03
   -.488E+02 0.726E+02 -.841E+01   0.492E+02 -.732E+02 0.849E+01   -.418E+00 0.625E+00 -.729E-01   -.495E-04 -.914E-04 0.148E-03
   -.409E+02 -.674E+02 -.388E+02   0.413E+02 0.679E+02 0.392E+02   -.351E+00 -.580E+00 -.335E+00   -.120E-03 0.260E-03 0.188E-03
   -.834E+02 0.490E+01 -.441E+02   0.843E+02 -.496E+01 0.446E+02   -.948E+00 0.556E-01 -.502E+00   -.103E-02 0.403E-03 -.117E-02
   0.276E+02 0.794E+02 -.434E+02   -.279E+02 -.803E+02 0.439E+02   0.312E+00 0.903E+00 -.493E+00   -.166E-03 0.126E-02 -.632E-03
   0.349E+02 -.511E+02 -.716E+02   -.353E+02 0.517E+02 0.724E+02   0.393E+00 -.579E+00 -.815E+00   -.408E-04 -.727E-03 -.109E-02
   0.198E+02 0.388E+02 0.584E+01   -.210E+02 -.407E+02 -.691E+01   0.117E+01 0.195E+01 0.107E+01   0.130E-03 0.257E-03 0.289E-03
   0.105E+01 0.212E+02 -.386E+02   -.738E+00 -.217E+02 0.410E+02   -.305E+00 0.555E+00 -.243E+01   -.249E-03 -.353E-04 -.819E-03
   -.254E+02 0.377E+02 -.440E+01   0.268E+02 -.397E+02 0.463E+01   -.137E+01 0.204E+01 -.236E+00   -.205E-04 0.728E-04 -.213E-04
   -.433E+02 -.363E+01 0.541E+01   0.456E+02 0.398E+01 -.646E+01   -.226E+01 -.353E+00 0.105E+01   -.125E-03 -.166E-04 -.248E-04
   -.196E+02 0.734E+01 -.387E+02   0.200E+02 -.784E+01 0.412E+02   -.376E+00 0.507E+00 -.243E+01   0.462E-04 0.250E-03 -.117E-02
   -.345E+02 0.502E+01 0.270E+02   0.368E+02 -.469E+01 -.281E+02   -.223E+01 -.324E+00 0.112E+01   -.674E-04 0.174E-04 0.165E-03
   0.818E+01 0.337E+02 0.272E+02   -.931E+01 -.356E+02 -.284E+02   0.113E+01 0.193E+01 0.114E+01   0.500E-03 0.659E-03 0.426E-03
   0.598E+01 -.934E+01 0.441E+02   -.631E+01 0.984E+01 -.465E+02   0.321E+00 -.502E+00 0.239E+01   0.151E-04 -.350E-04 0.224E-03
   -.213E+02 -.350E+02 -.202E+02   0.225E+02 0.369E+02 0.213E+02   -.115E+01 -.189E+01 -.109E+01   -.191E-03 -.291E-03 -.209E-03
   0.242E+01 -.314E+01 -.437E+02   -.211E+01 0.267E+01 0.462E+02   -.300E+00 0.472E+00 -.245E+01   -.345E-03 0.404E-03 -.123E-02
   0.240E+02 -.355E+02 -.103E+02   -.254E+02 0.376E+02 0.101E+02   0.140E+01 -.208E+01 0.192E+00   0.130E-03 -.331E-03 0.817E-04
   0.405E+02 0.661E+01 -.198E+02   -.427E+02 -.696E+01 0.209E+02   0.219E+01 0.355E+00 -.107E+01   0.777E-03 0.173E-03 -.427E-03
   0.301E+02 0.233E+02 0.222E+02   -.313E+02 -.252E+02 -.233E+02   0.121E+01 0.190E+01 0.112E+01   0.225E-03 0.675E-03 0.412E-03
   0.329E+02 -.270E+02 0.113E+02   -.343E+02 0.291E+02 -.115E+02   0.143E+01 -.205E+01 0.266E+00   0.232E-03 -.508E-03 0.153E-03
   0.124E+02 -.406E+02 0.111E+02   -.137E+02 0.427E+02 -.114E+02   0.136E+01 -.210E+01 0.265E+00   0.533E-03 -.864E-03 0.188E-03
   -.332E+02 -.193E+02 0.217E+02   0.354E+02 0.197E+02 -.228E+02   -.222E+01 -.407E+00 0.110E+01   -.385E-03 -.189E-03 0.293E-03
 -----------------------------------------------------------------------------------------------
   -.571E-02 -.323E-02 0.471E-02   -.213E-13 -.711E-14 -.533E-13   0.649E-02 0.963E-03 -.202E-02   -.972E-03 0.150E-02 -.381E-03
 
 
 POSITION                                       TOTAL-FORCE (eV/Angst)
 -----------------------------------------------------------------------------------
      9.50061     11.13878      7.62804         0.000931      0.000232      0.000809
      7.31859     10.78475      8.69508        -0.002180      0.000969     -0.000906
     10.86202      9.11053      7.86875         0.003631     -0.000380     -0.001353
     10.64307     13.01870      8.71720         0.002299      0.001262     -0.001307
      7.63274     10.28515     11.07769         0.000971      0.000741     -0.000143
     11.18438      8.60677     10.24956         0.001003      0.000651     -0.000669
     10.96490     12.52428     11.09997         0.000522     -0.001074     -0.001273
     12.32278     10.49267     11.33263         0.004029      0.000466     -0.002097
      8.99839      8.25883     11.31036        -0.001008     -0.002365     -0.000349
      8.77952     12.16708     12.15890        -0.002851      0.002723     -0.000584
      8.27263      7.04971     10.64742        -0.000605      0.000059     -0.002662
      9.18807      7.91616     12.81851         0.001335      0.001384      0.003194
     12.05167      7.31476     10.39940        -0.000648      0.000751      0.000079
     13.72263     10.71183     10.68371        -0.002027      0.000199     -0.001050
     12.55473     10.17845     12.84104        -0.001712     -0.000571      0.003715
     12.24344      9.31235      7.17628        -0.000272      0.001364      0.001397
     10.15983      7.91221      7.16242        -0.002927     -0.001823      0.000157
      9.29716     11.45650      6.11105        -0.000290     -0.000031     -0.000707
     11.69246     13.72318     11.79059         0.000236      0.000700      0.000371
      8.96639     11.87369     13.67769         0.002073     -0.002783      0.002933
      7.91371     13.45716     12.03858        -0.000042      0.000173     -0.002029
      6.24149     10.06034     11.75411        -0.001000     -0.000130      0.000280
      6.57146      9.60773      7.99911         0.000359     -0.003372     -0.000748
      6.43418     12.05715      8.53103         0.000531      0.002218      0.001178
      9.80071     14.31933      8.55350        -0.002831      0.000787      0.000989
     12.02184     13.26991      8.03571         0.000472     -0.002147      0.000774
 -----------------------------------------------------------------------------------
    total drift:                               -0.000194     -0.000764      0.002314


--------------------------------------------------------------------------------------------------------



  FREE ENERGIE OF THE ION-ELECTRON SYSTEM (eV)
  ---------------------------------------------------
  free  energy   TOTEN  =       -95.30079538 eV

  energy  without entropy=      -95.30079538  energy(sigma->0) =      -95.30079538
 
 d Force = 0.1913130E-03[ 0.604E-06, 0.382E-03]  d Energy = 0.1937217E-03-0.241E-05
 d Force =-0.2656161E+00[-0.266E+00,-0.266E+00]  d Ewald  =-0.2656163E+00 0.218E-06


--------------------------------------------------------------------------------------------------------


    POTLOK:  cpu time    1.7417: real time    1.7410


--------------------------------------------------------------------------------------------------------




--------------------------------------------------------------------------------------------------------


  
 reached required accuracy - stopping structural energy minimisation
 writing wavefunctions
     LOOP+:  cpu time   58.0602: real time   58.4973
    4ORBIT:  cpu time    0.0000: real time    0.0000

 total amount of memory used by VASP MPI-rank0   123647. kBytes
=======================================================================

   base      :      30000. kBytes
   nonl-proj :      15107. kBytes
   fftplans  :      26957. kBytes
   grid      :      43395. kBytes
   one-center:         40. kBytes
   wavefun   :       8148. kBytes
 
  
  
 General timing and accounting informations for this job:
 ========================================================
  
                  Total CPU time used (sec):     2940.453
                            User time (sec):     2907.717
                          System time (sec):       32.736
                         Elapsed time (sec):     2945.702
  
                   Maximum memory used (kb):      176784.
                   Average memory used (kb):           0.
  
                          Minor page faults:      6097732
                          Major page faults:            9
                 Voluntary context switches:         3082
