librdmacm: Fatal: no RDMA devices found
librdmacm: Fatal: no RDMA devices found
librdmacm: Fatal: no RDMA devices found
librdmacm: Fatal: no RDMA devices found
librdmacm: Fatal: no RDMA devices found
librdmacm: Fatal: no RDMA devices found
--------------------------------------------------------------------------
[[32272,1],3]: A high-performance Open MPI point-to-point messaging module
was unable to find any relevant network interfaces:

Module: OpenFabrics (openib)
  Host: compute-0-19

Another transport will be used instead, although this may result in
lower performance.
--------------------------------------------------------------------------
librdmacm: Fatal: no RDMA devices found
librdmacm: Fatal: no RDMA devices found
librdmacm: Fatal: no RDMA devices found
librdmacm: Fatal: no RDMA devices found
librdmacm: Fatal: no RDMA devices found
librdmacm: Fatal: no RDMA devices found
 running on   12 total cores
 distrk:  each k-point on   12 cores,    1 groups
 distr:  one band on    6 cores,    2 groups
 using from now: INCAR     
 vasp.5.4.4.18Apr17-6-g9f103f2a35 (build Nov 06 2017 19:16:10) complex          
  
 POSCAR found type information on POSCAR  Si H 
 POSCAR found :  2 types and      26 ions
 scaLAPACK will be used

 ----------------------------------------------------------------------------- 
|                                                                             |
|  ADVICE TO THIS USER RUNNING 'VASP/VAMP'   (HEAR YOUR MASTER'S VOICE ...):  |
|                                                                             |
|      You have a (more or less) 'large supercell' and for larger cells       |
|      it might be more efficient to use real space projection opertators     |
|      So try LREAL= Auto  in the INCAR   file.                               |
|      Mind:          For very  accurate calculation you might also keep the  |
|      reciprocal projection scheme          (i.e. LREAL=.FALSE.)             |
|                                                                             |
 ----------------------------------------------------------------------------- 

 LDA part: xc-table for Pade appr. of Perdew
 POSCAR, INCAR and KPOINTS ok, starting setup
 FFT: planning ...
 WAVECAR not read
 entering main loop
       N       E                     dE             d eps       ncg     rms          rms(c)
[compute-0-19.local:30555] 11 more processes have sent help message help-mpi-btl-base.txt / btl:no-nics
[compute-0-19.local:30555] Set MCA parameter "orte_base_help_aggregate" to 0 to see all help / error messages
DAV:   1     0.189424371827E+03    0.18942E+03   -0.10528E+04   116   0.546E+02
DAV:   2    -0.346050887835E+02   -0.22403E+03   -0.20967E+03   128   0.102E+02
DAV:   3    -0.107868924492E+03   -0.73264E+02   -0.73088E+02   112   0.549E+01
DAV:   4    -0.111950628722E+03   -0.40817E+01   -0.40670E+01   112   0.183E+01
DAV:   5    -0.112053819573E+03   -0.10319E+00   -0.10313E+00   136   0.313E+00    0.161E+01
DAV:   6    -0.108697492606E+03    0.33563E+01   -0.16268E+00   104   0.462E+00    0.939E+00
DAV:   7    -0.106922136174E+03    0.17754E+01   -0.43742E+00   110   0.687E+00    0.125E+00
DAV:   8    -0.106875064236E+03    0.47072E-01   -0.27693E-01   104   0.223E+00    0.647E-01
DAV:   9    -0.106840474420E+03    0.34590E-01   -0.77128E-02   120   0.824E-01    0.390E-01
DAV:  10    -0.106840922663E+03   -0.44824E-03   -0.35882E-03   112   0.233E-01    0.183E-01
DAV:  11    -0.106840076753E+03    0.84591E-03   -0.81582E-03   104   0.256E-01    0.846E-02
DAV:  12    -0.106843111826E+03   -0.30351E-02   -0.60306E-04   110   0.820E-02    0.617E-02
DAV:  13    -0.106848539073E+03   -0.54272E-02   -0.23609E-03   102   0.125E-01    0.411E-02
DAV:  14    -0.106852198082E+03   -0.36590E-02   -0.31884E-04   112   0.478E-02    0.191E-02
DAV:  15    -0.106857584714E+03   -0.53866E-02   -0.79445E-04   104   0.754E-02    0.232E-02
DAV:  16    -0.106858602892E+03   -0.10182E-02   -0.64105E-05   112   0.264E-02    0.112E-02
DAV:  17    -0.106859540149E+03   -0.93726E-03   -0.83353E-05   102   0.238E-02    0.337E-03
DAV:  18    -0.106859715502E+03   -0.17535E-03   -0.55193E-06   112   0.813E-03    0.274E-03
DAV:  19    -0.106859935549E+03   -0.22005E-03   -0.89565E-06    94   0.707E-03    0.244E-03
DAV:  20    -0.106859972731E+03   -0.37182E-04   -0.95065E-07    88   0.355E-03    0.795E-04
DAV:  21    -0.106859998001E+03   -0.25270E-04   -0.52517E-07    80   0.217E-03    0.945E-04
DAV:  22    -0.106860007324E+03   -0.93231E-05   -0.23759E-07    80   0.133E-03    0.446E-04
DAV:  23    -0.106860009621E+03   -0.22968E-05   -0.46726E-08    88   0.741E-04    0.447E-04
DAV:  24    -0.106860013681E+03   -0.40601E-05   -0.88097E-08    78   0.939E-04    0.219E-04
DAV:  25    -0.106860014200E+03   -0.51954E-06   -0.12042E-08    80   0.404E-04
   1 F= -.10686001E+03 E0= -.10686001E+03  d E =-.106860E+03
 curvature:   0.00 expect dE= 0.000E+00 dE for cont linesearch  0.000E+00
 trial: gam= 0.00000 g(F)=  0.481E+00 g(S)=  0.000E+00 ort = 0.000E+00 (trialstep = 0.100E+01)
 search vector abs. value=  0.481E+00
 bond charge predicted
       N       E                     dE             d eps       ncg     rms          rms(c)
DAV:   1    -0.107082969539E+03   -0.22296E+00   -0.92489E+00    92   0.134E+01    0.124E+00
DAV:   2    -0.107097244067E+03   -0.14275E-01   -0.28508E-01   128   0.209E+00    0.658E-01
DAV:   3    -0.107090007135E+03    0.72369E-02   -0.11300E-02   112   0.388E-01    0.317E-01
DAV:   4    -0.107088395235E+03    0.16119E-02   -0.71514E-03   104   0.245E-01    0.597E-02
DAV:   5    -0.107088408379E+03   -0.13144E-04   -0.45404E-04   112   0.808E-02    0.369E-02
DAV:   6    -0.107088566965E+03   -0.15859E-03   -0.89335E-05    96   0.305E-02    0.142E-02
DAV:   7    -0.107088754979E+03   -0.18801E-03   -0.13730E-05   110   0.117E-02    0.712E-03
DAV:   8    -0.107088876950E+03   -0.12197E-03   -0.13080E-05   102   0.101E-02    0.427E-03
DAV:   9    -0.107088990621E+03   -0.11367E-03   -0.91403E-06   104   0.713E-03    0.161E-03
DAV:  10    -0.107089053549E+03   -0.62928E-04   -0.33773E-06   104   0.402E-03    0.113E-03
DAV:  11    -0.107089099870E+03   -0.46322E-04   -0.87507E-07    80   0.238E-03    0.585E-04
DAV:  12    -0.107089119306E+03   -0.19436E-04   -0.46830E-07    88   0.164E-03    0.400E-04
DAV:  13    -0.107089135153E+03   -0.15846E-04   -0.32935E-07    80   0.134E-03    0.277E-04
DAV:  14    -0.107089139334E+03   -0.41815E-05   -0.53220E-08    88   0.623E-04    0.106E-04
DAV:  15    -0.107089142749E+03   -0.34149E-05   -0.58761E-08    80   0.571E-04    0.562E-05
DAV:  16    -0.107089143901E+03   -0.11517E-05   -0.19062E-08    78   0.354E-04    0.335E-05
DAV:  17    -0.107089144484E+03   -0.58346E-06   -0.11439E-08    78   0.270E-04
   2 F= -.10708914E+03 E0= -.10708914E+03  d E =-.229130E+00
 trial-energy change:   -0.229130  1 .order   -0.220219   -0.480680    0.040243
 step:   0.9295(harm=  0.9227)  dis= 0.02978  next Energy=  -107.090560 (dE=-0.231E+00)
 bond charge predicted
       N       E                     dE             d eps       ncg     rms          rms(c)
DAV:   1    -0.107090538519E+03   -0.13946E-02   -0.46633E-02    92   0.954E-01    0.888E-02
DAV:   2    -0.107090588542E+03   -0.50022E-04   -0.14195E-03   128   0.146E-01    0.487E-02
DAV:   3    -0.107090544516E+03    0.44026E-04   -0.57906E-05   112   0.274E-02    0.249E-02
DAV:   4    -0.107090527132E+03    0.17384E-04   -0.37085E-05   104   0.174E-02    0.466E-03
DAV:   5    -0.107090528465E+03   -0.13332E-05   -0.19956E-06    80   0.561E-03    0.232E-03
DAV:   6    -0.107090532619E+03   -0.41543E-05   -0.77281E-07    80   0.298E-03    0.101E-03
DAV:   7    -0.107090536917E+03   -0.42977E-05   -0.19838E-07    78   0.157E-03    0.310E-04
DAV:   8    -0.107090541431E+03   -0.45136E-05   -0.28991E-07    78   0.143E-03    0.215E-04
DAV:   9    -0.107090543230E+03   -0.17997E-05   -0.96835E-08    88   0.802E-04    0.112E-04
DAV:  10    -0.107090544421E+03   -0.11905E-05   -0.39434E-08    80   0.539E-04    0.888E-05
DAV:  11    -0.107090545440E+03   -0.10194E-05   -0.34330E-08    80   0.469E-04    0.478E-05
DAV:  12    -0.107090545788E+03   -0.34796E-06   -0.73378E-09    88   0.258E-04
   3 F= -.10709055E+03 E0= -.10709055E+03  d E =-.230532E+00
 curvature:  -0.46 expect dE=-0.594E-01 dE for cont linesearch -0.643E-09
 trial: gam= 0.26989 g(F)=  0.130E+00 g(S)=  0.000E+00 ort = 0.260E-04 (trialstep = 0.986E+00)
 search vector abs. value=  0.165E+00
 bond charge predicted
       N       E                     dE             d eps       ncg     rms          rms(c)
DAV:   1    -0.107186503535E+03   -0.95958E-01   -0.19329E+00    84   0.617E+00    0.537E-01
DAV:   2    -0.107192692558E+03   -0.61890E-02   -0.88930E-02   120   0.122E+00    0.308E-01
DAV:   3    -0.107191585618E+03    0.11069E-02   -0.33327E-03   120   0.244E-01    0.141E-01
DAV:   4    -0.107191736088E+03   -0.15047E-03   -0.16361E-03   118   0.146E-01    0.558E-02
DAV:   5    -0.107191724250E+03    0.11838E-04   -0.12386E-04   102   0.436E-02    0.249E-02
DAV:   6    -0.107191719066E+03    0.51846E-05   -0.46664E-05   120   0.228E-02    0.776E-03
DAV:   7    -0.107191719515E+03   -0.44956E-06   -0.55832E-06   112   0.900E-03
   4 F= -.10719172E+03 E0= -.10719172E+03  d E =-.101174E+00
 trial-energy change:   -0.101174  1 .order   -0.100939   -0.127932   -0.073946
 step:   2.2602(harm=  2.3363)  dis= 0.03939  next Energy=  -107.240013 (dE=-0.149E+00)
 bond charge predicted
       N       E                     dE             d eps       ncg     rms          rms(c)
DAV:   1    -0.107232305284E+03   -0.40586E-01   -0.32252E+00    84   0.800E+00    0.710E-01
DAV:   2    -0.107242582548E+03   -0.10277E-01   -0.14777E-01   112   0.159E+00    0.396E-01
DAV:   3    -0.107240910129E+03    0.16724E-02   -0.77771E-03   120   0.371E-01    0.191E-01
DAV:   4    -0.107241132812E+03   -0.22268E-03   -0.27114E-03   110   0.190E-01    0.740E-02
DAV:   5    -0.107241114288E+03    0.18524E-04   -0.15706E-04   102   0.520E-02    0.365E-02
DAV:   6    -0.107241102644E+03    0.11644E-04   -0.96851E-05   104   0.345E-02    0.846E-03
DAV:   7    -0.107241105176E+03   -0.25324E-05   -0.15426E-05   112   0.156E-02    0.418E-03
DAV:   8    -0.107241107016E+03   -0.18399E-05   -0.77599E-07    88   0.337E-03    0.179E-03
DAV:   9    -0.107241110187E+03   -0.31711E-05   -0.52293E-07    78   0.278E-03    0.751E-04
DAV:  10    -0.107241113318E+03   -0.31310E-05   -0.25430E-07    86   0.176E-03    0.437E-04
DAV:  11    -0.107241116129E+03   -0.28112E-05   -0.24408E-07    88   0.149E-03    0.409E-04
DAV:  12    -0.107241117490E+03   -0.13604E-05   -0.81978E-08    88   0.854E-04    0.174E-04
DAV:  13    -0.107241118507E+03   -0.10174E-05   -0.60450E-08    80   0.724E-04    0.185E-04
DAV:  14    -0.107241118788E+03   -0.28119E-06   -0.10347E-08    80   0.385E-04
   5 F= -.10724112E+03 E0= -.10724112E+03  d E =-.150573E+00
 curvature:  -1.48 expect dE=-0.504E-01 dE for cont linesearch -0.301E-04
 trial: gam= 0.23244 g(F)=  0.341E-01 g(S)=  0.000E+00 ort = 0.183E-02 (trialstep = 0.124E+01)
 search vector abs. value=  0.438E-01
 bond charge predicted
       N       E                     dE             d eps       ncg     rms          rms(c)
DAV:   1    -0.107245495003E+03   -0.43765E-02   -0.95800E-01    84   0.390E+00    0.433E-01
DAV:   2    -0.107250000828E+03   -0.45058E-02   -0.51553E-02   112   0.931E-01    0.248E-01
DAV:   3    -0.107249593140E+03    0.40769E-03   -0.17961E-03   120   0.174E-01    0.134E-01
DAV:   4    -0.107249486714E+03    0.10643E-03   -0.65713E-04   110   0.101E-01    0.276E-02
DAV:   5    -0.107249456506E+03    0.30209E-04   -0.88435E-05   104   0.391E-02    0.162E-02
DAV:   6    -0.107249477003E+03   -0.20498E-04   -0.30191E-05   112   0.192E-02    0.849E-03
DAV:   7    -0.107249531584E+03   -0.54580E-04   -0.77244E-06   102   0.988E-03    0.288E-03
DAV:   8    -0.107249581280E+03   -0.49697E-04   -0.56470E-06   102   0.817E-03    0.237E-03
DAV:   9    -0.107249629050E+03   -0.47770E-04   -0.29456E-06   102   0.492E-03    0.164E-03
DAV:  10    -0.107249673963E+03   -0.44913E-04   -0.33036E-06   102   0.409E-03    0.727E-04
DAV:  11    -0.107249689295E+03   -0.15332E-04   -0.57927E-07    86   0.190E-03    0.439E-04
DAV:  12    -0.107249703048E+03   -0.13753E-04   -0.78959E-07    78   0.194E-03    0.266E-04
DAV:  13    -0.107249705239E+03   -0.21914E-05   -0.61299E-08    88   0.745E-04    0.168E-04
DAV:  14    -0.107249707610E+03   -0.23706E-05   -0.68681E-08    78   0.650E-04    0.922E-05
DAV:  15    -0.107249708248E+03   -0.63787E-06   -0.99830E-09    88   0.311E-04
   6 F= -.10724971E+03 E0= -.10724971E+03  d E =-.858946E-02
 trial-energy change:   -0.008589  1 .order   -0.008245   -0.042783    0.026292
 step:   0.7772(harm=  0.7685)  dis= 0.01158  next Energy=  -107.254602 (dE=-0.135E-01)
 bond charge predicted
       N       E                     dE             d eps       ncg     rms          rms(c)
DAV:   1    -0.107254018849E+03   -0.43112E-02   -0.13375E-01    84   0.146E+00    0.162E-01
DAV:   2    -0.107254645222E+03   -0.62637E-03   -0.73200E-03   112   0.352E-01    0.929E-02
DAV:   3    -0.107254576995E+03    0.68227E-04   -0.25625E-04   110   0.658E-02    0.488E-02
DAV:   4    -0.107254553974E+03    0.23021E-04   -0.92780E-05   110   0.375E-02    0.103E-02
DAV:   5    -0.107254550944E+03    0.30305E-05   -0.12869E-05   102   0.147E-02    0.609E-03
DAV:   6    -0.107254555036E+03   -0.40923E-05   -0.45022E-06   112   0.734E-03    0.295E-03
DAV:   7    -0.107254563974E+03   -0.89376E-05   -0.96081E-07    78   0.367E-03    0.101E-03
DAV:   8    -0.107254574023E+03   -0.10049E-04   -0.95615E-07    86   0.327E-03    0.990E-04
DAV:   9    -0.107254583905E+03   -0.98818E-05   -0.50186E-07    86   0.207E-03    0.497E-04
DAV:  10    -0.107254591496E+03   -0.75911E-05   -0.45367E-07    78   0.152E-03    0.334E-04
DAV:  11    -0.107254594886E+03   -0.33899E-05   -0.11170E-07    88   0.813E-04    0.162E-04
DAV:  12    -0.107254597344E+03   -0.24582E-05   -0.74715E-08    78   0.634E-04    0.103E-04
DAV:  13    -0.107254598973E+03   -0.16291E-05   -0.39542E-08    80   0.440E-04    0.393E-05
DAV:  14    -0.107254599484E+03   -0.51069E-06   -0.97034E-09    88   0.247E-04
   7 F= -.10725460E+03 E0= -.10725460E+03  d E =-.134807E-01
 curvature:  -0.49 expect dE=-0.176E-02 dE for cont linesearch -0.133E-07
 trial: gam= 0.11501 g(F)=  0.360E-02 g(S)=  0.000E+00 ort =-0.346E-04 (trialstep = 0.115E+01)
 search vector abs. value=  0.417E-02
 bond charge predicted
       N       E                     dE             d eps       ncg     rms          rms(c)
DAV:   1    -0.107258303000E+03   -0.37040E-02   -0.81467E-02    84   0.133E+00    0.910E-02
DAV:   2    -0.107258279794E+03    0.23206E-04   -0.12088E-03   112   0.146E-01    0.490E-02
DAV:   3    -0.107258233825E+03    0.45970E-04   -0.15805E-04   112   0.499E-02    0.186E-02
DAV:   4    -0.107258235675E+03   -0.18499E-05   -0.41806E-05   120   0.236E-02    0.886E-03
DAV:   5    -0.107258235256E+03    0.41840E-06   -0.19196E-06    88   0.605E-03
   8 F= -.10725824E+03 E0= -.10725824E+03  d E =-.363577E-02
 trial-energy change:   -0.003636  1 .order   -0.003629   -0.004126   -0.003132
 step:   4.2818(harm=  4.7679)  dis= 0.01679  next Energy=  -107.262650 (dE=-0.805E-02)
 bond charge predicted
       N       E                     dE             d eps       ncg     rms          rms(c)
DAV:   1    -0.107263650193E+03   -0.54145E-02   -0.60830E-01    84   0.362E+00    0.251E-01
DAV:   2    -0.107263449021E+03    0.20117E-03   -0.90444E-03   112   0.400E-01    0.134E-01
DAV:   3    -0.107263078323E+03    0.37070E-03   -0.11776E-03   112   0.136E-01    0.513E-02
DAV:   4    -0.107263089954E+03   -0.11631E-04   -0.31455E-04   120   0.646E-02    0.238E-02
DAV:   5    -0.107263092975E+03   -0.30208E-05   -0.15730E-05   112   0.167E-02    0.115E-02
DAV:   6    -0.107263101941E+03   -0.89663E-05   -0.56410E-06   104   0.861E-03    0.312E-03
DAV:   7    -0.107263113489E+03   -0.11548E-04   -0.63983E-07    78   0.298E-03    0.124E-03
DAV:   8    -0.107263125286E+03   -0.11797E-04   -0.54725E-07    78   0.229E-03    0.106E-03
DAV:   9    -0.107263144120E+03   -0.18833E-04   -0.15916E-06    86   0.320E-03    0.124E-03
DAV:  10    -0.107263147281E+03   -0.31612E-05   -0.14925E-07    88   0.135E-03    0.591E-04
DAV:  11    -0.107263151451E+03   -0.41701E-05   -0.10059E-07    78   0.886E-04    0.179E-04
DAV:  12    -0.107263154149E+03   -0.26976E-05   -0.54182E-08    88   0.632E-04    0.199E-04
DAV:  13    -0.107263156286E+03   -0.21370E-05   -0.34412E-08    80   0.444E-04    0.715E-05
DAV:  14    -0.107263156740E+03   -0.45396E-06   -0.41366E-09    80   0.196E-04
   9 F= -.10726316E+03 E0= -.10726316E+03  d E =-.855726E-02
 curvature:  -2.72 expect dE=-0.124E-01 dE for cont linesearch -0.953E-04
 trial: gam= 1.13141 g(F)=  0.455E-02 g(S)=  0.000E+00 ort = 0.382E-03 (trialstep = 0.688E+00)
 search vector abs. value=  0.108E-01
 bond charge predicted
       N       E                     dE             d eps       ncg     rms          rms(c)
DAV:   1    -0.107264904825E+03   -0.17485E-02   -0.80008E-02    84   0.118E+00    0.986E-02
DAV:   2    -0.107265234431E+03   -0.32961E-03   -0.43382E-03   104   0.273E-01    0.629E-02
DAV:   3    -0.107265192819E+03    0.41611E-04   -0.20221E-04   120   0.647E-02    0.335E-02
DAV:   4    -0.107265192715E+03    0.10458E-06   -0.76006E-05   112   0.328E-02    0.878E-03
DAV:   5    -0.107265190403E+03    0.23117E-05   -0.65412E-06   102   0.102E-02    0.515E-03
DAV:   6    -0.107265190179E+03    0.22429E-06   -0.94611E-07    80   0.378E-03
  10 F= -.10726519E+03 E0= -.10726519E+03  d E =-.203344E-02
 trial-energy change:   -0.002033  1 .order   -0.002036   -0.003429   -0.000643
 step:   0.8470(harm=  0.8470)  dis= 0.00576  next Energy=  -107.265267 (dE=-0.211E-02)
 bond charge predicted
       N       E                     dE             d eps       ncg     rms          rms(c)
DAV:   1    -0.107265252105E+03   -0.61702E-04   -0.43027E-03    88   0.274E-01    0.228E-02
DAV:   2    -0.107265271249E+03   -0.19144E-04   -0.23716E-04   104   0.638E-02    0.147E-02
DAV:   3    -0.107265269469E+03    0.17799E-05   -0.11060E-05   120   0.151E-02    0.781E-03
DAV:   4    -0.107265270023E+03   -0.55393E-06   -0.41604E-06   104   0.769E-03
  11 F= -.10726527E+03 E0= -.10726527E+03  d E =-.211328E-02
 curvature:  -0.91 expect dE=-0.600E-03 dE for cont linesearch -0.162E-08
 trial: gam= 0.25777 g(F)=  0.656E-03 g(S)=  0.000E+00 ort = 0.437E-05 (trialstep = 0.720E+00)
 search vector abs. value=  0.137E-02
 bond charge predicted
       N       E                     dE             d eps       ncg     rms          rms(c)
DAV:   1    -0.107265681426E+03   -0.41196E-03   -0.12375E-02    88   0.492E-01    0.322E-02
DAV:   2    -0.107265693285E+03   -0.11859E-04   -0.22014E-04   104   0.624E-02    0.181E-02
DAV:   3    -0.107265690693E+03    0.25926E-05   -0.13502E-05   120   0.164E-02    0.736E-03
DAV:   4    -0.107265691953E+03   -0.12600E-05   -0.53656E-06   104   0.853E-03    0.197E-03
DAV:   5    -0.107265692325E+03   -0.37272E-06   -0.36761E-07    88   0.271E-03
  12 F= -.10726569E+03 E0= -.10726569E+03  d E =-.422302E-03
 trial-energy change:   -0.000422  1 .order   -0.000415   -0.000473   -0.000356
 step:   1.8335(harm=  2.9184)  dis= 0.00364  next Energy=  -107.265996 (dE=-0.726E-03)
 bond charge predicted
       N       E                     dE             d eps       ncg     rms          rms(c)
DAV:   1    -0.107266090226E+03   -0.39827E-03   -0.29581E-02    88   0.761E-01    0.494E-02
DAV:   2    -0.107266114762E+03   -0.24535E-04   -0.52892E-04   102   0.967E-02    0.280E-02
DAV:   3    -0.107266105406E+03    0.93554E-05   -0.32765E-05   120   0.255E-02    0.116E-02
DAV:   4    -0.107266106536E+03   -0.11301E-05   -0.12978E-05   104   0.132E-02    0.306E-03
DAV:   5    -0.107266106506E+03    0.30700E-07   -0.87525E-07    80   0.420E-03
  13 F= -.10726611E+03 E0= -.10726611E+03  d E =-.836483E-03
 curvature:  -2.31 expect dE=-0.103E-02 dE for cont linesearch -0.961E-04
 ZBRENT: increasing intervall
 opt :   4.0606  next Energy=  -107.266070 (dE=-0.799E-03)
 bond charge predicted
       N       E                     dE             d eps       ncg     rms          rms(c)
DAV:   1    -0.107266021680E+03    0.84857E-04   -0.11829E-01    88   0.152E+00    0.986E-02
DAV:   2    -0.107266116615E+03   -0.94935E-04   -0.21115E-03   102   0.193E-01    0.559E-02
DAV:   3    -0.107266076348E+03    0.40267E-04   -0.13139E-04   120   0.509E-02    0.233E-02
DAV:   4    -0.107266080084E+03   -0.37355E-05   -0.51449E-05   112   0.264E-02    0.607E-03
DAV:   5    -0.107266080187E+03   -0.10311E-06   -0.38807E-06   104   0.836E-03
  14 F= -.10726608E+03 E0= -.10726608E+03  d E =-.810164E-03
 curvature:   0.89 expect dE= 0.137E-02 dE for cont linesearch  0.476E-04
 ZBRENT: bracketing found
 ZBRENT: interpolating
 opt :   2.8772  next Energy=  -107.266231 (dE=-0.961E-03)
 bond charge predicted
       N       E                     dE             d eps       ncg     rms          rms(c)
DAV:   1    -0.107266223521E+03   -0.14344E-03   -0.33372E-02    88   0.808E-01    0.522E-02
DAV:   2    -0.107266247644E+03   -0.24123E-04   -0.58725E-04   104   0.102E-01    0.299E-02
DAV:   3    -0.107266234919E+03    0.12725E-04   -0.38074E-05   120   0.274E-02    0.123E-02
DAV:   4    -0.107266236353E+03   -0.14338E-05   -0.15201E-05   104   0.143E-02    0.325E-03
DAV:   5    -0.107266236800E+03   -0.44752E-06   -0.99673E-07    80   0.448E-03
  15 F= -.10726624E+03 E0= -.10726624E+03  d E =-.966777E-03
 curvature:  -2.33 expect dE=-0.178E-02 dE for cont linesearch -0.911E-07
 trial: gam= 1.02407 g(F)=  0.766E-03 g(S)=  0.000E+00 ort = 0.733E-05 (trialstep = 0.712E+00)
 search vector abs. value=  0.222E-02
 bond charge predicted
       N       E                     dE             d eps       ncg     rms          rms(c)
DAV:   1    -0.107266612814E+03   -0.37646E-03   -0.18724E-02    88   0.626E-01    0.393E-02
DAV:   2    -0.107266610074E+03    0.27404E-05   -0.17576E-04   112   0.557E-02    0.219E-02
DAV:   3    -0.107266603744E+03    0.63298E-05   -0.26232E-05   120   0.165E-02    0.578E-03
DAV:   4    -0.107266603268E+03    0.47616E-06   -0.20963E-06    96   0.541E-03
  16 F= -.10726660E+03 E0= -.10726660E+03  d E =-.366467E-03
 trial-energy change:   -0.000366  1 .order   -0.000365   -0.000551   -0.000180
 step:   1.0575(harm=  1.0575)  dis= 0.00273  next Energy=  -107.266646 (dE=-0.409E-03)
 bond charge predicted
       N       E                     dE             d eps       ncg     rms          rms(c)
DAV:   1    -0.107266649497E+03   -0.45753E-04   -0.44164E-03    88   0.304E-01    0.191E-02
DAV:   2    -0.107266648869E+03    0.62841E-06   -0.41361E-05   112   0.270E-02    0.106E-02
DAV:   3    -0.107266647294E+03    0.15747E-05   -0.59982E-06   120   0.796E-03    0.286E-03
DAV:   4    -0.107266647339E+03   -0.45050E-07   -0.48005E-07    56   0.266E-03
  17 F= -.10726665E+03 E0= -.10726665E+03  d E =-.410539E-03
 curvature:  -1.52 expect dE=-0.226E-03 dE for cont linesearch -0.154E-08
 trial: gam= 0.19919 g(F)=  0.149E-03 g(S)=  0.000E+00 ort = 0.150E-05 (trialstep = 0.781E+00)
 search vector abs. value=  0.237E-03
 reached required accuracy - stopping structural energy minimisation
 writing wavefunctions
librdmacm: Fatal: no RDMA devices found
librdmacm: Fatal: no RDMA devices found
librdmacm: Fatal: no RDMA devices found
librdmacm: Fatal: no RDMA devices found
--------------------------------------------------------------------------
[[29669,1],2]: A high-performance Open MPI point-to-point messaging module
was unable to find any relevant network interfaces:

Module: OpenFabrics (openib)
  Host: compute-0-19

Another transport will be used instead, although this may result in
lower performance.
--------------------------------------------------------------------------
librdmacm: Fatal: no RDMA devices found
librdmacm: Fatal: no RDMA devices found
librdmacm: Fatal: no RDMA devices found
librdmacm: Fatal: no RDMA devices found
librdmacm: Fatal: no RDMA devices found
librdmacm: Fatal: no RDMA devices found
librdmacm: Fatal: no RDMA devices found
librdmacm: Fatal: no RDMA devices found
 running on   12 total cores
 distrk:  each k-point on   12 cores,    1 groups
 distr:  one band on    1 cores,   12 groups
 using from now: INCAR     
 vasp.5.4.4.18Apr17-6-g9f103f2a35 (build Nov 06 2017 19:16:10) complex          
  
 POSCAR found type information on POSCAR  Si H 
 POSCAR found :  2 types and      26 ions
 scaLAPACK will be used

 ----------------------------------------------------------------------------- 
|                                                                             |
|           W    W    AA    RRRRR   N    N  II  N    N   GGGG   !!!           |
|           W    W   A  A   R    R  NN   N  II  NN   N  G    G  !!!           |
|           W    W  A    A  R    R  N N  N  II  N N  N  G       !!!           |
|           W WW W  AAAAAA  RRRRR   N  N N  II  N  N N  G  GGG   !            |
|           WW  WW  A    A  R   R   N   NN  II  N   NN  G    G                |
|           W    W  A    A  R    R  N    N  II  N    N   GGGG   !!!           |
|                                                                             |
|      For optimal performance we recommend to set                            |
|        NCORE= 4 - approx SQRT( number of cores)                             |
|      NCORE specifies how many cores store one orbital (NPAR=cpu/NCORE).     |
|      This setting can  greatly improve the performance of VASP for DFT.     |
|      The default,   NCORE=1            might be grossly inefficient         |
|      on modern multi-core architectures or massively parallel machines.     |
|      Do your own testing !!!!                                               |
|      Unfortunately you need to use the default for GW and RPA calculations. |
|      (for HF NCORE is supported but not extensively tested yet)             |
|                                                                             |
 ----------------------------------------------------------------------------- 


 ----------------------------------------------------------------------------- 
|                                                                             |
|  ADVICE TO THIS USER RUNNING 'VASP/VAMP'   (HEAR YOUR MASTER'S VOICE ...):  |
|                                                                             |
|      You have a (more or less) 'large supercell' and for larger cells       |
|      it might be more efficient to use real space projection opertators     |
|      So try LREAL= Auto  in the INCAR   file.                               |
|      Mind:          For very  accurate calculation you might also keep the  |
|      reciprocal projection scheme          (i.e. LREAL=.FALSE.)             |
|                                                                             |
 ----------------------------------------------------------------------------- 

 LDA part: xc-table for Pade appr. of Perdew
 POSCAR, INCAR and KPOINTS ok, starting setup
 FFT: planning ...
 WAVECAR not read
[compute-0-19.local:31406] 11 more processes have sent help message help-mpi-btl-base.txt / btl:no-nics
[compute-0-19.local:31406] Set MCA parameter "orte_base_help_aggregate" to 0 to see all help / error messages
 entering main loop
       N       E                     dE             d eps       ncg     rms          rms(c)
DAV:   1     0.238736190111E+03    0.23874E+03   -0.10296E+04   120   0.484E+02
DAV:   2    -0.289277855556E+02   -0.26766E+03   -0.25236E+03   156   0.922E+01
DAV:   3    -0.109199737843E+03   -0.80272E+02   -0.80035E+02   120   0.546E+01
DAV:   4    -0.113247592958E+03   -0.40479E+01   -0.40329E+01   132   0.177E+01
DAV:   5    -0.113332773961E+03   -0.85181E-01   -0.85083E-01   168   0.293E+00    0.173E+01
DAV:   6    -0.109406428704E+03    0.39263E+01   -0.17344E+00   120   0.441E+00    0.101E+01
DAV:   7    -0.107332737681E+03    0.20737E+01   -0.47911E+00   120   0.655E+00    0.139E+00
DAV:   8    -0.107282496432E+03    0.50241E-01   -0.32442E-01   132   0.213E+00    0.715E-01
DAV:   9    -0.107247795998E+03    0.34700E-01   -0.62306E-02   156   0.694E-01    0.430E-01
DAV:  10    -0.107247545812E+03    0.25019E-03   -0.41138E-03   132   0.233E-01    0.170E-01
DAV:  11    -0.107244391899E+03    0.31539E-02   -0.92392E-03   120   0.247E-01    0.107E-01
DAV:  12    -0.107249348172E+03   -0.49563E-02   -0.89813E-04   120   0.920E-02    0.643E-02
DAV:  13    -0.107254191040E+03   -0.48429E-02   -0.31878E-03   108   0.130E-01    0.565E-02
DAV:  14    -0.107257042025E+03   -0.28510E-02   -0.15546E-04   132   0.385E-02    0.258E-02
DAV:  15    -0.107263555375E+03   -0.65134E-02   -0.88929E-04   108   0.750E-02    0.253E-02
DAV:  16    -0.107264746708E+03   -0.11913E-02   -0.80669E-05   132   0.301E-02    0.107E-02
DAV:  17    -0.107265988434E+03   -0.12417E-02   -0.11621E-04   132   0.237E-02    0.755E-03
DAV:  18    -0.107266283554E+03   -0.29512E-03   -0.65582E-06   132   0.656E-03    0.293E-03
DAV:  19    -0.107266550307E+03   -0.26675E-03   -0.12080E-05   120   0.808E-03    0.473E-03
DAV:  20    -0.107266612093E+03   -0.61785E-04   -0.19002E-06   120   0.474E-03    0.995E-04
DAV:  21    -0.107266632382E+03   -0.20289E-04   -0.51759E-07   108   0.209E-03    0.975E-04
DAV:  22    -0.107266641181E+03   -0.87992E-05   -0.18958E-07   108   0.123E-03    0.529E-04
DAV:  23    -0.107266646743E+03   -0.55622E-05   -0.12486E-07    84   0.962E-04    0.241E-04
DAV:  24    -0.107266648947E+03   -0.22045E-05   -0.24994E-08    96   0.565E-04    0.162E-04
DAV:  25    -0.107266649822E+03   -0.87441E-06   -0.43872E-09   108   0.289E-04
   1 F= -.10726665E+03 E0= -.10726665E+03  d E =-.242055E-10
 Finite differences POTIM= 0.02000 DOF=  78
 bond charge predicted
       N       E                     dE             d eps       ncg     rms          rms(c)
DAV:   1    -0.107263272685E+03    0.33763E-02   -0.86700E-02    96   0.851E-01    0.136E-01
DAV:   2    -0.107263619104E+03   -0.34642E-03   -0.39988E-03   132   0.211E-01    0.577E-02
DAV:   3    -0.107263600726E+03    0.18378E-04   -0.15772E-04   132   0.457E-02    0.309E-02
DAV:   4    -0.107263603827E+03   -0.31011E-05   -0.44013E-05   132   0.230E-02    0.914E-03
DAV:   5    -0.107263603084E+03    0.74302E-06   -0.65536E-06   144   0.976E-03
   2 F= -.10726360E+03 E0= -.10726360E+03  d E =-.337810E-10
 Finite differences progress:
  Degree of freedom:   1/ 78
  Displacement:        1/  2
  Total:               1/156
 bond charge predicted
       N       E                     dE             d eps       ncg     rms          rms(c)
DAV:   1    -0.107262221547E+03    0.13823E-02   -0.34778E-01    96   0.164E+00    0.267E-01
DAV:   2    -0.107263601909E+03   -0.13804E-02   -0.15938E-02   132   0.420E-01    0.116E-01
DAV:   3    -0.107263536361E+03    0.65548E-04   -0.66518E-04   132   0.925E-02    0.619E-02
DAV:   4    -0.107263553339E+03   -0.16978E-04   -0.15957E-04   132   0.445E-02    0.192E-02
DAV:   5    -0.107263551063E+03    0.22758E-05   -0.22582E-05   144   0.183E-02    0.996E-03
DAV:   6    -0.107263550521E+03    0.54175E-06   -0.49987E-06   108   0.780E-03
   3 F= -.10726355E+03 E0= -.10726355E+03  d E =-.284125E-10
 Finite differences progress:
  Degree of freedom:   1/ 78
  Displacement:        2/  2
  Total:               2/156
 bond charge predicted
       N       E                     dE             d eps       ncg     rms          rms(c)
DAV:   1    -0.107262926667E+03    0.62440E-03   -0.17315E-01    96   0.118E+00    0.195E-01
DAV:   2    -0.107263580426E+03   -0.65376E-03   -0.76564E-03   132   0.298E-01    0.809E-02
DAV:   3    -0.107263552042E+03    0.28384E-04   -0.32656E-04   132   0.648E-02    0.432E-02
DAV:   4    -0.107263562619E+03   -0.10578E-04   -0.74983E-05   132   0.309E-02    0.136E-02
DAV:   5    -0.107263562650E+03   -0.31143E-07   -0.11432E-05   132   0.131E-02    0.710E-03
DAV:   6    -0.107263562845E+03   -0.19454E-06   -0.25597E-06   144   0.553E-03
   4 F= -.10726356E+03 E0= -.10726356E+03  d E =-.282507E-10
 Finite differences progress:
  Degree of freedom:   2/ 78
  Displacement:        1/  2
  Total:               3/156
 bond charge predicted
       N       E                     dE             d eps       ncg     rms          rms(c)
DAV:   1    -0.107262162005E+03    0.14006E-02   -0.34586E-01    96   0.167E+00    0.272E-01
DAV:   2    -0.107263569477E+03   -0.14075E-02   -0.16141E-02   132   0.431E-01    0.118E-01
DAV:   3    -0.107263500329E+03    0.69148E-04   -0.64655E-04   144   0.929E-02    0.629E-02
DAV:   4    -0.107263514271E+03   -0.13943E-04   -0.17274E-04   144   0.463E-02    0.196E-02
DAV:   5    -0.107263510457E+03    0.38140E-05   -0.25646E-05   132   0.196E-02    0.101E-02
DAV:   6    -0.107263509947E+03    0.50988E-06   -0.54584E-06   132   0.814E-03
   5 F= -.10726351E+03 E0= -.10726351E+03  d E =-.298029E-10
 Finite differences progress:
  Degree of freedom:   2/ 78
  Displacement:        2/  2
  Total:               4/156
 bond charge predicted
       N       E                     dE             d eps       ncg     rms          rms(c)
DAV:   1    -0.107261451724E+03    0.20587E-02   -0.17255E-01    96   0.120E+00    0.193E-01
DAV:   2    -0.107262311697E+03   -0.85997E-03   -0.95653E-03   132   0.328E-01    0.958E-02
DAV:   3    -0.107262260771E+03    0.50926E-04   -0.31937E-04   132   0.677E-02    0.523E-02
DAV:   4    -0.107262266525E+03   -0.57535E-05   -0.13202E-04   132   0.393E-02    0.141E-02
DAV:   5    -0.107262264926E+03    0.15985E-05   -0.20503E-05   120   0.166E-02    0.817E-03
DAV:   6    -0.107262266585E+03   -0.16582E-05   -0.34193E-06   144   0.590E-03    0.496E-03
DAV:   7    -0.107262272363E+03   -0.57785E-05   -0.50606E-07   108   0.255E-03    0.126E-03
DAV:   8    -0.107262276725E+03   -0.43620E-05   -0.35714E-07   108   0.197E-03    0.664E-04
DAV:   9    -0.107262283224E+03   -0.64993E-05   -0.34534E-07   108   0.170E-03    0.401E-04
DAV:  10    -0.107262289165E+03   -0.59405E-05   -0.48990E-07   120   0.150E-03    0.411E-04
DAV:  11    -0.107262290481E+03   -0.13164E-05   -0.32624E-08   120   0.697E-04    0.281E-04
DAV:  12    -0.107262292326E+03   -0.18442E-05   -0.51430E-08   108   0.553E-04    0.131E-04
DAV:  13    -0.107262293456E+03   -0.11308E-05   -0.21860E-08   108   0.359E-04    0.830E-05
DAV:  14    -0.107262294429E+03   -0.97228E-06   -0.15291E-08   108   0.298E-04
   6 F= -.10726229E+03 E0= -.10726229E+03  d E =-.359359E-10
 Finite differences progress:
  Degree of freedom:   3/ 78
  Displacement:        1/  2
  Total:               5/156
 bond charge predicted
       N       E                     dE             d eps       ncg     rms          rms(c)
DAV:   1    -0.107260079777E+03    0.22137E-02   -0.34192E-01    96   0.159E+00    0.272E-01
DAV:   2    -0.107262316947E+03   -0.22372E-02   -0.24607E-02   132   0.487E-01    0.170E-01
DAV:   3    -0.107262142470E+03    0.17448E-03   -0.76245E-04   144   0.103E-01    0.868E-02
DAV:   4    -0.107262146043E+03   -0.35726E-05   -0.38967E-04   132   0.636E-02    0.168E-02
DAV:   5    -0.107262136059E+03    0.99842E-05   -0.51629E-05   132   0.240E-02    0.115E-02
DAV:   6    -0.107262136929E+03   -0.87056E-06   -0.86322E-06   144   0.779E-03
   7 F= -.10726214E+03 E0= -.10726214E+03  d E =-.221797E-10
 Finite differences progress:
  Degree of freedom:   3/ 78
  Displacement:        2/  2
  Total:               6/156
 bond charge predicted
       N       E                     dE             d eps       ncg     rms          rms(c)
DAV:   1    -0.107261635036E+03    0.50102E-03   -0.19642E-01    96   0.133E+00    0.202E-01
DAV:   2    -0.107262933260E+03   -0.12982E-02   -0.13611E-02   132   0.404E-01    0.119E-01
DAV:   3    -0.107262874152E+03    0.59107E-04   -0.42008E-04   144   0.838E-02    0.627E-02
DAV:   4    -0.107262904117E+03   -0.29964E-04   -0.21275E-04   132   0.524E-02    0.131E-02
DAV:   5    -0.107262907773E+03   -0.36561E-05   -0.32795E-05   132   0.199E-02    0.916E-03
DAV:   6    -0.107262911587E+03   -0.38147E-05   -0.39064E-06   132   0.618E-03    0.644E-03
DAV:   7    -0.107262923050E+03   -0.11463E-04   -0.82714E-07    96   0.428E-03    0.173E-03
DAV:   8    -0.107262929853E+03   -0.68028E-05   -0.10682E-06   120   0.345E-03    0.112E-03
DAV:   9    -0.107262933745E+03   -0.38915E-05   -0.22976E-07   108   0.176E-03    0.849E-04
DAV:  10    -0.107262943259E+03   -0.95142E-05   -0.56226E-07    96   0.176E-03    0.637E-04
DAV:  11    -0.107262947832E+03   -0.45736E-05   -0.35626E-07   108   0.143E-03    0.683E-04
DAV:  12    -0.107262950234E+03   -0.24012E-05   -0.11170E-07   108   0.100E-03    0.337E-04
DAV:  13    -0.107262952072E+03   -0.18387E-05   -0.57802E-08    84   0.654E-04    0.285E-04
DAV:  14    -0.107262953288E+03   -0.12153E-05   -0.25290E-08    96   0.427E-04    0.140E-04
DAV:  15    -0.107262954108E+03   -0.82075E-06   -0.22713E-08   108   0.379E-04
   8 F= -.10726295E+03 E0= -.10726295E+03  d E =-.247463E-10
 Finite differences progress:
  Degree of freedom:   4/ 78
  Displacement:        1/  2
  Total:               7/156
 bond charge predicted
       N       E                     dE             d eps       ncg     rms          rms(c)
DAV:   1    -0.107260574988E+03    0.23783E-02   -0.34145E-01    96   0.167E+00    0.258E-01
DAV:   2    -0.107262429371E+03   -0.18544E-02   -0.19470E-02   132   0.461E-01    0.153E-01
DAV:   3    -0.107262351863E+03    0.77508E-04   -0.55482E-04   132   0.859E-02    0.840E-02
DAV:   4    -0.107262336161E+03    0.15702E-04   -0.20403E-04   132   0.517E-02    0.173E-02
DAV:   5    -0.107262323789E+03    0.12373E-04   -0.35613E-05   144   0.221E-02    0.103E-02
DAV:   6    -0.107262325411E+03   -0.16227E-05   -0.78479E-06   120   0.954E-03    0.607E-03
DAV:   7    -0.107262342471E+03   -0.17060E-04   -0.33717E-06   132   0.715E-03    0.190E-03
DAV:   8    -0.107262361463E+03   -0.18992E-04   -0.14592E-06   120   0.452E-03    0.154E-03
DAV:   9    -0.107262377972E+03   -0.16509E-04   -0.62814E-07   108   0.249E-03    0.114E-03
DAV:  10    -0.107262401272E+03   -0.23301E-04   -0.15274E-06   120   0.246E-03    0.633E-04
DAV:  11    -0.107262405350E+03   -0.40780E-05   -0.10696E-07   120   0.116E-03    0.404E-04
DAV:  12    -0.107262415702E+03   -0.10351E-04   -0.29703E-07    96   0.133E-03    0.312E-04
DAV:  13    -0.107262418033E+03   -0.23315E-05   -0.58479E-08   120   0.674E-04    0.233E-04
DAV:  14    -0.107262420780E+03   -0.27470E-05   -0.30903E-08    96   0.561E-04    0.131E-04
DAV:  15    -0.107262422236E+03   -0.14556E-05   -0.25747E-08   108   0.379E-04    0.129E-04
DAV:  16    -0.107262422688E+03   -0.45233E-06    0.26326E-09   120   0.190E-04
   9 F= -.10726242E+03 E0= -.10726242E+03  d E =-.316566E-10
 Finite differences progress:
  Degree of freedom:   4/ 78
  Displacement:        2/  2
  Total:               8/156
 bond charge predicted
       N       E                     dE             d eps       ncg     rms          rms(c)
DAV:   1    -0.107260674323E+03    0.17479E-02   -0.17680E-01    96   0.118E+00    0.186E-01
DAV:   2    -0.107261784250E+03   -0.11099E-02   -0.11484E-02   120   0.377E-01    0.116E-01
DAV:   3    -0.107261730166E+03    0.54084E-04   -0.29523E-04   132   0.710E-02    0.624E-02
DAV:   4    -0.107261726562E+03    0.36045E-05   -0.16498E-04   120   0.477E-02    0.121E-02
DAV:   5    -0.107261721277E+03    0.52852E-05   -0.33128E-05   132   0.209E-02    0.841E-03
DAV:   6    -0.107261724352E+03   -0.30751E-05   -0.65572E-06   132   0.740E-03    0.545E-03
DAV:   7    -0.107261736260E+03   -0.11908E-04   -0.87292E-07    84   0.355E-03    0.221E-03
DAV:   8    -0.107261750331E+03   -0.14071E-04   -0.15432E-06   108   0.370E-03    0.965E-04
DAV:   9    -0.107261763422E+03   -0.13091E-04   -0.12271E-06   108   0.295E-03    0.103E-03
DAV:  10    -0.107261774311E+03   -0.10889E-04   -0.77529E-07    96   0.216E-03    0.518E-04
DAV:  11    -0.107261777970E+03   -0.36593E-05   -0.22160E-07   108   0.112E-03    0.375E-04
DAV:  12    -0.107261781536E+03   -0.35658E-05   -0.11301E-07    96   0.819E-04    0.148E-04
DAV:  13    -0.107261783815E+03   -0.22794E-05   -0.10181E-07    96   0.675E-04    0.192E-04
DAV:  14    -0.107261785047E+03   -0.12316E-05   -0.25263E-08   108   0.392E-04    0.113E-04
DAV:  15    -0.107261785545E+03   -0.49783E-06   -0.17084E-09    96   0.229E-04
  10 F= -.10726179E+03 E0= -.10726179E+03  d E =-.275151E-10
 Finite differences progress:
  Degree of freedom:   5/ 78
  Displacement:        1/  2
  Total:               9/156
 bond charge predicted
       N       E                     dE             d eps       ncg     rms          rms(c)
DAV:   1    -0.107259260199E+03    0.25248E-02   -0.35495E-01    96   0.177E+00    0.275E-01
DAV:   2    -0.107261904567E+03   -0.26444E-02   -0.26980E-02   132   0.578E-01    0.183E-01
DAV:   3    -0.107261739010E+03    0.16556E-03   -0.65151E-04   144   0.110E-01    0.936E-02
DAV:   4    -0.107261753215E+03   -0.14205E-04   -0.47973E-04   120   0.787E-02    0.181E-02
DAV:   5    -0.107261738560E+03    0.14655E-04   -0.92027E-05   132   0.347E-02    0.123E-02
DAV:   6    -0.107261744853E+03   -0.62924E-05   -0.14666E-05   144   0.108E-02    0.667E-03
DAV:   7    -0.107261764982E+03   -0.20130E-04   -0.15187E-06   108   0.363E-03    0.306E-03
DAV:   8    -0.107261792042E+03   -0.27059E-04   -0.40176E-06   120   0.571E-03    0.176E-03
DAV:   9    -0.107261816192E+03   -0.24150E-04   -0.19437E-06   120   0.375E-03    0.109E-03
DAV:  10    -0.107261831874E+03   -0.15682E-04   -0.11077E-06   120   0.233E-03    0.578E-04
DAV:  11    -0.107261838204E+03   -0.63297E-05   -0.16292E-07   108   0.109E-03    0.319E-04
DAV:  12    -0.107261846115E+03   -0.79111E-05   -0.33474E-07    96   0.118E-03    0.195E-04
DAV:  13    -0.107261848226E+03   -0.21109E-05   -0.38423E-08   120   0.496E-04    0.193E-04
DAV:  14    -0.107261850769E+03   -0.25438E-05   -0.46092E-08    96   0.501E-04    0.103E-04
DAV:  15    -0.107261851249E+03   -0.47995E-06   -0.28707E-09   120   0.244E-04
  11 F= -.10726185E+03 E0= -.10726185E+03  d E =-.269834E-10
 Finite differences progress:
  Degree of freedom:   5/ 78
  Displacement:        2/  2
  Total:              10/156
 bond charge predicted
       N       E                     dE             d eps       ncg     rms          rms(c)
DAV:   1    -0.107262215623E+03   -0.36485E-03   -0.17653E-01    96   0.128E+00    0.187E-01
DAV:   2    -0.107263390781E+03   -0.11752E-02   -0.12153E-02   120   0.370E-01    0.122E-01
DAV:   3    -0.107263324954E+03    0.65827E-04   -0.31897E-04   144   0.728E-02    0.615E-02
DAV:   4    -0.107263329994E+03   -0.50401E-05   -0.19583E-04   120   0.498E-02    0.127E-02
DAV:   5    -0.107263323259E+03    0.67350E-05   -0.36374E-05   144   0.214E-02    0.874E-03
DAV:   6    -0.107263325615E+03   -0.23561E-05   -0.74487E-06   144   0.749E-03    0.539E-03
DAV:   7    -0.107263335775E+03   -0.10159E-04   -0.71903E-07    96   0.300E-03    0.224E-03
DAV:   8    -0.107263349049E+03   -0.13275E-04   -0.14855E-06   120   0.333E-03    0.892E-04
DAV:   9    -0.107263361889E+03   -0.12840E-04   -0.10307E-06   108   0.258E-03    0.927E-04
DAV:  10    -0.107263372065E+03   -0.10176E-04   -0.68539E-07    96   0.193E-03    0.455E-04
DAV:  11    -0.107263375633E+03   -0.35687E-05   -0.17394E-07   108   0.984E-04    0.317E-04
DAV:  12    -0.107263379079E+03   -0.34457E-05   -0.10127E-07    84   0.742E-04    0.121E-04
DAV:  13    -0.107263381250E+03   -0.21706E-05   -0.82056E-08    96   0.601E-04    0.157E-04
DAV:  14    -0.107263382658E+03   -0.14087E-05   -0.30482E-08   108   0.394E-04    0.856E-05
DAV:  15    -0.107263383042E+03   -0.38336E-06    0.14547E-09   108   0.191E-04
  12 F= -.10726338E+03 E0= -.10726338E+03  d E =-.289216E-10
 Finite differences progress:
  Degree of freedom:   6/ 78
  Displacement:        1/  2
  Total:              11/156
 bond charge predicted
       N       E                     dE             d eps       ncg     rms          rms(c)
DAV:   1    -0.107261531514E+03    0.18511E-02   -0.33949E-01    96   0.163E+00    0.265E-01
DAV:   2    -0.107263168271E+03   -0.16368E-02   -0.17459E-02   132   0.424E-01    0.134E-01
DAV:   3    -0.107263112513E+03    0.55757E-04   -0.56869E-04   132   0.878E-02    0.720E-02
DAV:   4    -0.107263122436E+03   -0.99224E-05   -0.19138E-04   120   0.540E-02    0.169E-02
DAV:   5    -0.107263115194E+03    0.72416E-05   -0.42937E-05   144   0.251E-02    0.111E-02
DAV:   6    -0.107263115638E+03   -0.44387E-06   -0.67295E-06   156   0.842E-03
  13 F= -.10726312E+03 E0= -.10726312E+03  d E =-.313993E-10
 Finite differences progress:
  Degree of freedom:   6/ 78
  Displacement:        2/  2
  Total:              12/156
 bond charge predicted
       N       E                     dE             d eps       ncg     rms          rms(c)
DAV:   1    -0.107260685888E+03    0.24293E-02   -0.17101E-01    96   0.130E+00    0.195E-01
DAV:   2    -0.107261968753E+03   -0.12829E-02   -0.13274E-02   132   0.403E-01    0.115E-01
DAV:   3    -0.107261918282E+03    0.50470E-04   -0.39465E-04   156   0.798E-02    0.661E-02
DAV:   4    -0.107261937676E+03   -0.19394E-04   -0.18706E-04   120   0.537E-02    0.137E-02
DAV:   5    -0.107261936732E+03    0.94402E-06   -0.47382E-05   144   0.253E-02    0.103E-02
DAV:   6    -0.107261936034E+03    0.69861E-06   -0.48589E-06   144   0.734E-03
  14 F= -.10726194E+03 E0= -.10726194E+03  d E =-.273863E-10
 Finite differences progress:
  Degree of freedom:   7/ 78
  Displacement:        1/  2
  Total:              13/156
 bond charge predicted
       N       E                     dE             d eps       ncg     rms          rms(c)
DAV:   1    -0.107259836035E+03    0.21007E-02   -0.35193E-01    96   0.172E+00    0.264E-01
DAV:   2    -0.107262368882E+03   -0.25328E-02   -0.25602E-02   132   0.539E-01    0.175E-01
DAV:   3    -0.107262260731E+03    0.10815E-03   -0.63013E-04   120   0.103E-01    0.925E-02
DAV:   4    -0.107262272372E+03   -0.11642E-04   -0.40478E-04   120   0.737E-02    0.178E-02
DAV:   5    -0.107262256098E+03    0.16274E-04   -0.85268E-05   132   0.331E-02    0.122E-02
DAV:   6    -0.107262257648E+03   -0.15501E-05   -0.13766E-05   144   0.102E-02    0.797E-03
DAV:   7    -0.107262271563E+03   -0.13914E-04   -0.11845E-06   108   0.382E-03    0.339E-03
DAV:   8    -0.107262287793E+03   -0.16230E-04   -0.20842E-06   108   0.444E-03    0.112E-03
DAV:   9    -0.107262303502E+03   -0.15710E-04   -0.16197E-06   108   0.338E-03    0.122E-03
DAV:  10    -0.107262318849E+03   -0.15347E-04   -0.13821E-06   108   0.274E-03    0.663E-04
DAV:  11    -0.107262322083E+03   -0.32343E-05   -0.11069E-07   108   0.110E-03    0.502E-04
DAV:  12    -0.107262326668E+03   -0.45845E-05   -0.16527E-07    96   0.973E-04    0.192E-04
DAV:  13    -0.107262329251E+03   -0.25836E-05   -0.10976E-07   108   0.738E-04    0.219E-04
DAV:  14    -0.107262331100E+03   -0.18488E-05   -0.51047E-08    96   0.526E-04    0.137E-04
DAV:  15    -0.107262331538E+03   -0.43788E-06   -0.24593E-09   120   0.252E-04
  15 F= -.10726233E+03 E0= -.10726233E+03  d E =-.256396E-10
 Finite differences progress:
  Degree of freedom:   7/ 78
  Displacement:        2/  2
  Total:              14/156
 bond charge predicted
       N       E                     dE             d eps       ncg     rms          rms(c)
DAV:   1    -0.107261690251E+03    0.64085E-03   -0.17747E-01    96   0.123E+00    0.198E-01
DAV:   2    -0.107262882211E+03   -0.11920E-02   -0.12340E-02   120   0.376E-01    0.127E-01
DAV:   3    -0.107262813103E+03    0.69108E-04   -0.32549E-04   144   0.757E-02    0.631E-02
DAV:   4    -0.107262818745E+03   -0.56415E-05   -0.21845E-04   120   0.521E-02    0.127E-02
DAV:   5    -0.107262810376E+03    0.83688E-05   -0.37088E-05   132   0.217E-02    0.814E-03
DAV:   6    -0.107262813869E+03   -0.34925E-05   -0.73740E-06   144   0.733E-03    0.441E-03
DAV:   7    -0.107262825159E+03   -0.11290E-04   -0.55486E-07    96   0.226E-03    0.207E-03
DAV:   8    -0.107262841789E+03   -0.16631E-04   -0.20264E-06   108   0.364E-03    0.110E-03
DAV:   9    -0.107262853332E+03   -0.11542E-04   -0.81490E-07   120   0.227E-03    0.941E-04
DAV:  10    -0.107262864913E+03   -0.11581E-04   -0.73707E-07    84   0.192E-03    0.347E-04
DAV:  11    -0.107262868043E+03   -0.31302E-05   -0.14754E-07   108   0.904E-04    0.235E-04
DAV:  12    -0.107262871847E+03   -0.38038E-05   -0.10767E-07    84   0.741E-04    0.102E-04
DAV:  13    -0.107262873782E+03   -0.19352E-05   -0.61995E-08   108   0.524E-04    0.114E-04
DAV:  14    -0.107262875040E+03   -0.12581E-05   -0.16299E-08    96   0.345E-04    0.757E-05
DAV:  15    -0.107262875503E+03   -0.46245E-06   -0.31662E-10   108   0.217E-04
  16 F= -.10726288E+03 E0= -.10726288E+03  d E =-.266978E-10
 Finite differences progress:
  Degree of freedom:   8/ 78
  Displacement:        1/  2
  Total:              15/156
 bond charge predicted
       N       E                     dE             d eps       ncg     rms          rms(c)
DAV:   1    -0.107260479178E+03    0.23959E-02   -0.34402E-01    96   0.171E+00    0.264E-01
DAV:   2    -0.107262513050E+03   -0.20339E-02   -0.21160E-02   132   0.479E-01    0.156E-01
DAV:   3    -0.107262412470E+03    0.10058E-03   -0.56259E-04   132   0.932E-02    0.812E-02
DAV:   4    -0.107262418608E+03   -0.61380E-05   -0.31085E-04   120   0.645E-02    0.168E-02
DAV:   5    -0.107262407189E+03    0.11418E-04   -0.61365E-05   144   0.288E-02    0.118E-02
DAV:   6    -0.107262407671E+03   -0.48166E-06   -0.11188E-05   132   0.972E-03    0.733E-03
DAV:   7    -0.107262417300E+03   -0.96289E-05   -0.12113E-06   120   0.469E-03    0.285E-03
DAV:   8    -0.107262431405E+03   -0.14106E-04   -0.22216E-06   132   0.512E-03    0.157E-03
DAV:   9    -0.107262447208E+03   -0.15803E-04   -0.10396E-06   108   0.325E-03    0.118E-03
DAV:  10    -0.107262462460E+03   -0.15251E-04   -0.77631E-07    96   0.240E-03    0.664E-04
DAV:  11    -0.107262467942E+03   -0.54819E-05   -0.22316E-07   120   0.134E-03    0.522E-04
DAV:  12    -0.107262474638E+03   -0.66958E-05   -0.14046E-07    96   0.951E-04    0.285E-04
DAV:  13    -0.107262479073E+03   -0.44352E-05   -0.13319E-07   108   0.771E-04    0.246E-04
DAV:  14    -0.107262481642E+03   -0.25692E-05   -0.36667E-08   108   0.477E-04    0.147E-04
DAV:  15    -0.107262482904E+03   -0.12616E-05   -0.12387E-08    96   0.333E-04    0.604E-05
DAV:  16    -0.107262483584E+03   -0.68020E-06   -0.16875E-10   108   0.199E-04
  17 F= -.10726248E+03 E0= -.10726248E+03  d E =-.305568E-10
 Finite differences progress:
  Degree of freedom:   8/ 78
  Displacement:        2/  2
  Total:              16/156
 bond charge predicted
       N       E                     dE             d eps       ncg     rms          rms(c)
DAV:   1    -0.107262088066E+03    0.39484E-03   -0.17585E-01    96   0.121E+00    0.185E-01
DAV:   2    -0.107263132582E+03   -0.10445E-02   -0.10892E-02   120   0.346E-01    0.116E-01
DAV:   3    -0.107263083058E+03    0.49523E-04   -0.29840E-04   132   0.660E-02    0.610E-02
DAV:   4    -0.107263069548E+03    0.13510E-04   -0.12491E-04   120   0.397E-02    0.115E-02
DAV:   5    -0.107263064898E+03    0.46503E-05   -0.18092E-05   132   0.153E-02    0.760E-03
DAV:   6    -0.107263070243E+03   -0.53456E-05   -0.55510E-06   132   0.756E-03    0.437E-03
DAV:   7    -0.107263088212E+03   -0.17968E-04   -0.22566E-06   108   0.519E-03    0.147E-03
DAV:   8    -0.107263104299E+03   -0.16087E-04   -0.11631E-06   108   0.334E-03    0.106E-03
DAV:   9    -0.107263121360E+03   -0.17062E-04   -0.12903E-06   120   0.268E-03    0.792E-04
DAV:  10    -0.107263134508E+03   -0.13148E-04   -0.11583E-06   108   0.217E-03    0.365E-04
DAV:  11    -0.107263138326E+03   -0.38174E-05   -0.12009E-07   108   0.977E-04    0.232E-04
DAV:  12    -0.107263142829E+03   -0.45031E-05   -0.27187E-07    84   0.104E-03    0.154E-04
DAV:  13    -0.107263143707E+03   -0.87846E-06   -0.22860E-08   120   0.406E-04
  18 F= -.10726314E+03 E0= -.10726314E+03  d E =-.241036E-10
 Finite differences progress:
  Degree of freedom:   9/ 78
  Displacement:        1/  2
  Total:              17/156
 bond charge predicted
       N       E                     dE             d eps       ncg     rms          rms(c)
DAV:   1    -0.107260960234E+03    0.21826E-02   -0.34004E-01    96   0.164E+00    0.260E-01
DAV:   2    -0.107262721960E+03   -0.17617E-02   -0.18625E-02   132   0.442E-01    0.146E-01
DAV:   3    -0.107262653853E+03    0.68107E-04   -0.55379E-04   132   0.859E-02    0.813E-02
DAV:   4    -0.107262648703E+03    0.51501E-05   -0.19369E-04   120   0.524E-02    0.179E-02
DAV:   5    -0.107262638224E+03    0.10479E-04   -0.39419E-05   144   0.236E-02    0.105E-02
DAV:   6    -0.107262639967E+03   -0.17434E-05   -0.68897E-06   120   0.885E-03    0.671E-03
DAV:   7    -0.107262654402E+03   -0.14435E-04   -0.22455E-06   132   0.649E-03    0.167E-03
DAV:   8    -0.107262667307E+03   -0.12905E-04   -0.16335E-06   132   0.453E-03    0.178E-03
DAV:   9    -0.107262675158E+03   -0.78511E-05   -0.22099E-07   108   0.168E-03    0.127E-03
DAV:  10    -0.107262696514E+03   -0.21356E-04   -0.12527E-06   108   0.247E-03    0.566E-04
DAV:  11    -0.107262704623E+03   -0.81090E-05   -0.38267E-07   108   0.158E-03    0.664E-04
DAV:  12    -0.107262713084E+03   -0.84607E-05   -0.27605E-07    96   0.143E-03    0.378E-04
DAV:  13    -0.107262716809E+03   -0.37247E-05   -0.10369E-07   108   0.845E-04    0.466E-04
DAV:  14    -0.107262718509E+03   -0.17003E-05   -0.15919E-08   120   0.463E-04    0.175E-04
DAV:  15    -0.107262720686E+03   -0.21771E-05   -0.43875E-08    96   0.509E-04    0.157E-04
DAV:  16    -0.107262721321E+03   -0.63490E-06   -0.99472E-10   120   0.249E-04
  19 F= -.10726272E+03 E0= -.10726272E+03  d E =-.329833E-10
 Finite differences progress:
  Degree of freedom:   9/ 78
  Displacement:        2/  2
  Total:              18/156
 bond charge predicted
       N       E                     dE             d eps       ncg     rms          rms(c)
DAV:   1    -0.107260575160E+03    0.21455E-02   -0.17327E-01    96   0.132E+00    0.187E-01
DAV:   2    -0.107261888694E+03   -0.13135E-02   -0.13429E-02   132   0.419E-01    0.118E-01
DAV:   3    -0.107261833344E+03    0.55350E-04   -0.32661E-04   144   0.734E-02    0.687E-02
DAV:   4    -0.107261824356E+03    0.89881E-05   -0.17192E-04   120   0.506E-02    0.121E-02
DAV:   5    -0.107261819663E+03    0.46931E-05   -0.43164E-05   144   0.237E-02    0.950E-03
DAV:   6    -0.107261820143E+03   -0.48001E-06   -0.51583E-06   132   0.780E-03
  20 F= -.10726182E+03 E0= -.10726182E+03  d E =-.212820E-10
 Finite differences progress:
  Degree of freedom:  10/ 78
  Displacement:        1/  2
  Total:              19/156
 bond charge predicted
       N       E                     dE             d eps       ncg     rms          rms(c)
DAV:   1    -0.107259595353E+03    0.22243E-02   -0.35227E-01    96   0.172E+00    0.264E-01
DAV:   2    -0.107262213518E+03   -0.26182E-02   -0.26372E-02   132   0.549E-01    0.179E-01
DAV:   3    -0.107262096620E+03    0.11690E-03   -0.63816E-04   132   0.105E-01    0.938E-02
DAV:   4    -0.107262118592E+03   -0.21973E-04   -0.43651E-04   120   0.759E-02    0.179E-02
DAV:   5    -0.107262104702E+03    0.13890E-04   -0.91143E-05   132   0.341E-02    0.125E-02
DAV:   6    -0.107262107785E+03   -0.30826E-05   -0.14351E-05   144   0.103E-02    0.789E-03
DAV:   7    -0.107262123661E+03   -0.15876E-04   -0.12253E-06   108   0.364E-03    0.340E-03
DAV:   8    -0.107262141928E+03   -0.18267E-04   -0.24221E-06   120   0.462E-03    0.119E-03
DAV:   9    -0.107262158452E+03   -0.16524E-04   -0.15776E-06   108   0.331E-03    0.124E-03
DAV:  10    -0.107262174627E+03   -0.16175E-04   -0.14192E-06   108   0.269E-03    0.660E-04
DAV:  11    -0.107262178429E+03   -0.38025E-05   -0.12354E-07   108   0.108E-03    0.479E-04
DAV:  12    -0.107262183995E+03   -0.55662E-05   -0.23715E-07    96   0.108E-03    0.160E-04
DAV:  13    -0.107262186117E+03   -0.21219E-05   -0.80157E-08   108   0.644E-04    0.221E-04
DAV:  14    -0.107262188116E+03   -0.19990E-05   -0.46141E-08    96   0.522E-04    0.132E-04
DAV:  15    -0.107262188601E+03   -0.48414E-06   -0.49299E-09   108   0.273E-04
  21 F= -.10726219E+03 E0= -.10726219E+03  d E =-.260188E-10
 Finite differences progress:
  Degree of freedom:  10/ 78
  Displacement:        2/  2
  Total:              20/156
 bond charge predicted
       N       E                     dE             d eps       ncg     rms          rms(c)
DAV:   1    -0.107261176096E+03    0.10120E-02   -0.17251E-01    96   0.124E+00    0.184E-01
DAV:   2    -0.107262142111E+03   -0.96602E-03   -0.10083E-02   132   0.342E-01    0.108E-01
DAV:   3    -0.107262099271E+03    0.42840E-04   -0.27473E-04   132   0.636E-02    0.558E-02
DAV:   4    -0.107262096226E+03    0.30446E-05   -0.11947E-04   120   0.401E-02    0.113E-02
DAV:   5    -0.107262089045E+03    0.71812E-05   -0.20950E-05   132   0.172E-02    0.740E-03
DAV:   6    -0.107262089486E+03   -0.44100E-06   -0.43458E-06   132   0.674E-03
  22 F= -.10726209E+03 E0= -.10726209E+03  d E =-.300212E-10
 Finite differences progress:
  Degree of freedom:  11/ 78
  Displacement:        1/  2
  Total:              21/156
 bond charge predicted
       N       E                     dE             d eps       ncg     rms          rms(c)
DAV:   1    -0.107260618368E+03    0.14707E-02   -0.35267E-01    96   0.169E+00    0.262E-01
DAV:   2    -0.107262755240E+03   -0.21369E-02   -0.21715E-02   132   0.489E-01    0.161E-01
DAV:   3    -0.107262688017E+03    0.67223E-04   -0.57866E-04   132   0.913E-02    0.885E-02
DAV:   4    -0.107262680885E+03    0.71318E-05   -0.25975E-04   132   0.582E-02    0.171E-02
DAV:   5    -0.107262670545E+03    0.10339E-04   -0.49348E-05   132   0.247E-02    0.112E-02
DAV:   6    -0.107262675269E+03   -0.47239E-05   -0.10223E-05   144   0.966E-03    0.708E-03
DAV:   7    -0.107262698085E+03   -0.22816E-04   -0.28277E-06   108   0.602E-03    0.236E-03
DAV:   8    -0.107262718582E+03   -0.20497E-04   -0.19210E-06   108   0.454E-03    0.125E-03
DAV:   9    -0.107262738842E+03   -0.20259E-04   -0.17835E-06   108   0.342E-03    0.122E-03
DAV:  10    -0.107262758135E+03   -0.19293E-04   -0.18936E-06   108   0.287E-03    0.479E-04
DAV:  11    -0.107262761502E+03   -0.33677E-05   -0.10853E-07   120   0.111E-03    0.379E-04
DAV:  12    -0.107262767739E+03   -0.62366E-05   -0.30187E-07    96   0.120E-03    0.157E-04
DAV:  13    -0.107262769990E+03   -0.22513E-05   -0.94243E-08   108   0.662E-04    0.191E-04
DAV:  14    -0.107262771895E+03   -0.19048E-05   -0.40721E-08   108   0.511E-04    0.731E-05
DAV:  15    -0.107262772341E+03   -0.44566E-06   -0.54426E-09   120   0.255E-04
  23 F= -.10726277E+03 E0= -.10726277E+03  d E =-.246579E-10
 Finite differences progress:
  Degree of freedom:  11/ 78
  Displacement:        2/  2
  Total:              22/156
 bond charge predicted
       N       E                     dE             d eps       ncg     rms          rms(c)
DAV:   1    -0.107262521792E+03    0.25010E-03   -0.16950E-01    96   0.116E+00    0.189E-01
DAV:   2    -0.107263386786E+03   -0.86499E-03   -0.92218E-03   132   0.315E-01    0.979E-02
DAV:   3    -0.107263356859E+03    0.29927E-04   -0.29944E-04   132   0.659E-02    0.519E-02
DAV:   4    -0.107263364319E+03   -0.74599E-05   -0.11421E-04   132   0.422E-02    0.113E-02
DAV:   5    -0.107263360677E+03    0.36415E-05   -0.27825E-05   144   0.199E-02    0.851E-03
DAV:   6    -0.107263360419E+03    0.25816E-06   -0.41453E-06   156   0.633E-03
  24 F= -.10726336E+03 E0= -.10726336E+03  d E =-.252652E-10
 Finite differences progress:
  Degree of freedom:  12/ 78
  Displacement:        1/  2
  Total:              23/156
 bond charge predicted
       N       E                     dE             d eps       ncg     rms          rms(c)
DAV:   1    -0.107261530113E+03    0.18306E-02   -0.33935E-01    96   0.162E+00    0.265E-01
DAV:   2    -0.107263164898E+03   -0.16348E-02   -0.17395E-02   132   0.423E-01    0.133E-01
DAV:   3    -0.107263115660E+03    0.49238E-04   -0.57117E-04   132   0.876E-02    0.718E-02
DAV:   4    -0.107263135589E+03   -0.19929E-04   -0.19107E-04   120   0.534E-02    0.170E-02
DAV:   5    -0.107263131790E+03    0.37991E-05   -0.41356E-05   144   0.245E-02    0.111E-02
DAV:   6    -0.107263133368E+03   -0.15777E-05   -0.65295E-06   156   0.826E-03    0.764E-03
DAV:   7    -0.107263141060E+03   -0.76918E-05   -0.86875E-07   108   0.422E-03    0.247E-03
DAV:   8    -0.107263148832E+03   -0.77726E-05   -0.12933E-06   132   0.420E-03    0.157E-03
DAV:   9    -0.107263158441E+03   -0.96082E-05   -0.50934E-07   108   0.286E-03    0.861E-04
DAV:  10    -0.107263170442E+03   -0.12002E-04   -0.79171E-07   120   0.269E-03    0.107E-03
DAV:  11    -0.107263173759E+03   -0.33166E-05   -0.17116E-07   120   0.148E-03    0.893E-04
DAV:  12    -0.107263177011E+03   -0.32515E-05   -0.62230E-08    96   0.878E-04    0.463E-04
DAV:  13    -0.107263181356E+03   -0.43458E-05   -0.11909E-07    96   0.795E-04    0.255E-04
DAV:  14    -0.107263183577E+03   -0.22207E-05   -0.38148E-08   108   0.455E-04    0.216E-04
DAV:  15    -0.107263185165E+03   -0.15883E-05   -0.28254E-08    96   0.370E-04    0.880E-05
DAV:  16    -0.107263185753E+03   -0.58740E-06   -0.27658E-10   120   0.196E-04
  25 F= -.10726319E+03 E0= -.10726319E+03  d E =-.329567E-10
 Finite differences progress:
  Degree of freedom:  12/ 78
  Displacement:        2/  2
  Total:              24/156
 bond charge predicted
       N       E                     dE             d eps       ncg     rms          rms(c)
DAV:   1    -0.107261302360E+03    0.18828E-02   -0.16815E-01    96   0.128E+00    0.188E-01
DAV:   2    -0.107262512562E+03   -0.12102E-02   -0.12747E-02   144   0.387E-01    0.108E-01
DAV:   3    -0.107262447727E+03    0.64835E-04   -0.38463E-04   144   0.757E-02    0.606E-02
DAV:   4    -0.107262440165E+03    0.75623E-05   -0.15797E-04   120   0.463E-02    0.129E-02
DAV:   5    -0.107262432959E+03    0.72060E-05   -0.31229E-05   144   0.208E-02    0.892E-03
DAV:   6    -0.107262433347E+03   -0.38837E-06   -0.44814E-06   156   0.722E-03
  26 F= -.10726243E+03 E0= -.10726243E+03  d E =-.238987E-10
 Finite differences progress:
  Degree of freedom:  13/ 78
  Displacement:        1/  2
  Total:              25/156
 bond charge predicted
       N       E                     dE             d eps       ncg     rms          rms(c)
DAV:   1    -0.107260372548E+03    0.20604E-02   -0.34179E-01    96   0.163E+00    0.271E-01
DAV:   2    -0.107262553388E+03   -0.21808E-02   -0.23758E-02   132   0.488E-01    0.163E-01
DAV:   3    -0.107262404662E+03    0.14873E-03   -0.75154E-04   132   0.105E-01    0.835E-02
DAV:   4    -0.107262428110E+03   -0.23448E-04   -0.39286E-04   132   0.647E-02    0.179E-02
DAV:   5    -0.107262418913E+03    0.91976E-05   -0.49891E-05   132   0.241E-02    0.118E-02
DAV:   6    -0.107262418093E+03    0.81951E-06   -0.92082E-06   132   0.839E-03
  27 F= -.10726242E+03 E0= -.10726242E+03  d E =-.219489E-10
 Finite differences progress:
  Degree of freedom:  13/ 78
  Displacement:        2/  2
  Total:              26/156
 bond charge predicted
       N       E                     dE             d eps       ncg     rms          rms(c)
DAV:   1    -0.107262619842E+03   -0.20093E-03   -0.17453E-01    96   0.117E+00    0.195E-01
DAV:   2    -0.107263582312E+03   -0.96247E-03   -0.10631E-02   132   0.352E-01    0.107E-01
DAV:   3    -0.107263532329E+03    0.49983E-04   -0.34489E-04   144   0.740E-02    0.591E-02
DAV:   4    -0.107263556647E+03   -0.24318E-04   -0.15990E-04   132   0.457E-02    0.144E-02
DAV:   5    -0.107263555239E+03    0.14079E-05   -0.21774E-05   108   0.174E-02    0.852E-03
DAV:   6    -0.107263554014E+03    0.12247E-05   -0.35533E-06   144   0.617E-03    0.548E-03
DAV:   7    -0.107263555199E+03   -0.11852E-05   -0.49068E-07    96   0.301E-03    0.143E-03
DAV:   8    -0.107263556917E+03   -0.17174E-05   -0.30453E-07   120   0.218E-03    0.645E-04
DAV:   9    -0.107263559763E+03   -0.28460E-05   -0.18644E-07    84   0.151E-03    0.520E-04
DAV:  10    -0.107263563980E+03   -0.42168E-05   -0.29934E-07   108   0.142E-03    0.425E-04
DAV:  11    -0.107263564813E+03   -0.83366E-06   -0.47457E-08   108   0.735E-04
  28 F= -.10726356E+03 E0= -.10726356E+03  d E =-.308104E-10
 Finite differences progress:
  Degree of freedom:  14/ 78
  Displacement:        1/  2
  Total:              27/156
 bond charge predicted
       N       E                     dE             d eps       ncg     rms          rms(c)
DAV:   1    -0.107262235581E+03    0.13284E-02   -0.34612E-01    96   0.168E+00    0.269E-01
DAV:   2    -0.107263628749E+03   -0.13932E-02   -0.16028E-02   132   0.424E-01    0.117E-01
DAV:   3    -0.107263556657E+03    0.72092E-04   -0.65699E-04   132   0.928E-02    0.612E-02
DAV:   4    -0.107263569082E+03   -0.12425E-04   -0.16462E-04   132   0.457E-02    0.187E-02
DAV:   5    -0.107263566463E+03    0.26192E-05   -0.25091E-05   144   0.194E-02    0.101E-02
DAV:   6    -0.107263566766E+03   -0.30331E-06   -0.52926E-06   132   0.806E-03
  29 F= -.10726357E+03 E0= -.10726357E+03  d E =-.267132E-10
 Finite differences progress:
  Degree of freedom:  14/ 78
  Displacement:        2/  2
  Total:              28/156
 bond charge predicted
       N       E                     dE             d eps       ncg     rms          rms(c)
DAV:   1    -0.107262699816E+03    0.86665E-03   -0.17346E-01    96   0.119E+00    0.190E-01
DAV:   2    -0.107263416079E+03   -0.71626E-03   -0.81621E-03   132   0.302E-01    0.838E-02
DAV:   3    -0.107263383757E+03    0.32321E-04   -0.33550E-04   144   0.667E-02    0.442E-02
DAV:   4    -0.107263397356E+03   -0.13599E-04   -0.88375E-05   132   0.335E-02    0.137E-02
DAV:   5    -0.107263398135E+03   -0.77824E-06   -0.13120E-05   132   0.140E-02    0.742E-03
DAV:   6    -0.107263398943E+03   -0.80810E-06   -0.27590E-06   144   0.584E-03
  30 F= -.10726340E+03 E0= -.10726340E+03  d E =-.283733E-10
 Finite differences progress:
  Degree of freedom:  15/ 78
  Displacement:        1/  2
  Total:              29/156
 bond charge predicted
       N       E                     dE             d eps       ncg     rms          rms(c)
DAV:   1    -0.107261791810E+03    0.16063E-02   -0.34986E-01    96   0.165E+00    0.275E-01
DAV:   2    -0.107263308801E+03   -0.15170E-02   -0.17364E-02   132   0.446E-01    0.129E-01
DAV:   3    -0.107263231686E+03    0.77115E-04   -0.65491E-04   144   0.949E-02    0.727E-02
DAV:   4    -0.107263246809E+03   -0.15123E-04   -0.19118E-04   120   0.492E-02    0.219E-02
DAV:   5    -0.107263242210E+03    0.45994E-05   -0.26158E-05   144   0.194E-02    0.987E-03
DAV:   6    -0.107263241792E+03    0.41721E-06   -0.50102E-06   144   0.789E-03
  31 F= -.10726324E+03 E0= -.10726324E+03  d E =-.274170E-10
 Finite differences progress:
  Degree of freedom:  15/ 78
  Displacement:        2/  2
  Total:              30/156
 bond charge predicted
       N       E                     dE             d eps       ncg     rms          rms(c)
DAV:   1    -0.107262186426E+03    0.10558E-02   -0.17026E-01    96   0.125E+00    0.192E-01
DAV:   2    -0.107263256448E+03   -0.10700E-02   -0.11793E-02   132   0.368E-01    0.967E-02
DAV:   3    -0.107263195959E+03    0.60488E-04   -0.44938E-04   144   0.794E-02    0.532E-02
DAV:   4    -0.107263207382E+03   -0.11423E-04   -0.14055E-04   120   0.428E-02    0.148E-02
DAV:   5    -0.107263207983E+03   -0.60100E-06   -0.22658E-05   132   0.179E-02    0.889E-03
DAV:   6    -0.107263208276E+03   -0.29226E-06   -0.36412E-06   156   0.681E-03
  32 F= -.10726321E+03 E0= -.10726321E+03  d E =-.251874E-10
 Finite differences progress:
  Degree of freedom:  16/ 78
  Displacement:        1/  2
  Total:              31/156
 bond charge predicted
       N       E                     dE             d eps       ncg     rms          rms(c)
DAV:   1    -0.107261468680E+03    0.17393E-02   -0.34783E-01    96   0.168E+00    0.274E-01
DAV:   2    -0.107263165563E+03   -0.16969E-02   -0.18988E-02   132   0.462E-01    0.137E-01
DAV:   3    -0.107263071872E+03    0.93692E-04   -0.68230E-04   144   0.984E-02    0.754E-02
DAV:   4    -0.107263084508E+03   -0.12637E-04   -0.23434E-04   120   0.537E-02    0.215E-02
DAV:   5    -0.107263077826E+03    0.66819E-05   -0.32004E-05   144   0.211E-02    0.103E-02
DAV:   6    -0.107263077556E+03    0.27061E-06   -0.57681E-06   156   0.817E-03
  33 F= -.10726308E+03 E0= -.10726308E+03  d E =-.279134E-10
 Finite differences progress:
  Degree of freedom:  16/ 78
  Displacement:        2/  2
  Total:              32/156
 bond charge predicted
       N       E                     dE             d eps       ncg     rms          rms(c)
DAV:   1    -0.107261939255E+03    0.11386E-02   -0.17315E-01    96   0.118E+00    0.195E-01
DAV:   2    -0.107262606685E+03   -0.66743E-03   -0.77733E-03   132   0.300E-01    0.831E-02
DAV:   3    -0.107262574202E+03    0.32483E-04   -0.31935E-04   132   0.650E-02    0.444E-02
DAV:   4    -0.107262586963E+03   -0.12762E-04   -0.83928E-05   144   0.323E-02    0.140E-02
DAV:   5    -0.107262588682E+03   -0.17186E-05   -0.12914E-05   132   0.138E-02    0.711E-03
DAV:   6    -0.107262590626E+03   -0.19437E-05   -0.27352E-06   144   0.568E-03    0.410E-03
DAV:   7    -0.107262594381E+03   -0.37550E-05   -0.34928E-07    96   0.216E-03    0.107E-03
DAV:   8    -0.107262597420E+03   -0.30398E-05   -0.22551E-07   108   0.174E-03    0.577E-04
DAV:   9    -0.107262602209E+03   -0.47888E-05   -0.26883E-07    96   0.178E-03    0.321E-04
DAV:  10    -0.107262605069E+03   -0.28602E-05   -0.21255E-07   108   0.129E-03    0.344E-04
DAV:  11    -0.107262606110E+03   -0.10410E-05   -0.31489E-08   120   0.673E-04    0.219E-04
DAV:  12    -0.107262607384E+03   -0.12732E-05   -0.29007E-08    96   0.455E-04    0.851E-05
DAV:  13    -0.107262608353E+03   -0.96931E-06   -0.19649E-08   108   0.349E-04
  34 F= -.10726261E+03 E0= -.10726261E+03  d E =-.348876E-10
 Finite differences progress:
  Degree of freedom:  17/ 78
  Displacement:        1/  2
  Total:              33/156
 bond charge predicted
       N       E                     dE             d eps       ncg     rms          rms(c)
DAV:   1    -0.107260673015E+03    0.19344E-02   -0.34117E-01    96   0.165E+00    0.270E-01
DAV:   2    -0.107262741988E+03   -0.20690E-02   -0.22780E-02   132   0.485E-01    0.157E-01
DAV:   3    -0.107262582388E+03    0.15960E-03   -0.72371E-04   132   0.103E-01    0.807E-02
DAV:   4    -0.107262587926E+03   -0.55380E-05   -0.35725E-04   132   0.634E-02    0.185E-02
DAV:   5    -0.107262579260E+03    0.86655E-05   -0.47836E-05   132   0.241E-02    0.115E-02
DAV:   6    -0.107262580585E+03   -0.13247E-05   -0.87224E-06   144   0.858E-03    0.718E-03
DAV:   7    -0.107262591550E+03   -0.10965E-04   -0.10696E-06   108   0.398E-03    0.230E-03
DAV:   8    -0.107262602784E+03   -0.11234E-04   -0.98421E-07   120   0.354E-03    0.115E-03
DAV:   9    -0.107262615263E+03   -0.12479E-04   -0.68936E-07   120   0.241E-03    0.109E-03
DAV:  10    -0.107262633049E+03   -0.17786E-04   -0.11183E-06   108   0.228E-03    0.766E-04
DAV:  11    -0.107262636098E+03   -0.30491E-05   -0.77831E-08   120   0.984E-04    0.498E-04
DAV:  12    -0.107262641673E+03   -0.55746E-05   -0.11764E-07    96   0.924E-04    0.343E-04
DAV:  13    -0.107262645850E+03   -0.41765E-05   -0.11364E-07   108   0.733E-04    0.185E-04
DAV:  14    -0.107262648156E+03   -0.23065E-05   -0.29651E-08   108   0.429E-04    0.123E-04
DAV:  15    -0.107262649339E+03   -0.11833E-05   -0.10173E-08   108   0.286E-04    0.824E-05
DAV:  16    -0.107262649958E+03   -0.61896E-06    0.15581E-09   108   0.196E-04
  35 F= -.10726265E+03 E0= -.10726265E+03  d E =-.263220E-10
 Finite differences progress:
  Degree of freedom:  17/ 78
  Displacement:        2/  2
  Total:              34/156
 bond charge predicted
       N       E                     dE             d eps       ncg     rms          rms(c)
DAV:   1    -0.107262845197E+03   -0.19586E-03   -0.17470E-01    96   0.117E+00    0.191E-01
DAV:   2    -0.107263673369E+03   -0.82817E-03   -0.93450E-03   132   0.331E-01    0.953E-02
DAV:   3    -0.107263621153E+03    0.52216E-04   -0.33442E-04   132   0.705E-02    0.512E-02
DAV:   4    -0.107263625991E+03   -0.48382E-05   -0.12661E-04   120   0.400E-02    0.141E-02
DAV:   5    -0.107263622589E+03    0.34016E-05   -0.17460E-05   144   0.158E-02    0.791E-03
DAV:   6    -0.107263623452E+03   -0.86299E-06   -0.35809E-06   132   0.636E-03
  36 F= -.10726362E+03 E0= -.10726362E+03  d E =-.289797E-10
 Finite differences progress:
  Degree of freedom:  18/ 78
  Displacement:        1/  2
  Total:              35/156
 bond charge predicted
       N       E                     dE             d eps       ncg     rms          rms(c)
DAV:   1    -0.107262249099E+03    0.13735E-02   -0.35002E-01    96   0.162E+00    0.271E-01
DAV:   2    -0.107263562597E+03   -0.13135E-02   -0.15405E-02   132   0.416E-01    0.115E-01
DAV:   3    -0.107263508442E+03    0.54155E-04   -0.64020E-04   132   0.902E-02    0.637E-02
DAV:   4    -0.107263529249E+03   -0.20806E-04   -0.14238E-04   144   0.420E-02    0.213E-02
DAV:   5    -0.107263529882E+03   -0.63354E-06   -0.19100E-05   132   0.173E-02    0.923E-03
DAV:   6    -0.107263531183E+03   -0.13011E-05   -0.49121E-06   132   0.780E-03    0.532E-03
DAV:   7    -0.107263535470E+03   -0.42864E-05   -0.64817E-07   108   0.307E-03    0.121E-03
DAV:   8    -0.107263538942E+03   -0.34727E-05   -0.27995E-07   108   0.216E-03    0.766E-04
DAV:   9    -0.107263545981E+03   -0.70385E-05   -0.41245E-07   108   0.251E-03    0.391E-04
DAV:  10    -0.107263549456E+03   -0.34754E-05   -0.30234E-07   108   0.168E-03    0.387E-04
DAV:  11    -0.107263550563E+03   -0.11073E-05   -0.45925E-08   120   0.813E-04    0.343E-04
DAV:  12    -0.107263551781E+03   -0.12173E-05   -0.21059E-08    96   0.475E-04    0.191E-04
DAV:  13    -0.107263553876E+03   -0.20949E-05   -0.74360E-08    96   0.651E-04    0.200E-04
DAV:  14    -0.107263554273E+03   -0.39799E-06   -0.41337E-09   120   0.294E-04
  37 F= -.10726355E+03 E0= -.10726355E+03  d E =-.317990E-10
 Finite differences progress:
  Degree of freedom:  18/ 78
  Displacement:        2/  2
  Total:              36/156
 bond charge predicted
       N       E                     dE             d eps       ncg     rms          rms(c)
DAV:   1    -0.107262361357E+03    0.11925E-02   -0.16857E-01    96   0.123E+00    0.195E-01
DAV:   2    -0.107263374501E+03   -0.10131E-02   -0.10743E-02   132   0.347E-01    0.896E-02
DAV:   3    -0.107263330620E+03    0.43881E-04   -0.38090E-04   144   0.715E-02    0.491E-02
DAV:   4    -0.107263335869E+03   -0.52487E-05   -0.10651E-04   120   0.363E-02    0.131E-02
DAV:   5    -0.107263334234E+03    0.16346E-05   -0.16876E-05   132   0.154E-02    0.822E-03
DAV:   6    -0.107263334372E+03   -0.13788E-06   -0.29723E-06   132   0.616E-03
  38 F= -.10726333E+03 E0= -.10726333E+03  d E =-.240246E-10
 Finite differences progress:
  Degree of freedom:  19/ 78
  Displacement:        1/  2
  Total:              37/156
 bond charge predicted
       N       E                     dE             d eps       ncg     rms          rms(c)
DAV:   1    -0.107261694587E+03    0.16396E-02   -0.34740E-01    96   0.168E+00    0.273E-01
DAV:   2    -0.107263287153E+03   -0.15926E-02   -0.17975E-02   132   0.454E-01    0.131E-01
DAV:   3    -0.107263202040E+03    0.85113E-04   -0.66195E-04   132   0.970E-02    0.712E-02
DAV:   4    -0.107263217814E+03   -0.15774E-04   -0.21692E-04   120   0.524E-02    0.211E-02
DAV:   5    -0.107263211531E+03    0.62826E-05   -0.30944E-05   144   0.211E-02    0.103E-02
DAV:   6    -0.107263211687E+03   -0.15562E-06   -0.61886E-06   156   0.854E-03
  39 F= -.10726321E+03 E0= -.10726321E+03  d E =-.292373E-10
 Finite differences progress:
  Degree of freedom:  19/ 78
  Displacement:        2/  2
  Total:              38/156
 bond charge predicted
       N       E                     dE             d eps       ncg     rms          rms(c)
DAV:   1    -0.107261769617E+03    0.14419E-02   -0.17110E-01    96   0.119E+00    0.193E-01
DAV:   2    -0.107262845097E+03   -0.10755E-02   -0.11762E-02   132   0.350E-01    0.114E-01
DAV:   3    -0.107262772828E+03    0.72269E-04   -0.36872E-04   132   0.749E-02    0.582E-02
DAV:   4    -0.107262787671E+03   -0.14843E-04   -0.19526E-04   120   0.468E-02    0.128E-02
DAV:   5    -0.107262782833E+03    0.48375E-05   -0.25011E-05   132   0.177E-02    0.843E-03
DAV:   6    -0.107262781781E+03    0.10522E-05   -0.44787E-06   132   0.601E-03    0.540E-03
DAV:   7    -0.107262783835E+03   -0.20546E-05   -0.43477E-07    96   0.267E-03    0.181E-03
DAV:   8    -0.107262787037E+03   -0.32017E-05   -0.53001E-07   120   0.257E-03    0.767E-04
DAV:   9    -0.107262791000E+03   -0.39629E-05   -0.27015E-07    96   0.160E-03    0.729E-04
DAV:  10    -0.107262798000E+03   -0.70004E-05   -0.45649E-07   108   0.146E-03    0.555E-04
DAV:  11    -0.107262799450E+03   -0.14491E-05   -0.36275E-08   120   0.676E-04    0.378E-04
DAV:  12    -0.107262801961E+03   -0.25114E-05   -0.50698E-08    96   0.619E-04    0.232E-04
DAV:  13    -0.107262803993E+03   -0.20316E-05   -0.47534E-08   108   0.486E-04    0.122E-04
DAV:  14    -0.107262805372E+03   -0.13792E-05   -0.17028E-08   108   0.321E-04    0.851E-05
DAV:  15    -0.107262805978E+03   -0.60619E-06   -0.21570E-09   108   0.200E-04
  40 F= -.10726281E+03 E0= -.10726281E+03  d E =-.266784E-10
 Finite differences progress:
  Degree of freedom:  20/ 78
  Displacement:        1/  2
  Total:              39/156
 bond charge predicted
       N       E                     dE             d eps       ncg     rms          rms(c)
DAV:   1    -0.107260802888E+03    0.20025E-02   -0.34799E-01    96   0.165E+00    0.274E-01
DAV:   2    -0.107262795397E+03   -0.19925E-02   -0.21975E-02   120   0.477E-01    0.153E-01
DAV:   3    -0.107262658196E+03    0.13720E-03   -0.71436E-04   144   0.101E-01    0.849E-02
DAV:   4    -0.107262658187E+03    0.89995E-08   -0.29413E-04   120   0.579E-02    0.217E-02
DAV:   5    -0.107262651042E+03    0.71452E-05   -0.37638E-05   144   0.218E-02    0.108E-02
DAV:   6    -0.107262654220E+03   -0.31774E-05   -0.62844E-06   144   0.793E-03    0.683E-03
DAV:   7    -0.107262670143E+03   -0.15924E-04   -0.18440E-06   132   0.448E-03    0.159E-03
DAV:   8    -0.107262680240E+03   -0.10096E-04   -0.70686E-07   120   0.272E-03    0.119E-03
DAV:   9    -0.107262693067E+03   -0.12827E-04   -0.59387E-07   108   0.197E-03    0.689E-04
DAV:  10    -0.107262709487E+03   -0.16420E-04   -0.16504E-06   120   0.248E-03    0.599E-04
DAV:  11    -0.107262712673E+03   -0.31855E-05   -0.89249E-08   120   0.992E-04    0.389E-04
DAV:  12    -0.107262717985E+03   -0.53120E-05   -0.23535E-07    96   0.994E-04    0.244E-04
DAV:  13    -0.107262720261E+03   -0.22755E-05   -0.69257E-08   108   0.555E-04    0.157E-04
DAV:  14    -0.107262722207E+03   -0.19467E-05   -0.45189E-08    96   0.452E-04    0.863E-05
DAV:  15    -0.107262722824E+03   -0.61698E-06   -0.48776E-09   120   0.235E-04
  41 F= -.10726272E+03 E0= -.10726272E+03  d E =-.358073E-10
 Finite differences progress:
  Degree of freedom:  20/ 78
  Displacement:        2/  2
  Total:              40/156
 bond charge predicted
       N       E                     dE             d eps       ncg     rms          rms(c)
DAV:   1    -0.107262379348E+03    0.34286E-03   -0.17101E-01    96   0.117E+00    0.192E-01
DAV:   2    -0.107263448119E+03   -0.10688E-02   -0.11736E-02   132   0.352E-01    0.112E-01
[...]
DAV:   5    -0.952989922242E+02    0.14588E-05   -0.46495E-06   132   0.694E-03    0.600E-03
DAV:   6    -0.952989947126E+02   -0.24884E-05   -0.32187E-06   120   0.560E-03    0.149E-03
DAV:   7    -0.952989982149E+02   -0.35023E-05   -0.73329E-07   108   0.275E-03    0.897E-04
DAV:   8    -0.952990024561E+02   -0.42412E-05   -0.26954E-07    96   0.135E-03    0.521E-04
DAV:   9    -0.952990065027E+02   -0.40466E-05   -0.25283E-07    96   0.107E-03    0.235E-04
DAV:  10    -0.952990091696E+02   -0.26669E-05   -0.15615E-07    96   0.770E-04    0.229E-04
DAV:  11    -0.952990106848E+02   -0.15152E-05   -0.48842E-08    84   0.521E-04    0.931E-05
DAV:  12    -0.952990115542E+02   -0.86941E-06   -0.25024E-08    96   0.348E-04
 137 F= -.95299012E+02 E0= -.95299012E+02  d E =-.722151E-11
 Finite differences progress:
  Degree of freedom:  68/ 78
  Displacement:        2/  2
  Total:             136/156
 bond charge predicted
       N       E                     dE             d eps       ncg     rms          rms(c)
DAV:   1    -0.953001778632E+02   -0.11672E-02   -0.27274E-01   108   0.154E+00    0.142E-01
DAV:   2    -0.953000899523E+02    0.87911E-04   -0.19137E-03   108   0.131E-01    0.786E-02
DAV:   3    -0.952999900013E+02    0.99951E-04   -0.31561E-04   132   0.487E-02    0.179E-02
DAV:   4    -0.952999891122E+02    0.88907E-06   -0.54605E-05   120   0.223E-02    0.863E-03
DAV:   5    -0.952999881247E+02    0.98746E-06   -0.29675E-06   132   0.618E-03
 138 F= -.95299988E+02 E0= -.95299988E+02  d E =-.752337E-11
 Finite differences progress:
  Degree of freedom:  69/ 78
  Displacement:        1/  2
  Total:             137/156
 bond charge predicted
       N       E                     dE             d eps       ncg     rms          rms(c)
DAV:   1    -0.953002435115E+02   -0.25440E-03   -0.53198E-01    96   0.235E+00    0.172E-01
DAV:   2    -0.953001192703E+02    0.12424E-03   -0.25213E-03   108   0.148E-01    0.973E-02
DAV:   3    -0.952999941139E+02    0.12516E-03   -0.42217E-04   108   0.584E-02    0.166E-02
DAV:   4    -0.952999978215E+02   -0.37076E-05   -0.58781E-05   132   0.242E-02    0.867E-03
DAV:   5    -0.952999978128E+02    0.86661E-08   -0.34504E-06   132   0.642E-03
 139 F= -.95299998E+02 E0= -.95299998E+02  d E =-.667058E-11
 Finite differences progress:
  Degree of freedom:  69/ 78
  Displacement:        2/  2
  Total:             138/156
 bond charge predicted
       N       E                     dE             d eps       ncg     rms          rms(c)
DAV:   1    -0.952997663611E+02    0.23146E-03   -0.26771E-01    96   0.176E+00    0.124E-01
DAV:   2    -0.952997300562E+02    0.36305E-04   -0.14472E-03    96   0.116E-01    0.707E-02
DAV:   3    -0.952996630076E+02    0.67049E-04   -0.23566E-04   120   0.379E-02    0.125E-02
DAV:   4    -0.952996615769E+02    0.14307E-05   -0.22550E-05   132   0.142E-02    0.713E-03
DAV:   5    -0.952996602301E+02    0.13468E-05   -0.23241E-06   120   0.559E-03    0.344E-03
DAV:   6    -0.952996604110E+02   -0.18095E-06   -0.18266E-06   132   0.431E-03
 140 F= -.95299660E+02 E0= -.95299660E+02  d E =-.675335E-11
 Finite differences progress:
  Degree of freedom:  70/ 78
  Displacement:        1/  2
  Total:             139/156
 bond charge predicted
       N       E                     dE             d eps       ncg     rms          rms(c)
DAV:   1    -0.952999081737E+02   -0.24794E-03   -0.53457E-01    96   0.226E+00    0.181E-01
DAV:   2    -0.952997769949E+02    0.13118E-03   -0.26950E-03   108   0.149E-01    0.100E-01
DAV:   3    -0.952996182744E+02    0.15872E-03   -0.41882E-04   120   0.529E-02    0.201E-02
DAV:   4    -0.952996134124E+02    0.48619E-05   -0.52000E-05   120   0.219E-02    0.936E-03
DAV:   5    -0.952996135214E+02   -0.10893E-06   -0.49745E-06   132   0.769E-03
 141 F= -.95299614E+02 E0= -.95299614E+02  d E =-.688581E-11
 Finite differences progress:
  Degree of freedom:  70/ 78
  Displacement:        2/  2
  Total:             140/156
 bond charge predicted
       N       E                     dE             d eps       ncg     rms          rms(c)
DAV:   1    -0.952988288193E+02    0.78459E-03   -0.26483E-01    96   0.158E+00    0.111E-01
DAV:   2    -0.952987722283E+02    0.56591E-04   -0.10748E-03   120   0.959E-02    0.642E-02
DAV:   3    -0.952987199295E+02    0.52299E-04   -0.21189E-04   108   0.419E-02    0.805E-03
DAV:   4    -0.952987249047E+02   -0.49752E-05   -0.33558E-05   132   0.179E-02    0.564E-03
DAV:   5    -0.952987262834E+02   -0.13786E-05   -0.84182E-07   108   0.332E-03    0.356E-03
DAV:   6    -0.952987294919E+02   -0.32085E-05   -0.11823E-06   120   0.337E-03    0.586E-04
DAV:   7    -0.952987310427E+02   -0.15509E-05   -0.27359E-07   108   0.175E-03    0.502E-04
DAV:   8    -0.952987330877E+02   -0.20450E-05   -0.10618E-07    84   0.100E-03    0.261E-04
DAV:   9    -0.952987347297E+02   -0.16421E-05   -0.78549E-08   108   0.711E-04    0.147E-04
DAV:  10    -0.952987360657E+02   -0.13360E-05   -0.49634E-08    84   0.488E-04    0.107E-04
DAV:  11    -0.952987366908E+02   -0.62509E-06   -0.11244E-08   108   0.264E-04
 142 F= -.95298737E+02 E0= -.95298737E+02  d E =-.708106E-11
 Finite differences progress:
  Degree of freedom:  71/ 78
  Displacement:        1/  2
  Total:             141/156
 bond charge predicted
       N       E                     dE             d eps       ncg     rms          rms(c)
DAV:   1    -0.952989340941E+02   -0.19803E-03   -0.54537E-01   108   0.216E+00    0.199E-01
DAV:   2    -0.952987583505E+02    0.17574E-03   -0.39197E-03   108   0.177E-01    0.111E-01
DAV:   3    -0.952985551398E+02    0.20321E-03   -0.60796E-04   132   0.659E-02    0.258E-02
DAV:   4    -0.952985542506E+02    0.88917E-06   -0.11432E-04   108   0.299E-02    0.117E-02
DAV:   5    -0.952985523107E+02    0.19399E-05   -0.50988E-06   132   0.766E-03    0.618E-03
DAV:   6    -0.952985546031E+02   -0.22925E-05   -0.41005E-06   108   0.655E-03    0.176E-03
DAV:   7    -0.952985589165E+02   -0.43134E-05   -0.11712E-06   132   0.332E-03    0.116E-03
DAV:   8    -0.952985643834E+02   -0.54669E-05   -0.28630E-07    84   0.138E-03    0.568E-04
DAV:   9    -0.952985689127E+02   -0.45292E-05   -0.21533E-07   108   0.941E-04    0.300E-04
DAV:  10    -0.952985731296E+02   -0.42170E-05   -0.19185E-07    84   0.840E-04    0.261E-04
DAV:  11    -0.952985754315E+02   -0.23019E-05   -0.52939E-08   108   0.568E-04    0.117E-04
DAV:  12    -0.952985768874E+02   -0.14559E-05   -0.25719E-08    84   0.368E-04    0.831E-05
DAV:  13    -0.952985777225E+02   -0.83506E-06   -0.44771E-09   108   0.233E-04
 143 F= -.95298578E+02 E0= -.95298578E+02  d E =-.655500E-11
 Finite differences progress:
  Degree of freedom:  71/ 78
  Displacement:        2/  2
  Total:             142/156
 bond charge predicted
       N       E                     dE             d eps       ncg     rms          rms(c)
DAV:   1    -0.953007161271E+02   -0.21392E-02   -0.26895E-01    96   0.153E+00    0.127E-01
DAV:   2    -0.953006219193E+02    0.94208E-04   -0.14275E-03   108   0.122E-01    0.715E-02
DAV:   3    -0.953005404798E+02    0.81439E-04   -0.27250E-04   132   0.497E-02    0.123E-02
DAV:   4    -0.953005429666E+02   -0.24868E-05   -0.48661E-05   132   0.218E-02    0.737E-03
DAV:   5    -0.953005428526E+02    0.11399E-06   -0.17351E-06   132   0.456E-03
 144 F= -.95300543E+02 E0= -.95300543E+02  d E =-.642817E-11
 Finite differences progress:
  Degree of freedom:  72/ 78
  Displacement:        1/  2
  Total:             143/156
 bond charge predicted
       N       E                     dE             d eps       ncg     rms          rms(c)
DAV:   1    -0.953007196653E+02   -0.17670E-03   -0.52521E-01    96   0.242E+00    0.160E-01
DAV:   2    -0.953005795676E+02    0.14010E-03   -0.19848E-03   108   0.149E-01    0.921E-02
DAV:   3    -0.953004693080E+02    0.11026E-03   -0.37057E-04   120   0.599E-02    0.115E-02
DAV:   4    -0.953004761915E+02   -0.68835E-05   -0.59182E-05   132   0.250E-02    0.714E-03
DAV:   5    -0.953004773804E+02   -0.11889E-05   -0.20044E-06   132   0.487E-03    0.435E-03
DAV:   6    -0.953004803541E+02   -0.29737E-05   -0.14053E-06    96   0.386E-03    0.871E-04
DAV:   7    -0.953004824693E+02   -0.21152E-05   -0.34521E-07   108   0.206E-03    0.772E-04
DAV:   8    -0.953004854523E+02   -0.29830E-05   -0.16640E-07    84   0.172E-03    0.302E-04
DAV:   9    -0.953004877411E+02   -0.22888E-05   -0.16274E-07    96   0.131E-03    0.279E-04
DAV:  10    -0.953004896787E+02   -0.19376E-05   -0.74898E-08    84   0.798E-04    0.125E-04
DAV:  11    -0.953004905592E+02   -0.88044E-06   -0.21329E-08   108   0.365E-04
 145 F= -.95300491E+02 E0= -.95300491E+02  d E =-.679363E-11
 Finite differences progress:
  Degree of freedom:  72/ 78
  Displacement:        2/  2
  Total:             144/156
 bond charge predicted
       N       E                     dE             d eps       ncg     rms          rms(c)
DAV:   1    -0.952997355796E+02    0.75410E-03   -0.26639E-01    96   0.195E+00    0.120E-01
DAV:   2    -0.952996961248E+02    0.39455E-04   -0.15795E-03   108   0.145E-01    0.689E-02
DAV:   3    -0.952996310250E+02    0.65100E-04   -0.20537E-04   132   0.473E-02    0.138E-02
DAV:   4    -0.952996337809E+02   -0.27559E-05   -0.44856E-05   120   0.217E-02    0.653E-03
DAV:   5    -0.952996334743E+02    0.30658E-06   -0.15059E-06   108   0.471E-03
 146 F= -.95299633E+02 E0= -.95299633E+02  d E =-.681435E-11
 Finite differences progress:
  Degree of freedom:  73/ 78
  Displacement:        1/  2
  Total:             145/156
 bond charge predicted
       N       E                     dE             d eps       ncg     rms          rms(c)
DAV:   1    -0.953000581804E+02   -0.42440E-03   -0.53631E-01    96   0.235E+00    0.178E-01
DAV:   2    -0.952998889872E+02    0.16919E-03   -0.29432E-03   108   0.158E-01    0.101E-01
DAV:   3    -0.952997299256E+02    0.15906E-03   -0.52349E-04   120   0.629E-02    0.182E-02
DAV:   4    -0.952997339891E+02   -0.40635E-05   -0.86564E-05   132   0.287E-02    0.103E-02
DAV:   5    -0.952997333111E+02    0.67797E-06   -0.31777E-06   132   0.610E-03
 147 F= -.95299733E+02 E0= -.95299733E+02  d E =-.711805E-11
 Finite differences progress:
  Degree of freedom:  73/ 78
  Displacement:        2/  2
  Total:             146/156
 bond charge predicted
       N       E                     dE             d eps       ncg     rms          rms(c)
DAV:   1    -0.952987785887E+02    0.95540E-03   -0.26514E-01    96   0.166E+00    0.112E-01
DAV:   2    -0.952987122834E+02    0.66305E-04   -0.99582E-04   120   0.922E-02    0.642E-02
DAV:   3    -0.952986506953E+02    0.61588E-04   -0.18348E-04   120   0.380E-02    0.898E-03
DAV:   4    -0.952986535197E+02   -0.28244E-05   -0.25200E-05   132   0.158E-02    0.518E-03
DAV:   5    -0.952986550793E+02   -0.15596E-05   -0.10497E-06   108   0.370E-03    0.276E-03
DAV:   6    -0.952986579937E+02   -0.29144E-05   -0.91729E-07    96   0.297E-03    0.718E-04
DAV:   7    -0.952986606658E+02   -0.26721E-05   -0.21587E-07   108   0.161E-03    0.481E-04
DAV:   8    -0.952986638374E+02   -0.31716E-05   -0.20665E-07    96   0.131E-03    0.315E-04
DAV:   9    -0.952986660669E+02   -0.22295E-05   -0.10614E-07   108   0.848E-04    0.168E-04
DAV:  10    -0.952986682191E+02   -0.21522E-05   -0.96897E-08    84   0.651E-04    0.132E-04
DAV:  11    -0.952986689676E+02   -0.74844E-06   -0.15306E-08   108   0.330E-04
 148 F= -.95298669E+02 E0= -.95298669E+02  d E =-.675120E-11
 Finite differences progress:
  Degree of freedom:  74/ 78
  Displacement:        1/  2
  Total:             147/156
 bond charge predicted
       N       E                     dE             d eps       ncg     rms          rms(c)
DAV:   1    -0.952988563046E+02   -0.18809E-03   -0.54565E-01   108   0.223E+00    0.205E-01
DAV:   2    -0.952987493006E+02    0.10700E-03   -0.39496E-03   108   0.173E-01    0.110E-01
DAV:   3    -0.952985571036E+02    0.19220E-03   -0.47649E-04   132   0.550E-02    0.314E-02
DAV:   4    -0.952985439910E+02    0.13113E-04   -0.87385E-05   132   0.251E-02    0.103E-02
DAV:   5    -0.952985412380E+02    0.27530E-05   -0.75721E-06   132   0.994E-03    0.426E-03
DAV:   6    -0.952985440779E+02   -0.28399E-05   -0.38778E-06   132   0.617E-03    0.201E-03
DAV:   7    -0.952985492330E+02   -0.51551E-05   -0.76033E-07   108   0.291E-03    0.107E-03
DAV:   8    -0.952985547095E+02   -0.54765E-05   -0.37278E-07    84   0.210E-03    0.720E-04
DAV:   9    -0.952985622746E+02   -0.75651E-05   -0.52360E-07    84   0.184E-03    0.309E-04
DAV:  10    -0.952985668877E+02   -0.46131E-05   -0.23502E-07   108   0.116E-03    0.208E-04
DAV:  11    -0.952985692507E+02   -0.23630E-05   -0.31011E-08   108   0.479E-04    0.140E-04
DAV:  12    -0.952985723896E+02   -0.31388E-05   -0.78139E-08    84   0.543E-04    0.733E-05
DAV:  13    -0.952985729517E+02   -0.56211E-06   -0.45305E-09   108   0.221E-04
 149 F= -.95298573E+02 E0= -.95298573E+02  d E =-.723059E-11
 Finite differences progress:
  Degree of freedom:  74/ 78
  Displacement:        2/  2
  Total:             148/156
 bond charge predicted
       N       E                     dE             d eps       ncg     rms          rms(c)
DAV:   1    -0.953006923884E+02   -0.21200E-02   -0.26730E-01    96   0.157E+00    0.127E-01
DAV:   2    -0.953006076645E+02    0.84724E-04   -0.13523E-03   108   0.124E-01    0.716E-02
DAV:   3    -0.953005292118E+02    0.78453E-04   -0.24487E-04   132   0.456E-02    0.129E-02
DAV:   4    -0.953005300890E+02   -0.87717E-06   -0.36204E-05   132   0.192E-02    0.696E-03
DAV:   5    -0.953005303929E+02   -0.30387E-06   -0.20226E-06   132   0.499E-03
 150 F= -.95300530E+02 E0= -.95300530E+02  d E =-.663193E-11
 Finite differences progress:
  Degree of freedom:  75/ 78
  Displacement:        1/  2
  Total:             149/156
 bond charge predicted
       N       E                     dE             d eps       ncg     rms          rms(c)
DAV:   1    -0.953007201254E+02   -0.19004E-03   -0.52411E-01    96   0.244E+00    0.160E-01
DAV:   2    -0.953005771838E+02    0.14294E-03   -0.19882E-03   108   0.150E-01    0.921E-02
DAV:   3    -0.953004656281E+02    0.11156E-03   -0.36627E-04   120   0.598E-02    0.116E-02
DAV:   4    -0.953004728822E+02   -0.72541E-05   -0.58776E-05   132   0.248E-02    0.712E-03
DAV:   5    -0.953004745414E+02   -0.16592E-05   -0.20223E-06   132   0.489E-03    0.433E-03
DAV:   6    -0.953004784890E+02   -0.39476E-05   -0.14017E-06   108   0.385E-03    0.888E-04
DAV:   7    -0.953004813486E+02   -0.28596E-05   -0.35794E-07   108   0.207E-03    0.784E-04
DAV:   8    -0.953004853995E+02   -0.40509E-05   -0.21092E-07    84   0.181E-03    0.303E-04
DAV:   9    -0.953004882782E+02   -0.28786E-05   -0.20263E-07   108   0.136E-03    0.296E-04
DAV:  10    -0.953004906044E+02   -0.23262E-05   -0.90419E-08    96   0.850E-04    0.133E-04
DAV:  11    -0.953004916759E+02   -0.10715E-05   -0.30153E-08   108   0.405E-04    0.109E-04
DAV:  12    -0.953004924433E+02   -0.76745E-06   -0.14920E-08   108   0.306E-04
 151 F= -.95300492E+02 E0= -.95300492E+02  d E =-.695543E-11
 Finite differences progress:
  Degree of freedom:  75/ 78
  Displacement:        2/  2
  Total:             150/156
 bond charge predicted
       N       E                     dE             d eps       ncg     rms          rms(c)
DAV:   1    -0.952985372744E+02    0.19544E-02   -0.26652E-01   108   0.178E+00    0.130E-01
DAV:   2    -0.952984784251E+02    0.58849E-04   -0.18246E-03    96   0.132E-01    0.715E-02
DAV:   3    -0.952983952507E+02    0.83174E-04   -0.22750E-04   132   0.466E-02    0.179E-02
DAV:   4    -0.952983966313E+02   -0.13806E-05   -0.56891E-05   132   0.222E-02    0.699E-03
DAV:   5    -0.952983967787E+02   -0.14741E-06   -0.23064E-06   132   0.541E-03
 152 F= -.95298397E+02 E0= -.95298397E+02  d E =-.695504E-11
 Finite differences progress:
  Degree of freedom:  76/ 78
  Displacement:        1/  2
  Total:             151/156
 bond charge predicted
       N       E                     dE             d eps       ncg     rms          rms(c)
DAV:   1    -0.952986283859E+02   -0.23175E-03   -0.54480E-01   108   0.213E+00    0.207E-01
DAV:   2    -0.952984858199E+02    0.14257E-03   -0.42316E-03   120   0.183E-01    0.114E-01
DAV:   3    -0.952982825541E+02    0.20327E-03   -0.58070E-04   108   0.646E-02    0.291E-02
DAV:   4    -0.952982793918E+02    0.31623E-05   -0.11836E-04   132   0.302E-02    0.118E-02
DAV:   5    -0.952982766835E+02    0.27083E-05   -0.54811E-06   132   0.823E-03    0.615E-03
DAV:   6    -0.952982774328E+02   -0.74925E-06   -0.44839E-06   108   0.696E-03
 153 F= -.95298277E+02 E0= -.95298277E+02  d E =-.686280E-11
 Finite differences progress:
  Degree of freedom:  76/ 78
  Displacement:        2/  2
  Total:             152/156
 bond charge predicted
       N       E                     dE             d eps       ncg     rms          rms(c)
DAV:   1    -0.953005467424E+02   -0.22701E-02   -0.26866E-01    96   0.153E+00    0.138E-01
DAV:   2    -0.953004717897E+02    0.74953E-04   -0.16820E-03   108   0.123E-01    0.764E-02
DAV:   3    -0.953003907088E+02    0.81081E-04   -0.26448E-04   108   0.414E-02    0.162E-02
DAV:   4    -0.953003891012E+02    0.16076E-05   -0.31651E-05   132   0.170E-02    0.750E-03
DAV:   5    -0.953003877037E+02    0.13975E-05   -0.33113E-06   108   0.627E-03    0.311E-03
DAV:   6    -0.953003886921E+02   -0.98842E-06   -0.16872E-06   132   0.391E-03
 154 F= -.95300389E+02 E0= -.95300389E+02  d E =-.673565E-11
 Finite differences progress:
  Degree of freedom:  77/ 78
  Displacement:        1/  2
  Total:             153/156
 bond charge predicted
       N       E                     dE             d eps       ncg     rms          rms(c)
DAV:   1    -0.953007258827E+02   -0.33818E-03   -0.53117E-01    96   0.229E+00    0.162E-01
DAV:   2    -0.953006032828E+02    0.12260E-03   -0.20162E-03   108   0.136E-01    0.925E-02
DAV:   3    -0.953004920986E+02    0.11118E-03   -0.35982E-04   120   0.524E-02    0.145E-02
DAV:   4    -0.953004948370E+02   -0.27384E-05   -0.50090E-05   120   0.216E-02    0.702E-03
DAV:   5    -0.953004943963E+02    0.44070E-06   -0.23252E-06   132   0.529E-03
 155 F= -.95300494E+02 E0= -.95300494E+02  d E =-.697440E-11
 Finite differences progress:
  Degree of freedom:  77/ 78
  Displacement:        2/  2
  Total:             154/156
 bond charge predicted
       N       E                     dE             d eps       ncg     rms          rms(c)
DAV:   1    -0.953001704701E+02    0.32437E-03   -0.26432E-01    96   0.159E+00    0.116E-01
DAV:   2    -0.953000973086E+02    0.73162E-04   -0.10472E-03   108   0.999E-02    0.667E-02
DAV:   3    -0.953000436268E+02    0.53682E-04   -0.20365E-04   120   0.443E-02    0.836E-03
DAV:   4    -0.953000478637E+02   -0.42368E-05   -0.36313E-05   132   0.194E-02    0.555E-03
DAV:   5    -0.953000482759E+02   -0.41224E-06   -0.84394E-07   108   0.346E-03
 156 F= -.95300048E+02 E0= -.95300048E+02  d E =-.726044E-11
 Finite differences progress:
  Degree of freedom:  78/ 78
  Displacement:        1/  2
  Total:             155/156
 bond charge predicted
       N       E                     dE             d eps       ncg     rms          rms(c)
DAV:   1    -0.953002454531E+02   -0.19759E-03   -0.52905E-01    96   0.236E+00    0.172E-01
DAV:   2    -0.953001209995E+02    0.12445E-03   -0.25240E-03   108   0.150E-01    0.972E-02
DAV:   3    -0.952999855553E+02    0.13544E-03   -0.41412E-04   120   0.582E-02    0.165E-02
DAV:   4    -0.952999870724E+02   -0.15171E-05   -0.57594E-05   132   0.241E-02    0.860E-03
DAV:   5    -0.952999872066E+02   -0.13413E-06   -0.34371E-06   132   0.651E-03
 157 F= -.95299987E+02 E0= -.95299987E+02  d E =-.642286E-11
 Finite differences progress:
  Degree of freedom:  78/ 78
  Displacement:        2/  2
  Total:             156/156
 Finite differences POTIM=  2.000000000000000E-002
