<?xml version="1.0" encoding="ISO-8859-1"?>
<modeling>
 <generator>
  <i name="program" type="string">vasp </i>
  <i name="version" type="string">5.4.4.18Apr17-6-g9f103f2a35  </i>
  <i name="subversion" type="string">(build Nov 06 2017 19:16:10) complex            parallel </i>
  <i name="platform" type="string">IFC91_ompi </i>
  <i name="date" type="string">2018 07 22 </i>
  <i name="time" type="string">01:37:56 </i>
 </generator>
 <incar>
  <i type="string" name="SYSTEM">SiGe</i>
  <i type="string" name="PREC">normal</i>
  <i type="int" name="IBRION">     5</i>
  <i type="int" name="NFREE">     2</i>
  <i name="EDIFF">      0.00000100</i>
  <i name="EDIFFG">     -0.01000000</i>
  <i type="int" name="NSW">   300</i>
  <i type="int" name="ISIF">     2</i>
  <i name="ENCUT">    400.00000000</i>
  <i name="POTIM">      0.02000000</i>
  <i type="logical" name="LREAL"> F  </i>
  <i type="int" name="ISMEAR">     0</i>
  <i type="logical" name="LWAVE"> F  </i>
  <i type="logical" name="LCHARG"> F  </i>
  <v type="int" name="KPOINT_BSE">    -1     0     0     0</v>
 </incar>
 <structure name="primitive_cell" >
  <crystal>
   <varray name="basis" >
    <v>      20.00000000       0.00000000       0.00000000 </v>
    <v>       0.00000000      20.00000000       0.00000000 </v>
    <v>       0.00000000       0.00000000      20.00000000 </v>
   </varray>
   <i name="volume">   8000.00000000 </i>
   <varray name="rec_basis" >
    <v>       0.05000000       0.00000000       0.00000000 </v>
    <v>       0.00000000       0.05000000       0.00000000 </v>
    <v>       0.00000000       0.00000000       0.05000000 </v>
   </varray>
  </crystal>
  <varray name="positions" >
   <v>       0.47503036      -0.44306123       0.38140194 </v>
   <v>       0.46485790      -0.42717483       0.30555231 </v>
   <v>       0.36592944      -0.46076271       0.43475413 </v>
   <v>      -0.45689907       0.45552626       0.39343748 </v>
   <v>      -0.46784643      -0.34906484       0.43585993 </v>
   <v>       0.32857317       0.48038627       0.39995539 </v>
   <v>       0.32170920      -0.39714242       0.42655148 </v>
   <v>      -0.49200830       0.39561055       0.35812103 </v>
   <v>       0.49003551      -0.28403327       0.42767519 </v>
   <v>      -0.38782786       0.46561763       0.35881407 </v>
   <v>      -0.39890798      -0.33650447       0.40178574 </v>
   <v>       0.38163696      -0.48574267      -0.44611552 </v>
   <v>      -0.45175518      -0.37378614      -0.44500154 </v>
   <v>      -0.44078084       0.43033867      -0.48752205 </v>
   <v>       0.44991965       0.41294145      -0.43448194 </v>
   <v>      -0.38386083      -0.47536641      -0.43336848 </v>
   <v>       0.43897575      -0.39164607      -0.39205476 </v>
   <v>      -0.31386871      -0.46440854      -0.46581445 </v>
   <v>       0.41363126       0.35248570      -0.46762917 </v>
   <v>       0.39568539      -0.32714207      -0.39807079 </v>
   <v>       0.31207437      -0.49698298      -0.41229451 </v>
   <v>      -0.41537683      -0.31384078      -0.41047060 </v>
   <v>      -0.39741652       0.36573806      -0.48002979 </v>
   <v>       0.44831950      -0.40631548      -0.31611530 </v>
   <v>       0.45940372       0.39580801      -0.35907468 </v>
   <v>      -0.37226363      -0.49107769      -0.35794809 </v>
  </varray>
 </structure>
 <varray name="primitive_index" >
  <v type="int" >        1 </v>
  <v type="int" >       18 </v>
  <v type="int" >        2 </v>
  <v type="int" >        3 </v>
  <v type="int" >        4 </v>
  <v type="int" >       23 </v>
  <v type="int" >       24 </v>
  <v type="int" >       17 </v>
  <v type="int" >       25 </v>
  <v type="int" >       16 </v>
  <v type="int" >       26 </v>
  <v type="int" >        5 </v>
  <v type="int" >        7 </v>
  <v type="int" >        6 </v>
  <v type="int" >        9 </v>
  <v type="int" >        8 </v>
  <v type="int" >       10 </v>
  <v type="int" >       14 </v>
  <v type="int" >       11 </v>
  <v type="int" >       21 </v>
  <v type="int" >       22 </v>
  <v type="int" >       19 </v>
  <v type="int" >       13 </v>
  <v type="int" >       20 </v>
  <v type="int" >       12 </v>
  <v type="int" >       15 </v>
 </varray>
 <kpoints>
  <generation param="Gamma">
   <v type="int" name="divisions">       1        1        1 </v>
   <v name="usershift">      0.00000000       0.00000000       0.00000000 </v>
   <v name="genvec1">      1.00000000       0.00000000       0.00000000 </v>
   <v name="genvec2">      0.00000000       1.00000000       0.00000000 </v>
   <v name="genvec3">      0.00000000       0.00000000       1.00000000 </v>
   <v name="shift">      0.00000000       0.00000000       0.00000000 </v>
  </generation>
  <varray name="kpointlist" >
   <v>       0.00000000       0.00000000       0.00000000 </v>
  </varray>
  <varray name="weights" >
   <v>       1.00000000 </v>
  </varray>
 </kpoints>
 <parameters>
  <separator name="general" >
   <i type="string" name="SYSTEM">SiGe</i>
   <i type="logical" name="LCOMPAT"> F  </i>
  </separator>
  <separator name="electronic" >
   <i type="string" name="PREC">normal</i>
   <i name="ENMAX">    400.00000000</i>
   <i name="ENAUG">    400.00000000</i>
   <i name="EDIFF">      0.00000100</i>
   <i type="int" name="IALGO">    38</i>
   <i type="int" name="IWAVPR">    11</i>
   <i type="int" name="NBANDS">    48</i>
   <i name="NELECT">     56.00000000</i>
   <i type="int" name="TURBO">     0</i>
   <i type="int" name="IRESTART">     0</i>
   <i type="int" name="NREBOOT">     0</i>
   <i type="int" name="NMIN">     0</i>
   <i name="EREF">      0.00000000</i>
   <separator name="electronic smearing" >
    <i type="int" name="ISMEAR">     0</i>
    <i name="SIGMA">      0.20000000</i>
    <i name="KSPACING">      0.50000000</i>
    <i type="logical" name="KGAMMA"> T  </i>
   </separator>
   <separator name="electronic projectors" >
    <i type="logical" name="LREAL"> F  </i>
    <v name="ROPT">      0.00000000      0.00000000</v>
    <i type="int" name="LMAXPAW">  -100</i>
    <i type="int" name="LMAXMIX">     2</i>
    <i type="logical" name="NLSPLINE"> F  </i>
   </separator>
   <separator name="electronic startup" >
    <i type="int" name="ISTART">     0</i>
    <i type="int" name="ICHARG">     2</i>
    <i type="int" name="INIWAV">     1</i>
   </separator>
   <separator name="electronic spin" >
    <i type="int" name="ISPIN">     1</i>
    <i type="logical" name="LNONCOLLINEAR"> F  </i>
    <v name="MAGMOM">      1.00000000      1.00000000      1.00000000      1.00000000      1.00000000      1.00000000      1.00000000      1.00000000      1.00000000      1.00000000      1.00000000      1.00000000      1.00000000      1.00000000      1.00000000      1.00000000      1.00000000      1.00000000      1.00000000      1.00000000
      1.00000000      1.00000000      1.00000000      1.00000000      1.00000000      1.00000000</v>
    <i name="NUPDOWN">     -1.00000000</i>
    <i type="logical" name="LSORBIT"> F  </i>
    <v name="SAXIS">      0.00000000      0.00000000      1.00000000</v>
    <i type="logical" name="LSPIRAL"> F  </i>
    <v name="QSPIRAL">      0.00000000      0.00000000      0.00000000</v>
    <i type="logical" name="LZEROZ"> F  </i>
   </separator>
   <separator name="electronic exchange-correlation" >
    <i type="logical" name="LASPH"> F  </i>
    <i type="logical" name="LMETAGGA"> F  </i>
   </separator>
   <separator name="electronic convergence" >
    <i type="int" name="NELM">    60</i>
    <i type="int" name="NELMDL">    -5</i>
    <i type="int" name="NELMIN">     2</i>
    <i name="ENINI">    400.00000000</i>
    <separator name="electronic convergence detail" >
     <i type="logical" name="LDIAG"> T  </i>
     <i type="logical" name="LSUBROT"> F  </i>
     <i name="WEIMIN">      0.00100000</i>
     <i name="EBREAK">      0.00000001</i>
     <i name="DEPER">      0.30000000</i>
     <i type="int" name="NRMM">     4</i>
     <i name="TIME">      0.40000000</i>
    </separator>
   </separator>
   <separator name="electronic mixer" >
    <i name="AMIX">      0.40000000</i>
    <i name="BMIX">      1.00000000</i>
    <i name="AMIN">      0.10000000</i>
    <i name="AMIX_MAG">      1.60000000</i>
    <i name="BMIX_MAG">      1.00000000</i>
    <separator name="electronic mixer details" >
     <i type="int" name="IMIX">     4</i>
     <i type="logical" name="MIXFIRST"> F  </i>
     <i type="int" name="MAXMIX">   -45</i>
     <i name="WC">    100.00000000</i>
     <i type="int" name="INIMIX">     1</i>
     <i type="int" name="MIXPRE">     1</i>
     <i type="int" name="MREMOVE">     5</i>
    </separator>
   </separator>
   <separator name="electronic dipolcorrection" >
    <i type="logical" name="LDIPOL"> F  </i>
    <i type="logical" name="LMONO"> F  </i>
    <i type="int" name="IDIPOL">     0</i>
    <i name="EPSILON">      1.00000000</i>
    <v name="DIPOL">   -100.00000000   -100.00000000   -100.00000000</v>
    <i name="EFIELD">      0.00000000</i>
   </separator>
  </separator>
  <separator name="grids" >
   <i type="int" name="NGX">    98</i>
   <i type="int" name="NGY">    98</i>
   <i type="int" name="NGZ">    98</i>
   <i type="int" name="NGXF">   196</i>
   <i type="int" name="NGYF">   196</i>
   <i type="int" name="NGZF">   196</i>
   <i type="logical" name="ADDGRID"> F  </i>
  </separator>
  <separator name="ionic" >
   <i type="int" name="NSW">   349</i>
   <i type="int" name="IBRION">     5</i>
   <i type="int" name="MDALGO">     0</i>
   <i type="int" name="ISIF">     2</i>
   <i name="PSTRESS">      0.00000000</i>
   <i name="EDIFFG">     -0.01000000</i>
   <i type="int" name="NFREE">     2</i>
   <i name="POTIM">      0.02000000</i>
   <i name="SMASS">     -3.00000000</i>
   <i name="SCALEE">      1.00000000</i>
  </separator>
  <separator name="ionic md" >
   <i name="TEBEG">      0.00010000</i>
   <i name="TEEND">      0.00010000</i>
   <i type="int" name="NBLOCK">     1</i>
   <i type="int" name="KBLOCK">   349</i>
   <i type="int" name="NPACO">   256</i>
   <i name="APACO">     16.00000000</i>
  </separator>
  <separator name="symmetry" >
   <i type="int" name="ISYM">     2</i>
   <i name="SYMPREC">      0.00001000</i>
  </separator>
  <separator name="dos" >
   <i type="int" name="LORBIT">     0</i>
   <v name="RWIGS">     -1.00000000     -1.00000000</v>
   <i type="int" name="NEDOS">   301</i>
   <i name="EMIN">     10.00000000</i>
   <i name="EMAX">    -10.00000000</i>
   <i name="EFERMI">      0.00000000</i>
  </separator>
  <separator name="writing" >
   <i type="int" name="NWRITE">     2</i>
   <i type="logical" name="LWAVE"> F  </i>
   <i type="logical" name="LDOWNSAMPLE"> F  </i>
   <i type="logical" name="LCHARG"> F  </i>
   <i type="logical" name="LPARD"> F  </i>
   <i type="logical" name="LVTOT"> F  </i>
   <i type="logical" name="LVHAR"> F  </i>
   <i type="logical" name="LELF"> F  </i>
   <i type="logical" name="LOPTICS"> F  </i>
   <v name="STM">      0.00000000      0.00000000      0.00000000      0.00000000      0.00000000      0.00000000      0.00000000</v>
  </separator>
  <separator name="performance" >
   <i type="int" name="NPAR">    12</i>
   <i type="int" name="NSIM">     4</i>
   <i type="int" name="NBLK">    -1</i>
   <i type="logical" name="LPLANE"> T  </i>
   <i type="logical" name="LSCALAPACK"> T  </i>
   <i type="logical" name="LSCAAWARE"> F  </i>
   <i type="logical" name="LSCALU"> F  </i>
   <i type="logical" name="LASYNC"> F  </i>
   <i type="logical" name="LORBITALREAL"> F  </i>
  </separator>
  <separator name="miscellaneous" >
   <i type="int" name="IDIOT">     3</i>
   <i type="int" name="ISPECIAL">     0</i>
   <i type="logical" name="LMUSIC"> F  </i>
   <v name="POMASS">     72.61000000      1.00000000</v>
   <v name="DARWINR">      0.00000000      0.00000000</v>
   <v name="DARWINV">      1.00000000      1.00000000</v>
   <i type="logical" name="LCORR"> T  </i>
  </separator>
  <i type="logical" name="GGA_COMPAT"> T  </i>
  <i type="logical" name="LBERRY"> F  </i>
  <i type="int" name="ICORELEVEL">     0</i>
  <i type="logical" name="LDAU"> F  </i>
  <i type="int" name="I_CONSTRAINED_M">     0</i>
  <separator name="electronic exchange-correlation" >
   <i type="string" name="GGA">--</i>
   <i type="int" name="VOSKOWN">     0</i>
   <i type="logical" name="LHFCALC"> F  </i>
   <i type="string" name="PRECFOCK"></i>
   <i type="logical" name="LSYMGRAD"> F  </i>
   <i type="logical" name="LHFONE"> F  </i>
   <i type="logical" name="LRHFCALC"> F  </i>
   <i type="logical" name="LTHOMAS"> F  </i>
   <i type="logical" name="LMODELHF"> F  </i>
   <i name="ENCUT4O">     -1.00000000</i>
   <i type="int" name="EXXOEP">     0</i>
   <i type="int" name="FOURORBIT">     0</i>
   <i name="AEXX">      0.00000000</i>
   <i name="HFALPHA">      0.00000000</i>
   <i name="MCALPHA">      0.00000000</i>
   <i name="ALDAX">      1.00000000</i>
   <i name="AGGAX">      1.00000000</i>
   <i name="ALDAC">      1.00000000</i>
   <i name="AGGAC">      1.00000000</i>
   <i type="int" name="NKREDX">     1</i>
   <i type="int" name="NKREDY">     1</i>
   <i type="int" name="NKREDZ">     1</i>
   <i type="logical" name="SHIFTRED"> F  </i>
   <i type="logical" name="ODDONLY"> F  </i>
   <i type="logical" name="EVENONLY"> F  </i>
   <i type="int" name="LMAXFOCK">     0</i>
   <i type="int" name="NMAXFOCKAE">     0</i>
   <i type="logical" name="LFOCKAEDFT"> F  </i>
   <i name="HFSCREEN">      0.00000000</i>
   <i name="HFSCREENC">      0.00000000</i>
   <i type="int" name="NBANDSGWLOW">     0</i>
  </separator>
  <separator name="vdW DFT" >
   <i type="logical" name="LUSE_VDW"> F  </i>
   <i name="Zab_VDW">     -0.84910000</i>
   <i name="PARAM1">      0.12340000</i>
   <i name="PARAM2">      1.00000000</i>
   <i name="PARAM3">      0.00000000</i>
  </separator>
  <separator name="model GW" >
   <i type="int" name="MODEL_GW">     0</i>
   <i name="MODEL_EPS0">    184.61538462</i>
   <i name="MODEL_ALPHA">      1.00000000</i>
  </separator>
  <separator name="linear response parameters" >
   <i type="logical" name="LEPSILON"> F  </i>
   <i type="logical" name="LRPA"> F  </i>
   <i type="logical" name="LNABLA"> F  </i>
   <i type="logical" name="LVEL"> F  </i>
   <i type="int" name="KINTER">     0</i>
   <i name="CSHIFT">      0.10000000</i>
   <i name="OMEGAMAX">     -1.00000000</i>
   <i name="DEG_THRESHOLD">      0.00200000</i>
   <i name="RTIME">     -0.10000000</i>
   <i name="WPLASMAI">      0.00000000</i>
   <v name="DFIELD">      0.00000000      0.00000000      0.00000000</v>
   <v name="WPLASMA">      0.00000000      0.00000000      0.00000000      0.00000000      0.00000000      0.00000000      0.00000000      0.00000000      0.00000000</v>
  </separator>
  <separator name="orbital magnetization" >
   <i type="logical" name="NUCIND"> F  </i>
   <v name="MAGPOS">      0.00000000      0.00000000      0.00000000</v>
   <i type="logical" name="LNICSALL"> T  </i>
   <i type="logical" name="ORBITALMAG"> F  </i>
   <i type="logical" name="LMAGBLOCH"> F  </i>
   <i type="logical" name="LCHIMAG"> F  </i>
   <i type="logical" name="LGAUGE"> T  </i>
   <i type="int" name="MAGATOM">     0</i>
   <v name="MAGDIPOL">      0.00000000      0.00000000      0.00000000</v>
   <v name="AVECCONST">      0.00000000      0.00000000      0.00000000</v>
  </separator>
  <separator name="response functions" >
   <i type="logical" name="LADDER"> F  </i>
   <i type="logical" name="LRPAFORCE"> F  </i>
   <i type="logical" name="LFXC"> F  </i>
   <i type="logical" name="LHARTREE"> T  </i>
   <i type="int" name="IBSE">     0</i>
   <v type="int" name="KPOINT">    -1     0     0     0</v>
   <i type="logical" name="LTCTE"> F  </i>
   <i type="logical" name="LTETE"> F  </i>
   <i type="logical" name="LTRIPLET"> F  </i>
   <i type="logical" name="LFXCEPS"> F  </i>
   <i type="logical" name="LFXHEG"> F  </i>
   <i type="int" name="NATURALO">     2</i>
   <i type="logical" name="L2ORDER"> F  </i>
   <i type="logical" name="LMP2LT"> F  </i>
   <i type="logical" name="LUSEW"> F  </i>
   <i name="ENCUTGW">     -2.00000000</i>
   <i name="ENCUTGWSOFT">     -2.00000000</i>
   <i name="ENCUTLF">     -1.00000000</i>
   <i type="int" name="LMAXMP2">    -1</i>
   <i name="SCISSOR">      0.00000000</i>
   <i type="int" name="NOMEGA">     0</i>
   <i type="int" name="NOMEGAR">     0</i>
   <i type="int" name="NBANDSGW">    -1</i>
   <i type="int" name="NBANDSO">    -1</i>
   <i type="int" name="NBANDSV">    -1</i>
   <i type="int" name="NELM">     1</i>
   <i type="int" name="NELMHF">     1</i>
   <i type="int" name="DIM">     3</i>
   <i type="int" name="ANTIRES">     0</i>
   <i name="OMEGAMAX">    -30.00000000</i>
   <i name="OMEGAMIN">    -30.00000000</i>
   <i name="OMEGATL">   -200.00000000</i>
   <i type="int" name="OMEGAGRID">   140</i>
   <i name="CSHIFT">     -0.10000000</i>
   <i type="logical" name="SELFENERGY"> F  </i>
   <i type="logical" name="LSPECTRAL"> F  </i>
   <i type="logical" name="LSPECTRALGW"> F  </i>
   <i type="logical" name="LSINGLES"> F  </i>
   <i type="logical" name="LFERMIGW"> F  </i>
   <i type="logical" name="ODDONLYGW"> F  </i>
   <i type="logical" name="EVENONLYGW"> F  </i>
   <i type="int" name="NKREDLFX">     1</i>
   <i type="int" name="NKREDLFY">     1</i>
   <i type="int" name="NKREDLFZ">     1</i>
   <i type="int" name="MAXMEM">  2800</i>
   <i type="int" name="TELESCOPE">     0</i>
   <i type="int" name="TAUPAR">     1</i>
   <i type="int" name="OMEGAPAR">    -1</i>
   <i name="LAMBDA">      1.00000000</i>
  </separator>
  <separator name="External order field" >
   <i name="OFIELD_KAPPA">      0.00000000</i>
   <v name="OFIELD_K">      0.00000000      0.00000000      0.00000000</v>
   <i name="OFIELD_Q6_NEAR">      0.00000000</i>
   <i name="OFIELD_Q6_FAR">      0.00000000</i>
   <i name="OFIELD_A">      0.00000000</i>
  </separator>
 </parameters>
 <atominfo>
  <atoms>      26 </atoms>
  <types>       2 </types>
  <array name="atoms" >
   <dimension dim="1">ion</dimension>
   <field type="string">element</field>
   <field type="int">atomtype</field>
   <set>
    <rc><c>Ge</c><c>   1</c></rc>
    <rc><c>Ge</c><c>   1</c></rc>
    <rc><c>Ge</c><c>   1</c></rc>
    <rc><c>Ge</c><c>   1</c></rc>
    <rc><c>Ge</c><c>   1</c></rc>
    <rc><c>Ge</c><c>   1</c></rc>
    <rc><c>Ge</c><c>   1</c></rc>
    <rc><c>Ge</c><c>   1</c></rc>
    <rc><c>Ge</c><c>   1</c></rc>
    <rc><c>Ge</c><c>   1</c></rc>
    <rc><c>H </c><c>   2</c></rc>
    <rc><c>H </c><c>   2</c></rc>
    <rc><c>H </c><c>   2</c></rc>
    <rc><c>H </c><c>   2</c></rc>
    <rc><c>H </c><c>   2</c></rc>
    <rc><c>H </c><c>   2</c></rc>
    <rc><c>H </c><c>   2</c></rc>
    <rc><c>H </c><c>   2</c></rc>
    <rc><c>H </c><c>   2</c></rc>
    <rc><c>H </c><c>   2</c></rc>
    <rc><c>H </c><c>   2</c></rc>
    <rc><c>H </c><c>   2</c></rc>
    <rc><c>H </c><c>   2</c></rc>
    <rc><c>H </c><c>   2</c></rc>
    <rc><c>H </c><c>   2</c></rc>
    <rc><c>H </c><c>   2</c></rc>
   </set>
  </array>
  <array name="atomtypes" >
   <dimension dim="1">type</dimension>
   <field type="int">atomspertype</field>
   <field type="string">element</field>
   <field>mass</field>
   <field>valence</field>
   <field type="string">pseudopotential</field>
   <set>
    <rc><c>  10</c><c>Ge</c><c>     72.61000000</c><c>      4.00000000</c><c>  PAW_PBE Ge 05Jan2001                  </c></rc>
    <rc><c>  16</c><c>H </c><c>      1.00000000</c><c>      1.00000000</c><c>  PAW_PBE H 15Jun2001                   </c></rc>
   </set>
  </array>
 </atominfo>
 <structure name="initialpos" >
  <crystal>
   <varray name="basis" >
    <v>      20.00000000       0.00000000       0.00000000 </v>
    <v>       0.00000000      20.00000000       0.00000000 </v>
    <v>       0.00000000       0.00000000      20.00000000 </v>
   </varray>
   <i name="volume">   8000.00000000 </i>
   <varray name="rec_basis" >
    <v>       0.05000000       0.00000000       0.00000000 </v>
    <v>       0.00000000       0.05000000       0.00000000 </v>
    <v>       0.00000000       0.00000000       0.05000000 </v>
   </varray>
  </crystal>
  <varray name="positions" >
   <v>       0.47503036       0.55693877       0.38140194 </v>
   <v>       0.36592944       0.53923729       0.43475413 </v>
   <v>       0.54310093       0.45552626       0.39343748 </v>
   <v>       0.53215357       0.65093516       0.43585993 </v>
   <v>       0.38163696       0.51425733       0.55388448 </v>
   <v>       0.55921916       0.43033867       0.51247795 </v>
   <v>       0.54824482       0.62621386       0.55499846 </v>
   <v>       0.61613917       0.52463359       0.56663152 </v>
   <v>       0.44991965       0.41294145       0.56551806 </v>
   <v>       0.43897575       0.60835393       0.60794524 </v>
   <v>       0.41363126       0.35248570       0.53237083 </v>
   <v>       0.45940372       0.39580801       0.64092532 </v>
   <v>       0.60258348       0.36573806       0.51997021 </v>
   <v>       0.68613129       0.53559146       0.53418555 </v>
   <v>       0.62773637       0.50892231       0.64205191 </v>
   <v>       0.61217214       0.46561763       0.35881407 </v>
   <v>       0.50799170       0.39561055       0.35812103 </v>
   <v>       0.46485790       0.57282517       0.30555231 </v>
   <v>       0.58462317       0.68615922       0.58952940 </v>
   <v>       0.44831950       0.59368452       0.68388470 </v>
   <v>       0.39568539       0.67285793       0.60192921 </v>
   <v>       0.31207437       0.50301702       0.58770549 </v>
   <v>       0.32857317       0.48038627       0.39995539 </v>
   <v>       0.32170920       0.60285758       0.42655148 </v>
   <v>       0.49003551       0.71596673       0.42767519 </v>
   <v>       0.60109202       0.66349553       0.40178574 </v>
  </varray>
 </structure>
 <calculation>
  <scstep>
   <time name="dav">   21.28   21.31</time>
   <time name="total">   23.10   23.14</time>
   <energy>
    <i name="alphaZ">      3.61766629 </i>
    <i name="ewald">   2504.43630309 </i>
    <i name="hartreedc">  -3320.52984284 </i>
    <i name="XCdc">    -42.22066529 </i>
    <i name="pawpsdc">    915.59639097 </i>
    <i name="pawaedc">   -770.86273399 </i>
    <i name="eentropy">     -0.40021194 </i>
    <i name="bandstr">   -285.54309026 </i>
    <i name="atom">   1249.61482235 </i>
    <i name="e_fr_energy">    253.70863837 </i>
    <i name="e_wo_entrp">    254.10885031 </i>
    <i name="e_0_energy">    253.90874434 </i>
   </energy>
  </scstep>
  <scstep>
   <time name="dav">   26.66   26.95</time>
   <time name="total">   26.66   26.95</time>
   <energy>
    <i name="e_fr_energy">    -15.56547831 </i>
    <i name="e_wo_entrp">    -15.56547831 </i>
    <i name="e_0_energy">    -15.56547831 </i>
   </energy>
  </scstep>
  <scstep>
   <time name="dav">   21.54   21.54</time>
   <time name="total">   21.54   21.54</time>
   <energy>
    <i name="e_fr_energy">    -95.87747937 </i>
    <i name="e_wo_entrp">    -95.87747937 </i>
    <i name="e_0_energy">    -95.87747937 </i>
   </energy>
  </scstep>
  <scstep>
   <time name="dav">   23.28   23.29</time>
   <time name="total">   23.28   23.29</time>
   <energy>
    <i name="e_fr_energy">    -99.76876946 </i>
    <i name="e_wo_entrp">    -99.76876946 </i>
    <i name="e_0_energy">    -99.76876946 </i>
   </energy>
  </scstep>
  <scstep>
   <time name="dav">   23.25   23.26</time>
   <time name="total">   23.82   23.83</time>
   <energy>
    <i name="e_fr_energy">    -99.80790221 </i>
    <i name="e_wo_entrp">    -99.80790221 </i>
    <i name="e_0_energy">    -99.80790221 </i>
   </energy>
  </scstep>
  <scstep>
   <time name="dav">   23.28   23.28</time>
   <time name="total">   25.60   25.61</time>
   <energy>
    <i name="e_fr_energy">    -96.84542392 </i>
    <i name="e_wo_entrp">    -96.84542392 </i>
    <i name="e_0_energy">    -96.84542392 </i>
   </energy>
  </scstep>
  <scstep>
   <time name="dav">   21.56   21.56</time>
   <time name="total">   24.01   24.02</time>
   <energy>
    <i name="e_fr_energy">    -95.38151354 </i>
    <i name="e_wo_entrp">    -95.38151354 </i>
    <i name="e_0_energy">    -95.38151354 </i>
   </energy>
  </scstep>
  <scstep>
   <time name="dav">   23.26   23.26</time>
   <time name="total">   25.61   25.61</time>
   <energy>
    <i name="e_fr_energy">    -95.31484783 </i>
    <i name="e_wo_entrp">    -95.31484783 </i>
    <i name="e_0_energy">    -95.31484783 </i>
   </energy>
  </scstep>
  <scstep>
   <time name="dav">   24.99   24.99</time>
   <time name="total">   27.34   27.34</time>
   <energy>
    <i name="e_fr_energy">    -95.28260743 </i>
    <i name="e_wo_entrp">    -95.28260743 </i>
    <i name="e_0_energy">    -95.28260743 </i>
   </energy>
  </scstep>
  <scstep>
   <time name="dav">   21.55   21.55</time>
   <time name="total">   23.92   23.93</time>
   <energy>
    <i name="e_fr_energy">    -95.28106900 </i>
    <i name="e_wo_entrp">    -95.28106900 </i>
    <i name="e_0_energy">    -95.28106900 </i>
   </energy>
  </scstep>
  <scstep>
   <time name="dav">   23.30   23.30</time>
   <time name="total">   25.68   25.67</time>
   <energy>
    <i name="e_fr_energy">    -95.28116052 </i>
    <i name="e_wo_entrp">    -95.28116052 </i>
    <i name="e_0_energy">    -95.28116052 </i>
   </energy>
  </scstep>
  <scstep>
   <time name="dav">   23.26   23.26</time>
   <time name="total">   25.64   25.64</time>
   <energy>
    <i name="e_fr_energy">    -95.28808386 </i>
    <i name="e_wo_entrp">    -95.28808386 </i>
    <i name="e_0_energy">    -95.28808386 </i>
   </energy>
  </scstep>
  <scstep>
   <time name="dav">   23.26   23.26</time>
   <time name="total">   25.96   25.96</time>
   <energy>
    <i name="e_fr_energy">    -95.29148435 </i>
    <i name="e_wo_entrp">    -95.29148435 </i>
    <i name="e_0_energy">    -95.29148435 </i>
   </energy>
  </scstep>
  <scstep>
   <time name="dav">   23.26   23.25</time>
   <time name="total">   25.63   25.63</time>
   <energy>
    <i name="e_fr_energy">    -95.29590719 </i>
    <i name="e_wo_entrp">    -95.29590719 </i>
    <i name="e_0_energy">    -95.29590719 </i>
   </energy>
  </scstep>
  <scstep>
   <time name="dav">   23.26   23.26</time>
   <time name="total">   25.64   25.64</time>
   <energy>
    <i name="e_fr_energy">    -95.29826888 </i>
    <i name="e_wo_entrp">    -95.29826888 </i>
    <i name="e_0_energy">    -95.29826888 </i>
   </energy>
  </scstep>
  <scstep>
   <time name="dav">   23.25   23.25</time>
   <time name="total">   25.94   25.94</time>
   <energy>
    <i name="e_fr_energy">    -95.29990959 </i>
    <i name="e_wo_entrp">    -95.29990959 </i>
    <i name="e_0_energy">    -95.29990959 </i>
   </energy>
  </scstep>
  <scstep>
   <time name="dav">   23.25   23.25</time>
   <time name="total">   25.65   25.65</time>
   <energy>
    <i name="e_fr_energy">    -95.30039470 </i>
    <i name="e_wo_entrp">    -95.30039470 </i>
    <i name="e_0_energy">    -95.30039470 </i>
   </energy>
  </scstep>
  <scstep>
   <time name="dav">   23.29   23.29</time>
   <time name="total">   25.70   25.70</time>
   <energy>
    <i name="e_fr_energy">    -95.30067261 </i>
    <i name="e_wo_entrp">    -95.30067261 </i>
    <i name="e_0_energy">    -95.30067261 </i>
   </energy>
  </scstep>
  <scstep>
   <time name="dav">   19.86   19.86</time>
   <time name="total">   22.54   22.55</time>
   <energy>
    <i name="e_fr_energy">    -95.30072206 </i>
    <i name="e_wo_entrp">    -95.30072206 </i>
    <i name="e_0_energy">    -95.30072206 </i>
   </energy>
  </scstep>
  <scstep>
   <time name="dav">   21.55   21.55</time>
   <time name="total">   23.98   23.98</time>
   <energy>
    <i name="e_fr_energy">    -95.30077892 </i>
    <i name="e_wo_entrp">    -95.30077892 </i>
    <i name="e_0_energy">    -95.30077892 </i>
   </energy>
  </scstep>
  <scstep>
   <time name="dav">   19.88   19.88</time>
   <time name="total">   22.33   22.32</time>
   <energy>
    <i name="e_fr_energy">    -95.30078603 </i>
    <i name="e_wo_entrp">    -95.30078603 </i>
    <i name="e_0_energy">    -95.30078603 </i>
   </energy>
  </scstep>
  <scstep>
   <time name="dav">   19.87   19.87</time>
   <time name="total">   22.37   22.38</time>
   <energy>
    <i name="e_fr_energy">    -95.30079471 </i>
    <i name="e_wo_entrp">    -95.30079471 </i>
    <i name="e_0_energy">    -95.30079471 </i>
   </energy>
  </scstep>
  <scstep>
   <time name="dav">   19.88   19.88</time>
   <time name="total">   22.36   22.36</time>
   <energy>
    <i name="e_fr_energy">    -95.30079589 </i>
    <i name="e_wo_entrp">    -95.30079589 </i>
    <i name="e_0_energy">    -95.30079589 </i>
   </energy>
  </scstep>
  <scstep>
   <time name="dav">   19.89   19.88</time>
   <time name="total">   22.38   22.38</time>
   <energy>
    <i name="e_fr_energy">    -95.30079751 </i>
    <i name="e_wo_entrp">    -95.30079751 </i>
    <i name="e_0_energy">    -95.30079751 </i>
   </energy>
  </scstep>
  <scstep>
   <time name="dav">   19.86   19.87</time>
   <time name="total">   21.68   21.68</time>
   <energy>
    <i name="alphaZ">      3.61766629 </i>
    <i name="ewald">   2504.43630309 </i>
    <i name="hartreedc">  -3432.55588790 </i>
    <i name="XCdc">    -32.07306576 </i>
    <i name="pawpsdc">   2773.67511389 </i>
    <i name="pawaedc">  -2631.13823439 </i>
    <i name="eentropy">     -0.00000000 </i>
    <i name="bandstr">   -530.87751546 </i>
    <i name="atom">   1249.61482235 </i>
    <i name="e_fr_energy">    -95.30079790 </i>
    <i name="e_wo_entrp">    -95.30079790 </i>
    <i name="e_0_energy">    -95.30079790 </i>
   </energy>
  </scstep>
  <structure>
   <crystal>
    <varray name="basis" >
     <v>      20.00000000       0.00000000       0.00000000 </v>
     <v>       0.00000000      20.00000000       0.00000000 </v>
     <v>       0.00000000       0.00000000      20.00000000 </v>
    </varray>
    <i name="volume">   8000.00000000 </i>
    <varray name="rec_basis" >
     <v>       0.05000000       0.00000000       0.00000000 </v>
     <v>       0.00000000       0.05000000       0.00000000 </v>
     <v>       0.00000000       0.00000000       0.05000000 </v>
    </varray>
   </crystal>
   <varray name="positions" >
    <v>       0.47503036       0.55693877       0.38140194 </v>
    <v>       0.36592944       0.53923729       0.43475413 </v>
    <v>       0.54310093       0.45552626       0.39343748 </v>
    <v>       0.53215357       0.65093516       0.43585993 </v>
    <v>       0.38163696       0.51425733       0.55388448 </v>
    <v>       0.55921916       0.43033867       0.51247795 </v>
    <v>       0.54824482       0.62621386       0.55499846 </v>
    <v>       0.61613917       0.52463359       0.56663152 </v>
    <v>       0.44991965       0.41294145       0.56551806 </v>
    <v>       0.43897575       0.60835393       0.60794524 </v>
    <v>       0.41363126       0.35248570       0.53237083 </v>
    <v>       0.45940372       0.39580801       0.64092532 </v>
    <v>       0.60258348       0.36573806       0.51997021 </v>
    <v>       0.68613129       0.53559146       0.53418555 </v>
    <v>       0.62773637       0.50892231       0.64205191 </v>
    <v>       0.61217214       0.46561763       0.35881407 </v>
    <v>       0.50799170       0.39561055       0.35812103 </v>
    <v>       0.46485790       0.57282517       0.30555231 </v>
    <v>       0.58462317       0.68615922       0.58952940 </v>
    <v>       0.44831950       0.59368452       0.68388470 </v>
    <v>       0.39568539       0.67285793       0.60192921 </v>
    <v>       0.31207437       0.50301702       0.58770549 </v>
    <v>       0.32857317       0.48038627       0.39995539 </v>
    <v>       0.32170920       0.60285758       0.42655148 </v>
    <v>       0.49003551       0.71596673       0.42767519 </v>
    <v>       0.60109202       0.66349553       0.40178574 </v>
   </varray>
  </structure>
  <varray name="forces" >
   <v>       0.00107998       0.00015624       0.00121559 </v>
   <v>      -0.00263283       0.00093691      -0.00120116 </v>
   <v>       0.00356961      -0.00080868      -0.00171945 </v>
   <v>       0.00226548       0.00180595      -0.00153331 </v>
   <v>       0.00117428       0.00080346      -0.00029344 </v>
   <v>       0.00078926       0.00113818      -0.00078981 </v>
   <v>       0.00041653      -0.00135039      -0.00151017 </v>
   <v>       0.00430601       0.00032649      -0.00151048 </v>
   <v>      -0.00106196      -0.00279567       0.00002960 </v>
   <v>      -0.00291996       0.00288164       0.00004412 </v>
   <v>      -0.00060070       0.00018615      -0.00265763 </v>
   <v>       0.00126727       0.00148285       0.00293185 </v>
   <v>      -0.00066549       0.00071830       0.00012522 </v>
   <v>      -0.00206764       0.00024045      -0.00117164 </v>
   <v>      -0.00178373      -0.00047063       0.00330641 </v>
   <v>      -0.00021878       0.00147330       0.00147843 </v>
   <v>      -0.00283050      -0.00158946       0.00034059 </v>
   <v>      -0.00032197      -0.00005090      -0.00060961 </v>
   <v>       0.00012531       0.00056981       0.00034075 </v>
   <v>       0.00199226      -0.00271367       0.00243730 </v>
   <v>      -0.00000134       0.00006012      -0.00209000 </v>
   <v>      -0.00073045      -0.00008754       0.00017272 </v>
   <v>       0.00049247      -0.00320465      -0.00057064 </v>
   <v>       0.00065451       0.00210338       0.00127208 </v>
   <v>      -0.00269260       0.00047371       0.00107954 </v>
   <v>       0.00039499      -0.00228534       0.00088316 </v>
  </varray>
  <varray name="stress" >
   <v>      -0.17197809      -0.00021868       0.00065477 </v>
   <v>      -0.00021869      -0.17111561      -0.00040051 </v>
   <v>       0.00065476      -0.00040051      -0.17075502 </v>
  </varray>
  <energy>
   <i name="e_fr_energy">    -95.30079790 </i>
   <i name="e_wo_entrp">    -95.30079790 </i>
   <i name="e_0_energy">     -0.00000000 </i>
  </energy>
  <kpoints>
   <generation param="Gamma">
    <v type="int" name="divisions">       1        1        1 </v>
    <v name="usershift">      0.00000000       0.00000000       0.00000000 </v>
    <v name="genvec1">      1.00000000       0.00000000       0.00000000 </v>
    <v name="genvec2">      0.00000000       1.00000000       0.00000000 </v>
    <v name="genvec3">      0.00000000       0.00000000       1.00000000 </v>
    <v name="shift">      0.00000000       0.00000000       0.00000000 </v>
   </generation>
   <varray name="kpointlist" >
    <v>       0.00000000       0.00000000       0.00000000 </v>
   </varray>
   <varray name="weights" >
    <v>       1.00000000 </v>
   </varray>
  </kpoints>
  <time name="totalsc">  645.16  645.55</time>
 </calculation>
 <calculation>
  <scstep>
   <time name="dav">   21.54   21.55</time>
   <time name="total">   23.89   23.92</time>
   <energy>
    <i name="alphaZ">      3.61766629 </i>
    <i name="ewald">   2504.66722977 </i>
    <i name="hartreedc">  -3432.78685356 </i>
    <i name="XCdc">    -32.07251658 </i>
    <i name="pawpsdc">   2773.67400509 </i>
    <i name="pawaedc">  -2631.13712457 </i>
    <i name="eentropy">     -0.00000000 </i>
    <i name="bandstr">   -530.87508162 </i>
    <i name="atom">   1249.61482235 </i>
    <i name="e_fr_energy">    -95.29785283 </i>
    <i name="e_wo_entrp">    -95.29785283 </i>
    <i name="e_0_energy">    -95.29785283 </i>
   </energy>
  </scstep>
  <scstep>
   <time name="dav">   23.26   23.27</time>
   <time name="total">   25.64   25.65</time>
   <energy>
    <i name="e_fr_energy">    -95.29814920 </i>
    <i name="e_wo_entrp">    -95.29814920 </i>
    <i name="e_0_energy">    -95.29814920 </i>
   </energy>
  </scstep>
  <scstep>
   <time name="dav">   23.30   23.30</time>
   <time name="total">   25.65   25.66</time>
   <energy>
    <i name="e_fr_energy">    -95.29813897 </i>
    <i name="e_wo_entrp">    -95.29813897 </i>
    <i name="e_0_energy">    -95.29813897 </i>
   </energy>
  </scstep>
  <scstep>
   <time name="dav">   23.30   23.32</time>
   <time name="total">   25.66   25.67</time>
   <energy>
    <i name="e_fr_energy">    -95.29813404 </i>
    <i name="e_wo_entrp">    -95.29813404 </i>
    <i name="e_0_energy">    -95.29813404 </i>
   </energy>
  </scstep>
  <scstep>
   <time name="dav">   23.31   23.33</time>
   <time name="total">   25.11   25.13</time>
   <energy>
    <i name="alphaZ">      3.61766629 </i>
    <i name="ewald">   2504.66722977 </i>
    <i name="hartreedc">  -3432.77488330 </i>
    <i name="XCdc">    -32.07369332 </i>
    <i name="pawpsdc">   2773.82652824 </i>
    <i name="pawaedc">  -2631.28971193 </i>
    <i name="eentropy">     -0.00000000 </i>
    <i name="bandstr">   -530.88609140 </i>
    <i name="atom">   1249.61482235 </i>
    <i name="e_fr_energy">    -95.29813330 </i>
    <i name="e_wo_entrp">    -95.29813330 </i>
    <i name="e_0_energy">    -95.29813330 </i>
   </energy>
  </scstep>
  <structure>
   <crystal>
    <varray name="basis" >
     <v>      20.00000000       0.00000000       0.00000000 </v>
     <v>       0.00000000      20.00000000       0.00000000 </v>
     <v>       0.00000000       0.00000000      20.00000000 </v>
    </varray>
    <i name="volume">   8000.00000000 </i>
    <varray name="rec_basis" >
     <v>       0.05000000       0.00000000       0.00000000 </v>
     <v>       0.00000000       0.05000000       0.00000000 </v>
     <v>       0.00000000       0.00000000       0.05000000 </v>
    </varray>
   </crystal>
   <varray name="positions" >
    <v>       0.47603036       0.55693877       0.38140194 </v>
    <v>       0.36592944       0.53923729       0.43475413 </v>
    <v>       0.54310093       0.45552626       0.39343748 </v>
    <v>       0.53215357       0.65093516       0.43585993 </v>
    <v>       0.38163696       0.51425733       0.55388448 </v>
    <v>       0.55921916       0.43033867       0.51247795 </v>
    <v>       0.54824482       0.62621386       0.55499846 </v>
    <v>       0.61613917       0.52463359       0.56663152 </v>
    <v>       0.44991965       0.41294145       0.56551806 </v>
    <v>       0.43897575       0.60835393       0.60794524 </v>
    <v>       0.41363126       0.35248570       0.53237083 </v>
    <v>       0.45940372       0.39580801       0.64092532 </v>
    <v>       0.60258348       0.36573806       0.51997021 </v>
    <v>       0.68613129       0.53559146       0.53418555 </v>
    <v>       0.62773637       0.50892231       0.64205191 </v>
    <v>       0.61217214       0.46561763       0.35881407 </v>
    <v>       0.50799170       0.39561055       0.35812103 </v>
    <v>       0.46485790       0.57282517       0.30555231 </v>
    <v>       0.58462317       0.68615922       0.58952940 </v>
    <v>       0.44831950       0.59368452       0.68388470 </v>
    <v>       0.39568539       0.67285793       0.60192921 </v>
    <v>       0.31207437       0.50301702       0.58770549 </v>
    <v>       0.32857317       0.48038627       0.39995539 </v>
    <v>       0.32170920       0.60285758       0.42655148 </v>
    <v>       0.49003551       0.71596673       0.42767519 </v>
    <v>       0.60109202       0.66349553       0.40178574 </v>
   </varray>
  </structure>
  <varray name="forces" >
   <v>      -0.26536359       0.00560881      -0.02096466 </v>
   <v>       0.12179498       0.01580657      -0.04398127 </v>
   <v>       0.06832056      -0.06283620       0.00255731 </v>
   <v>       0.05463158       0.05085440       0.02399724 </v>
   <v>      -0.00605883       0.00170120      -0.00589015 </v>
   <v>      -0.00032514       0.00069126       0.00327595 </v>
   <v>      -0.00059167      -0.00216297       0.00180691 </v>
   <v>       0.00556871       0.00092587      -0.00268127 </v>
   <v>      -0.00440738      -0.00046780       0.00140877 </v>
   <v>      -0.00566864      -0.00014514       0.00033973 </v>
   <v>       0.00020531      -0.00025591      -0.00292255 </v>
   <v>       0.00297403       0.00042474       0.00267417 </v>
   <v>      -0.00073936       0.00163696      -0.00239260 </v>
   <v>      -0.00208519       0.00017763      -0.00111737 </v>
   <v>      -0.00234915      -0.00054355       0.00292115 </v>
   <v>       0.00544675      -0.00808684       0.00305367 </v>
   <v>      -0.00732464       0.00776366      -0.00016894 </v>
   <v>       0.02657153      -0.00735133       0.03413648 </v>
   <v>       0.00020165       0.00067713      -0.00180587 </v>
   <v>       0.00344659      -0.00150864       0.00273882 </v>
   <v>       0.00069040       0.00062213      -0.00214614 </v>
   <v>      -0.00022827      -0.00140269       0.00623424 </v>
   <v>       0.00272694      -0.00420343      -0.00281083 </v>
   <v>       0.00394313       0.00432736      -0.00091393 </v>
   <v>      -0.00675798      -0.00885534      -0.00383133 </v>
   <v>       0.00537765       0.00660212       0.00648247 </v>
  </varray>
  <varray name="stress" >
   <v>      -0.19563082      -0.01203336       0.02800969 </v>
   <v>      -0.01203337      -0.13372483       0.01132499 </v>
   <v>       0.02800968       0.01132497      -0.18354906 </v>
  </varray>
  <energy>
   <i name="e_fr_energy">    -95.29813330 </i>
   <i name="e_wo_entrp">    -95.29813330 </i>
   <i name="e_0_energy">     -0.00000000 </i>
  </energy>
  <kpoints>
   <generation param="Gamma">
    <v type="int" name="divisions">       1        1        1 </v>
    <v name="usershift">      0.00000000       0.00000000       0.00000000 </v>
    <v name="genvec1">      1.00000000       0.00000000       0.00000000 </v>
    <v name="genvec2">      0.00000000       1.00000000       0.00000000 </v>
    <v name="genvec3">      0.00000000       0.00000000       1.00000000 </v>
    <v name="shift">      0.00000000       0.00000000       0.00000000 </v>
   </generation>
   <varray name="kpointlist" >
    <v>       0.00000000       0.00000000       0.00000000 </v>
   </varray>
   <varray name="weights" >
    <v>       1.00000000 </v>
   </varray>
  </kpoints>
  <time name="totalsc">  162.68  162.79</time>
 </calculation>
 <calculation>
  <scstep>
   <time name="dav">   18.14   18.15</time>
   <time name="total">   20.48   20.50</time>
   <energy>
    <i name="alphaZ">      3.61766629 </i>
    <i name="ewald">   2504.20379370 </i>
    <i name="hartreedc">  -3432.30453801 </i>
    <i name="XCdc">    -32.07565649 </i>
    <i name="pawpsdc">   2773.82529335 </i>
    <i name="pawaedc">  -2631.28847928 </i>
    <i name="eentropy">     -0.00000000 </i>
    <i name="bandstr">   -530.88975092 </i>
    <i name="atom">   1249.61482235 </i>
    <i name="e_fr_energy">    -95.29684901 </i>
    <i name="e_wo_entrp">    -95.29684901 </i>
    <i name="e_0_energy">    -95.29684901 </i>
   </energy>
  </scstep>
  <scstep>
   <time name="dav">   25.00   25.02</time>
   <time name="total">   27.36   27.37</time>
   <energy>
    <i name="e_fr_energy">    -95.29808483 </i>
    <i name="e_wo_entrp">    -95.29808483 </i>
    <i name="e_0_energy">    -95.29808483 </i>
   </energy>
  </scstep>
  <scstep>
   <time name="dav">   23.26   23.27</time>
   <time name="total">   25.63   25.64</time>
   <energy>
    <i name="e_fr_energy">    -95.29805241 </i>
    <i name="e_wo_entrp">    -95.29805241 </i>
    <i name="e_0_energy">    -95.29805241 </i>
   </energy>
  </scstep>
  <scstep>
   <time name="dav">   23.27   23.28</time>
   <time name="total">   26.06   26.08</time>
   <energy>
    <i name="e_fr_energy">    -95.29804178 </i>
    <i name="e_wo_entrp">    -95.29804178 </i>
    <i name="e_0_energy">    -95.29804178 </i>
   </energy>
  </scstep>
  <scstep>
   <time name="dav">   23.27   23.28</time>
   <time name="total">   25.63   25.64</time>
   <energy>
    <i name="e_fr_energy">    -95.29803828 </i>
    <i name="e_wo_entrp">    -95.29803828 </i>
    <i name="e_0_energy">    -95.29803828 </i>
   </energy>
  </scstep>
  <scstep>
   <time name="dav">   23.27   23.28</time>
   <time name="total">   25.06   25.06</time>
   <energy>
    <i name="alphaZ">      3.61766629 </i>
    <i name="ewald">   2504.20379370 </i>
    <i name="hartreedc">  -3432.32616375 </i>
    <i name="XCdc">    -32.07302664 </i>
    <i name="pawpsdc">   2773.61493794 </i>
    <i name="pawaedc">  -2631.07815716 </i>
    <i name="eentropy">     -0.00000000 </i>
    <i name="bandstr">   -530.87191137 </i>
    <i name="atom">   1249.61482235 </i>
    <i name="e_fr_energy">    -95.29803864 </i>
    <i name="e_wo_entrp">    -95.29803864 </i>
    <i name="e_0_energy">    -95.29803864 </i>
   </energy>
  </scstep>
  <structure>
   <crystal>
    <varray name="basis" >
     <v>      20.00000000       0.00000000       0.00000000 </v>
     <v>       0.00000000      20.00000000       0.00000000 </v>
     <v>       0.00000000       0.00000000      20.00000000 </v>
    </varray>
    <i name="volume">   8000.00000000 </i>
    <varray name="rec_basis" >
     <v>       0.05000000       0.00000000       0.00000000 </v>
     <v>       0.00000000       0.05000000       0.00000000 </v>
     <v>       0.00000000       0.00000000       0.05000000 </v>
    </varray>
   </crystal>
   <varray name="positions" >
    <v>       0.47403036       0.55693877       0.38140194 </v>
    <v>       0.36592944       0.53923729       0.43475413 </v>
    <v>       0.54310093       0.45552626       0.39343748 </v>
    <v>       0.53215357       0.65093516       0.43585993 </v>
    <v>       0.38163696       0.51425733       0.55388448 </v>
    <v>       0.55921916       0.43033867       0.51247795 </v>
    <v>       0.54824482       0.62621386       0.55499846 </v>
    <v>       0.61613917       0.52463359       0.56663152 </v>
    <v>       0.44991965       0.41294145       0.56551806 </v>
    <v>       0.43897575       0.60835393       0.60794524 </v>
    <v>       0.41363126       0.35248570       0.53237083 </v>
    <v>       0.45940372       0.39580801       0.64092532 </v>
    <v>       0.60258348       0.36573806       0.51997021 </v>
    <v>       0.68613129       0.53559146       0.53418555 </v>
    <v>       0.62773637       0.50892231       0.64205191 </v>
    <v>       0.61217214       0.46561763       0.35881407 </v>
    <v>       0.50799170       0.39561055       0.35812103 </v>
    <v>       0.46485790       0.57282517       0.30555231 </v>
    <v>       0.58462317       0.68615922       0.58952940 </v>
    <v>       0.44831950       0.59368452       0.68388470 </v>
    <v>       0.39568539       0.67285793       0.60192921 </v>
    <v>       0.31207437       0.50301702       0.58770549 </v>
    <v>       0.32857317       0.48038627       0.39995539 </v>
    <v>       0.32170920       0.60285758       0.42655148 </v>
    <v>       0.49003551       0.71596673       0.42767519 </v>
    <v>       0.60109202       0.66349553       0.40178574 </v>
   </varray>
  </structure>
  <varray name="forces" >
   <v>       0.27337806      -0.00177419       0.01426123 </v>
   <v>      -0.13453309      -0.01539009       0.04586352 </v>
   <v>      -0.06075674       0.05830635      -0.00535078 </v>
   <v>      -0.05036983      -0.04577701      -0.02582035 </v>
   <v>       0.00845482      -0.00007283       0.00528446 </v>
   <v>       0.00189735       0.00154260      -0.00484151 </v>
   <v>       0.00140539      -0.00050637      -0.00479507 </v>
   <v>       0.00301217      -0.00025408      -0.00037768 </v>
   <v>       0.00227661      -0.00512209      -0.00140989 </v>
   <v>      -0.00019175       0.00591817      -0.00029287 </v>
   <v>      -0.00136925       0.00060794      -0.00239709 </v>
   <v>      -0.00041655       0.00253467       0.00318838 </v>
   <v>      -0.00054607      -0.00020698       0.00267354 </v>
   <v>      -0.00200820       0.00031716      -0.00124034 </v>
   <v>      -0.00121810      -0.00040002       0.00372801 </v>
   <v>      -0.00535112       0.01078105      -0.00030085 </v>
   <v>       0.00163524      -0.01082277       0.00081561 </v>
   <v>      -0.02631622       0.00656062      -0.03229291 </v>
   <v>       0.00009064       0.00046672       0.00251328 </v>
   <v>       0.00055612      -0.00390662       0.00215301 </v>
   <v>      -0.00066652      -0.00047587      -0.00203458 </v>
   <v>      -0.00129647       0.00122479      -0.00587439 </v>
   <v>      -0.00197102      -0.00213964       0.00185044 </v>
   <v>      -0.00285579      -0.00028705       0.00359554 </v>
   <v>       0.00133881       0.00971110       0.00589441 </v>
   <v>      -0.00417850      -0.01083557      -0.00479312 </v>
  </varray>
  <varray name="stress" >
   <v>      -0.14633395       0.01195511      -0.02875384 </v>
   <v>       0.01195512      -0.20682264      -0.01205295 </v>
   <v>      -0.02875384      -0.01205295      -0.15769860 </v>
  </varray>
  <energy>
   <i name="e_fr_energy">    -95.29803864 </i>
   <i name="e_wo_entrp">    -95.29803864 </i>
   <i name="e_0_energy">     -0.00000000 </i>
  </energy>
  <kpoints>
   <generation param="Gamma">
    <v type="int" name="divisions">       1        1        1 </v>
    <v name="usershift">      0.00000000       0.00000000       0.00000000 </v>
    <v name="genvec1">      1.00000000       0.00000000       0.00000000 </v>
    <v name="genvec2">      0.00000000       1.00000000       0.00000000 </v>
    <v name="genvec3">      0.00000000       0.00000000       1.00000000 </v>
    <v name="shift">      0.00000000       0.00000000       0.00000000 </v>
   </generation>
   <varray name="kpointlist" >
    <v>       0.00000000       0.00000000       0.00000000 </v>
   </varray>
   <varray name="weights" >
    <v>       1.00000000 </v>
   </varray>
  </kpoints>
  <time name="totalsc">  186.92  187.02</time>
 </calculation>
 <calculation>
  <scstep>
   <time name="dav">   18.09   18.17</time>
   <time name="total">   20.42   20.51</time>
   <energy>
    <i name="alphaZ">      3.61766629 </i>
    <i name="ewald">   2504.07418342 </i>
    <i name="hartreedc">  -3432.19597607 </i>
    <i name="XCdc">    -32.07356465 </i>
    <i name="pawpsdc">   2773.62907919 </i>
    <i name="pawaedc">  -2631.09228671 </i>
    <i name="eentropy">     -0.00000000 </i>
    <i name="bandstr">   -530.87138473 </i>
    <i name="atom">   1249.61482235 </i>
    <i name="e_fr_energy">    -95.29746090 </i>
    <i name="e_wo_entrp">    -95.29746090 </i>
    <i name="e_0_energy">    -95.29746090 </i>
   </energy>
  </scstep>
  <scstep>
   <time name="dav">   21.54   21.58</time>
   <time name="total">   23.90   23.93</time>
   <energy>
    <i name="e_fr_energy">    -95.29808062 </i>
    <i name="e_wo_entrp">    -95.29808062 </i>
    <i name="e_0_energy">    -95.29808062 </i>
   </energy>
  </scstep>
  <scstep>
   <time name="dav">   23.26   23.26</time>
   <time name="total">   25.85   25.86</time>
   <energy>
    <i name="e_fr_energy">    -95.29806828 </i>
    <i name="e_wo_entrp">    -95.29806828 </i>
    <i name="e_0_energy">    -95.29806828 </i>
   </energy>
  </scstep>
  <scstep>
   <time name="dav">   21.55   21.57</time>
   <time name="total">   23.92   23.93</time>
   <energy>
    <i name="e_fr_energy">    -95.29806644 </i>
    <i name="e_wo_entrp">    -95.29806644 </i>
    <i name="e_0_energy">    -95.29806644 </i>
   </energy>
  </scstep>
  <scstep>
   <time name="dav">   23.26   23.27</time>
   <time name="total">   25.05   25.06</time>
   <energy>
    <i name="alphaZ">      3.61766629 </i>
    <i name="ewald">   2504.07418342 </i>
    <i name="hartreedc">  -3432.20427183 </i>
    <i name="XCdc">    -32.07267451 </i>
    <i name="pawpsdc">   2773.57024689 </i>
    <i name="pawaedc">  -2631.03345516 </i>
    <i name="eentropy">     -0.00000000 </i>
    <i name="bandstr">   -530.86458361 </i>
    <i name="atom">   1249.61482235 </i>
    <i name="e_fr_energy">    -95.29806615 </i>
    <i name="e_wo_entrp">    -95.29806615 </i>
    <i name="e_0_energy">    -95.29806615 </i>
   </energy>
  </scstep>
  <structure>
   <crystal>
    <varray name="basis" >
     <v>      20.00000000       0.00000000       0.00000000 </v>
     <v>       0.00000000      20.00000000       0.00000000 </v>
     <v>       0.00000000       0.00000000      20.00000000 </v>
    </varray>
    <i name="volume">   8000.00000000 </i>
    <varray name="rec_basis" >
     <v>       0.05000000       0.00000000       0.00000000 </v>
     <v>       0.00000000       0.05000000       0.00000000 </v>
     <v>       0.00000000       0.00000000       0.05000000 </v>
    </varray>
   </crystal>
   <varray name="positions" >
    <v>       0.47503036       0.55793877       0.38140194 </v>
    <v>       0.36592944       0.53923729       0.43475413 </v>
    <v>       0.54310093       0.45552626       0.39343748 </v>
    <v>       0.53215357       0.65093516       0.43585993 </v>
    <v>       0.38163696       0.51425733       0.55388448 </v>
    <v>       0.55921916       0.43033867       0.51247795 </v>
    <v>       0.54824482       0.62621386       0.55499846 </v>
    <v>       0.61613917       0.52463359       0.56663152 </v>
    <v>       0.44991965       0.41294145       0.56551806 </v>
    <v>       0.43897575       0.60835393       0.60794524 </v>
    <v>       0.41363126       0.35248570       0.53237083 </v>
    <v>       0.45940372       0.39580801       0.64092532 </v>
    <v>       0.60258348       0.36573806       0.51997021 </v>
    <v>       0.68613129       0.53559146       0.53418555 </v>
    <v>       0.62773637       0.50892231       0.64205191 </v>
    <v>       0.61217214       0.46561763       0.35881407 </v>
    <v>       0.50799170       0.39561055       0.35812103 </v>
    <v>       0.46485790       0.57282517       0.30555231 </v>
    <v>       0.58462317       0.68615922       0.58952940 </v>
    <v>       0.44831950       0.59368452       0.68388470 </v>
    <v>       0.39568539       0.67285793       0.60192921 </v>
    <v>       0.31207437       0.50301702       0.58770549 </v>
    <v>       0.32857317       0.48038627       0.39995539 </v>
    <v>       0.32170920       0.60285758       0.42655148 </v>
    <v>       0.49003551       0.71596673       0.42767519 </v>
    <v>       0.60109202       0.66349553       0.40178574 </v>
   </varray>
  </structure>
  <varray name="forces" >
   <v>      -0.00014495      -0.27129588       0.02580438 </v>
   <v>       0.01625481       0.02769146      -0.00950469 </v>
   <v>      -0.05479063       0.11038500      -0.00726548 </v>
   <v>       0.04966808       0.10510059       0.03931607 </v>
   <v>       0.00308638      -0.00023767      -0.00160925 </v>
   <v>       0.00040468       0.00053703      -0.00685035 </v>
   <v>      -0.00127392      -0.00882038       0.00305024 </v>
   <v>       0.00478577      -0.00418898      -0.00256505 </v>
   <v>       0.00153828      -0.00281285       0.00057935 </v>
   <v>      -0.00578794       0.00276216      -0.00052703 </v>
   <v>      -0.00105429       0.00038187      -0.00259950 </v>
   <v>       0.00021038       0.00140019       0.00353313 </v>
   <v>       0.00016796      -0.00011436       0.00386516 </v>
   <v>      -0.00222073       0.00125239      -0.00090544 </v>
   <v>      -0.00193550       0.00170720       0.00373536 </v>
   <v>       0.00505181      -0.00305800       0.00131366 </v>
   <v>      -0.00814000       0.00376935      -0.00117266 </v>
   <v>      -0.00711292       0.03190247      -0.05145604 </v>
   <v>      -0.00098364       0.00163580      -0.00533887 </v>
   <v>       0.00314288      -0.00227331       0.00205635 </v>
   <v>       0.00049556       0.00031134      -0.00198814 </v>
   <v>      -0.00103878       0.00044279       0.00004759 </v>
   <v>       0.01018490      -0.00135959      -0.00555912 </v>
   <v>      -0.01187905       0.00086307       0.00728849 </v>
   <v>       0.00265268       0.00692129       0.00563418 </v>
   <v>      -0.00128182      -0.00290299       0.00111767 </v>
  </varray>
  <varray name="stress" >
   <v>      -0.18285527       0.03625120       0.01263898 </v>
   <v>       0.03625120      -0.17704131       0.01916539 </v>
   <v>       0.01263898       0.01916538      -0.15035065 </v>
  </varray>
  <energy>
   <i name="e_fr_energy">    -95.29806615 </i>
   <i name="e_wo_entrp">    -95.29806615 </i>
   <i name="e_0_energy">     -0.00000000 </i>
  </energy>
  <kpoints>
   <generation param="Gamma">
    <v type="int" name="divisions">       1        1        1 </v>
    <v name="usershift">      0.00000000       0.00000000       0.00000000 </v>
    <v name="genvec1">      1.00000000       0.00000000       0.00000000 </v>
    <v name="genvec2">      0.00000000       1.00000000       0.00000000 </v>
    <v name="genvec3">      0.00000000       0.00000000       1.00000000 </v>
    <v name="shift">      0.00000000       0.00000000       0.00000000 </v>
   </generation>
   <varray name="kpointlist" >
    <v>       0.00000000       0.00000000       0.00000000 </v>
   </varray>
   <varray name="weights" >
    <v>       1.00000000 </v>
   </varray>
  </kpoints>
  <time name="totalsc">  155.84  156.00</time>
 </calculation>
 <calculation>
  <scstep>
   <time name="dav">   18.13   18.14</time>
   <time name="total">   20.46   20.49</time>
   <energy>
    <i name="alphaZ">      3.61766629 </i>
    <i name="ewald">   2504.79700639 </i>
    <i name="hartreedc">  -3432.93799712 </i>
    <i name="XCdc">    -32.07042897 </i>
    <i name="pawpsdc">   2773.57198123 </i>
    <i name="pawaedc">  -2631.03518510 </i>
    <i name="eentropy">     -0.00000000 </i>
    <i name="bandstr">   -530.85462989 </i>
    <i name="atom">   1249.61482235 </i>
    <i name="e_fr_energy">    -95.29676481 </i>
    <i name="e_wo_entrp">    -95.29676481 </i>
    <i name="e_0_energy">    -95.29676481 </i>
   </energy>
  </scstep>
  <scstep>
   <time name="dav">   21.57   21.56</time>
   <time name="total">   23.92   23.91</time>
   <energy>
    <i name="e_fr_energy">    -95.29808294 </i>
    <i name="e_wo_entrp">    -95.29808294 </i>
    <i name="e_0_energy">    -95.29808294 </i>
   </energy>
  </scstep>
  <scstep>
   <time name="dav">   19.85   19.87</time>
   <time name="total">   22.66   22.69</time>
   <energy>
    <i name="e_fr_energy">    -95.29805001 </i>
    <i name="e_wo_entrp">    -95.29805001 </i>
    <i name="e_0_energy">    -95.29805001 </i>
   </energy>
  </scstep>
  <scstep>
   <time name="dav">   23.28   23.29</time>
   <time name="total">   25.63   25.64</time>
   <energy>
    <i name="e_fr_energy">    -95.29803626 </i>
    <i name="e_wo_entrp">    -95.29803626 </i>
    <i name="e_0_energy">    -95.29803626 </i>
   </energy>
  </scstep>
  <scstep>
   <time name="dav">   23.26   23.28</time>
   <time name="total">   25.63   25.64</time>
   <energy>
    <i name="e_fr_energy">    -95.29803197 </i>
    <i name="e_wo_entrp">    -95.29803197 </i>
    <i name="e_0_energy">    -95.29803197 </i>
   </energy>
  </scstep>
  <scstep>
   <time name="dav">   23.29   23.31</time>
   <time name="total">   25.60   25.61</time>
   <energy>
    <i name="alphaZ">      3.61766629 </i>
    <i name="ewald">   2504.79700639 </i>
    <i name="hartreedc">  -3432.90180872 </i>
    <i name="XCdc">    -32.07388036 </i>
    <i name="pawpsdc">   2773.86751337 </i>
    <i name="pawaedc">  -2631.33069236 </i>
    <i name="eentropy">     -0.00000000 </i>
    <i name="bandstr">   -530.88865914 </i>
    <i name="atom">   1249.61482235 </i>
    <i name="e_fr_energy">    -95.29803218 </i>
    <i name="e_wo_entrp">    -95.29803218 </i>
    <i name="e_0_energy">    -95.29803218 </i>
   </energy>
  </scstep>
  <structure>
   <crystal>
    <varray name="basis" >
     <v>      20.00000000       0.00000000       0.00000000 </v>
     <v>       0.00000000      20.00000000       0.00000000 </v>
     <v>       0.00000000       0.00000000      20.00000000 </v>
    </varray>
    <i name="volume">   8000.00000000 </i>
    <varray name="rec_basis" >
     <v>       0.05000000       0.00000000       0.00000000 </v>
     <v>       0.00000000       0.05000000       0.00000000 </v>
     <v>       0.00000000       0.00000000       0.05000000 </v>
    </varray>
   </crystal>
   <varray name="positions" >
    <v>       0.47503036       0.55593877       0.38140194 </v>
    <v>       0.36592944       0.53923729       0.43475413 </v>
    <v>       0.54310093       0.45552626       0.39343748 </v>
    <v>       0.53215357       0.65093516       0.43585993 </v>
    <v>       0.38163696       0.51425733       0.55388448 </v>
    <v>       0.55921916       0.43033867       0.51247795 </v>
    <v>       0.54824482       0.62621386       0.55499846 </v>
    <v>       0.61613917       0.52463359       0.56663152 </v>
    <v>       0.44991965       0.41294145       0.56551806 </v>
    <v>       0.43897575       0.60835393       0.60794524 </v>
    <v>       0.41363126       0.35248570       0.53237083 </v>
    <v>       0.45940372       0.39580801       0.64092532 </v>
    <v>       0.60258348       0.36573806       0.51997021 </v>
    <v>       0.68613129       0.53559146       0.53418555 </v>
    <v>       0.62773637       0.50892231       0.64205191 </v>
    <v>       0.61217214       0.46561763       0.35881407 </v>
    <v>       0.50799170       0.39561055       0.35812103 </v>
    <v>       0.46485790       0.57282517       0.30555231 </v>
    <v>       0.58462317       0.68615922       0.58952940 </v>
    <v>       0.44831950       0.59368452       0.68388470 </v>
    <v>       0.39568539       0.67285793       0.60192921 </v>
    <v>       0.31207437       0.50301702       0.58770549 </v>
    <v>       0.32857317       0.48038627       0.39995539 </v>
    <v>       0.32170920       0.60285758       0.42655148 </v>
    <v>       0.49003551       0.71596673       0.42767519 </v>
    <v>       0.60109202       0.66349553       0.40178574 </v>
   </varray>
  </structure>
  <varray name="forces" >
   <v>      -0.00772099       0.27423097      -0.02945864 </v>
   <v>      -0.02045616      -0.02559705       0.00696892 </v>
   <v>       0.06667659      -0.11778356       0.00456021 </v>
   <v>      -0.04160829      -0.09745794      -0.03901151 </v>
   <v>      -0.00069064       0.00174713       0.00106485 </v>
   <v>       0.00127429       0.00170734       0.00527283 </v>
   <v>       0.00218459       0.00604119      -0.00607100 </v>
   <v>       0.00382777       0.00482735      -0.00047831 </v>
   <v>      -0.00347976      -0.00288000      -0.00064702 </v>
   <v>       0.00011083       0.00314851       0.00053228 </v>
   <v>      -0.00020901       0.00001994      -0.00269040 </v>
   <v>       0.00223776       0.00160894       0.00235923 </v>
   <v>      -0.00157762       0.00158495      -0.00358067 </v>
   <v>      -0.00198788      -0.00073186      -0.00143069 </v>
   <v>      -0.00166541      -0.00259816       0.00285118 </v>
   <v>      -0.00556853       0.00596802       0.00162752 </v>
   <v>       0.00262294      -0.00704806       0.00199955 </v>
   <v>       0.00690737      -0.03378258       0.05229861 </v>
   <v>       0.00117348      -0.00047979       0.00604555 </v>
   <v>       0.00078221      -0.00318177       0.00282783 </v>
   <v>      -0.00055678      -0.00015908      -0.00218063 </v>
   <v>      -0.00063672      -0.00061440       0.00034419 </v>
   <v>      -0.00916584      -0.00482339       0.00439777 </v>
   <v>       0.01313229       0.00325895      -0.00487511 </v>
   <v>      -0.00806483      -0.00549082      -0.00331338 </v>
   <v>       0.00245834      -0.00151484       0.00058683 </v>
  </varray>
  <varray name="stress" >
   <v>      -0.15944978      -0.03738039      -0.01055020 </v>
   <v>      -0.03738040      -0.16282395      -0.01870445 </v>
   <v>      -0.01055019      -0.01870447      -0.19101631 </v>
  </varray>
  <energy>
   <i name="e_fr_energy">    -95.29803218 </i>
   <i name="e_wo_entrp">    -95.29803218 </i>
   <i name="e_0_energy">     -0.00000000 </i>
  </energy>
  <kpoints>
   <generation param="Gamma">
    <v type="int" name="divisions">       1        1        1 </v>
    <v name="usershift">      0.00000000       0.00000000       0.00000000 </v>
    <v name="genvec1">      1.00000000       0.00000000       0.00000000 </v>
    <v name="genvec2">      0.00000000       1.00000000       0.00000000 </v>
    <v name="genvec3">      0.00000000       0.00000000       1.00000000 </v>
    <v name="shift">      0.00000000       0.00000000       0.00000000 </v>
   </generation>
   <varray name="kpointlist" >
    <v>       0.00000000       0.00000000       0.00000000 </v>
   </varray>
   <varray name="weights" >
    <v>       1.00000000 </v>
   </varray>
  </kpoints>
  <time name="totalsc">  180.47  180.67</time>
 </calculation>
 <calculation>
  <scstep>
   <time name="dav">   18.09   18.19</time>
   <time name="total">   20.43   20.53</time>
   <energy>
    <i name="alphaZ">      3.61766629 </i>
    <i name="ewald">   2506.15541043 </i>
    <i name="hartreedc">  -3434.27630542 </i>
    <i name="XCdc">    -32.06938341 </i>
    <i name="pawpsdc">   2773.86451169 </i>
    <i name="pawaedc">  -2631.32770506 </i>
    <i name="eentropy">     -0.00000000 </i>
    <i name="bandstr">   -530.87523323 </i>
    <i name="atom">   1249.61482235 </i>
    <i name="e_fr_energy">    -95.29621636 </i>
    <i name="e_wo_entrp">    -95.29621636 </i>
    <i name="e_0_energy">    -95.29621636 </i>
   </energy>
  </scstep>
  <scstep>
   <time name="dav">   21.59   21.59</time>
   <time name="total">   23.94   23.94</time>
   <energy>
    <i name="e_fr_energy">    -95.29691295 </i>
    <i name="e_wo_entrp">    -95.29691295 </i>
    <i name="e_0_energy">    -95.29691295 </i>
   </energy>
  </scstep>
  <scstep>
   <time name="dav">   21.57   21.61</time>
   <time name="total">   23.93   23.97</time>
   <energy>
    <i name="e_fr_energy">    -95.29688466 </i>
    <i name="e_wo_entrp">    -95.29688466 </i>
    <i name="e_0_energy">    -95.29688466 </i>
   </energy>
  </scstep>
  <scstep>
   <time name="dav">   21.53   21.58</time>
   <time name="total">   23.92   23.97</time>
   <energy>
    <i name="e_fr_energy">    -95.29687394 </i>
    <i name="e_wo_entrp">    -95.29687394 </i>
    <i name="e_0_energy">    -95.29687394 </i>
   </energy>
  </scstep>
  <scstep>
   <time name="dav">   21.55   21.58</time>
   <time name="total">   23.91   23.95</time>
   <energy>
    <i name="e_fr_energy">    -95.29687395 </i>
    <i name="e_wo_entrp">    -95.29687395 </i>
    <i name="e_0_energy">    -95.29687395 </i>
   </energy>
  </scstep>
  <scstep>
   <time name="dav">   23.20   23.28</time>
   <time name="total">   25.58   25.66</time>
   <energy>
    <i name="e_fr_energy">    -95.29687752 </i>
    <i name="e_wo_entrp">    -95.29687752 </i>
    <i name="e_0_energy">    -95.29687752 </i>
   </energy>
  </scstep>
  <scstep>
   <time name="dav">   16.46   16.46</time>
   <time name="total">   18.86   18.86</time>
   <energy>
    <i name="e_fr_energy">    -95.29688371 </i>
    <i name="e_wo_entrp">    -95.29688371 </i>
    <i name="e_0_energy">    -95.29688371 </i>
   </energy>
  </scstep>
  <scstep>
   <time name="dav">   19.83   19.91</time>
   <time name="total">   22.21   22.28</time>
   <energy>
    <i name="e_fr_energy">    -95.29689321 </i>
    <i name="e_wo_entrp">    -95.29689321 </i>
    <i name="e_0_energy">    -95.29689321 </i>
   </energy>
  </scstep>
  <scstep>
   <time name="dav">   18.12   18.20</time>
   <time name="total">   20.50   20.58</time>
   <energy>
    <i name="e_fr_energy">    -95.29690044 </i>
    <i name="e_wo_entrp">    -95.29690044 </i>
    <i name="e_0_energy">    -95.29690044 </i>
   </energy>
  </scstep>
  <scstep>
   <time name="dav">   19.90   19.90</time>
   <time name="total">   22.59   22.60</time>
   <energy>
    <i name="e_fr_energy">    -95.29690782 </i>
    <i name="e_wo_entrp">    -95.29690782 </i>
    <i name="e_0_energy">    -95.29690782 </i>
   </energy>
  </scstep>
  <scstep>
   <time name="dav">   19.82   19.90</time>
   <time name="total">   22.21   22.29</time>
   <energy>
    <i name="e_fr_energy">    -95.29690962 </i>
    <i name="e_wo_entrp">    -95.29690962 </i>
    <i name="e_0_energy">    -95.29690962 </i>
   </energy>
  </scstep>
  <scstep>
   <time name="dav">   16.39   16.47</time>
   <time name="total">   18.80   18.88</time>
   <energy>
    <i name="e_fr_energy">    -95.29691203 </i>
    <i name="e_wo_entrp">    -95.29691203 </i>
    <i name="e_0_energy">    -95.29691203 </i>
   </energy>
  </scstep>
  <scstep>
   <time name="dav">   18.13   18.14</time>
   <time name="total">   20.97   20.99</time>
   <energy>
    <i name="e_fr_energy">    -95.29691313 </i>
    <i name="e_wo_entrp">    -95.29691313 </i>
    <i name="e_0_energy">    -95.29691313 </i>
   </energy>
  </scstep>
  <scstep>
   <time name="dav">   16.37   16.45</time>
   <time name="total">   18.18   18.26</time>
   <energy>
    <i name="alphaZ">      3.61766629 </i>
    <i name="ewald">   2506.15541043 </i>
    <i name="hartreedc">  -3434.18629510 </i>
    <i name="XCdc">    -32.07681542 </i>
    <i name="pawpsdc">   2774.40194472 </i>
    <i name="pawaedc">  -2631.86516169 </i>
    <i name="eentropy">     -0.00000000 </i>
    <i name="bandstr">   -530.95848536 </i>
    <i name="atom">   1249.61482235 </i>
    <i name="e_fr_energy">    -95.29691379 </i>
    <i name="e_wo_entrp">    -95.29691379 </i>
    <i name="e_0_energy">    -95.29691379 </i>
   </energy>
  </scstep>
  <structure>
   <crystal>
    <varray name="basis" >
     <v>      20.00000000       0.00000000       0.00000000 </v>
     <v>       0.00000000      20.00000000       0.00000000 </v>
     <v>       0.00000000       0.00000000      20.00000000 </v>
    </varray>
    <i name="volume">   8000.00000000 </i>
    <varray name="rec_basis" >
     <v>       0.05000000       0.00000000       0.00000000 </v>
     <v>       0.00000000       0.05000000       0.00000000 </v>
     <v>       0.00000000       0.00000000       0.05000000 </v>
    </varray>
   </crystal>
   <varray name="positions" >
    <v>       0.47503036       0.55693877       0.38240194 </v>
    <v>       0.36592944       0.53923729       0.43475413 </v>
    <v>       0.54310093       0.45552626       0.39343748 </v>
    <v>       0.53215357       0.65093516       0.43585993 </v>
    <v>       0.38163696       0.51425733       0.55388448 </v>
    <v>       0.55921916       0.43033867       0.51247795 </v>
    <v>       0.54824482       0.62621386       0.55499846 </v>
    <v>       0.61613917       0.52463359       0.56663152 </v>
    <v>       0.44991965       0.41294145       0.56551806 </v>
    <v>       0.43897575       0.60835393       0.60794524 </v>
    <v>       0.41363126       0.35248570       0.53237083 </v>
    <v>       0.45940372       0.39580801       0.64092532 </v>
    <v>       0.60258348       0.36573806       0.51997021 </v>
    <v>       0.68613129       0.53559146       0.53418555 </v>
    <v>       0.62773637       0.50892231       0.64205191 </v>
    <v>       0.61217214       0.46561763       0.35881407 </v>
    <v>       0.50799170       0.39561055       0.35812103 </v>
    <v>       0.46485790       0.57282517       0.30555231 </v>
    <v>       0.58462317       0.68615922       0.58952940 </v>
    <v>       0.44831950       0.59368452       0.68388470 </v>
    <v>       0.39568539       0.67285793       0.60192921 </v>
    <v>       0.31207437       0.50301702       0.58770549 </v>
    <v>       0.32857317       0.48038627       0.39995539 </v>
    <v>       0.32170920       0.60285758       0.42655148 </v>
    <v>       0.49003551       0.71596673       0.42767519 </v>
    <v>       0.60109202       0.66349553       0.40178574 </v>
   </varray>
  </structure>
  <varray name="forces" >
   <v>      -0.01391950       0.02364765      -0.38594386 </v>
   <v>      -0.06064314      -0.00801726       0.04872794 </v>
   <v>       0.01432931      -0.01684442       0.02422143 </v>
   <v>       0.03278107       0.05290902       0.04945879 </v>
   <v>      -0.00922558      -0.00087688       0.00321243 </v>
   <v>       0.00757719      -0.00894830      -0.00391274 </v>
   <v>       0.00584642       0.00757031       0.00216153 </v>
   <v>       0.00371027      -0.00081483      -0.00139958 </v>
   <v>       0.00019690      -0.00265790       0.00017134 </v>
   <v>      -0.00288988       0.00278651      -0.00010186 </v>
   <v>      -0.00088140       0.00019681      -0.00276066 </v>
   <v>       0.00083793       0.00177748       0.00284166 </v>
   <v>      -0.00009679      -0.00017495       0.00512251 </v>
   <v>      -0.00197105       0.00051024      -0.00126974 </v>
   <v>      -0.00190139       0.00005098       0.00321600 </v>
   <v>      -0.00551225       0.00810334       0.00106846 </v>
   <v>      -0.00704147       0.00594038      -0.00007481 </v>
   <v>       0.03085913      -0.04874002       0.25695265 </v>
   <v>       0.00029997      -0.00021917       0.00325160 </v>
   <v>       0.00208286      -0.00282394       0.00200704 </v>
   <v>      -0.00007438       0.00017855      -0.00216197 </v>
   <v>      -0.00009157      -0.00057519       0.00314047 </v>
   <v>       0.00986824      -0.00043286      -0.00409164 </v>
   <v>       0.00534833       0.00143799      -0.00045142 </v>
   <v>      -0.00383800      -0.00416186      -0.00069949 </v>
   <v>      -0.00565120      -0.00982167      -0.00268607 </v>
  </varray>
  <varray name="stress" >
   <v>      -0.14542980       0.01154739      -0.01134762 </v>
   <v>       0.01154739      -0.15409757       0.01861727 </v>
   <v>      -0.01134763       0.01861727      -0.21838831 </v>
  </varray>
  <energy>
   <i name="e_fr_energy">    -95.29691379 </i>
   <i name="e_wo_entrp">    -95.29691379 </i>
   <i name="e_0_energy">     -0.00000000 </i>
  </energy>
  <kpoints>
   <generation param="Gamma">
    <v type="int" name="divisions">       1        1        1 </v>
    <v name="usershift">      0.00000000       0.00000000       0.00000000 </v>
    <v name="genvec1">      1.00000000       0.00000000       0.00000000 </v>
    <v name="genvec2">      0.00000000       1.00000000       0.00000000 </v>
    <v name="genvec3">      0.00000000       0.00000000       1.00000000 </v>
    <v name="shift">      0.00000000       0.00000000       0.00000000 </v>
   </generation>
   <varray name="kpointlist" >
    <v>       0.00000000       0.00000000       0.00000000 </v>
   </varray>
   <varray name="weights" >
    <v>       1.00000000 </v>
   </varray>
  </kpoints>
  <time name="totalsc">  342.81  343.63</time>
 </calculation>
 <calculation>
  <scstep>
   <time name="dav">   18.15   18.15</time>
   <time name="total">   20.49   20.54</time>
   <energy>
    <i name="alphaZ">      3.61766629 </i>
    <i name="ewald">   2502.72207931 </i>
    <i name="hartreedc">  -3430.70557295 </i>
    <i name="XCdc">    -32.08926850 </i>
    <i name="pawpsdc">   2774.40207457 </i>
    <i name="pawaedc">  -2631.86529153 </i>
    <i name="eentropy">     -0.00000000 </i>
    <i name="bandstr">   -530.99187061 </i>
    <i name="atom">   1249.61482235 </i>
    <i name="e_fr_energy">    -95.29536107 </i>
    <i name="e_wo_entrp">    -95.29536107 </i>
    <i name="e_0_energy">    -95.29536107 </i>
   </energy>
  </scstep>
  <scstep>
   <time name="dav">   23.28   23.29</time>
   <time name="total">   25.64   25.65</time>
   <energy>
    <i name="e_fr_energy">    -95.29676975 </i>
    <i name="e_wo_entrp">    -95.29676975 </i>
    <i name="e_0_energy">    -95.29676975 </i>
   </energy>
  </scstep>
  <scstep>
   <time name="dav">   23.29   23.30</time>
   <time name="total">   25.65   25.66</time>
   <energy>
    <i name="e_fr_energy">    -95.29663559 </i>
    <i name="e_wo_entrp">    -95.29663559 </i>
    <i name="e_0_energy">    -95.29663559 </i>
   </energy>
  </scstep>
  <scstep>
   <time name="dav">   19.89   19.89</time>
   <time name="total">   22.26   22.26</time>
   <energy>
    <i name="e_fr_energy">    -95.29658860 </i>
    <i name="e_wo_entrp">    -95.29658860 </i>
    <i name="e_0_energy">    -95.29658860 </i>
   </energy>
  </scstep>
  <scstep>
   <time name="dav">   23.30   23.30</time>
   <time name="total">   25.65   25.65</time>
   <energy>
    <i name="e_fr_energy">    -95.29657726 </i>
    <i name="e_wo_entrp">    -95.29657726 </i>
    <i name="e_0_energy">    -95.29657726 </i>
   </energy>
  </scstep>
  <scstep>
   <time name="dav">   19.87   19.88</time>
   <time name="total">   22.22   22.22</time>
   <energy>
    <i name="e_fr_energy">    -95.29658372 </i>
    <i name="e_wo_entrp">    -95.29658372 </i>
    <i name="e_0_energy">    -95.29658372 </i>
   </energy>
  </scstep>
  <scstep>
   <time name="dav">   21.56   21.56</time>
   <time name="total">   23.94   23.95</time>
   <energy>
    <i name="e_fr_energy">    -95.29660122 </i>
    <i name="e_wo_entrp">    -95.29660122 </i>
    <i name="e_0_energy">    -95.29660122 </i>
   </energy>
  </scstep>
  <scstep>
   <time name="dav">   19.86   19.87</time>
   <time name="total">   22.22   22.23</time>
   <energy>
    <i name="e_fr_energy">    -95.29662835 </i>
    <i name="e_wo_entrp">    -95.29662835 </i>
    <i name="e_0_energy">    -95.29662835 </i>
   </energy>
  </scstep>
  <scstep>
   <time name="dav">   19.89   19.89</time>
   <time name="total">   22.25   22.25</time>
   <energy>
    <i name="e_fr_energy">    -95.29665074 </i>
    <i name="e_wo_entrp">    -95.29665074 </i>
    <i name="e_0_energy">    -95.29665074 </i>
   </energy>
  </scstep>
  <scstep>
   <time name="dav">   18.20   18.19</time>
   <time name="total">   20.69   20.70</time>
   <energy>
    <i name="e_fr_energy">    -95.29667090 </i>
    <i name="e_wo_entrp">    -95.29667090 </i>
    <i name="e_0_energy">    -95.29667090 </i>
   </energy>
  </scstep>
  <scstep>
   <time name="dav">   19.88   19.88</time>
   <time name="total">   22.24   22.25</time>
   <energy>
    <i name="e_fr_energy">    -95.29667790 </i>
    <i name="e_wo_entrp">    -95.29667790 </i>
    <i name="e_0_energy">    -95.29667790 </i>
   </energy>
  </scstep>
  <scstep>
   <time name="dav">   16.52   16.55</time>
   <time name="total">   18.91   18.94</time>
   <energy>
    <i name="e_fr_energy">    -95.29668381 </i>
    <i name="e_wo_entrp">    -95.29668381 </i>
    <i name="e_0_energy">    -95.29668381 </i>
   </energy>
  </scstep>
  <scstep>
   <time name="dav">   19.92   19.92</time>
   <time name="total">   22.33   22.35</time>
   <energy>
    <i name="e_fr_energy">    -95.29668541 </i>
    <i name="e_wo_entrp">    -95.29668541 </i>
    <i name="e_0_energy">    -95.29668541 </i>
   </energy>
  </scstep>
  <scstep>
   <time name="dav">   16.46   16.48</time>
   <time name="total">   18.89   18.90</time>
   <energy>
    <i name="e_fr_energy">    -95.29668662 </i>
    <i name="e_wo_entrp">    -95.29668662 </i>
    <i name="e_0_energy">    -95.29668662 </i>
   </energy>
  </scstep>
  <scstep>
   <time name="dav">   19.90   19.91</time>
   <time name="total">   21.70   21.71</time>
   <energy>
    <i name="alphaZ">      3.61766629 </i>
    <i name="ewald">   2502.72207931 </i>
    <i name="hartreedc">  -3430.91864151 </i>
    <i name="XCdc">    -32.06964542 </i>
    <i name="pawpsdc">   2773.03302782 </i>
    <i name="pawaedc">  -2630.49626073 </i>
    <i name="eentropy">     -0.00000000 </i>
    <i name="bandstr">   -530.79973520 </i>
    <i name="atom">   1249.61482235 </i>
    <i name="e_fr_energy">    -95.29668708 </i>
    <i name="e_wo_entrp">    -95.29668708 </i>
    <i name="e_0_energy">    -95.29668708 </i>
   </energy>
  </scstep>
  <structure>
   <crystal>
    <varray name="basis" >
     <v>      20.00000000       0.00000000       0.00000000 </v>
     <v>       0.00000000      20.00000000       0.00000000 </v>
     <v>       0.00000000       0.00000000      20.00000000 </v>
    </varray>
    <i name="volume">   8000.00000000 </i>
    <varray name="rec_basis" >
     <v>       0.05000000       0.00000000       0.00000000 </v>
     <v>       0.00000000       0.05000000       0.00000000 </v>
     <v>       0.00000000       0.00000000       0.05000000 </v>
    </varray>
   </crystal>
   <varray name="positions" >
[...]
    <v name="genvec3">      0.00000000       0.00000000       1.00000000 </v>
    <v name="shift">      0.00000000       0.00000000       0.00000000 </v>
   </generation>
   <varray name="kpointlist" >
    <v>       0.00000000       0.00000000       0.00000000 </v>
   </varray>
   <varray name="weights" >
    <v>       1.00000000 </v>
   </varray>
  </kpoints>
  <time name="totalsc">  150.74  151.02</time>
  <eigenvalues>
   <array>
    <dimension dim="1">band</dimension>
    <dimension dim="2">kpoint</dimension>
    <dimension dim="3">spin</dimension>
    <field>eigene</field>
    <field>occ</field>
    <set>
     <set comment="spin 1">
      <set comment="kpoint 1">
       <r>  -15.3895    1.0000 </r>
       <r>  -14.4259    1.0000 </r>
       <r>  -14.4244    1.0000 </r>
       <r>  -14.4214    1.0000 </r>
       <r>  -13.3442    1.0000 </r>
       <r>  -13.3391    1.0000 </r>
       <r>  -11.9638    1.0000 </r>
       <r>  -11.9627    1.0000 </r>
       <r>  -11.9578    1.0000 </r>
       <r>  -10.9135    1.0000 </r>
       <r>   -8.8571    1.0000 </r>
       <r>   -8.4998    1.0000 </r>
       <r>   -8.4976    1.0000 </r>
       <r>   -8.4911    1.0000 </r>
       <r>   -8.0861    1.0000 </r>
       <r>   -8.0855    1.0000 </r>
       <r>   -8.0759    1.0000 </r>
       <r>   -7.7994    1.0000 </r>
       <r>   -7.7969    1.0000 </r>
       <r>   -7.7963    1.0000 </r>
       <r>   -6.7384    1.0000 </r>
       <r>   -6.7368    1.0000 </r>
       <r>   -6.3255    1.0000 </r>
       <r>   -6.3221    1.0000 </r>
       <r>   -6.3196    1.0000 </r>
       <r>   -6.2876    1.0000 </r>
       <r>   -6.2850    1.0000 </r>
       <r>   -6.2822    1.0000 </r>
       <r>   -1.4603    0.0000 </r>
       <r>   -1.4172    0.0000 </r>
       <r>   -1.4108    0.0000 </r>
       <r>   -1.4079    0.0000 </r>
       <r>   -1.3523    0.0000 </r>
       <r>   -1.0801    0.0000 </r>
       <r>   -1.0764    0.0000 </r>
       <r>   -1.0713    0.0000 </r>
       <r>   -1.0645    0.0000 </r>
       <r>   -1.0621    0.0000 </r>
       <r>   -0.1053    0.0000 </r>
       <r>   -0.0964    0.0000 </r>
       <r>   -0.0946    0.0000 </r>
       <r>   -0.0927    0.0000 </r>
       <r>    0.1825    0.0000 </r>
       <r>    0.2018    0.0000 </r>
       <r>    0.2023    0.0000 </r>
       <r>    0.2086    0.0000 </r>
       <r>    0.3360    0.0000 </r>
       <r>    0.3407    0.0000 </r>
      </set>
     </set>
    </set>
   </array>
  </eigenvalues>
  <separator name="orbital magnetization" >
   <v name="MAGDIPOLOUT">      0.00000000      0.00000000      0.00000000</v>
  </separator>
  <dos>
   <i name="efermi">     -5.28826734 </i>
   <total>
    <array>
     <dimension dim="1">gridpoints</dimension>
     <dimension dim="2">spin</dimension>
     <field>energy</field>
     <field>total</field>
     <field>integrated</field>
     <set>
      <set comment="spin 1">
       <r>   -17.3895     0.0000     0.0000 </r>
       <r>   -17.3238     0.0000     0.0000 </r>
       <r>   -17.2580     0.0000     0.0000 </r>
       <r>   -17.1922     0.0000     0.0000 </r>
       <r>   -17.1265     0.0000     0.0000 </r>
       <r>   -17.0607     0.0000     0.0000 </r>
       <r>   -16.9949     0.0000     0.0000 </r>
       <r>   -16.9292     0.0000     0.0000 </r>
       <r>   -16.8634     0.0000     0.0000 </r>
       <r>   -16.7976     0.0000     0.0000 </r>
       <r>   -16.7319     0.0000     0.0000 </r>
       <r>   -16.6661     0.0000     0.0000 </r>
       <r>   -16.6003     0.0000     0.0000 </r>
       <r>   -16.5346     0.0000     0.0000 </r>
       <r>   -16.4688     0.0000     0.0000 </r>
       <r>   -16.4030     0.0000     0.0000 </r>
       <r>   -16.3373     0.0000     0.0000 </r>
       <r>   -16.2715     0.0000     0.0000 </r>
       <r>   -16.2057     0.0000     0.0000 </r>
       <r>   -16.1400     0.0000     0.0000 </r>
       <r>   -16.0742     0.0000     0.0000 </r>
       <r>   -16.0084     0.0002     0.0000 </r>
       <r>   -15.9427     0.0012     0.0001 </r>
       <r>   -15.8769     0.0073     0.0006 </r>
       <r>   -15.8111     0.0350     0.0029 </r>
       <r>   -15.7454     0.1368     0.0119 </r>
       <r>   -15.6796     0.4319     0.0403 </r>
       <r>   -15.6138     1.1022     0.1128 </r>
       <r>   -15.5481     2.2745     0.2624 </r>
       <r>   -15.4823     3.7952     0.5120 </r>
       <r>   -15.4165     5.1206     0.8487 </r>
       <r>   -15.3508     5.5867     1.2161 </r>
       <r>   -15.2850     4.9288     1.5403 </r>
       <r>   -15.2192     3.5163     1.7716 </r>
       <r>   -15.1535     2.0285     1.9050 </r>
       <r>   -15.0877     0.9463     1.9672 </r>
       <r>   -15.0219     0.3578     1.9907 </r>
       <r>   -14.9561     0.1154     1.9983 </r>
       <r>   -14.8904     0.0636     2.0025 </r>
       <r>   -14.8246     0.1712     2.0138 </r>
       <r>   -14.7588     0.6061     2.0536 </r>
       <r>   -14.6931     1.7856     2.1711 </r>
       <r>   -14.6273     4.2591     2.4512 </r>
       <r>   -14.5615     8.2148     2.9914 </r>
       <r>   -14.4958    12.8121     3.8340 </r>
       <r>   -14.4300    16.1587     4.8968 </r>
       <r>   -14.3642    16.4802     5.9806 </r>
       <r>   -14.2985    13.5922     6.8746 </r>
       <r>   -14.2327     9.0653     7.4708 </r>
       <r>   -14.1669     4.8890     7.7923 </r>
       <r>   -14.1012     2.1320     7.9325 </r>
       <r>   -14.0354     0.7518     7.9820 </r>
       <r>   -13.9696     0.2145     7.9961 </r>
       <r>   -13.9039     0.0512     7.9994 </r>
       <r>   -13.8381     0.0207     8.0008 </r>
       <r>   -13.7723     0.0586     8.0046 </r>
       <r>   -13.7066     0.2300     8.0198 </r>
       <r>   -13.6408     0.7470     8.0689 </r>
       <r>   -13.5750     1.9625     8.1980 </r>
       <r>   -13.5093     4.1693     8.4722 </r>
       <r>   -13.4435     7.1625     8.9432 </r>
       <r>   -13.3777     9.9502     9.5976 </r>
       <r>   -13.3120    11.1784    10.3328 </r>
       <r>   -13.2462    10.1558    11.0007 </r>
       <r>   -13.1804     7.4616    11.4915 </r>
       <r>   -13.1147     4.4332    11.7830 </r>
       <r>   -13.0489     2.1299    11.9231 </r>
       <r>   -12.9831     0.8274    11.9775 </r>
       <r>   -12.9174     0.2599    11.9946 </r>
       <r>   -12.8516     0.0660    11.9989 </r>
       <r>   -12.7858     0.0135    11.9998 </r>
       <r>   -12.7201     0.0023    12.0000 </r>
       <r>   -12.6543     0.0003    12.0000 </r>
       <r>   -12.5885     0.0004    12.0000 </r>
       <r>   -12.5228     0.0029    12.0002 </r>
       <r>   -12.4570     0.0176    12.0014 </r>
       <r>   -12.3912     0.0875    12.0071 </r>
       <r>   -12.3255     0.3507    12.0302 </r>
       <r>   -12.2597     1.1364    12.1049 </r>
       <r>   -12.1939     2.9774    12.3007 </r>
       <r>   -12.1281     6.3075    12.7156 </r>
       <r>   -12.0624    10.8053    13.4262 </r>
       <r>   -11.9966    14.9687    14.4107 </r>
       <r>   -11.9308    16.7694    15.5135 </r>
       <r>   -11.8651    15.1927    16.5127 </r>
       <r>   -11.7993    11.1311    17.2448 </r>
       <r>   -11.7335     6.5950    17.6785 </r>
       <r>   -11.6678     3.1597    17.8863 </r>
       <r>   -11.6020     1.2241    17.9668 </r>
       <r>   -11.5362     0.3835    17.9921 </r>
       <r>   -11.4705     0.0982    17.9985 </r>
       <r>   -11.4047     0.0264    18.0003 </r>
       <r>   -11.3389     0.0354    18.0026 </r>
       <r>   -11.2732     0.1275    18.0110 </r>
       <r>   -11.2074     0.4062    18.0377 </r>
       <r>   -11.1416     1.0495    18.1067 </r>
       <r>   -11.0759     2.1928    18.2509 </r>
       <r>   -11.0101     3.7046    18.4946 </r>
       <r>   -10.9443     5.0610    18.8274 </r>
       <r>   -10.8786     5.5909    19.1951 </r>
       <r>   -10.8128     4.9944    19.5236 </r>
       <r>   -10.7470     3.6077    19.7609 </r>
       <r>   -10.6813     2.1073    19.8994 </r>
       <r>   -10.6155     0.9953    19.9649 </r>
       <r>   -10.5497     0.3800    19.9899 </r>
       <r>   -10.4840     0.1173    19.9976 </r>
       <r>   -10.4182     0.0293    19.9995 </r>
       <r>   -10.3524     0.0059    19.9999 </r>
       <r>   -10.2867     0.0010    20.0000 </r>
       <r>   -10.2209     0.0001    20.0000 </r>
       <r>   -10.1551     0.0000    20.0000 </r>
       <r>   -10.0894     0.0000    20.0000 </r>
       <r>   -10.0236     0.0000    20.0000 </r>
       <r>    -9.9578     0.0000    20.0000 </r>
       <r>    -9.8921     0.0000    20.0000 </r>
       <r>    -9.8263     0.0000    20.0000 </r>
       <r>    -9.7605     0.0000    20.0000 </r>
       <r>    -9.6948     0.0000    20.0000 </r>
       <r>    -9.6290     0.0000    20.0000 </r>
       <r>    -9.5632     0.0000    20.0000 </r>
       <r>    -9.4974     0.0001    20.0000 </r>
       <r>    -9.4317     0.0006    20.0000 </r>
       <r>    -9.3659     0.0041    20.0003 </r>
       <r>    -9.3001     0.0215    20.0017 </r>
       <r>    -9.2344     0.0898    20.0076 </r>
       <r>    -9.1686     0.3040    20.0276 </r>
       <r>    -9.1028     0.8321    20.0824 </r>
       <r>    -9.0371     1.8437    20.2036 </r>
       <r>    -8.9713     3.3175    20.4218 </r>
       <r>    -8.9055     4.8918    20.7435 </r>
       <r>    -8.8398     6.0758    21.1431 </r>
       <r>    -8.7740     6.8243    21.5919 </r>
       <r>    -8.7082     7.8651    22.1092 </r>
       <r>    -8.6425    10.1141    22.7744 </r>
       <r>    -8.5767    13.4901    23.6616 </r>
       <r>    -8.5109    16.4526    24.7436 </r>
       <r>    -8.4452    17.1594    25.8722 </r>
       <r>    -8.3794    15.3181    26.8796 </r>
       <r>    -8.3136    12.7319    27.7169 </r>
       <r>    -8.2479    11.8198    28.4943 </r>
       <r>    -8.1821    13.5431    29.3850 </r>
       <r>    -8.1163    16.7108    30.4840 </r>
       <r>    -8.0506    19.2751    31.7517 </r>
       <r>    -7.9848    20.2872    33.0859 </r>
       <r>    -7.9190    20.3890    34.4269 </r>
       <r>    -7.8533    20.3456    35.7649 </r>
       <r>    -7.7875    19.6679    37.0584 </r>
       <r>    -7.7217    17.2316    38.1917 </r>
       <r>    -7.6560    12.9254    39.0418 </r>
       <r>    -7.5902     8.0400    39.5706 </r>
       <r>    -7.5244     4.0866    39.8393 </r>
       <r>    -7.4587     1.6866    39.9503 </r>
       <r>    -7.3929     0.5639    39.9873 </r>
       <r>    -7.3271     0.1533    39.9974 </r>
       <r>    -7.2614     0.0389    40.0000 </r>
       <r>    -7.1956     0.0360    40.0023 </r>
       <r>    -7.1298     0.1331    40.0111 </r>
       <r>    -7.0641     0.4696    40.0420 </r>
       <r>    -6.9983     1.3479    40.1306 </r>
       <r>    -6.9325     3.1290    40.3364 </r>
       <r>    -6.8668     5.8766    40.7229 </r>
       <r>    -6.8010     8.9454    41.3112 </r>
       <r>    -6.7352    11.1127    42.0421 </r>
       <r>    -6.6694    11.5633    42.8026 </r>
       <r>    -6.6037    10.9950    43.5257 </r>
       <r>    -6.5379    11.5898    44.2879 </r>
       <r>    -6.4721    15.4644    45.3050 </r>
       <r>    -6.4064    22.5977    46.7911 </r>
       <r>    -6.3406    29.9962    48.7639 </r>
       <r>    -6.2748    33.3629    50.9581 </r>
       <r>    -6.2091    30.3655    52.9552 </r>
       <r>    -6.1433    22.4772    54.4334 </r>
       <r>    -6.0775    13.5099    55.3220 </r>
       <r>    -6.0118     6.5903    55.7554 </r>
       <r>    -5.9460     2.6085    55.9269 </r>
       <r>    -5.8802     0.8376    55.9820 </r>
       <r>    -5.8145     0.2181    55.9964 </r>
       <r>    -5.7487     0.0461    55.9994 </r>
       <r>    -5.6829     0.0079    55.9999 </r>
       <r>    -5.6172     0.0011    56.0000 </r>
       <r>    -5.5514     0.0001    56.0000 </r>
       <r>    -5.4856     0.0000    56.0000 </r>
       <r>    -5.4199     0.0000    56.0000 </r>
       <r>    -5.3541     0.0000    56.0000 </r>
       <r>    -5.2883     0.0000    56.0000 </r>
       <r>    -5.2226     0.0000    56.0000 </r>
       <r>    -5.1568     0.0000    56.0000 </r>
       <r>    -5.0910     0.0000    56.0000 </r>
       <r>    -5.0253     0.0000    56.0000 </r>
       <r>    -4.9595     0.0000    56.0000 </r>
       <r>    -4.8937     0.0000    56.0000 </r>
       <r>    -4.8280     0.0000    56.0000 </r>
       <r>    -4.7622     0.0000    56.0000 </r>
       <r>    -4.6964     0.0000    56.0000 </r>
       <r>    -4.6307     0.0000    56.0000 </r>
       <r>    -4.5649     0.0000    56.0000 </r>
       <r>    -4.4991     0.0000    56.0000 </r>
       <r>    -4.4334     0.0000    56.0000 </r>
       <r>    -4.3676     0.0000    56.0000 </r>
       <r>    -4.3018     0.0000    56.0000 </r>
       <r>    -4.2361     0.0000    56.0000 </r>
       <r>    -4.1703     0.0000    56.0000 </r>
       <r>    -4.1045     0.0000    56.0000 </r>
       <r>    -4.0387     0.0000    56.0000 </r>
       <r>    -3.9730     0.0000    56.0000 </r>
       <r>    -3.9072     0.0000    56.0000 </r>
       <r>    -3.8414     0.0000    56.0000 </r>
       <r>    -3.7757     0.0000    56.0000 </r>
       <r>    -3.7099     0.0000    56.0000 </r>
       <r>    -3.6441     0.0000    56.0000 </r>
       <r>    -3.5784     0.0000    56.0000 </r>
       <r>    -3.5126     0.0000    56.0000 </r>
       <r>    -3.4468     0.0000    56.0000 </r>
       <r>    -3.3811     0.0000    56.0000 </r>
       <r>    -3.3153     0.0000    56.0000 </r>
       <r>    -3.2495     0.0000    56.0000 </r>
       <r>    -3.1838     0.0000    56.0000 </r>
       <r>    -3.1180     0.0000    56.0000 </r>
       <r>    -3.0522     0.0000    56.0000 </r>
       <r>    -2.9865     0.0000    56.0000 </r>
       <r>    -2.9207     0.0000    56.0000 </r>
       <r>    -2.8549     0.0000    56.0000 </r>
       <r>    -2.7892     0.0000    56.0000 </r>
       <r>    -2.7234     0.0000    56.0000 </r>
       <r>    -2.6576     0.0000    56.0000 </r>
       <r>    -2.5919     0.0000    56.0000 </r>
       <r>    -2.5261     0.0000    56.0000 </r>
       <r>    -2.4603     0.0000    56.0000 </r>
       <r>    -2.3946     0.0000    56.0000 </r>
       <r>    -2.3288     0.0000    56.0000 </r>
       <r>    -2.2630     0.0000    56.0000 </r>
       <r>    -2.1973     0.0000    56.0000 </r>
       <r>    -2.1315     0.0000    56.0000 </r>
       <r>    -2.0657     0.0004    56.0000 </r>
       <r>    -2.0000     0.0031    56.0002 </r>
       <r>    -1.9342     0.0194    56.0015 </r>
       <r>    -1.8684     0.0975    56.0079 </r>
       <r>    -1.8027     0.3994    56.0342 </r>
       <r>    -1.7369     1.3344    56.1220 </r>
       <r>    -1.6711     3.6386    56.3613 </r>
       <r>    -1.6054     8.1053    56.8943 </r>
       <r>    -1.5396    14.7764    57.8661 </r>
       <r>    -1.4738    22.1368    59.3220 </r>
       <r>    -1.4081    27.5512    61.1340 </r>
       <r>    -1.3423    29.3095    63.0616 </r>
       <r>    -1.2765    28.4242    64.9310 </r>
       <r>    -1.2107    27.7593    66.7567 </r>
       <r>    -1.1450    28.9051    68.6577 </r>
       <r>    -1.0792    30.2738    70.6487 </r>
       <r>    -1.0134    28.7911    72.5422 </r>
       <r>    -0.9477    23.2491    74.0713 </r>
       <r>    -0.8819    15.4683    75.0886 </r>
       <r>    -0.8161     8.3814    75.6398 </r>
       <r>    -0.7504     3.6829    75.8820 </r>
       <r>    -0.6846     1.3118    75.9683 </r>
       <r>    -0.6188     0.3889    75.9939 </r>
       <r>    -0.5531     0.1516    76.0038 </r>
       <r>    -0.4873     0.2944    76.0232 </r>
       <r>    -0.4215     0.9812    76.0877 </r>
       <r>    -0.3558     2.7900    76.2712 </r>
       <r>    -0.2900     6.4419    76.6949 </r>
       <r>    -0.2242    12.0838    77.4896 </r>
       <r>    -0.1585    18.5420    78.7091 </r>
       <r>    -0.0927    23.6795    80.2664 </r>
       <r>    -0.0269    26.1789    81.9881 </r>
       <r>     0.0388    26.9491    83.7605 </r>
       <r>     0.1046    28.0875    85.6077 </r>
       <r>     0.1704    30.2945    87.6001 </r>
       <r>     0.2361    31.8870    89.6973 </r>
       <r>     0.3019    30.5499    91.7065 </r>
       <r>     0.3677    25.6072    93.3906 </r>
       <r>     0.4334    18.4694    94.6053 </r>
       <r>     0.4992    11.3682    95.3529 </r>
       <r>     0.5650     5.9267    95.7427 </r>
       <r>     0.6307     2.5948    95.9134 </r>
       <r>     0.6965     0.9456    95.9756 </r>
       <r>     0.7623     0.2846    95.9943 </r>
       <r>     0.8280     0.0703    95.9989 </r>
       <r>     0.8938     0.0142    95.9998 </r>
       <r>     0.9596     0.0023    96.0000 </r>
       <r>     1.0253     0.0003    96.0000 </r>
       <r>     1.0911     0.0000    96.0000 </r>
       <r>     1.1569     0.0000    96.0000 </r>
       <r>     1.2226     0.0000    96.0000 </r>
       <r>     1.2884     0.0000    96.0000 </r>
       <r>     1.3542     0.0000    96.0000 </r>
       <r>     1.4200     0.0000    96.0000 </r>
       <r>     1.4857     0.0000    96.0000 </r>
       <r>     1.5515     0.0000    96.0000 </r>
       <r>     1.6173     0.0000    96.0000 </r>
       <r>     1.6830     0.0000    96.0000 </r>
       <r>     1.7488     0.0000    96.0000 </r>
       <r>     1.8146     0.0000    96.0000 </r>
       <r>     1.8803     0.0000    96.0000 </r>
       <r>     1.9461     0.0000    96.0000 </r>
       <r>     2.0119     0.0000    96.0000 </r>
       <r>     2.0776     0.0000    96.0000 </r>
       <r>     2.1434     0.0000    96.0000 </r>
       <r>     2.2092     0.0000    96.0000 </r>
       <r>     2.2749     0.0000    96.0000 </r>
       <r>     2.3407     0.0000    96.0000 </r>
      </set>
     </set>
    </array>
   </total>
  </dos>
 </calculation>
 <structure name="finalpos" >
  <crystal>
   <varray name="basis" >
    <v>      20.00000000       0.00000000       0.00000000 </v>
    <v>       0.00000000      20.00000000       0.00000000 </v>
    <v>       0.00000000       0.00000000      20.00000000 </v>
   </varray>
   <i name="volume">   8000.00000000 </i>
   <varray name="rec_basis" >
    <v>       0.05000000       0.00000000       0.00000000 </v>
    <v>       0.00000000       0.05000000       0.00000000 </v>
    <v>       0.00000000       0.00000000       0.05000000 </v>
   </varray>
  </crystal>
  <varray name="positions" >
   <v>       0.47503036       0.55693877       0.38140194 </v>
   <v>       0.36592944       0.53923729       0.43475413 </v>
   <v>       0.54310093       0.45552626       0.39343748 </v>
   <v>       0.53215357       0.65093516       0.43585993 </v>
   <v>       0.38163696       0.51425733       0.55388448 </v>
   <v>       0.55921916       0.43033867       0.51247795 </v>
   <v>       0.54824482       0.62621386       0.55499846 </v>
   <v>       0.61613917       0.52463359       0.56663152 </v>
   <v>       0.44991965       0.41294145       0.56551806 </v>
   <v>       0.43897575       0.60835393       0.60794524 </v>
   <v>       0.41363126       0.35248570       0.53237083 </v>
   <v>       0.45940372       0.39580801       0.64092532 </v>
   <v>       0.60258348       0.36573806       0.51997021 </v>
   <v>       0.68613129       0.53559146       0.53418555 </v>
   <v>       0.62773637       0.50892231       0.64205191 </v>
   <v>       0.61217214       0.46561763       0.35881407 </v>
   <v>       0.50799170       0.39561055       0.35812103 </v>
   <v>       0.46485790       0.57282517       0.30555231 </v>
   <v>       0.58462317       0.68615922       0.58952940 </v>
   <v>       0.44831950       0.59368452       0.68388470 </v>
   <v>       0.39568539       0.67285793       0.60192921 </v>
   <v>       0.31207437       0.50301702       0.58770549 </v>
   <v>       0.32857317       0.48038627       0.39995539 </v>
   <v>       0.32170920       0.60285758       0.42655148 </v>
   <v>       0.49003551       0.71596673       0.42767519 </v>
   <v>       0.60109202       0.66349553       0.40078574 </v>
  </varray>
 </structure>
</modeling>
