  26  26   0   0
  0.3076923E+03  0.2000000E-08  0.2000000E-08  0.2000000E-08  0.2000000E-16
  1.000000000000000E-004
  CAR 
 SiGe                                    
      2.17588611    -16.96872578  301     -5.48189633      1.00000000
    -16.969  0.0000E+00  0.0000E+00
    -16.905  0.0000E+00  0.0000E+00
    -16.841  0.0000E+00  0.0000E+00
    -16.777  0.0000E+00  0.0000E+00
    -16.713  0.0000E+00  0.0000E+00
    -16.650  0.0000E+00  0.0000E+00
    -16.586  0.0000E+00  0.0000E+00
    -16.522  0.0000E+00  0.0000E+00
    -16.458  0.0000E+00  0.0000E+00
    -16.394  0.0000E+00  0.0000E+00
    -16.331  0.0000E+00  0.0000E+00
    -16.267  0.0000E+00  0.0000E+00
    -16.203  0.0000E+00  0.0000E+00
    -16.139  0.4985E-17  0.3181E-18
    -16.075  0.2243E-15  0.1463E-16
    -16.011  0.7233E-14  0.4762E-15
    -15.948  0.1921E-12  0.1274E-13
    -15.884  0.4172E-11  0.2789E-12
    -15.820  0.7406E-10  0.5005E-11
    -15.756  0.1075E-08  0.7361E-10
    -15.692  0.1276E-07  0.8882E-09
    -15.629  0.1240E-06  0.8798E-08
    -15.565  0.9847E-06  0.7164E-07
    -15.501  0.6399E-05  0.4800E-06
    -15.437  0.3402E-04  0.2651E-05
    -15.373  0.1480E-03  0.1210E-04
    -15.310  0.5270E-03  0.4573E-04
    -15.246  0.1536E-02  0.1437E-03
    -15.182  0.3662E-02  0.3774E-03
    -15.118  0.7148E-02  0.8336E-03
    -15.054  0.1142E-01  0.1562E-02
    -14.990  0.1494E-01  0.2516E-02
    -14.927  0.1599E-01  0.3536E-02
    -14.863  0.1401E-01  0.4430E-02
    -14.799  0.1005E-01  0.5071E-02
    -14.735  0.5901E-02  0.5448E-02
    -14.671  0.2836E-02  0.5629E-02
    -14.608  0.1117E-02  0.5700E-02
    -14.544  0.3669E-03  0.5724E-02
    -14.480  0.1352E-03  0.5732E-02
    -14.416  0.1939E-03  0.5745E-02
    -14.352  0.6139E-03  0.5784E-02
    -14.288  0.1771E-02  0.5897E-02
    -14.225  0.4265E-02  0.6169E-02
    -14.161  0.8623E-02  0.6719E-02
    -14.097  0.1488E-01  0.7669E-02
    -14.033  0.2239E-01  0.9098E-02
    -13.969  0.3003E-01  0.1101E-01
    -13.906  0.3630E-01  0.1333E-01
    -13.842  0.3933E-01  0.1584E-01
    -13.778  0.3750E-01  0.1823E-01
    -13.714  0.3075E-01  0.2020E-01
    -13.650  0.2129E-01  0.2155E-01
    -13.587  0.1228E-01  0.2234E-01
    -13.523  0.5860E-02  0.2271E-01
    -13.459  0.2301E-02  0.2286E-01
    -13.395  0.7416E-03  0.2291E-01
    -13.331  0.1963E-03  0.2292E-01
    -13.267  0.4539E-04  0.2292E-01
    -13.204  0.2612E-04  0.2292E-01
    -13.140  0.9585E-04  0.2293E-01
    -13.076  0.3950E-03  0.2296E-01
    -13.012  0.1347E-02  0.2304E-01
    -12.948  0.3759E-02  0.2328E-01
    -12.885  0.8589E-02  0.2383E-01
    -12.821  0.1606E-01  0.2485E-01
    -12.757  0.2459E-01  0.2642E-01
    -12.693  0.3082E-01  0.2839E-01
    -12.629  0.3161E-01  0.3041E-01
    -12.565  0.2655E-01  0.3210E-01
    -12.502  0.1825E-01  0.3327E-01
    -12.438  0.1027E-01  0.3392E-01
    -12.374  0.4732E-02  0.3422E-01
    -12.310  0.1784E-02  0.3434E-01
    -12.246  0.5509E-03  0.3437E-01
    -12.183  0.1408E-03  0.3438E-01
    -12.119  0.3946E-04  0.3438E-01
    -12.055  0.5858E-04  0.3439E-01
    -11.991  0.2213E-03  0.3440E-01
    -11.927  0.7426E-03  0.3445E-01
    -11.863  0.2053E-02  0.3458E-01
    -11.800  0.4681E-02  0.3488E-01
    -11.736  0.8882E-02  0.3545E-01
    -11.672  0.1427E-01  0.3636E-01
    -11.608  0.1998E-01  0.3763E-01
    -11.544  0.2545E-01  0.3926E-01
    -11.481  0.3056E-01  0.4121E-01
    -11.417  0.3475E-01  0.4342E-01
    -11.353  0.3627E-01  0.4574E-01
    -11.289  0.3329E-01  0.4786E-01
    -11.225  0.2601E-01  0.4952E-01
    -11.162  0.1696E-01  0.5060E-01
    -11.098  0.9137E-02  0.5119E-01
    -11.034  0.4047E-02  0.5145E-01
    -10.970  0.1474E-02  0.5154E-01
    -10.906  0.4637E-03  0.5157E-01
    -10.842  0.2252E-03  0.5158E-01
    -10.779  0.4575E-03  0.5161E-01
    -10.715  0.1316E-02  0.5170E-01
    -10.651  0.3232E-02  0.5190E-01
    -10.587  0.6512E-02  0.5232E-01
    -10.523  0.1074E-01  0.5300E-01
    -10.460  0.1450E-01  0.5393E-01
    -10.396  0.1603E-01  0.5495E-01
    -10.332  0.1450E-01  0.5588E-01
    -10.268  0.1074E-01  0.5656E-01
    -10.204  0.6511E-02  0.5698E-01
    -10.140  0.3231E-02  0.5719E-01
    -10.077  0.1312E-02  0.5727E-01
    -10.013  0.4361E-03  0.5730E-01
     -9.949  0.1186E-03  0.5730E-01
     -9.885  0.2641E-04  0.5731E-01
     -9.821  0.4816E-05  0.5731E-01
     -9.758  0.7831E-06  0.5731E-01
     -9.694  0.6451E-06  0.5731E-01
     -9.630  0.3846E-05  0.5731E-01
     -9.566  0.2160E-04  0.5731E-01
     -9.502  0.9948E-04  0.5731E-01
     -9.439  0.3750E-03  0.5734E-01
     -9.375  0.1157E-02  0.5741E-01
     -9.311  0.2921E-02  0.5760E-01
     -9.247  0.6045E-02  0.5798E-01
     -9.183  0.1027E-01  0.5864E-01
     -9.119  0.1445E-01  0.5956E-01
     -9.056  0.1720E-01  0.6066E-01
     -8.992  0.1850E-01  0.6184E-01
     -8.928  0.2038E-01  0.6314E-01
     -8.864  0.2561E-01  0.6478E-01
     -8.800  0.3471E-01  0.6699E-01
     -8.737  0.4426E-01  0.6982E-01
     -8.673  0.4886E-01  0.7293E-01
     -8.609  0.4571E-01  0.7585E-01
     -8.545  0.3754E-01  0.7825E-01
     -8.481  0.3077E-01  0.8021E-01
     -8.417  0.3069E-01  0.8217E-01
     -8.354  0.3759E-01  0.8457E-01
     -8.290  0.4690E-01  0.8756E-01
     -8.226  0.5306E-01  0.9095E-01
     -8.162  0.5407E-01  0.9440E-01
     -8.098  0.5243E-01  0.9774E-01
     -8.035  0.5153E-01  0.1010E+00
     -7.971  0.5151E-01  0.1043E+00
     -7.907  0.4932E-01  0.1075E+00
     -7.843  0.4244E-01  0.1102E+00
     -7.779  0.3160E-01  0.1122E+00
     -7.715  0.1999E-01  0.1135E+00
     -7.652  0.1067E-01  0.1141E+00
     -7.588  0.4781E-02  0.1145E+00
     -7.524  0.1793E-02  0.1146E+00
     -7.460  0.5627E-03  0.1146E+00
     -7.396  0.1585E-03  0.1146E+00
     -7.333  0.9884E-04  0.1146E+00
     -7.269  0.2993E-03  0.1146E+00
     -7.205  0.1048E-02  0.1147E+00
     -7.141  0.3056E-02  0.1149E+00
     -7.077  0.7308E-02  0.1154E+00
     -7.014  0.1434E-01  0.1163E+00
     -6.950  0.2320E-01  0.1178E+00
     -6.886  0.3138E-01  0.1198E+00
     -6.822  0.3670E-01  0.1221E+00
     -6.758  0.4012E-01  0.1247E+00
     -6.694  0.4581E-01  0.1276E+00
     -6.631  0.5748E-01  0.1313E+00
     -6.567  0.7369E-01  0.1360E+00
     -6.503  0.8728E-01  0.1415E+00
     -6.439  0.9015E-01  0.1473E+00
     -6.375  0.7929E-01  0.1523E+00
     -6.312  0.5884E-01  0.1561E+00
     -6.248  0.3667E-01  0.1584E+00
     -6.184  0.1913E-01  0.1597E+00
     -6.120  0.8330E-02  0.1602E+00
     -6.056  0.3017E-02  0.1604E+00
     -5.992  0.9064E-03  0.1604E+00
     -5.929  0.2253E-03  0.1605E+00
     -5.865  0.4624E-04  0.1605E+00
     -5.801  0.7822E-05  0.1605E+00
     -5.737  0.1089E-05  0.1605E+00
     -5.673  0.1245E-06  0.1605E+00
     -5.610  0.1169E-07  0.1605E+00
     -5.546  0.9010E-09  0.1605E+00
     -5.482  0.5692E-10  0.1605E+00
     -5.418  0.2946E-11  0.1605E+00
     -5.354  0.1249E-12  0.1605E+00
     -5.291  0.4337E-14  0.1605E+00
     -5.227  0.1196E-15  0.1605E+00
     -5.163  0.0000E+00  0.1605E+00
     -5.099  0.0000E+00  0.1605E+00
     -5.035  0.0000E+00  0.1605E+00
     -4.971  0.0000E+00  0.1605E+00
     -4.908  0.0000E+00  0.1605E+00
     -4.844  0.0000E+00  0.1605E+00
     -4.780  0.0000E+00  0.1605E+00
     -4.716  0.0000E+00  0.1605E+00
     -4.652  0.0000E+00  0.1605E+00
     -4.589  0.0000E+00  0.1605E+00
     -4.525  0.0000E+00  0.1605E+00
     -4.461  0.0000E+00  0.1605E+00
     -4.397  0.0000E+00  0.1605E+00
     -4.333  0.0000E+00  0.1605E+00
     -4.269  0.0000E+00  0.1605E+00
     -4.206  0.0000E+00  0.1605E+00
     -4.142  0.0000E+00  0.1605E+00
     -4.078  0.0000E+00  0.1605E+00
     -4.014  0.0000E+00  0.1605E+00
     -3.950  0.0000E+00  0.1605E+00
     -3.887  0.0000E+00  0.1605E+00
     -3.823  0.0000E+00  0.1605E+00
     -3.759  0.0000E+00  0.1605E+00
     -3.695  0.0000E+00  0.1605E+00
     -3.631  0.0000E+00  0.1605E+00
     -3.567  0.0000E+00  0.1605E+00
     -3.504  0.0000E+00  0.1605E+00
     -3.440  0.0000E+00  0.1605E+00
     -3.376  0.0000E+00  0.1605E+00
     -3.312  0.0000E+00  0.1605E+00
     -3.248  0.0000E+00  0.1605E+00
     -3.185  0.0000E+00  0.1605E+00
     -3.121  0.0000E+00  0.1605E+00
     -3.057  0.0000E+00  0.1605E+00
     -2.993  0.0000E+00  0.1605E+00
     -2.929  0.0000E+00  0.1605E+00
     -2.866  0.9471E-16  0.1605E+00
     -2.802  0.3165E-14  0.1605E+00
     -2.738  0.8828E-13  0.1605E+00
     -2.674  0.2013E-11  0.1605E+00
     -2.610  0.3752E-10  0.1605E+00
     -2.546  0.5720E-09  0.1605E+00
     -2.483  0.7131E-08  0.1605E+00
     -2.419  0.7271E-07  0.1605E+00
     -2.355  0.6065E-06  0.1605E+00
     -2.291  0.4138E-05  0.1605E+00
     -2.227  0.2311E-04  0.1605E+00
     -2.164  0.1056E-03  0.1605E+00
     -2.100  0.3949E-03  0.1605E+00
     -2.036  0.1210E-02  0.1606E+00
     -1.972  0.3041E-02  0.1608E+00
     -1.908  0.6290E-02  0.1612E+00
     -1.844  0.1078E-01  0.1619E+00
     -1.781  0.1558E-01  0.1628E+00
     -1.717  0.1969E-01  0.1641E+00
     -1.653  0.2324E-01  0.1656E+00
     -1.589  0.2770E-01  0.1674E+00
     -1.525  0.3420E-01  0.1695E+00
     -1.462  0.4174E-01  0.1722E+00
     -1.398  0.4735E-01  0.1752E+00
     -1.334  0.4883E-01  0.1783E+00
     -1.270  0.4730E-01  0.1814E+00
     -1.206  0.4644E-01  0.1843E+00
     -1.143  0.4869E-01  0.1874E+00
     -1.079  0.5253E-01  0.1908E+00
     -1.015  0.5415E-01  0.1942E+00
     -0.951  0.5178E-01  0.1975E+00
     -0.887  0.4739E-01  0.2006E+00
     -0.823  0.4384E-01  0.2034E+00
     -0.760  0.4167E-01  0.2060E+00
     -0.696  0.3973E-01  0.2086E+00
     -0.632  0.3817E-01  0.2110E+00
     -0.568  0.3929E-01  0.2135E+00
     -0.504  0.4490E-01  0.2164E+00
     -0.441  0.5386E-01  0.2198E+00
     -0.377  0.6303E-01  0.2238E+00
     -0.313  0.7005E-01  0.2283E+00
     -0.249  0.7472E-01  0.2331E+00
     -0.185  0.7785E-01  0.2380E+00
     -0.121  0.7972E-01  0.2431E+00
     -0.058  0.8018E-01  0.2482E+00
      0.006  0.7932E-01  0.2533E+00
      0.070  0.7727E-01  0.2582E+00
      0.134  0.7313E-01  0.2629E+00
      0.198  0.6499E-01  0.2670E+00
      0.261  0.5198E-01  0.2704E+00
      0.325  0.3609E-01  0.2727E+00
      0.389  0.2122E-01  0.2740E+00
      0.453  0.1041E-01  0.2747E+00
      0.517  0.4228E-02  0.2749E+00
      0.581  0.1413E-02  0.2750E+00
      0.644  0.3879E-03  0.2751E+00
      0.708  0.8732E-04  0.2751E+00
      0.772  0.1610E-04  0.2751E+00
      0.836  0.2432E-05  0.2751E+00
      0.900  0.3006E-06  0.2751E+00
      0.963  0.3042E-07  0.2751E+00
      1.027  0.2518E-08  0.2751E+00
      1.091  0.1705E-09  0.2751E+00
      1.155  0.9449E-11  0.2751E+00
      1.219  0.4282E-12  0.2751E+00
      1.282  0.1586E-13  0.2751E+00
      1.346  0.4885E-15  0.2751E+00
      1.410  0.0000E+00  0.2751E+00
      1.474  0.0000E+00  0.2751E+00
      1.538  0.0000E+00  0.2751E+00
      1.602  0.0000E+00  0.2751E+00
      1.665  0.0000E+00  0.2751E+00
      1.729  0.0000E+00  0.2751E+00
      1.793  0.0000E+00  0.2751E+00
      1.857  0.0000E+00  0.2751E+00
      1.921  0.0000E+00  0.2751E+00
      1.984  0.0000E+00  0.2751E+00
      2.048  0.0000E+00  0.2751E+00
      2.112  0.0000E+00  0.2751E+00
      2.176  0.0000E+00  0.2751E+00
