       N       E                     dE             d eps       ncg     rms          rms(c)
DAV:   1     0.198402876801E+03    0.19840E+03   -0.10499E+04   116   0.546E+02
DAV:   2    -0.310311010223E+02   -0.22943E+03   -0.21453E+03   144   0.102E+02
DAV:   3    -0.104165646461E+03   -0.73135E+02   -0.72954E+02   112   0.539E+01
DAV:   4    -0.108255596362E+03   -0.40899E+01   -0.40737E+01   104   0.180E+01
DAV:   5    -0.108342044944E+03   -0.86449E-01   -0.86406E-01   144   0.289E+00    0.153E+01
DAV:   6    -0.105083702897E+03    0.32583E+01   -0.15778E+00    96   0.460E+00    0.890E+00
DAV:   7    -0.103369551838E+03    0.17142E+01   -0.41795E+00   104   0.682E+00    0.124E+00
DAV:   8    -0.103319264674E+03    0.50287E-01   -0.27334E-01   104   0.223E+00    0.628E-01
DAV:   9    -0.103284430882E+03    0.34834E-01   -0.77440E-02   128   0.800E-01    0.347E-01
DAV:  10    -0.103284330459E+03    0.10042E-03   -0.29333E-03   112   0.215E-01    0.168E-01
DAV:  11    -0.103283695222E+03    0.63524E-03   -0.71693E-03   104   0.245E-01    0.804E-02
DAV:  12    -0.103287702431E+03   -0.40072E-02   -0.86650E-04   104   0.931E-02    0.580E-02
DAV:  13    -0.103292507960E+03   -0.48055E-02   -0.20429E-03   112   0.115E-01    0.351E-02
DAV:  14    -0.103296463698E+03   -0.39557E-02   -0.34045E-04   112   0.524E-02    0.166E-02
DAV:  15    -0.103301037626E+03   -0.45739E-02   -0.54745E-04   112   0.618E-02    0.158E-02
DAV:  16    -0.103302251084E+03   -0.12135E-02   -0.67726E-05   112   0.238E-02    0.718E-03
DAV:  17    -0.103303298974E+03   -0.10479E-02   -0.84627E-05   104   0.223E-02    0.359E-03
DAV:  18    -0.103303604178E+03   -0.30520E-03   -0.99921E-06   104   0.862E-03    0.197E-03
DAV:  19    -0.103303783834E+03   -0.17966E-03   -0.71782E-06    96   0.693E-03    0.199E-03
DAV:  20    -0.103303835463E+03   -0.51629E-04   -0.92014E-07    88   0.350E-03    0.575E-04
DAV:  21    -0.103303864613E+03   -0.29150E-04   -0.92183E-07    80   0.256E-03    0.571E-04
DAV:  22    -0.103303872460E+03   -0.78468E-05   -0.15450E-07    88   0.127E-03    0.248E-04
DAV:  23    -0.103303877467E+03   -0.50070E-05   -0.14012E-07    80   0.957E-04    0.152E-04
DAV:  24    -0.103303879539E+03   -0.20720E-05   -0.29948E-08    80   0.489E-04    0.673E-05
DAV:  25    -0.103303880718E+03   -0.11787E-05   -0.20360E-08    80   0.364E-04    0.502E-05
DAV:  26    -0.103303881105E+03   -0.38694E-06   -0.26662E-09    64   0.193E-04
   1 F= -.10330388E+03 E0= -.10330388E+03  d E =-.103304E+03
       N       E                     dE             d eps       ncg     rms          rms(c)
DAV:   1    -0.103485044085E+03   -0.18116E+00   -0.76882E+00    84   0.119E+01    0.120E+00
DAV:   2    -0.103510140515E+03   -0.25096E-01   -0.33898E-01   120   0.234E+00    0.620E-01
DAV:   3    -0.103504570705E+03    0.55698E-02   -0.14586E-02   120   0.489E-01    0.301E-01
DAV:   4    -0.103503434048E+03    0.11367E-02   -0.72616E-03   112   0.297E-01    0.704E-02
DAV:   5    -0.103503284904E+03    0.14914E-03   -0.54943E-04   112   0.104E-01    0.427E-02
DAV:   6    -0.103503332347E+03   -0.47443E-04   -0.16047E-04   120   0.503E-02    0.216E-02
DAV:   7    -0.103503509820E+03   -0.17747E-03   -0.63013E-05   104   0.349E-02    0.907E-03
DAV:   8    -0.103503602996E+03   -0.93176E-04   -0.19071E-05   112   0.176E-02    0.864E-03
DAV:   9    -0.103503676139E+03   -0.73143E-04   -0.27677E-06   112   0.599E-03    0.559E-03
DAV:  10    -0.103503864139E+03   -0.18800E-03   -0.19427E-05   104   0.105E-02    0.408E-03
DAV:  11    -0.103503886392E+03   -0.22253E-04   -0.72870E-07    96   0.379E-03    0.213E-03
DAV:  12    -0.103503968525E+03   -0.82133E-04   -0.52095E-06   104   0.613E-03    0.139E-03
DAV:  13    -0.103503987803E+03   -0.19278E-04   -0.72977E-07    88   0.333E-03    0.708E-04
DAV:  14    -0.103504005765E+03   -0.17962E-04   -0.40591E-07    88   0.184E-03    0.456E-04
DAV:  15    -0.103504019536E+03   -0.13771E-04   -0.35647E-07    88   0.138E-03    0.489E-04
DAV:  16    -0.103504025014E+03   -0.54781E-05   -0.81510E-08    88   0.800E-04    0.242E-04
DAV:  17    -0.103504027039E+03   -0.20251E-05   -0.31316E-08    88   0.475E-04    0.262E-04
DAV:  18    -0.103504028684E+03   -0.16449E-05   -0.24400E-08    80   0.532E-04    0.138E-04
DAV:  19    -0.103504029199E+03   -0.51520E-06   -0.95725E-09    88   0.295E-04
   2 F= -.10350403E+03 E0= -.10350403E+03  d E =-.200148E+00
       N       E                     dE             d eps       ncg     rms          rms(c)
DAV:   1    -0.103505953929E+03   -0.19252E-02   -0.62062E-02    84   0.108E+00    0.104E-01
DAV:   2    -0.103506139224E+03   -0.18530E-03   -0.27407E-03   120   0.210E-01    0.577E-02
DAV:   3    -0.103506085083E+03    0.54141E-04   -0.12444E-04   120   0.451E-02    0.281E-02
DAV:   4    -0.103506068724E+03    0.16359E-04   -0.58851E-05   112   0.269E-02    0.723E-03
DAV:   5    -0.103506067518E+03    0.12062E-05   -0.43936E-06   112   0.939E-03    0.384E-03
DAV:   6    -0.103506070461E+03   -0.29428E-05   -0.13599E-06    88   0.476E-03    0.169E-03
DAV:   7    -0.103506076251E+03   -0.57895E-05   -0.68605E-07    80   0.343E-03    0.731E-04
DAV:   8    -0.103506079348E+03   -0.30975E-05   -0.24170E-07    88   0.186E-03    0.689E-04
DAV:   9    -0.103506082700E+03   -0.33519E-05   -0.13347E-07    80   0.114E-03    0.247E-04
DAV:  10    -0.103506086867E+03   -0.41673E-05   -0.32037E-07    80   0.126E-03    0.281E-04
DAV:  11    -0.103506087452E+03   -0.58435E-06   -0.29259E-08    88   0.566E-04
   3 F= -.10350609E+03 E0= -.10350609E+03  d E =-.202206E+00
       N       E                     dE             d eps       ncg     rms          rms(c)
DAV:   1    -0.103554134337E+03   -0.48047E-01   -0.11553E+00    84   0.458E+00    0.457E-01
DAV:   2    -0.103559650194E+03   -0.55159E-02   -0.67125E-02   120   0.995E-01    0.227E-01
DAV:   3    -0.103559154688E+03    0.49551E-03   -0.29293E-03   128   0.225E-01    0.118E-01
DAV:   4    -0.103559170180E+03   -0.15492E-04   -0.95405E-04   112   0.117E-01    0.409E-02
DAV:   5    -0.103559159359E+03    0.10822E-04   -0.72930E-05   112   0.381E-02    0.218E-02
DAV:   6    -0.103559153080E+03    0.62792E-05   -0.22073E-05   120   0.205E-02    0.969E-03
DAV:   7    -0.103559164639E+03   -0.11560E-04   -0.12517E-05   112   0.146E-02    0.352E-03
DAV:   8    -0.103559173144E+03   -0.85052E-05   -0.22347E-06    96   0.647E-03    0.257E-03
DAV:   9    -0.103559179617E+03   -0.64725E-05   -0.35609E-07    88   0.214E-03    0.137E-03
DAV:  10    -0.103559195654E+03   -0.16037E-04   -0.13767E-06    88   0.356E-03    0.986E-04
DAV:  11    -0.103559199247E+03   -0.35931E-05   -0.20808E-07    88   0.161E-03    0.647E-04
DAV:  12    -0.103559207448E+03   -0.82007E-05   -0.45705E-07    80   0.181E-03    0.248E-04
DAV:  13    -0.103559210831E+03   -0.33833E-05   -0.19779E-07    88   0.114E-03    0.233E-04
DAV:  14    -0.103559213309E+03   -0.24777E-05   -0.66023E-08    88   0.808E-04    0.160E-04
DAV:  15    -0.103559214407E+03   -0.10986E-05   -0.46885E-08    88   0.511E-04    0.988E-05
DAV:  16    -0.103559214821E+03   -0.41374E-06   -0.77352E-09    88   0.259E-04
   4 F= -.10355921E+03 E0= -.10355921E+03  d E =-.531274E-01
       N       E                     dE             d eps       ncg     rms          rms(c)
DAV:   1    -0.103564328039E+03   -0.51136E-02   -0.25990E-01    84   0.218E+00    0.213E-01
DAV:   2    -0.103565575878E+03   -0.12478E-02   -0.15257E-02   120   0.475E-01    0.109E-01
DAV:   3    -0.103565466709E+03    0.10917E-03   -0.68113E-04   128   0.109E-01    0.560E-02
DAV:   4    -0.103565475574E+03   -0.88652E-05   -0.21962E-04   112   0.558E-02    0.205E-02
DAV:   5    -0.103565471173E+03    0.44012E-05   -0.16049E-05   112   0.180E-02    0.106E-02
DAV:   6    -0.103565468402E+03    0.27709E-05   -0.55915E-06   112   0.102E-02    0.442E-03
DAV:   7    -0.103565470620E+03   -0.22177E-05   -0.28800E-06   112   0.685E-03    0.180E-03
DAV:   8    -0.103565472784E+03   -0.21642E-05   -0.40081E-07    88   0.279E-03    0.115E-03
DAV:   9    -0.103565475157E+03   -0.23728E-05   -0.11547E-07    80   0.121E-03    0.514E-04
DAV:  10    -0.103565479430E+03   -0.42733E-05   -0.23147E-07    80   0.153E-03    0.386E-04
DAV:  11    -0.103565481758E+03   -0.23285E-05   -0.10777E-07    88   0.100E-03    0.204E-04
DAV:  12    -0.103565483978E+03   -0.22191E-05   -0.10154E-07    88   0.877E-04    0.107E-04
DAV:  13    -0.103565484709E+03   -0.73165E-06   -0.26134E-08    88   0.501E-04
   5 F= -.10356548E+03 E0= -.10356548E+03  d E =-.593973E-01
       N       E                     dE             d eps       ncg     rms          rms(c)
DAV:   1    -0.103580331426E+03   -0.14847E-01   -0.46191E-01    84   0.310E+00    0.268E-01
DAV:   2    -0.103581532730E+03   -0.12013E-02   -0.18022E-02   120   0.538E-01    0.141E-01
DAV:   3    -0.103581349932E+03    0.18280E-03   -0.76377E-04   120   0.111E-01    0.742E-02
DAV:   4    -0.103581318481E+03    0.31451E-04   -0.25697E-04   112   0.569E-02    0.200E-02
DAV:   5    -0.103581309528E+03    0.89530E-05   -0.24508E-05   112   0.201E-02    0.119E-02
DAV:   6    -0.103581313266E+03   -0.37384E-05   -0.75422E-06   112   0.101E-02    0.496E-03
DAV:   7    -0.103581328917E+03   -0.15650E-04   -0.22838E-06    80   0.597E-03    0.156E-03
DAV:   8    -0.103581342601E+03   -0.13684E-04   -0.89161E-07    88   0.329E-03    0.141E-03
DAV:   9    -0.103581363791E+03   -0.21191E-04   -0.11328E-06    80   0.278E-03    0.550E-04
DAV:  10    -0.103581374563E+03   -0.10771E-04   -0.68510E-07    88   0.194E-03    0.532E-04
DAV:  11    -0.103581382286E+03   -0.77236E-05   -0.30591E-07    80   0.147E-03    0.276E-04
DAV:  12    -0.103581386603E+03   -0.43164E-05   -0.18360E-07    88   0.104E-03    0.170E-04
DAV:  13    -0.103581388932E+03   -0.23298E-05   -0.65260E-08    88   0.619E-04    0.685E-05
DAV:  14    -0.103581390506E+03   -0.15741E-05   -0.49533E-08    80   0.499E-04    0.501E-05
DAV:  15    -0.103581390996E+03   -0.48919E-06   -0.88400E-09    88   0.251E-04
   6 F= -.10358139E+03 E0= -.10358139E+03  d E =-.159063E-01
       N       E                     dE             d eps       ncg     rms          rms(c)
DAV:   1    -0.103582225721E+03   -0.83521E-03   -0.41852E-02    84   0.933E-01    0.804E-02
DAV:   2    -0.103582338816E+03   -0.11310E-03   -0.16546E-03   120   0.163E-01    0.426E-02
DAV:   3    -0.103582324334E+03    0.14482E-04   -0.70092E-05   120   0.335E-02    0.225E-02
DAV:   4    -0.103582322858E+03    0.14761E-05   -0.23463E-05   104   0.172E-02    0.621E-03
DAV:   5    -0.103582321151E+03    0.17068E-05   -0.21170E-06    88   0.607E-03    0.345E-03
DAV:   6    -0.103582320822E+03    0.32923E-06   -0.87661E-07    88   0.352E-03
   7 F= -.10358232E+03 E0= -.10358232E+03  d E =-.168361E-01
       N       E                     dE             d eps       ncg     rms          rms(c)
DAV:   1    -0.103588615136E+03   -0.62940E-02   -0.26709E-01    84   0.240E+00    0.175E-01
DAV:   2    -0.103589068316E+03   -0.45318E-03   -0.88347E-03   112   0.371E-01    0.969E-02
DAV:   3    -0.103588947292E+03    0.12102E-03   -0.53056E-04   128   0.953E-02    0.490E-02
DAV:   4    -0.103588942359E+03    0.49330E-05   -0.17572E-04   120   0.555E-02    0.154E-02
DAV:   5    -0.103588943084E+03   -0.72504E-06   -0.28770E-05   112   0.222E-02    0.106E-02
DAV:   6    -0.103588943532E+03   -0.44837E-06   -0.30761E-06   120   0.644E-03
   8 F= -.10358894E+03 E0= -.10358894E+03  d E =-.662271E-02
       N       E                     dE             d eps       ncg     rms          rms(c)
DAV:   1    -0.103589104570E+03   -0.16149E-03   -0.90973E-03    84   0.442E-01    0.325E-02
DAV:   2    -0.103589122810E+03   -0.18240E-04   -0.30729E-04   120   0.692E-02    0.180E-02
DAV:   3    -0.103589120861E+03    0.19494E-05   -0.18189E-05   128   0.178E-02    0.920E-03
DAV:   4    -0.103589123468E+03   -0.26071E-05   -0.61242E-06   120   0.108E-02    0.282E-03
DAV:   5    -0.103589125771E+03   -0.23032E-05   -0.11272E-06    88   0.472E-03    0.180E-03
DAV:   6    -0.103589127868E+03   -0.20972E-05   -0.25557E-07    88   0.212E-03    0.966E-04
DAV:   7    -0.103589131051E+03   -0.31829E-05   -0.14237E-07    88   0.141E-03    0.278E-04
DAV:   8    -0.103589133720E+03   -0.26692E-05   -0.97863E-08    88   0.104E-03    0.259E-04
DAV:   9    -0.103589137400E+03   -0.36799E-05   -0.19055E-07    88   0.122E-03    0.121E-04
DAV:  10    -0.103589138181E+03   -0.78075E-06   -0.41547E-08    88   0.668E-04
   9 F= -.10358914E+03 E0= -.10358914E+03  d E =-.681736E-02
       N       E                     dE             d eps       ncg     rms          rms(c)
DAV:   1    -0.103592053731E+03   -0.29163E-02   -0.10052E-01    84   0.147E+00    0.103E-01
DAV:   2    -0.103592236415E+03   -0.18268E-03   -0.32155E-03   120   0.232E-01    0.581E-02
DAV:   3    -0.103592190362E+03    0.46053E-04   -0.17529E-04   128   0.546E-02    0.293E-02
DAV:   4    -0.103592180977E+03    0.93849E-05   -0.54977E-05   120   0.291E-02    0.756E-03
DAV:   5    -0.103592176891E+03    0.40862E-05   -0.68821E-06   120   0.118E-02    0.527E-03
DAV:   6    -0.103592176251E+03    0.63939E-06   -0.14216E-06    96   0.596E-03
  10 F= -.10359218E+03 E0= -.10359218E+03  d E =-.303807E-02
       N       E                     dE             d eps       ncg     rms          rms(c)
DAV:   1    -0.103592906472E+03   -0.72958E-03   -0.87812E-02    84   0.137E+00    0.961E-02
DAV:   2    -0.103593068856E+03   -0.16238E-03   -0.28519E-03   120   0.219E-01    0.545E-02
DAV:   3    -0.103593026208E+03    0.42647E-04   -0.15481E-04   128   0.513E-02    0.277E-02
DAV:   4    -0.103593016482E+03    0.97265E-05   -0.48130E-05   120   0.275E-02    0.713E-03
DAV:   5    -0.103593014169E+03    0.23125E-05   -0.64091E-06   120   0.115E-02    0.502E-03
DAV:   6    -0.103593015513E+03   -0.13431E-05   -0.13839E-06    80   0.596E-03    0.297E-03
DAV:   7    -0.103593020972E+03   -0.54595E-05   -0.74801E-07    88   0.521E-03    0.811E-04
DAV:   8    -0.103593024827E+03   -0.38551E-05   -0.69588E-07    88   0.342E-03    0.104E-03
DAV:   9    -0.103593031948E+03   -0.71213E-05   -0.33099E-07    88   0.211E-03    0.325E-04
DAV:  10    -0.103593036998E+03   -0.50496E-05   -0.35681E-07    88   0.181E-03    0.448E-04
DAV:  11    -0.103593039707E+03   -0.27091E-05   -0.13961E-07    88   0.122E-03    0.176E-04
DAV:  12    -0.103593041716E+03   -0.20088E-05   -0.72073E-08    88   0.780E-04    0.189E-04
DAV:  13    -0.103593043052E+03   -0.13364E-05   -0.41966E-08    88   0.512E-04    0.133E-04
DAV:  14    -0.103593043976E+03   -0.92326E-06   -0.28226E-08    88   0.407E-04
  11 F= -.10359304E+03 E0= -.10359304E+03  d E =-.390579E-02
       N       E                     dE             d eps       ncg     rms          rms(c)
DAV:   1    -0.103595163260E+03   -0.21202E-02   -0.12854E-01    84   0.166E+00    0.109E-01
DAV:   2    -0.103595253829E+03   -0.90569E-04   -0.25551E-03   120   0.207E-01    0.597E-02
DAV:   3    -0.103595197989E+03    0.55840E-04   -0.19060E-04   128   0.583E-02    0.268E-02
DAV:   4    -0.103595198900E+03   -0.91134E-06   -0.73760E-05   120   0.317E-02    0.917E-03
DAV:   5    -0.103595198828E+03    0.71862E-07   -0.47909E-06   104   0.942E-03
  12 F= -.10359520E+03 E0= -.10359520E+03  d E =-.215485E-02
       N       E                     dE             d eps       ncg     rms          rms(c)
DAV:   1    -0.103595557055E+03   -0.35815E-03   -0.49839E-02    84   0.103E+00    0.679E-02
DAV:   2    -0.103595593656E+03   -0.36601E-04   -0.10062E-03   120   0.130E-01    0.372E-02
DAV:   3    -0.103595572130E+03    0.21526E-04   -0.72596E-05   128   0.362E-02    0.169E-02
DAV:   4    -0.103595572922E+03   -0.79256E-06   -0.28660E-05   120   0.200E-02    0.565E-03
DAV:   5    -0.103595573627E+03   -0.70440E-06   -0.20202E-06    96   0.621E-03
  13 F= -.10359557E+03 E0= -.10359557E+03  d E =-.252965E-02
       N       E                     dE             d eps       ncg     rms          rms(c)
DAV:   1    -0.103597468535E+03   -0.18956E-02   -0.13051E-01    84   0.164E+00    0.119E-01
DAV:   2    -0.103597623870E+03   -0.15533E-03   -0.29836E-03   120   0.221E-01    0.625E-02
DAV:   3    -0.103597573972E+03    0.49899E-04   -0.17346E-04   128   0.541E-02    0.305E-02
DAV:   4    -0.103597573281E+03    0.69021E-06   -0.58978E-05   112   0.266E-02    0.897E-03
DAV:   5    -0.103597573290E+03   -0.90113E-08   -0.43574E-06   112   0.865E-03
  14 F= -.10359757E+03 E0= -.10359757E+03  d E =-.199966E-02
       N       E                     dE             d eps       ncg     rms          rms(c)
DAV:   1    -0.103597938096E+03   -0.36481E-03   -0.65446E-02    84   0.116E+00    0.847E-02
DAV:   2    -0.103598016743E+03   -0.78647E-04   -0.15168E-03   120   0.158E-01    0.441E-02
DAV:   3    -0.103597989895E+03    0.26848E-04   -0.86143E-05   128   0.382E-02    0.216E-02
DAV:   4    -0.103597988689E+03    0.12056E-05   -0.29441E-05   120   0.188E-02    0.635E-03
DAV:   5    -0.103597989580E+03   -0.89036E-06   -0.21021E-06    96   0.618E-03
  15 F= -.10359799E+03 E0= -.10359799E+03  d E =-.241595E-02
       N       E                     dE             d eps       ncg     rms          rms(c)
DAV:   1    -0.103598309570E+03   -0.32088E-03   -0.25005E-02    84   0.694E-01    0.578E-02
DAV:   2    -0.103598400512E+03   -0.90941E-04   -0.10881E-03   112   0.129E-01    0.310E-02
DAV:   3    -0.103598392068E+03    0.84440E-05   -0.37714E-05   120   0.265E-02    0.168E-02
DAV:   4    -0.103598393761E+03   -0.16934E-05   -0.17764E-05   112   0.163E-02    0.416E-03
DAV:   5    -0.103598394869E+03   -0.11083E-05   -0.23269E-06   104   0.663E-03    0.266E-03
DAV:   6    -0.103598395373E+03   -0.50397E-06   -0.32289E-07    88   0.240E-03
  16 F= -.10359840E+03 E0= -.10359840E+03  d E =-.405794E-03
       N       E                     dE             d eps       ncg     rms          rms(c)
DAV:   1    -0.103598396893E+03   -0.20240E-05   -0.65662E-05    96   0.354E-02    0.296E-03
DAV:   2    -0.103598397305E+03   -0.41209E-06   -0.32371E-06   104   0.716E-03
  17 F= -.10359840E+03 E0= -.10359840E+03  d E =-.407726E-03
       N       E                     dE             d eps       ncg     rms          rms(c)
DAV:   1    -0.103598566290E+03   -0.16940E-03   -0.79168E-03    84   0.405E-01    0.311E-02
DAV:   2    -0.103598583374E+03   -0.17083E-04   -0.28244E-04   120   0.666E-02    0.172E-02
DAV:   3    -0.103598579980E+03    0.33933E-05   -0.12500E-05   120   0.141E-02    0.907E-03
DAV:   4    -0.103598579353E+03    0.62694E-06   -0.41757E-06   112   0.767E-03
  18 F= -.10359858E+03 E0= -.10359858E+03  d E =-.182048E-03
       N       E                     dE             d eps       ncg     rms          rms(c)
DAV:   1    -0.103598589867E+03   -0.98870E-05   -0.85067E-04    84   0.132E-01    0.107E-02
DAV:   2    -0.103598591622E+03   -0.17548E-05   -0.31740E-05   120   0.222E-02    0.567E-03
DAV:   3    -0.103598591120E+03    0.50223E-06   -0.10405E-06    80   0.450E-03
  19 F= -.10359859E+03 E0= -.10359859E+03  d E =-.193815E-03
       N       E                     dE             d eps       ncg     rms          rms(c)
DAV:   1    -0.103598721792E+03   -0.13017E-03   -0.62961E-03    84   0.369E-01    0.270E-02
DAV:   2    -0.103598723864E+03   -0.20714E-05   -0.12660E-04   112   0.449E-02    0.145E-02
DAV:   3    -0.103598721023E+03    0.28406E-05   -0.95496E-06   128   0.120E-02    0.681E-03
DAV:   4    -0.103598721049E+03   -0.25890E-07   -0.26547E-06    96   0.608E-03
  20 F= -.10359872E+03 E0= -.10359872E+03  d E =-.129929E-03
       N       E                     dE             d eps       ncg     rms          rms(c)
DAV:   1    -0.103598749198E+03   -0.28174E-04   -0.31514E-03    84   0.260E-01    0.195E-02
DAV:   2    -0.103598750317E+03   -0.11193E-05   -0.64231E-05   112   0.319E-02    0.102E-02
DAV:   3    -0.103598748823E+03    0.14939E-05   -0.46831E-06   112   0.842E-03    0.475E-03
DAV:   4    -0.103598748854E+03   -0.30788E-07   -0.11900E-06    80   0.420E-03
  21 F= -.10359875E+03 E0= -.10359875E+03  d E =-.157734E-03
       N       E                     dE             d eps       ncg     rms          rms(c)
DAV:   1    -0.103598800374E+03   -0.51552E-04   -0.58221E-03    84   0.342E-01    0.273E-02
DAV:   2    -0.103598820595E+03   -0.20221E-04   -0.29111E-04   112   0.684E-02    0.170E-02
DAV:   3    -0.103598818209E+03    0.23859E-05   -0.10869E-05   120   0.137E-02    0.979E-03
DAV:   4    -0.103598817879E+03    0.33049E-06   -0.39327E-06   112   0.822E-03
  22 F= -.10359882E+03 E0= -.10359882E+03  d E =-.690252E-04
