       N       E                     dE             d eps       ncg     rms          rms(c)
DAV:   1     0.198637461489E+03    0.19864E+03   -0.10494E+04   116   0.546E+02
DAV:   2    -0.316915888099E+02   -0.23033E+03   -0.21533E+03   144   0.103E+02
DAV:   3    -0.104240151675E+03   -0.72549E+02   -0.72378E+02   112   0.539E+01
DAV:   4    -0.108256616421E+03   -0.40165E+01   -0.40009E+01   104   0.178E+01
DAV:   5    -0.108338860779E+03   -0.82244E-01   -0.82180E-01   136   0.283E+00    0.153E+01
DAV:   6    -0.105080388700E+03    0.32585E+01   -0.16003E+00   112   0.460E+00    0.890E+00
DAV:   7    -0.103364992565E+03    0.17154E+01   -0.41664E+00   104   0.679E+00    0.122E+00
DAV:   8    -0.103316197318E+03    0.48795E-01   -0.26589E-01   104   0.219E+00    0.627E-01
DAV:   9    -0.103280225335E+03    0.35972E-01   -0.80968E-02   120   0.817E-01    0.338E-01
DAV:  10    -0.103280439515E+03   -0.21418E-03   -0.33479E-03   112   0.236E-01    0.169E-01
DAV:  11    -0.103280623464E+03   -0.18395E-03   -0.62040E-03   104   0.233E-01    0.749E-02
DAV:  12    -0.103284267402E+03   -0.36439E-02   -0.11440E-03   104   0.993E-02    0.564E-02
DAV:  13    -0.103289263670E+03   -0.49963E-02   -0.19886E-03   104   0.112E-01    0.323E-02
DAV:  14    -0.103293560755E+03   -0.42971E-02   -0.38095E-04   112   0.557E-02    0.157E-02
DAV:  15    -0.103298204812E+03   -0.46441E-02   -0.61756E-04   110   0.643E-02    0.147E-02
DAV:  16    -0.103298758912E+03   -0.55410E-03   -0.20615E-05   112   0.151E-02    0.687E-03
DAV:  17    -0.103299878881E+03   -0.11200E-02   -0.91443E-05   102   0.229E-02    0.280E-03
DAV:  18    -0.103300138334E+03   -0.25945E-03   -0.86770E-06   104   0.814E-03    0.206E-03
DAV:  19    -0.103300326193E+03   -0.18786E-03   -0.64696E-06    96   0.627E-03    0.168E-03
DAV:  20    -0.103300376774E+03   -0.50581E-04   -0.94760E-07    88   0.345E-03    0.612E-04
DAV:  21    -0.103300407669E+03   -0.30895E-04   -0.10313E-06    78   0.264E-03    0.663E-04
DAV:  22    -0.103300413708E+03   -0.60390E-05   -0.18194E-07    88   0.149E-03    0.210E-04
DAV:  23    -0.103300417142E+03   -0.34340E-05   -0.74328E-08    80   0.772E-04    0.159E-04
DAV:  24    -0.103300420135E+03   -0.29936E-05   -0.43851E-08    80   0.571E-04    0.841E-05
DAV:  25    -0.103300420679E+03   -0.54317E-06   -0.13150E-08    80   0.326E-04
   1 F= -.10330042E+03 E0= -.10330042E+03  d E =-.103300E+03
       N       E                     dE             d eps       ncg     rms          rms(c)
DAV:   1    -0.103486657890E+03   -0.18624E+00   -0.73441E+00    84   0.117E+01    0.115E+00
DAV:   2    -0.103507913084E+03   -0.21255E-01   -0.30377E-01   120   0.219E+00    0.595E-01
DAV:   3    -0.103502536217E+03    0.53769E-02   -0.13239E-02   120   0.458E-01    0.284E-01
DAV:   4    -0.103501346670E+03    0.11895E-02   -0.64884E-03   112   0.273E-01    0.659E-02
DAV:   5    -0.103501200893E+03    0.14578E-03   -0.41273E-04   120   0.949E-02    0.395E-02
DAV:   6    -0.103501238515E+03   -0.37623E-04   -0.15233E-04   120   0.528E-02    0.191E-02
DAV:   7    -0.103501402190E+03   -0.16367E-03   -0.71776E-05   110   0.368E-02    0.963E-03
DAV:   8    -0.103501487839E+03   -0.85649E-04   -0.17887E-05   112   0.169E-02    0.909E-03
DAV:   9    -0.103501567009E+03   -0.79170E-04   -0.25506E-06   104   0.550E-03    0.477E-03
DAV:  10    -0.103501722940E+03   -0.15593E-03   -0.15450E-05   104   0.973E-03    0.335E-03
DAV:  11    -0.103501745431E+03   -0.22491E-04   -0.85134E-07    96   0.379E-03    0.171E-03
DAV:  12    -0.103501827647E+03   -0.82216E-04   -0.47937E-06   104   0.524E-03    0.810E-04
DAV:  13    -0.103501854696E+03   -0.27049E-04   -0.80025E-07    88   0.285E-03    0.670E-04
DAV:  14    -0.103501878355E+03   -0.23659E-04   -0.68847E-07    88   0.196E-03    0.720E-04
DAV:  15    -0.103501885981E+03   -0.76260E-05   -0.18685E-07    88   0.994E-04    0.471E-04
DAV:  16    -0.103501891222E+03   -0.52415E-05   -0.72481E-08    88   0.846E-04    0.280E-04
DAV:  17    -0.103501892557E+03   -0.13345E-05   -0.23774E-08    88   0.475E-04    0.205E-04
DAV:  18    -0.103501893905E+03   -0.13487E-05   -0.20225E-08    78   0.467E-04    0.104E-04
DAV:  19    -0.103501894342E+03   -0.43698E-06   -0.72970E-09    80   0.268E-04
   2 F= -.10350189E+03 E0= -.10350189E+03  d E =-.201474E+00
       N       E                     dE             d eps       ncg     rms          rms(c)
DAV:   1    -0.103502404976E+03   -0.51107E-03   -0.17066E-02    84   0.566E-01    0.545E-02
DAV:   2    -0.103502447557E+03   -0.42581E-04   -0.70290E-04   120   0.105E-01    0.297E-02
DAV:   3    -0.103502431443E+03    0.16114E-04   -0.32542E-05   120   0.226E-02    0.143E-02
DAV:   4    -0.103502425463E+03    0.59797E-05   -0.14874E-05   112   0.131E-02    0.364E-03
DAV:   5    -0.103502424804E+03    0.65931E-06   -0.85321E-07    88   0.457E-03
   3 F= -.10350242E+03 E0= -.10350242E+03  d E =-.202004E+00
       N       E                     dE             d eps       ncg     rms          rms(c)
DAV:   1    -0.103561279933E+03   -0.58854E-01   -0.14536E+00    84   0.518E+00    0.511E-01
DAV:   2    -0.103567946932E+03   -0.66670E-02   -0.81709E-02   120   0.109E+00    0.255E-01
DAV:   3    -0.103567328284E+03    0.61865E-03   -0.35065E-03   128   0.242E-01    0.131E-01
DAV:   4    -0.103567310979E+03    0.17305E-04   -0.10901E-03   112   0.122E-01    0.451E-02
DAV:   5    -0.103567290395E+03    0.20584E-04   -0.77481E-05   112   0.412E-02    0.238E-02
DAV:   6    -0.103567283661E+03    0.67335E-05   -0.32425E-05   120   0.254E-02    0.993E-03
DAV:   7    -0.103567301582E+03   -0.17920E-04   -0.17164E-05   104   0.173E-02    0.436E-03
DAV:   8    -0.103567312913E+03   -0.11331E-04   -0.32666E-06   104   0.739E-03    0.338E-03
DAV:   9    -0.103567322322E+03   -0.94091E-05   -0.43725E-07    88   0.229E-03    0.189E-03
DAV:  10    -0.103567346545E+03   -0.24223E-04   -0.24151E-06    88   0.456E-03    0.131E-03
DAV:  11    -0.103567351450E+03   -0.49058E-05   -0.32382E-07    88   0.200E-03    0.814E-04
DAV:  12    -0.103567363026E+03   -0.11576E-04   -0.81522E-07    88   0.233E-03    0.308E-04
DAV:  13    -0.103567367047E+03   -0.40204E-05   -0.19884E-07    88   0.130E-03    0.338E-04
DAV:  14    -0.103567370528E+03   -0.34808E-05   -0.11737E-07    88   0.922E-04    0.139E-04
DAV:  15    -0.103567372215E+03   -0.16871E-05   -0.66914E-08    88   0.601E-04    0.110E-04
DAV:  16    -0.103567372904E+03   -0.68971E-06   -0.12892E-08    88   0.311E-04
   4 F= -.10356737E+03 E0= -.10356737E+03  d E =-.649481E-01
       N       E                     dE             d eps       ncg     rms          rms(c)
DAV:   1    -0.103573992513E+03   -0.66203E-02   -0.37539E-01    84   0.264E+00    0.256E-01
DAV:   2    -0.103575732482E+03   -0.17400E-02   -0.21440E-02   120   0.559E-01    0.131E-01
DAV:   3    -0.103575572890E+03    0.15959E-03   -0.93369E-04   120   0.125E-01    0.666E-02
DAV:   4    -0.103575573949E+03   -0.10588E-05   -0.28776E-04   112   0.629E-02    0.243E-02
DAV:   5    -0.103575565930E+03    0.80193E-05   -0.19335E-05   112   0.209E-02    0.126E-02
DAV:   6    -0.103575562369E+03    0.35614E-05   -0.95190E-06   120   0.137E-02    0.478E-03
DAV:   7    -0.103575566729E+03   -0.43609E-05   -0.46968E-06    96   0.883E-03    0.243E-03
DAV:   8    -0.103575569918E+03   -0.31885E-05   -0.68664E-07    88   0.351E-03    0.165E-03
DAV:   9    -0.103575573791E+03   -0.38727E-05   -0.19466E-07    80   0.156E-03    0.769E-04
DAV:  10    -0.103575580309E+03   -0.65178E-05   -0.41306E-07    80   0.203E-03    0.518E-04
DAV:  11    -0.103575585036E+03   -0.47279E-05   -0.29068E-07    88   0.158E-03    0.272E-04
DAV:  12    -0.103575587779E+03   -0.27422E-05   -0.14659E-07    88   0.112E-03    0.194E-04
DAV:  13    -0.103575589002E+03   -0.12238E-05   -0.35483E-08    88   0.633E-04    0.135E-04
DAV:  14    -0.103575590378E+03   -0.13756E-05   -0.50939E-08    80   0.552E-04    0.116E-04
DAV:  15    -0.103575590705E+03   -0.32721E-06   -0.70558E-09    88   0.245E-04
   5 F= -.10357559E+03 E0= -.10357559E+03  d E =-.731659E-01
       N       E                     dE             d eps       ncg     rms          rms(c)
DAV:   1    -0.103589614289E+03   -0.14024E-01   -0.45749E-01    84   0.303E+00    0.267E-01
DAV:   2    -0.103590945427E+03   -0.13311E-02   -0.18614E-02   112   0.554E-01    0.144E-01
DAV:   3    -0.103590769452E+03    0.17597E-03   -0.73443E-04   128   0.110E-01    0.762E-02
DAV:   4    -0.103590727355E+03    0.42097E-04   -0.25020E-04   112   0.579E-02    0.190E-02
DAV:   5    -0.103590713602E+03    0.13753E-04   -0.30068E-05   112   0.216E-02    0.118E-02
DAV:   6    -0.103590719131E+03   -0.55284E-05   -0.81141E-06   112   0.103E-02    0.532E-03
DAV:   7    -0.103590738830E+03   -0.19700E-04   -0.24463E-06   104   0.608E-03    0.177E-03
DAV:   8    -0.103590755795E+03   -0.16964E-04   -0.89782E-07    80   0.337E-03    0.146E-03
DAV:   9    -0.103590782418E+03   -0.26623E-04   -0.17357E-06    86   0.333E-03    0.565E-04
DAV:  10    -0.103590795315E+03   -0.12897E-04   -0.67363E-07    80   0.218E-03    0.516E-04
DAV:  11    -0.103590804203E+03   -0.88880E-05   -0.43415E-07    80   0.153E-03    0.229E-04
DAV:  12    -0.103590809766E+03   -0.55627E-05   -0.22505E-07    80   0.112E-03    0.179E-04
DAV:  13    -0.103590811428E+03   -0.16616E-05   -0.39479E-08    88   0.526E-04    0.106E-04
DAV:  14    -0.103590813272E+03   -0.18448E-05   -0.64706E-08    80   0.548E-04    0.464E-05
DAV:  15    -0.103590813651E+03   -0.37892E-06   -0.70966E-09    88   0.234E-04
   6 F= -.10359081E+03 E0= -.10359081E+03  d E =-.152229E-01
       N       E                     dE             d eps       ncg     rms          rms(c)
DAV:   1    -0.103591363961E+03   -0.55069E-03   -0.26924E-02    84   0.735E-01    0.645E-02
DAV:   2    -0.103591445142E+03   -0.81181E-04   -0.11086E-03   112   0.135E-01    0.350E-02
DAV:   3    -0.103591436412E+03    0.87304E-05   -0.43888E-05   128   0.270E-02    0.185E-02
DAV:   4    -0.103591434726E+03    0.16859E-05   -0.14801E-05   104   0.141E-02    0.474E-03
DAV:   5    -0.103591432987E+03    0.17388E-05   -0.16692E-06    88   0.525E-03    0.274E-03
DAV:   6    -0.103591432706E+03    0.28122E-06   -0.62461E-07    88   0.295E-03
   7 F= -.10359143E+03 E0= -.10359143E+03  d E =-.158420E-01
       N       E                     dE             d eps       ncg     rms          rms(c)
DAV:   1    -0.103601308328E+03   -0.98753E-02   -0.36938E-01    84   0.285E+00    0.194E-01
DAV:   2    -0.103601543795E+03   -0.23547E-03   -0.87609E-03   120   0.378E-01    0.105E-01
DAV:   3    -0.103601375678E+03    0.16812E-03   -0.70913E-04   128   0.108E-01    0.493E-02
DAV:   4    -0.103601364575E+03    0.11103E-04   -0.19908E-04   120   0.595E-02    0.187E-02
DAV:   5    -0.103601362927E+03    0.16480E-05   -0.33115E-05   112   0.233E-02    0.122E-02
DAV:   6    -0.103601361785E+03    0.11425E-05   -0.36520E-06   112   0.759E-03    0.412E-03
DAV:   7    -0.103601364079E+03   -0.22937E-05   -0.63500E-07    88   0.359E-03    0.139E-03
DAV:   8    -0.103601369235E+03   -0.51566E-05   -0.35038E-07    88   0.307E-03    0.949E-04
DAV:   9    -0.103601378053E+03   -0.88180E-05   -0.69210E-07    80   0.350E-03    0.556E-04
DAV:  10    -0.103601383451E+03   -0.53981E-05   -0.42777E-07    88   0.216E-03    0.312E-04
DAV:  11    -0.103601385736E+03   -0.22846E-05   -0.66034E-08    88   0.974E-04    0.249E-04
DAV:  12    -0.103601388699E+03   -0.29631E-05   -0.67395E-08    80   0.719E-04    0.144E-04
DAV:  13    -0.103601391499E+03   -0.28004E-05   -0.97026E-08    80   0.753E-04    0.130E-04
DAV:  14    -0.103601392194E+03   -0.69497E-06   -0.11481E-08    88   0.368E-04
   8 F= -.10360139E+03 E0= -.10360139E+03  d E =-.995949E-02
       N       E                     dE             d eps       ncg     rms          rms(c)
DAV:   1    -0.103602688105E+03   -0.12966E-02   -0.92204E-02    86   0.142E+00    0.970E-02
DAV:   2    -0.103602748260E+03   -0.60155E-04   -0.21943E-03   120   0.189E-01    0.526E-02
DAV:   3    -0.103602707766E+03    0.40494E-04   -0.17745E-04   128   0.541E-02    0.247E-02
DAV:   4    -0.103602705546E+03    0.22195E-05   -0.49903E-05   120   0.298E-02    0.942E-03
DAV:   5    -0.103602704877E+03    0.66944E-06   -0.82254E-06   112   0.116E-02
   9 F= -.10360270E+03 E0= -.10360270E+03  d E =-.112722E-01
       N       E                     dE             d eps       ncg     rms          rms(c)
DAV:   1    -0.103606820750E+03   -0.41152E-02   -0.17528E-01    84   0.192E+00    0.131E-01
DAV:   2    -0.103607159777E+03   -0.33903E-03   -0.55724E-03   120   0.305E-01    0.756E-02
DAV:   3    -0.103607082225E+03    0.77553E-04   -0.29297E-04   128   0.706E-02    0.389E-02
DAV:   4    -0.103607068009E+03    0.14216E-04   -0.98531E-05   128   0.378E-02    0.969E-03
DAV:   5    -0.103607062978E+03    0.50309E-05   -0.11793E-05   112   0.148E-02    0.683E-03
DAV:   6    -0.103607063448E+03   -0.47013E-06   -0.24025E-06   104   0.714E-03
  10 F= -.10360706E+03 E0= -.10360706E+03  d E =-.435857E-02
       N       E                     dE             d eps       ncg     rms          rms(c)
DAV:   1    -0.103607864682E+03   -0.80170E-03   -0.11960E-01    84   0.158E+00    0.108E-01
DAV:   2    -0.103608103217E+03   -0.23854E-03   -0.38457E-03   120   0.254E-01    0.626E-02
DAV:   3    -0.103608050413E+03    0.52804E-04   -0.20171E-04   128   0.584E-02    0.324E-02
DAV:   4    -0.103608041025E+03    0.93884E-05   -0.66835E-05   128   0.312E-02    0.803E-03
DAV:   5    -0.103608039702E+03    0.13224E-05   -0.82104E-06   120   0.124E-02    0.566E-03
DAV:   6    -0.103608042191E+03   -0.24891E-05   -0.14495E-06    80   0.604E-03    0.323E-03
DAV:   7    -0.103608050008E+03   -0.78165E-05   -0.87467E-07    88   0.532E-03    0.841E-04
DAV:   8    -0.103608055936E+03   -0.59285E-05   -0.81454E-07    88   0.373E-03    0.112E-03
DAV:   9    -0.103608066189E+03   -0.10252E-04   -0.53868E-07    80   0.254E-03    0.382E-04
DAV:  10    -0.103608071276E+03   -0.50875E-05   -0.34745E-07    80   0.176E-03    0.411E-04
DAV:  11    -0.103608074550E+03   -0.32737E-05   -0.14486E-07    88   0.122E-03    0.171E-04
DAV:  12    -0.103608077084E+03   -0.25341E-05   -0.96610E-08    88   0.818E-04    0.164E-04
DAV:  13    -0.103608078550E+03   -0.14660E-05   -0.46934E-08    88   0.536E-04    0.727E-05
DAV:  14    -0.103608079422E+03   -0.87167E-06   -0.26325E-08    88   0.390E-04
  11 F= -.10360808E+03 E0= -.10360808E+03  d E =-.537454E-02
       N       E                     dE             d eps       ncg     rms          rms(c)
DAV:   1    -0.103610989697E+03   -0.29111E-02   -0.13521E-01    84   0.171E+00    0.107E-01
DAV:   2    -0.103611057678E+03   -0.67981E-04   -0.23231E-03   120   0.196E-01    0.584E-02
DAV:   3    -0.103610999660E+03    0.58019E-04   -0.19532E-04   128   0.575E-02    0.248E-02
DAV:   4    -0.103611001930E+03   -0.22705E-05   -0.77128E-05   120   0.305E-02    0.913E-03
DAV:   5    -0.103611001680E+03    0.25005E-06   -0.37026E-06   104   0.824E-03
  12 F= -.10361100E+03 E0= -.10361100E+03  d E =-.292226E-02
       N       E                     dE             d eps       ncg     rms          rms(c)
DAV:   1    -0.103612205211E+03   -0.12033E-02   -0.18945E-01    84   0.203E+00    0.126E-01
DAV:   2    -0.103612302573E+03   -0.97362E-04   -0.32788E-03   120   0.233E-01    0.692E-02
DAV:   3    -0.103612220900E+03    0.81673E-04   -0.27203E-04   128   0.681E-02    0.296E-02
DAV:   4    -0.103612224584E+03   -0.36847E-05   -0.10889E-04   120   0.364E-02    0.108E-02
DAV:   5    -0.103612225117E+03   -0.53312E-06   -0.56560E-06   120   0.100E-02
  13 F= -.10361223E+03 E0= -.10361223E+03  d E =-.414570E-02
       N       E                     dE             d eps       ncg     rms          rms(c)
DAV:   1    -0.103614498580E+03   -0.22740E-02   -0.12646E-01    84   0.161E+00    0.119E-01
DAV:   2    -0.103614697923E+03   -0.19934E-03   -0.32180E-03   112   0.226E-01    0.609E-02
DAV:   3    -0.103614652469E+03    0.45454E-04   -0.16847E-04   128   0.526E-02    0.309E-02
DAV:   4    -0.103614651884E+03    0.58482E-06   -0.57863E-05   112   0.256E-02    0.896E-03
DAV:   5    -0.103614652454E+03   -0.57016E-06   -0.35579E-06    96   0.809E-03
  14 F= -.10361465E+03 E0= -.10361465E+03  d E =-.242734E-02
       N       E                     dE             d eps       ncg     rms          rms(c)
DAV:   1    -0.103615057288E+03   -0.40540E-03   -0.56653E-02    84   0.108E+00    0.802E-02
DAV:   2    -0.103615145819E+03   -0.88531E-04   -0.14647E-03   120   0.152E-01    0.407E-02
DAV:   3    -0.103615122728E+03    0.23091E-04   -0.76547E-05   120   0.352E-02    0.206E-02
DAV:   4    -0.103615121163E+03    0.15647E-05   -0.25928E-05   120   0.171E-02    0.610E-03
DAV:   5    -0.103615122159E+03   -0.99623E-06   -0.15224E-06    96   0.540E-03
  15 F= -.10361512E+03 E0= -.10361512E+03  d E =-.289704E-02
       N       E                     dE             d eps       ncg     rms          rms(c)
DAV:   1    -0.103615525533E+03   -0.40437E-03   -0.24952E-02    84   0.682E-01    0.585E-02
DAV:   2    -0.103615628067E+03   -0.10253E-03   -0.12188E-03   104   0.134E-01    0.319E-02
DAV:   3    -0.103615620706E+03    0.73605E-05   -0.41239E-05   128   0.275E-02    0.177E-02
DAV:   4    -0.103615622345E+03   -0.16387E-05   -0.16634E-05   104   0.161E-02    0.412E-03
DAV:   5    -0.103615623243E+03   -0.89786E-06   -0.23596E-06    96   0.678E-03
  16 F= -.10361562E+03 E0= -.10361562E+03  d E =-.501083E-03
       N       E                     dE             d eps       ncg     rms          rms(c)
DAV:   1    -0.103615626184E+03   -0.38391E-05   -0.15749E-04    96   0.540E-02    0.532E-03
DAV:   2    -0.103615627098E+03   -0.91398E-06   -0.89088E-06   120   0.114E-02
  17 F= -.10361563E+03 E0= -.10361563E+03  d E =-.504939E-03
       N       E                     dE             d eps       ncg     rms          rms(c)
DAV:   1    -0.103615823312E+03   -0.19713E-03   -0.66359E-03    84   0.369E-01    0.290E-02
DAV:   2    -0.103615840166E+03   -0.16853E-04   -0.26382E-04   120   0.626E-02    0.159E-02
DAV:   3    -0.103615837411E+03    0.27546E-05   -0.11544E-05   120   0.137E-02    0.867E-03
DAV:   4    -0.103615836919E+03    0.49199E-06   -0.37459E-06   104   0.750E-03
  18 F= -.10361584E+03 E0= -.10361584E+03  d E =-.209821E-03
       N       E                     dE             d eps       ncg     rms          rms(c)
DAV:   1    -0.103615871384E+03   -0.33973E-04   -0.30248E-03    84   0.249E-01    0.198E-02
DAV:   2    -0.103615879121E+03   -0.77368E-05   -0.12217E-04   120   0.425E-02    0.106E-02
DAV:   3    -0.103615877735E+03    0.13854E-05   -0.51146E-06   120   0.911E-03    0.578E-03
DAV:   4    -0.103615877441E+03    0.29469E-06   -0.14478E-06    88   0.494E-03
  19 F= -.10361588E+03 E0= -.10361588E+03  d E =-.250343E-03
       N       E                     dE             d eps       ncg     rms          rms(c)
DAV:   1    -0.103616057524E+03   -0.17979E-03   -0.86980E-03    84   0.431E-01    0.328E-02
DAV:   2    -0.103616061090E+03   -0.35657E-05   -0.18205E-04   120   0.538E-02    0.174E-02
DAV:   3    -0.103616057443E+03    0.36474E-05   -0.13647E-05   120   0.146E-02    0.837E-03
DAV:   4    -0.103616057558E+03   -0.11514E-06   -0.38647E-06   104   0.729E-03
  20 F= -.10361606E+03 E0= -.10361606E+03  d E =-.180117E-03
