       N       E                     dE             d eps       ncg     rms          rms(c)
DAV:   1     0.243750074924E+03    0.24375E+03   -0.10224E+04   120   0.484E+02
DAV:   2    -0.252427680832E+02   -0.26899E+03   -0.25439E+03   156   0.917E+01
DAV:   3    -0.105222865844E+03   -0.79980E+02   -0.79774E+02   120   0.551E+01
DAV:   4    -0.109082960805E+03   -0.38601E+01   -0.38458E+01   120   0.176E+01
DAV:   5    -0.109172778179E+03   -0.89817E-01   -0.89717E-01   156   0.301E+00    0.161E+01
DAV:   6    -0.105532366324E+03    0.36404E+01   -0.16673E+00   120   0.441E+00    0.933E+00
DAV:   7    -0.103651280497E+03    0.18811E+01   -0.44595E+00   120   0.646E+00    0.133E+00
DAV:   8    -0.103598137237E+03    0.53143E-01   -0.32958E-01   132   0.219E+00    0.702E-01
DAV:   9    -0.103563285542E+03    0.34852E-01   -0.65349E-02   144   0.691E-01    0.381E-01
DAV:  10    -0.103562411442E+03    0.87410E-03   -0.34666E-03   120   0.208E-01    0.159E-01
DAV:  11    -0.103561002292E+03    0.14091E-02   -0.68863E-03   120   0.221E-01    0.105E-01
DAV:  12    -0.103565298199E+03   -0.42959E-02   -0.11655E-03   132   0.939E-02    0.589E-02
DAV:  13    -0.103569907405E+03   -0.46092E-02   -0.20944E-03   132   0.108E-01    0.435E-02
DAV:  14    -0.103572943674E+03   -0.30363E-02   -0.19513E-04   144   0.393E-02    0.245E-02
DAV:  15    -0.103578692405E+03   -0.57487E-02   -0.70559E-04   108   0.656E-02    0.170E-02
DAV:  16    -0.103579961209E+03   -0.12688E-02   -0.72376E-05   132   0.268E-02    0.899E-03
DAV:  17    -0.103581398427E+03   -0.14372E-02   -0.15220E-04   108   0.258E-02    0.740E-03
DAV:  18    -0.103581531400E+03   -0.13297E-03   -0.28550E-06   132   0.449E-03    0.306E-03
DAV:  19    -0.103581839764E+03   -0.30836E-03   -0.14021E-05   132   0.835E-03    0.250E-03
DAV:  20    -0.103581896655E+03   -0.56891E-04   -0.12609E-06   120   0.356E-03    0.114E-03
DAV:  21    -0.103581933122E+03   -0.36467E-04   -0.73411E-07   108   0.229E-03    0.399E-04
DAV:  22    -0.103581945079E+03   -0.11957E-04   -0.30770E-07   108   0.132E-03    0.436E-04
DAV:  23    -0.103581949730E+03   -0.46515E-05   -0.76193E-08   108   0.727E-04    0.175E-04
DAV:  24    -0.103581953026E+03   -0.32957E-05   -0.47866E-08   108   0.585E-04    0.114E-04
DAV:  25    -0.103581954479E+03   -0.14535E-05   -0.12186E-08   108   0.361E-04    0.940E-05
DAV:  26    -0.103581954967E+03   -0.48716E-06   -0.87661E-10   108   0.222E-04
   1 F= -.10358195E+03 E0= -.10358195E+03  d E =-.656711E-10
       N       E                     dE             d eps       ncg     rms          rms(c)
DAV:   1    -0.103578872552E+03    0.30819E-02   -0.84113E-02    96   0.841E-01    0.126E-01
DAV:   2    -0.103579228095E+03   -0.35554E-03   -0.39899E-03   132   0.216E-01    0.563E-02
DAV:   3    -0.103579214972E+03    0.13122E-04   -0.14813E-04   144   0.455E-02    0.293E-02
DAV:   4    -0.103579218173E+03   -0.32011E-05   -0.35970E-05   132   0.224E-02    0.840E-03
DAV:   5    -0.103579217356E+03    0.81679E-06   -0.64155E-06   132   0.986E-03
   2 F= -.10357922E+03 E0= -.10357922E+03  d E =-.675971E-10
       N       E                     dE             d eps       ncg     rms          rms(c)
DAV:   1    -0.103577150723E+03    0.20675E-02   -0.33193E-01    96   0.168E+00    0.258E-01
DAV:   2    -0.103578557861E+03   -0.14071E-02   -0.15803E-02   132   0.427E-01    0.113E-01
DAV:   3    -0.103578508735E+03    0.49126E-04   -0.58925E-04   144   0.895E-02    0.598E-02
DAV:   4    -0.103578525409E+03   -0.16673E-04   -0.14470E-04   132   0.442E-02    0.172E-02
DAV:   5    -0.103578522440E+03    0.29685E-05   -0.25659E-05   132   0.195E-02    0.975E-03
DAV:   6    -0.103578522099E+03    0.34074E-06   -0.50589E-06   144   0.760E-03
   3 F= -.10357852E+03 E0= -.10357852E+03  d E =-.747256E-10
       N       E                     dE             d eps       ncg     rms          rms(c)
DAV:   1    -0.103578217950E+03    0.30449E-03   -0.16899E-01    96   0.117E+00    0.158E-01
DAV:   2    -0.103578928609E+03   -0.71066E-03   -0.77281E-03   132   0.299E-01    0.766E-02
DAV:   3    -0.103578916300E+03    0.12309E-04   -0.27657E-04   144   0.620E-02    0.391E-02
DAV:   4    -0.103578928671E+03   -0.12371E-04   -0.60825E-05   132   0.293E-02    0.114E-02
DAV:   5    -0.103578928361E+03    0.30919E-06   -0.10461E-05   144   0.127E-02    0.616E-03
DAV:   6    -0.103578928852E+03   -0.49046E-06   -0.27672E-06   120   0.565E-03
   4 F= -.10357893E+03 E0= -.10357893E+03  d E =-.620313E-10
       N       E                     dE             d eps       ncg     rms          rms(c)
DAV:   1    -0.103577389896E+03    0.15385E-02   -0.33653E-01    96   0.171E+00    0.243E-01
DAV:   2    -0.103578893959E+03   -0.15041E-02   -0.16321E-02   132   0.433E-01    0.112E-01
DAV:   3    -0.103578854167E+03    0.39791E-04   -0.55172E-04   132   0.895E-02    0.590E-02
DAV:   4    -0.103578869613E+03   -0.15446E-04   -0.14514E-04   132   0.455E-02    0.163E-02
DAV:   5    -0.103578865040E+03    0.45735E-05   -0.26381E-05   144   0.200E-02    0.934E-03
DAV:   6    -0.103578864449E+03    0.59050E-06   -0.57604E-06   144   0.830E-03
   5 F= -.10357886E+03 E0= -.10357886E+03  d E =-.509870E-11
       N       E                     dE             d eps       ncg     rms          rms(c)
DAV:   1    -0.103576650039E+03    0.22150E-02   -0.16517E-01    96   0.120E+00    0.161E-01
DAV:   2    -0.103577581608E+03   -0.93157E-03   -0.98864E-03   132   0.336E-01    0.921E-02
DAV:   3    -0.103577543089E+03    0.38518E-04   -0.28468E-04   132   0.669E-02    0.495E-02
DAV:   4    -0.103577550696E+03   -0.76068E-05   -0.11328E-04   132   0.399E-02    0.118E-02
DAV:   5    -0.103577549268E+03    0.14278E-05   -0.21200E-05   132   0.172E-02    0.739E-03
DAV:   6    -0.103577551135E+03   -0.18667E-05   -0.34788E-06   132   0.607E-03    0.478E-03
DAV:   7    -0.103577556904E+03   -0.57690E-05   -0.45818E-07   108   0.250E-03    0.163E-03
DAV:   8    -0.103577562369E+03   -0.54651E-05   -0.54564E-07   120   0.251E-03    0.763E-04
DAV:   9    -0.103577567639E+03   -0.52703E-05   -0.28969E-07   108   0.175E-03    0.542E-04
DAV:  10    -0.103577574897E+03   -0.72577E-05   -0.63089E-07   120   0.173E-03    0.570E-04
DAV:  11    -0.103577576129E+03   -0.12323E-05   -0.43976E-08   120   0.773E-04    0.377E-04
DAV:  12    -0.103577577906E+03   -0.17770E-05   -0.43014E-08   108   0.584E-04    0.185E-04
DAV:  13    -0.103577579424E+03   -0.15182E-05   -0.44807E-08   108   0.471E-04    0.102E-04
DAV:  14    -0.103577580455E+03   -0.10302E-05   -0.18573E-08   108   0.316E-04    0.943E-05
DAV:  15    -0.103577580843E+03   -0.38807E-06   -0.18296E-11   108   0.178E-04
   6 F= -.10357758E+03 E0= -.10357758E+03  d E =-.449886E-11
       N       E                     dE             d eps       ncg     rms          rms(c)
DAV:   1    -0.103575392418E+03    0.21880E-02   -0.33751E-01    96   0.172E+00    0.264E-01
DAV:   2    -0.103577717769E+03   -0.23254E-02   -0.25133E-02   132   0.538E-01    0.169E-01
DAV:   3    -0.103577544015E+03    0.17375E-03   -0.66139E-04   132   0.109E-01    0.878E-02
DAV:   4    -0.103577543346E+03    0.66878E-06   -0.44496E-04   132   0.761E-02    0.171E-02
DAV:   5    -0.103577533613E+03    0.97331E-05   -0.67470E-05   132   0.302E-02    0.124E-02
DAV:   6    -0.103577534294E+03   -0.68131E-06   -0.11652E-05   144   0.966E-03    0.767E-03
DAV:   7    -0.103577546132E+03   -0.11838E-04   -0.93314E-07   108   0.361E-03    0.332E-03
DAV:   8    -0.103577565699E+03   -0.19567E-04   -0.23984E-06   132   0.543E-03    0.156E-03
DAV:   9    -0.103577579894E+03   -0.14195E-04   -0.11770E-06   132   0.293E-03    0.176E-03
DAV:  10    -0.103577599310E+03   -0.19416E-04   -0.82955E-07   108   0.214E-03    0.897E-04
DAV:  11    -0.103577605732E+03   -0.64215E-05   -0.33214E-07   108   0.127E-03    0.557E-04
DAV:  12    -0.103577612581E+03   -0.68488E-05   -0.15663E-07   108   0.954E-04    0.222E-04
DAV:  13    -0.103577617411E+03   -0.48302E-05   -0.14996E-07   108   0.759E-04    0.238E-04
DAV:  14    -0.103577619831E+03   -0.24201E-05   -0.30847E-08   108   0.424E-04    0.122E-04
DAV:  15    -0.103577621065E+03   -0.12339E-05   -0.12066E-08   108   0.302E-04    0.736E-05
DAV:  16    -0.103577621621E+03   -0.55584E-06    0.19276E-09   120   0.165E-04
   7 F= -.10357762E+03 E0= -.10357762E+03  d E =-.573553E-10
       N       E                     dE             d eps       ncg     rms          rms(c)
DAV:   1    -0.103576673698E+03    0.94737E-03   -0.19204E-01    96   0.133E+00    0.190E-01
DAV:   2    -0.103578086755E+03   -0.14131E-02   -0.14672E-02   132   0.422E-01    0.120E-01
DAV:   3    -0.103578001983E+03    0.84772E-04   -0.39501E-04   132   0.841E-02    0.655E-02
DAV:   4    -0.103578001321E+03    0.66119E-06   -0.23210E-04   132   0.586E-02    0.124E-02
DAV:   5    -0.103577996082E+03    0.52398E-05   -0.44353E-05   132   0.241E-02    0.982E-03
DAV:   6    -0.103577996992E+03   -0.91008E-06   -0.43277E-06   144   0.655E-03
   8 F= -.10357800E+03 E0= -.10357800E+03  d E =-.604421E-10
       N       E                     dE             d eps       ncg     rms          rms(c)
DAV:   1    -0.103575994226E+03    0.20019E-02   -0.33655E-01    96   0.167E+00    0.257E-01
DAV:   2    -0.103577957470E+03   -0.19632E-02   -0.20349E-02   132   0.462E-01    0.153E-01
DAV:   3    -0.103577893425E+03    0.64045E-04   -0.58591E-04   132   0.915E-02    0.784E-02
DAV:   4    -0.103577894395E+03   -0.96986E-06   -0.21418E-04   132   0.535E-02    0.158E-02
DAV:   5    -0.103577883578E+03    0.10817E-04   -0.33961E-05   144   0.222E-02    0.101E-02
DAV:   6    -0.103577884320E+03   -0.74167E-06   -0.74824E-06   132   0.922E-03
   9 F= -.10357788E+03 E0= -.10357788E+03  d E =-.739735E-10
       N       E                     dE             d eps       ncg     rms          rms(c)
DAV:   1    -0.103576169292E+03    0.17143E-02   -0.16973E-01    96   0.119E+00    0.182E-01
DAV:   2    -0.103577292141E+03   -0.11228E-02   -0.11353E-02   132   0.348E-01    0.117E-01
DAV:   3    -0.103577269579E+03    0.22562E-04   -0.29215E-04   132   0.683E-02    0.614E-02
DAV:   4    -0.103577288960E+03   -0.19381E-04   -0.16837E-04   120   0.464E-02    0.121E-02
DAV:   5    -0.103577283777E+03    0.51829E-05   -0.33452E-05   144   0.205E-02    0.845E-03
DAV:   6    -0.103577284724E+03   -0.94680E-06   -0.68328E-06   132   0.719E-03
  10 F= -.10357728E+03 E0= -.10357728E+03  d E =-.628463E-10
       N       E                     dE             d eps       ncg     rms          rms(c)
DAV:   1    -0.103574374792E+03    0.29090E-02   -0.34720E-01    96   0.166E+00    0.263E-01
DAV:   2    -0.103576999240E+03   -0.26244E-02   -0.26497E-02   132   0.516E-01    0.185E-01
DAV:   3    -0.103576853446E+03    0.14579E-03   -0.62671E-04   144   0.103E-01    0.959E-02
DAV:   4    -0.103576882315E+03   -0.28869E-04   -0.49560E-04   120   0.785E-02    0.183E-02
DAV:   5    -0.103576867797E+03    0.14518E-04   -0.10112E-04   132   0.345E-02    0.132E-02
DAV:   6    -0.103576865612E+03    0.21849E-05   -0.18780E-05   132   0.109E-02    0.768E-03
DAV:   7    -0.103576877223E+03   -0.11611E-04   -0.19166E-06   132   0.432E-03    0.311E-03
DAV:   8    -0.103576893573E+03   -0.16350E-04   -0.26177E-06   132   0.458E-03    0.134E-03
DAV:   9    -0.103576909837E+03   -0.16264E-04   -0.15253E-06   132   0.288E-03    0.135E-03
DAV:  10    -0.103576924649E+03   -0.14812E-04   -0.11670E-06   108   0.230E-03    0.416E-04
DAV:  11    -0.103576930736E+03   -0.60872E-05   -0.22076E-07   108   0.112E-03    0.249E-04
DAV:  12    -0.103576937216E+03   -0.64795E-05   -0.33098E-07    96   0.105E-03    0.220E-04
DAV:  13    -0.103576938765E+03   -0.15498E-05   -0.29796E-08   108   0.383E-04    0.169E-04
DAV:  14    -0.103576940960E+03   -0.21951E-05   -0.48629E-08    96   0.459E-04    0.477E-05
DAV:  15    -0.103576941574E+03   -0.61329E-06   -0.56646E-09   108   0.231E-04
  11 F= -.10357694E+03 E0= -.10357694E+03  d E =-.657213E-10
       N       E                     dE             d eps       ncg     rms          rms(c)
DAV:   1    -0.103577353977E+03   -0.41302E-03   -0.17059E-01    96   0.118E+00    0.187E-01
DAV:   2    -0.103578618864E+03   -0.12649E-02   -0.13003E-02   132   0.373E-01    0.124E-01
DAV:   3    -0.103578547179E+03    0.71685E-04   -0.30827E-04   144   0.711E-02    0.664E-02
DAV:   4    -0.103578548374E+03   -0.11946E-05   -0.20806E-04   132   0.525E-02    0.122E-02
DAV:   5    -0.103578542517E+03    0.58571E-05   -0.49245E-05   132   0.245E-02    0.921E-03
DAV:   6    -0.103578543557E+03   -0.10401E-05   -0.80108E-06   132   0.778E-03    0.604E-03
DAV:   7    -0.103578552854E+03   -0.92969E-05   -0.10018E-06   120   0.343E-03    0.254E-03
DAV:   8    -0.103578566340E+03   -0.13486E-04   -0.15517E-06   132   0.366E-03    0.927E-04
DAV:   9    -0.103578578699E+03   -0.12359E-04   -0.10309E-06   120   0.256E-03    0.109E-03
DAV:  10    -0.103578590223E+03   -0.11524E-04   -0.92167E-07   120   0.210E-03    0.424E-04
DAV:  11    -0.103578593575E+03   -0.33520E-05   -0.95602E-08   108   0.880E-04    0.265E-04
DAV:  12    -0.103578597821E+03   -0.42458E-05   -0.16573E-07   108   0.844E-04    0.120E-04
DAV:  13    -0.103578599398E+03   -0.15774E-05   -0.46564E-08   108   0.458E-04    0.169E-04
DAV:  14    -0.103578600767E+03   -0.13691E-05   -0.21069E-08    96   0.355E-04    0.792E-05
DAV:  15    -0.103578601204E+03   -0.43685E-06   -0.55829E-10   108   0.195E-04
  12 F= -.10357860E+03 E0= -.10357860E+03  d E =-.705526E-10
       N       E                     dE             d eps       ncg     rms          rms(c)
DAV:   1    -0.103576908118E+03    0.16926E-02   -0.33326E-01    96   0.162E+00    0.267E-01
DAV:   2    -0.103578511979E+03   -0.16039E-02   -0.17175E-02   132   0.424E-01    0.133E-01
DAV:   3    -0.103578469125E+03    0.42854E-04   -0.56793E-04   132   0.892E-02    0.710E-02
DAV:   4    -0.103578479791E+03   -0.10666E-04   -0.17985E-04   132   0.543E-02    0.155E-02
DAV:   5    -0.103578473525E+03    0.62658E-05   -0.46647E-05   132   0.260E-02    0.113E-02
DAV:   6    -0.103578473327E+03    0.19784E-06   -0.73119E-06   132   0.900E-03
  13 F= -.10357847E+03 E0= -.10357847E+03  d E =-.722952E-10
       N       E                     dE             d eps       ncg     rms          rms(c)
DAV:   1    -0.103576235048E+03    0.22385E-02   -0.16860E-01    96   0.131E+00    0.194E-01
DAV:   2    -0.103577528676E+03   -0.12936E-02   -0.13346E-02   132   0.410E-01    0.115E-01
DAV:   3    -0.103577475415E+03    0.53262E-04   -0.36527E-04   144   0.784E-02    0.659E-02
DAV:   4    -0.103577496220E+03   -0.20806E-04   -0.19355E-04   132   0.568E-02    0.136E-02
DAV:   5    -0.103577495757E+03    0.46303E-06   -0.51868E-05   144   0.268E-02    0.106E-02
DAV:   6    -0.103577494468E+03    0.12895E-05   -0.56148E-06   132   0.820E-03    0.728E-03
DAV:   7    -0.103577497847E+03   -0.33791E-05   -0.18030E-06   120   0.513E-03    0.280E-03
DAV:   8    -0.103577503216E+03   -0.53685E-05   -0.54189E-07   108   0.336E-03    0.759E-04
DAV:   9    -0.103577509622E+03   -0.64069E-05   -0.51654E-07   108   0.237E-03    0.103E-03
DAV:  10    -0.103577518308E+03   -0.86861E-05   -0.46602E-07   108   0.181E-03    0.344E-04
DAV:  11    -0.103577520628E+03   -0.23197E-05   -0.10129E-07   108   0.899E-04    0.273E-04
DAV:  12    -0.103577523781E+03   -0.31531E-05   -0.73955E-08   108   0.682E-04    0.141E-04
DAV:  13    -0.103577526162E+03   -0.23808E-05   -0.72346E-08   108   0.578E-04    0.119E-04
DAV:  14    -0.103577527532E+03   -0.13696E-05   -0.24136E-08   108   0.351E-04    0.908E-05
DAV:  15    -0.103577528225E+03   -0.69309E-06   -0.38810E-09   108   0.222E-04
  14 F= -.10357753E+03 E0= -.10357753E+03  d E =-.711784E-10
       N       E                     dE             d eps       ncg     rms          rms(c)
DAV:   1    -0.103574871433E+03    0.26561E-02   -0.35381E-01    96   0.183E+00    0.262E-01
DAV:   2    -0.103577372182E+03   -0.25007E-02   -0.25477E-02   132   0.585E-01    0.173E-01
DAV:   3    -0.103577246381E+03    0.12580E-03   -0.57540E-04   132   0.104E-01    0.940E-02
DAV:   4    -0.103577246479E+03   -0.97708E-07   -0.39316E-04   120   0.786E-02    0.173E-02
DAV:   5    -0.103577237988E+03    0.84906E-05   -0.90450E-05   132   0.355E-02    0.125E-02
DAV:   6    -0.103577242908E+03   -0.49203E-05   -0.15672E-05   132   0.116E-02    0.796E-03
DAV:   7    -0.103577263727E+03   -0.20819E-04   -0.19034E-06   132   0.482E-03    0.341E-03
DAV:   8    -0.103577291850E+03   -0.28123E-04   -0.31141E-06   132   0.509E-03    0.118E-03
DAV:   9    -0.103577312903E+03   -0.21053E-04   -0.21378E-06   120   0.367E-03    0.172E-03
DAV:  10    -0.103577333281E+03   -0.20378E-04   -0.16477E-06   120   0.293E-03    0.617E-04
DAV:  11    -0.103577339298E+03   -0.60164E-05   -0.23439E-07   108   0.126E-03    0.364E-04
DAV:  12    -0.103577346246E+03   -0.69483E-05   -0.31424E-07   108   0.116E-03    0.159E-04
DAV:  13    -0.103577348496E+03   -0.22503E-05   -0.79981E-08   108   0.582E-04    0.249E-04
DAV:  14    -0.103577350575E+03   -0.20784E-05   -0.42492E-08   108   0.491E-04    0.903E-05
DAV:  15    -0.103577351032E+03   -0.45780E-06   -0.48417E-09   120   0.242E-04
  15 F= -.10357735E+03 E0= -.10357735E+03  d E =-.728235E-10
       N       E                     dE             d eps       ncg     rms          rms(c)
DAV:   1    -0.103576916849E+03    0.43373E-03   -0.17681E-01    96   0.132E+00    0.189E-01
DAV:   2    -0.103578193509E+03   -0.12767E-02   -0.13010E-02   132   0.421E-01    0.128E-01
DAV:   3    -0.103578118560E+03    0.74949E-04   -0.30073E-04   144   0.778E-02    0.665E-02
DAV:   4    -0.103578122410E+03   -0.38500E-05   -0.22714E-04   132   0.587E-02    0.131E-02
DAV:   5    -0.103578114873E+03    0.75369E-05   -0.50032E-05   132   0.266E-02    0.914E-03
DAV:   6    -0.103578117090E+03   -0.22168E-05   -0.85035E-06   132   0.821E-03    0.461E-03
DAV:   7    -0.103578127544E+03   -0.10454E-04   -0.51279E-07   108   0.232E-03    0.239E-03
DAV:   8    -0.103578146095E+03   -0.18551E-04   -0.24778E-06   132   0.429E-03    0.112E-03
DAV:   9    -0.103578157429E+03   -0.11334E-04   -0.77971E-07   108   0.246E-03    0.101E-03
DAV:  10    -0.103578170214E+03   -0.12785E-04   -0.10553E-06   108   0.215E-03    0.443E-04
DAV:  11    -0.103578174143E+03   -0.39286E-05   -0.12212E-07   108   0.101E-03    0.226E-04
DAV:  12    -0.103578177811E+03   -0.36683E-05   -0.10991E-07   108   0.762E-04    0.153E-04
DAV:  13    -0.103578179296E+03   -0.14852E-05   -0.29249E-08   108   0.398E-04    0.156E-04
DAV:  14    -0.103578180581E+03   -0.12847E-05   -0.14574E-08   108   0.312E-04    0.681E-05
DAV:  15    -0.103578180941E+03   -0.36009E-06    0.93236E-10   108   0.174E-04
  16 F= -.10357818E+03 E0= -.10357818E+03  d E =-.739352E-10
       N       E                     dE             d eps       ncg     rms          rms(c)
DAV:   1    -0.103575608889E+03    0.25717E-02   -0.34500E-01    96   0.187E+00    0.262E-01
DAV:   2    -0.103577694231E+03   -0.20853E-02   -0.21524E-02   132   0.529E-01    0.153E-01
DAV:   3    -0.103577604826E+03    0.89405E-04   -0.52481E-04   132   0.960E-02    0.807E-02
DAV:   4    -0.103577609175E+03   -0.43484E-05   -0.29429E-04   132   0.662E-02    0.163E-02
DAV:   5    -0.103577598700E+03    0.10475E-04   -0.60192E-05   132   0.298E-02    0.120E-02
DAV:   6    -0.103577598106E+03    0.59367E-06   -0.11425E-05   132   0.106E-02    0.740E-03
DAV:   7    -0.103577607616E+03   -0.95093E-05   -0.18056E-06   132   0.550E-03    0.279E-03
DAV:   8    -0.103577622491E+03   -0.14875E-04   -0.15681E-06   132   0.463E-03    0.128E-03
DAV:   9    -0.103577640355E+03   -0.17863E-04   -0.11415E-06   108   0.323E-03    0.131E-03
DAV:  10    -0.103577655920E+03   -0.15566E-04   -0.10200E-06   120   0.240E-03    0.663E-04
DAV:  11    -0.103577664847E+03   -0.89267E-05   -0.27618E-07   108   0.138E-03    0.286E-04
DAV:  12    -0.103577670547E+03   -0.57004E-05   -0.15988E-07   108   0.887E-04    0.320E-04
DAV:  13    -0.103577673976E+03   -0.34282E-05   -0.58188E-08   108   0.542E-04    0.181E-04
DAV:  14    -0.103577675684E+03   -0.17081E-05   -0.16358E-08   108   0.364E-04    0.504E-05
DAV:  15    -0.103577676690E+03   -0.10065E-05   -0.75172E-09   108   0.257E-04    0.667E-05
DAV:  16    -0.103577677137E+03   -0.44691E-06    0.24580E-09   108   0.154E-04
  17 F= -.10357768E+03 E0= -.10357768E+03  d E =-.645557E-10
       N       E                     dE             d eps       ncg     rms          rms(c)
DAV:   1    -0.103577109518E+03    0.56717E-03   -0.17349E-01    96   0.132E+00    0.175E-01
DAV:   2    -0.103578193182E+03   -0.10837E-02   -0.11237E-02   120   0.388E-01    0.115E-01
DAV:   3    -0.103578147807E+03    0.45374E-04   -0.25894E-04   144   0.675E-02    0.617E-02
DAV:   4    -0.103578131240E+03    0.16567E-04   -0.12271E-04   132   0.425E-02    0.106E-02
DAV:   5    -0.103578127820E+03    0.34198E-05   -0.20922E-05   132   0.176E-02    0.721E-03
DAV:   6    -0.103578133549E+03   -0.57283E-05   -0.60320E-06   132   0.847E-03    0.429E-03
DAV:   7    -0.103578152178E+03   -0.18630E-04   -0.21424E-06   108   0.569E-03    0.155E-03
DAV:   8    -0.103578170215E+03   -0.18037E-04   -0.15135E-06   108   0.426E-03    0.108E-03
DAV:   9    -0.103578186677E+03   -0.16462E-04   -0.13554E-06   120   0.310E-03    0.995E-04
DAV:  10    -0.103578201075E+03   -0.14398E-04   -0.12778E-06   120   0.239E-03    0.387E-04
DAV:  11    -0.103578203434E+03   -0.23596E-05   -0.61661E-08   120   0.880E-04    0.274E-04
DAV:  12    -0.103578208959E+03   -0.55242E-05   -0.34075E-07   108   0.122E-03    0.139E-04
DAV:  13    -0.103578209851E+03   -0.89233E-06   -0.41519E-08   120   0.503E-04
  18 F= -.10357821E+03 E0= -.10357821E+03  d E =-.636020E-10
       N       E                     dE             d eps       ncg     rms          rms(c)
DAV:   1    -0.103576516636E+03    0.16923E-02   -0.33273E-01    96   0.179E+00    0.211E-01
DAV:   2    -0.103578494584E+03   -0.19779E-02   -0.20216E-02   132   0.496E-01    0.141E-01
DAV:   3    -0.103578449810E+03    0.44774E-04   -0.46338E-04   132   0.859E-02    0.741E-02
DAV:   4    -0.103578443083E+03    0.67270E-05   -0.16758E-04   132   0.522E-02    0.132E-02
DAV:   5    -0.103578432525E+03    0.10558E-04   -0.36858E-05   132   0.237E-02    0.862E-03
DAV:   6    -0.103578434226E+03   -0.17010E-05   -0.72948E-06   132   0.934E-03    0.564E-03
DAV:   7    -0.103578447519E+03   -0.13293E-04   -0.17928E-06   120   0.678E-03    0.194E-03
DAV:   8    -0.103578463359E+03   -0.15840E-04   -0.26361E-06   132   0.629E-03    0.189E-03
DAV:   9    -0.103578477798E+03   -0.14440E-04   -0.82592E-07   108   0.345E-03    0.124E-03
DAV:  10    -0.103578491155E+03   -0.13356E-04   -0.54442E-07   108   0.189E-03    0.664E-04
DAV:  11    -0.103578502662E+03   -0.11508E-04   -0.52265E-07   108   0.162E-03    0.346E-04
DAV:  12    -0.103578510105E+03   -0.74425E-05   -0.23037E-07   108   0.107E-03    0.251E-04
DAV:  13    -0.103578515284E+03   -0.51789E-05   -0.13251E-07   108   0.805E-04    0.193E-04
DAV:  14    -0.103578516906E+03   -0.16224E-05   -0.18615E-08   120   0.427E-04    0.111E-04
DAV:  15    -0.103578518318E+03   -0.14125E-05   -0.14443E-08    96   0.358E-04    0.128E-04
DAV:  16    -0.103578518811E+03   -0.49258E-06    0.99694E-10   108   0.211E-04
  19 F= -.10357852E+03 E0= -.10357852E+03  d E =-.841003E-10
       N       E                     dE             d eps       ncg     rms          rms(c)
DAV:   1    -0.103576638585E+03    0.18797E-02   -0.16643E-01    96   0.130E+00    0.160E-01
DAV:   2    -0.103577955087E+03   -0.13165E-02   -0.13648E-02   132   0.413E-01    0.111E-01
DAV:   3    -0.103577897011E+03    0.58076E-04   -0.32132E-04   144   0.732E-02    0.654E-02
DAV:   4    -0.103577878456E+03    0.18555E-04   -0.15073E-04   132   0.497E-02    0.110E-02
DAV:   5    -0.103577872597E+03    0.58590E-05   -0.39605E-05   132   0.231E-02    0.878E-03
DAV:   6    -0.103577872931E+03   -0.33335E-06   -0.45882E-06   144   0.764E-03
  20 F= -.10357787E+03 E0= -.10357787E+03  d E =-.740097E-10
       N       E                     dE             d eps       ncg     rms          rms(c)
DAV:   1    -0.103575400991E+03    0.24716E-02   -0.33406E-01    96   0.174E+00    0.261E-01
DAV:   2    -0.103577702812E+03   -0.23018E-02   -0.24567E-02   132   0.529E-01    0.163E-01
DAV:   3    -0.103577557195E+03    0.14562E-03   -0.66166E-04   132   0.107E-01    0.857E-02
DAV:   4    -0.103577578103E+03   -0.20908E-04   -0.41751E-04   132   0.732E-02    0.171E-02
DAV:   5    -0.103577571170E+03    0.69325E-05   -0.66481E-05   132   0.299E-02    0.125E-02
DAV:   6    -0.103577570364E+03    0.80596E-06   -0.10708E-05   144   0.961E-03    0.832E-03
DAV:   7    -0.103577577001E+03   -0.66367E-05   -0.95806E-07   108   0.381E-03    0.339E-03
DAV:   8    -0.103577587674E+03   -0.10673E-04   -0.16721E-06   120   0.471E-03    0.122E-03
DAV:   9    -0.103577596768E+03   -0.90938E-05   -0.83037E-07   120   0.262E-03    0.138E-03
DAV:  10    -0.103577610951E+03   -0.14182E-04   -0.69349E-07    96   0.196E-03    0.728E-04
DAV:  11    -0.103577615102E+03   -0.41519E-05   -0.20604E-07   108   0.107E-03    0.503E-04
DAV:  12    -0.103577620292E+03   -0.51893E-05   -0.13488E-07   108   0.895E-04    0.261E-04
DAV:  13    -0.103577623773E+03   -0.34815E-05   -0.11569E-07   108   0.683E-04    0.203E-04
DAV:  14    -0.103577625877E+03   -0.21042E-05   -0.34769E-08   108   0.444E-04    0.118E-04
DAV:  15    -0.103577626703E+03   -0.82527E-06   -0.63638E-09   108   0.262E-04
  21 F= -.10357763E+03 E0= -.10357763E+03  d E =-.583144E-10
       N       E                     dE             d eps       ncg     rms          rms(c)
DAV:   1    -0.103577827396E+03   -0.20152E-03   -0.16748E-01    96   0.122E+00    0.160E-01
DAV:   2    -0.103578895222E+03   -0.10678E-02   -0.11338E-02   132   0.360E-01    0.105E-01
DAV:   3    -0.103578833810E+03    0.61412E-04   -0.30329E-04   132   0.714E-02    0.551E-02
DAV:   4    -0.103578834382E+03   -0.57146E-06   -0.15722E-04   132   0.456E-02    0.122E-02
DAV:   5    -0.103578829654E+03    0.47276E-05   -0.25564E-05   132   0.187E-02    0.810E-03
DAV:   6    -0.103578831013E+03   -0.13590E-05   -0.46257E-06   132   0.660E-03    0.512E-03
DAV:   7    -0.103578838323E+03   -0.73103E-05   -0.53420E-07   108   0.272E-03    0.183E-03
DAV:   8    -0.103578846292E+03   -0.79683E-05   -0.78553E-07   120   0.293E-03    0.814E-04
DAV:   9    -0.103578853471E+03   -0.71791E-05   -0.53037E-07   120   0.204E-03    0.825E-04
DAV:  10    -0.103578862526E+03   -0.90555E-05   -0.63868E-07   120   0.177E-03    0.490E-04
DAV:  11    -0.103578864624E+03   -0.20975E-05   -0.70749E-08   120   0.773E-04    0.320E-04
DAV:  12    -0.103578866865E+03   -0.22413E-05   -0.54131E-08   108   0.586E-04    0.171E-04
DAV:  13    -0.103578868846E+03   -0.19803E-05   -0.67567E-08   108   0.548E-04    0.116E-04
DAV:  14    -0.103578869843E+03   -0.99735E-06   -0.18651E-08   108   0.329E-04
  22 F= -.10357887E+03 E0= -.10357887E+03  d E =-.691916E-10
       N       E                     dE             d eps       ncg     rms          rms(c)
DAV:   1    -0.103577644087E+03    0.12248E-02   -0.33617E-01    96   0.171E+00    0.245E-01
DAV:   2    -0.103579047535E+03   -0.14034E-02   -0.15506E-02   132   0.423E-01    0.109E-01
DAV:   3    -0.103579005672E+03    0.41863E-04   -0.53076E-04   132   0.869E-02    0.581E-02
DAV:   4    -0.103579015887E+03   -0.10215E-04   -0.12951E-04   132   0.432E-02    0.158E-02
DAV:   5    -0.103579012830E+03    0.30564E-05   -0.26194E-05   132   0.203E-02    0.922E-03
DAV:   6    -0.103579013747E+03   -0.91642E-06   -0.58772E-06   132   0.839E-03
  23 F= -.10357901E+03 E0= -.10357901E+03  d E =-.934573E-10
       N       E                     dE             d eps       ncg     rms          rms(c)
DAV:   1    -0.103578262886E+03    0.74994E-03   -0.16705E-01    96   0.119E+00    0.157E-01
DAV:   2    -0.103579005726E+03   -0.74284E-03   -0.79898E-03   132   0.305E-01    0.790E-02
DAV:   3    -0.103578991418E+03    0.14308E-04   -0.27628E-04   144   0.637E-02    0.404E-02
DAV:   4    -0.103579007963E+03   -0.16545E-04   -0.74150E-05   132   0.322E-02    0.113E-02
DAV:   5    -0.103579008836E+03   -0.87327E-06   -0.12252E-05   132   0.136E-02    0.656E-03
DAV:   6    -0.103579010148E+03   -0.13115E-05   -0.29128E-06   144   0.585E-03    0.368E-03
DAV:   7    -0.103579012624E+03   -0.24765E-05   -0.33062E-07   108   0.227E-03    0.125E-03
DAV:   8    -0.103579015166E+03   -0.25419E-05   -0.21498E-07   108   0.195E-03    0.538E-04
DAV:   9    -0.103579017692E+03   -0.25262E-05   -0.13957E-07   108   0.140E-03    0.389E-04
DAV:  10    -0.103579020851E+03   -0.31584E-05   -0.16502E-07   108   0.127E-03    0.271E-04
DAV:  11    -0.103579021581E+03   -0.73011E-06   -0.40452E-08   120   0.706E-04
  24 F= -.10357902E+03 E0= -.10357902E+03  d E =-.560083E-10
       N       E                     dE             d eps       ncg     rms          rms(c)
DAV:   1    -0.103576756611E+03    0.22642E-02   -0.33713E-01    96   0.170E+00    0.267E-01
DAV:   2    -0.103578319430E+03   -0.15628E-02   -0.17277E-02   132   0.450E-01    0.126E-01
DAV:   3    -0.103578247339E+03    0.72091E-04   -0.56558E-04   144   0.911E-02    0.726E-02
DAV:   4    -0.103578254781E+03   -0.74419E-05   -0.18568E-04   132   0.507E-02    0.188E-02
DAV:   5    -0.103578251012E+03    0.37692E-05   -0.34493E-05   144   0.221E-02    0.101E-02
DAV:   6    -0.103578251647E+03   -0.63553E-06   -0.52568E-06   132   0.789E-03
  25 F= -.10357825E+03 E0= -.10357825E+03  d E =-.940698E-10
       N       E                     dE             d eps       ncg     rms          rms(c)
DAV:   1    -0.103577597280E+03    0.65373E-03   -0.16976E-01    96   0.124E+00    0.170E-01
DAV:   2    -0.103578601852E+03   -0.10046E-02   -0.10676E-02   132   0.352E-01    0.886E-02
DAV:   3    -0.103578568786E+03    0.33066E-04   -0.33950E-04   144   0.713E-02    0.479E-02
DAV:   4    -0.103578583697E+03   -0.14912E-04   -0.10994E-04   132   0.394E-02    0.118E-02
DAV:   5    -0.103578584791E+03   -0.10942E-05   -0.21834E-05   132   0.172E-02    0.751E-03
DAV:   6    -0.103578585573E+03   -0.78150E-06   -0.30805E-06   144   0.592E-03
  26 F= -.10357859E+03 E0= -.10357859E+03  d E =-.593049E-11
       N       E                     dE             d eps       ncg     rms          rms(c)
DAV:   1    -0.103577133786E+03    0.14510E-02   -0.33888E-01    96   0.163E+00    0.221E-01
DAV:   2    -0.103578770370E+03   -0.16366E-02   -0.17261E-02   132   0.441E-01    0.124E-01
DAV:   3    -0.103578728130E+03    0.42240E-04   -0.52469E-04   144   0.871E-02    0.693E-02
DAV:   4    -0.103578738907E+03   -0.10778E-04   -0.16604E-04   132   0.489E-02    0.168E-02
DAV:   5    -0.103578733184E+03    0.57232E-05   -0.33535E-05   132   0.216E-02    0.906E-03
DAV:   6    -0.103578733287E+03   -0.10320E-06   -0.56002E-06   144   0.790E-03
  27 F= -.10357873E+03 E0= -.10357873E+03  d E =-.590882E-10
       N       E                     dE             d eps       ncg     rms          rms(c)
DAV:   1    -0.103577043444E+03    0.16897E-02   -0.17116E-01    96   0.119E+00    0.167E-01
DAV:   2    -0.103578132316E+03   -0.10889E-02   -0.11561E-02   132   0.342E-01    0.111E-01
DAV:   3    -0.103578073872E+03    0.58445E-04   -0.31168E-04   132   0.715E-02    0.534E-02
DAV:   4    -0.103578089183E+03   -0.15312E-04   -0.19100E-04   132   0.461E-02    0.116E-02
DAV:   5    -0.103578083799E+03    0.53839E-05   -0.23862E-05   132   0.177E-02    0.771E-03
DAV:   6    -0.103578082303E+03    0.14965E-05   -0.51695E-06   132   0.635E-03    0.406E-03
DAV:   7    -0.103578084382E+03   -0.20795E-05   -0.44557E-07   108   0.263E-03    0.159E-03
DAV:   8    -0.103578088524E+03   -0.41412E-05   -0.65207E-07   120   0.266E-03    0.791E-04
DAV:   9    -0.103578094233E+03   -0.57095E-05   -0.36139E-07    96   0.168E-03    0.678E-04
DAV:  10    -0.103578100150E+03   -0.59171E-05   -0.36165E-07   108   0.126E-03    0.265E-04
DAV:  11    -0.103578102378E+03   -0.22281E-05   -0.50206E-08   108   0.597E-04    0.178E-04
DAV:  12    -0.103578105562E+03   -0.31840E-05   -0.85966E-08    96   0.605E-04    0.961E-05
DAV:  13    -0.103578106827E+03   -0.12644E-05   -0.21414E-08   108   0.330E-04    0.955E-05
DAV:  14    -0.103578107885E+03   -0.10587E-05   -0.94011E-09   108   0.258E-04    0.581E-05
DAV:  15    -0.103578108382E+03   -0.49660E-06    0.32934E-11   108   0.173E-04
  28 F= -.10357811E+03 E0= -.10357811E+03  d E =-.580392E-10
       N       E                     dE             d eps       ncg     rms          rms(c)
DAV:   1    -0.103575973732E+03    0.21342E-02   -0.34577E-01    96   0.165E+00    0.272E-01
DAV:   2    -0.103577905274E+03   -0.19315E-02   -0.20880E-02   120   0.472E-01    0.150E-01
DAV:   3    -0.103577793769E+03    0.11151E-03   -0.62812E-04   132   0.969E-02    0.843E-02
DAV:   4    -0.103577790020E+03    0.37485E-05   -0.28552E-04   132   0.596E-02    0.176E-02
DAV:   5    -0.103577783505E+03    0.65151E-05   -0.48785E-05   132   0.244E-02    0.117E-02
DAV:   6    -0.103577785921E+03   -0.24164E-05   -0.79426E-06   132   0.847E-03    0.731E-03
DAV:   7    -0.103577800856E+03   -0.14935E-04   -0.18980E-06   132   0.460E-03    0.204E-03
DAV:   8    -0.103577812973E+03   -0.12117E-04   -0.72029E-07   120   0.258E-03    0.109E-03
DAV:   9    -0.103577831267E+03   -0.18294E-04   -0.14537E-06   132   0.266E-03    0.929E-04
DAV:  10    -0.103577842893E+03   -0.11626E-04   -0.77930E-07   120   0.189E-03    0.668E-04
DAV:  11    -0.103577851461E+03   -0.85674E-05   -0.51444E-07   120   0.143E-03    0.266E-04
DAV:  12    -0.103577856187E+03   -0.47257E-05   -0.16309E-07   108   0.878E-04    0.170E-04
DAV:  13    -0.103577858646E+03   -0.24595E-05   -0.93870E-08   108   0.590E-04    0.141E-04
DAV:  14    -0.103577859577E+03   -0.93090E-06   -0.10938E-08   108   0.288E-04
  29 F= -.10357786E+03 E0= -.10357786E+03  d E =-.468687E-11
       N       E                     dE             d eps       ncg     rms          rms(c)
DAV:   1    -0.103577746853E+03    0.11179E-03   -0.17046E-01    96   0.118E+00    0.173E-01
DAV:   2    -0.103578821811E+03   -0.10750E-02   -0.11553E-02   132   0.343E-01    0.110E-01
DAV:   3    -0.103578747752E+03    0.74060E-04   -0.29686E-04   132   0.696E-02    0.563E-02
DAV:   4    -0.103578749168E+03   -0.14170E-05   -0.18509E-04   132   0.473E-02    0.116E-02
DAV:   5    -0.103578744005E+03    0.51634E-05   -0.29540E-05   132   0.196E-02    0.825E-03
DAV:   6    -0.103578743869E+03    0.13662E-06   -0.55121E-06   132   0.667E-03
  30 F= -.10357874E+03 E0= -.10357874E+03  d E =-.579693E-11
       N       E                     dE             d eps       ncg     rms          rms(c)
DAV:   1    -0.103577139787E+03    0.16042E-02   -0.33992E-01    96   0.163E+00    0.203E-01
DAV:   2    -0.103578709370E+03   -0.15696E-02   -0.16407E-02   120   0.440E-01    0.120E-01
DAV:   3    -0.103578698101E+03    0.11268E-04   -0.54251E-04   144   0.907E-02    0.665E-02
DAV:   4    -0.103578726047E+03   -0.27946E-04   -0.15310E-04   132   0.489E-02    0.155E-02
DAV:   5    -0.103578722619E+03    0.34284E-05   -0.32627E-05   132   0.218E-02    0.960E-03
DAV:   6    -0.103578721394E+03    0.12248E-05   -0.60702E-06   132   0.837E-03    0.597E-03
DAV:   7    -0.103578724575E+03   -0.31803E-05   -0.83866E-07   108   0.364E-03    0.192E-03
DAV:   8    -0.103578728375E+03   -0.38003E-05   -0.36053E-07   108   0.246E-03    0.767E-04
DAV:   9    -0.103578734814E+03   -0.64393E-05   -0.42204E-07   108   0.237E-03    0.558E-04
DAV:  10    -0.103578740922E+03   -0.61080E-05   -0.48565E-07   108   0.203E-03    0.369E-04
DAV:  11    -0.103578742910E+03   -0.19879E-05   -0.10639E-07   108   0.110E-03    0.304E-04
DAV:  12    -0.103578743904E+03   -0.99403E-06   -0.19151E-08   108   0.459E-04
  31 F= -.10357874E+03 E0= -.10357874E+03  d E =-.895148E-10
       N       E                     dE             d eps       ncg     rms          rms(c)
DAV:   1    -0.103576380777E+03    0.23621E-02   -0.16484E-01    96   0.125E+00    0.155E-01
DAV:   2    -0.103577575622E+03   -0.11948E-02   -0.12515E-02   132   0.375E-01    0.106E-01
DAV:   3    -0.103577531414E+03    0.44208E-04   -0.31041E-04   144   0.698E-02    0.585E-02
DAV:   4    -0.103577527700E+03    0.37141E-05   -0.12850E-04   132   0.442E-02    0.105E-02
DAV:   5    -0.103577522152E+03    0.55479E-05   -0.26271E-05   132   0.190E-02    0.778E-03
DAV:   6    -0.103577521503E+03    0.64864E-06   -0.39494E-06   132   0.679E-03
  32 F= -.10357752E+03 E0= -.10357752E+03  d E =-.591228E-10
       N       E                     dE             d eps       ncg     rms          rms(c)
DAV:   1    -0.103575383716E+03    0.21384E-02   -0.34729E-01    96   0.171E+00    0.243E-01
DAV:   2    -0.103577575602E+03   -0.21919E-02   -0.22083E-02   132   0.498E-01    0.164E-01
DAV:   3    -0.103577520107E+03    0.55495E-04   -0.50549E-04   132   0.872E-02    0.905E-02
DAV:   4    -0.103577500737E+03    0.19370E-04   -0.28272E-04   132   0.590E-02    0.150E-02
DAV:   5    -0.103577489324E+03    0.11413E-04   -0.46405E-05   132   0.241E-02    0.113E-02
DAV:   6    -0.103577491035E+03   -0.17110E-05   -0.12025E-05   132   0.108E-02    0.673E-03
DAV:   7    -0.103577511589E+03   -0.20554E-04   -0.40336E-06   108   0.675E-03    0.238E-03
DAV:   8    -0.103577533650E+03   -0.22062E-04   -0.17708E-06   108   0.416E-03    0.127E-03
DAV:   9    -0.103577559333E+03   -0.25682E-04   -0.24813E-06   108   0.375E-03    0.116E-03
DAV:  10    -0.103577577392E+03   -0.18059E-04   -0.15973E-06   120   0.271E-03    0.586E-04
DAV:  11    -0.103577585747E+03   -0.83557E-05   -0.40715E-07   108   0.142E-03    0.263E-04
DAV:  12    -0.103577590707E+03   -0.49594E-05   -0.25997E-07   108   0.102E-03    0.177E-04
DAV:  13    -0.103577592865E+03   -0.21584E-05   -0.63957E-08   108   0.578E-04    0.103E-04
DAV:  14    -0.103577593551E+03   -0.68622E-06   -0.55207E-09   108   0.278E-04
  33 F= -.10357759E+03 E0= -.10357759E+03  d E =-.830864E-10
       N       E                     dE             d eps       ncg     rms          rms(c)
DAV:   1    -0.103578035680E+03   -0.44282E-03   -0.16745E-01    96   0.115E+00    0.157E-01
DAV:   2    -0.103579035792E+03   -0.10001E-02   -0.10263E-02   132   0.324E-01    0.103E-01
DAV:   3    -0.103579009712E+03    0.26080E-04   -0.25414E-04   132   0.618E-02    0.546E-02
DAV:   4    -0.103579009934E+03   -0.22195E-06   -0.11261E-04   132   0.403E-02    0.106E-02
DAV:   5    -0.103579004372E+03    0.55624E-05   -0.23959E-05   132   0.184E-02    0.710E-03
DAV:   6    -0.103579004430E+03   -0.57906E-07   -0.48385E-06   132   0.664E-03
  34 F= -.10357900E+03 E0= -.10357900E+03  d E =-.873528E-10
       N       E                     dE             d eps       ncg     rms          rms(c)
DAV:   1    -0.103576996413E+03    0.20080E-02   -0.33452E-01    96   0.154E+00    0.234E-01
DAV:   2    -0.103578607352E+03   -0.16109E-02   -0.16452E-02   144   0.397E-01    0.118E-01
DAV:   3    -0.103578607336E+03    0.15583E-07   -0.53566E-04   132   0.841E-02    0.619E-02
DAV:   4    -0.103578639328E+03   -0.31992E-04   -0.14720E-04   132   0.497E-02    0.144E-02
DAV:   5    -0.103578639843E+03   -0.51502E-06   -0.38234E-05   132   0.231E-02    0.102E-02
DAV:   6    -0.103578640945E+03   -0.11018E-05   -0.55801E-06   132   0.745E-03    0.648E-03
DAV:   7    -0.103578644765E+03   -0.38197E-05   -0.74275E-07   108   0.356E-03    0.247E-03
DAV:   8    -0.103578649337E+03   -0.45726E-05   -0.80045E-07   108   0.358E-03    0.105E-03
DAV:   9    -0.103578657055E+03   -0.77171E-05   -0.53246E-07   108   0.303E-03    0.619E-04
DAV:  10    -0.103578661916E+03   -0.48614E-05   -0.37458E-07   108   0.212E-03    0.666E-04
DAV:  11    -0.103578663755E+03   -0.18386E-05   -0.92518E-08   108   0.114E-03    0.503E-04
DAV:  12    -0.103578666262E+03   -0.25074E-05   -0.58507E-08   108   0.678E-04    0.191E-04
DAV:  13    -0.103578668506E+03   -0.22436E-05   -0.64385E-08   108   0.558E-04    0.176E-04
DAV:  14    -0.103578669877E+03   -0.13719E-05   -0.25418E-08   108   0.362E-04    0.978E-05
DAV:  15    -0.103578670708E+03   -0.83098E-06   -0.13261E-08    96   0.292E-04
  35 F= -.10357867E+03 E0= -.10357867E+03  d E =-.843556E-10
       N       E                     dE             d eps       ncg     rms          rms(c)
DAV:   1    -0.103576275132E+03    0.23947E-02   -0.16905E-01    96   0.114E+00    0.161E-01
DAV:   2    -0.103577232441E+03   -0.95731E-03   -0.98155E-03   132   0.319E-01    0.972E-02
DAV:   3    -0.103577211516E+03    0.20925E-04   -0.25779E-04   132   0.621E-02    0.522E-02
DAV:   4    -0.103577218523E+03   -0.70073E-05   -0.11364E-04   120   0.420E-02    0.102E-02
DAV:   5    -0.103577214475E+03    0.40478E-05   -0.28564E-05   132   0.199E-02    0.772E-03
DAV:   6    -0.103577213916E+03    0.55919E-06   -0.45172E-06   132   0.652E-03
  36 F= -.10357721E+03 E0= -.10357721E+03  d E =-.704434E-10
       N       E                     dE             d eps       ncg     rms          rms(c)
DAV:   1    -0.103574814696E+03    0.23998E-02   -0.35350E-01    96   0.169E+00    0.254E-01
DAV:   2    -0.103577306509E+03   -0.24918E-02   -0.25252E-02   132   0.531E-01    0.176E-01
DAV:   3    -0.103577212343E+03    0.94166E-04   -0.59318E-04   132   0.995E-02    0.906E-02
DAV:   4    -0.103577218162E+03   -0.58192E-05   -0.39702E-04   132   0.705E-02    0.169E-02
DAV:   5    -0.103577204622E+03    0.13540E-04   -0.75824E-05   132   0.304E-02    0.119E-02
DAV:   6    -0.103577207241E+03   -0.26192E-05   -0.15210E-05   132   0.104E-02    0.677E-03
DAV:   7    -0.103577225746E+03   -0.18505E-04   -0.15769E-06   120   0.417E-03    0.292E-03
DAV:   8    -0.103577251286E+03   -0.25540E-04   -0.35632E-06   120   0.520E-03    0.135E-03
DAV:   9    -0.103577269067E+03   -0.17781E-04   -0.18412E-06   120   0.330E-03    0.148E-03
DAV:  10    -0.103577286196E+03   -0.17129E-04   -0.14477E-06   108   0.269E-03    0.442E-04
DAV:  11    -0.103577290698E+03   -0.45017E-05   -0.18891E-07   108   0.119E-03    0.308E-04
DAV:  12    -0.103577296539E+03   -0.58413E-05   -0.25643E-07    84   0.107E-03    0.165E-04
DAV:  13    -0.103577298666E+03   -0.21265E-05   -0.86359E-08   108   0.605E-04    0.167E-04
DAV:  14    -0.103577300288E+03   -0.16223E-05   -0.32930E-08   108   0.442E-04    0.694E-05
DAV:  15    -0.103577300797E+03   -0.50897E-06   -0.47966E-09   120   0.241E-04
  37 F= -.10357730E+03 E0= -.10357730E+03  d E =-.847253E-10
       N       E                     dE             d eps       ncg     rms          rms(c)
DAV:   1    -0.103577367672E+03   -0.67384E-04   -0.17167E-01    96   0.129E+00    0.166E-01
DAV:   2    -0.103578605060E+03   -0.12374E-02   -0.12763E-02   132   0.399E-01    0.110E-01
DAV:   3    -0.103578556677E+03    0.48384E-04   -0.31968E-04   144   0.737E-02    0.614E-02
DAV:   4    -0.103578548113E+03    0.85642E-05   -0.17411E-04   132   0.520E-02    0.107E-02
DAV:   5    -0.103578542658E+03    0.54546E-05   -0.47280E-05   132   0.251E-02    0.931E-03
DAV:   6    -0.103578541376E+03    0.12819E-05   -0.67404E-06   132   0.811E-03    0.646E-03
DAV:   7    -0.103578548049E+03   -0.66726E-05   -0.16368E-06   132   0.517E-03    0.252E-03
DAV:   8    -0.103578560975E+03   -0.12926E-04   -0.14961E-06   120   0.477E-03    0.114E-03
DAV:   9    -0.103578574464E+03   -0.13489E-04   -0.11241E-06   120   0.324E-03    0.146E-03
DAV:  10    -0.103578583924E+03   -0.94600E-05   -0.34800E-07   108   0.176E-03    0.758E-04
DAV:  11    -0.103578590973E+03   -0.70493E-05   -0.30652E-07   108   0.128E-03    0.263E-04
DAV:  12    -0.103578596516E+03   -0.55431E-05   -0.20630E-07   108   0.971E-04    0.244E-04
DAV:  13    -0.103578598601E+03   -0.20842E-05   -0.41617E-08   108   0.500E-04    0.183E-04
DAV:  14    -0.103578600051E+03   -0.14505E-05   -0.22507E-08    96   0.379E-04    0.567E-05
DAV:  15    -0.103578600736E+03   -0.68449E-06   -0.42959E-09   108   0.246E-04
  38 F= -.10357860E+03 E0= -.10357860E+03  d E =-.711162E-10
       N       E                     dE             d eps       ncg     rms          rms(c)
DAV:   1    -0.103576928753E+03    0.16713E-02   -0.33758E-01    96   0.175E+00    0.225E-01
DAV:   2    -0.103578707661E+03   -0.17789E-02   -0.18188E-02   132   0.472E-01    0.129E-01
DAV:   3    -0.103578679363E+03    0.28299E-04   -0.47965E-04   132   0.888E-02    0.676E-02
DAV:   4    -0.103578692596E+03   -0.13233E-04   -0.18370E-04   132   0.567E-02    0.139E-02
DAV:   5    -0.103578686425E+03    0.61711E-05   -0.48824E-05   132   0.265E-02    0.101E-02
DAV:   6    -0.103578686160E+03    0.26456E-06   -0.75068E-06   132   0.902E-03
  39 F= -.10357869E+03 E0= -.10357869E+03  d E =-.475771E-11
       N       E                     dE             d eps       ncg     rms          rms(c)
DAV:   1    -0.103576841395E+03    0.18450E-02   -0.17187E-01    96   0.130E+00    0.163E-01
DAV:   2    -0.103577922614E+03   -0.10812E-02   -0.10839E-02   132   0.384E-01    0.112E-01
DAV:   3    -0.103577910819E+03    0.11795E-04   -0.25054E-04   132   0.682E-02    0.564E-02
DAV:   4    -0.103577912717E+03   -0.18982E-05   -0.12618E-04   120   0.426E-02    0.106E-02
DAV:   5    -0.103577906814E+03    0.59028E-05   -0.20611E-05   132   0.176E-02    0.676E-03
DAV:   6    -0.103577908548E+03   -0.17341E-05   -0.56194E-06   120   0.764E-03    0.405E-03
DAV:   7    -0.103577918550E+03   -0.10002E-04   -0.96029E-07   108   0.406E-03    0.155E-03
DAV:   8    -0.103577929209E+03   -0.10659E-04   -0.11612E-06   108   0.377E-03    0.880E-04
DAV:   9    -0.103577939953E+03   -0.10745E-04   -0.90264E-07   108   0.274E-03    0.790E-04
DAV:  10    -0.103577948568E+03   -0.86150E-05   -0.77760E-07   120   0.193E-03    0.392E-04
DAV:  11    -0.103577951311E+03   -0.27427E-05   -0.92165E-08   108   0.862E-04    0.195E-04
DAV:  12    -0.103577954425E+03   -0.31139E-05   -0.14098E-07   108   0.811E-04    0.128E-04
DAV:  13    -0.103577955557E+03   -0.11320E-05   -0.35185E-08   108   0.427E-04    0.135E-04
DAV:  14    -0.103577956513E+03   -0.95580E-06   -0.18471E-08   108   0.344E-04
  40 F= -.10357796E+03 E0= -.10357796E+03  d E =-.636367E-10
       N       E                     dE             d eps       ncg     rms          rms(c)
DAV:   1    -0.103575611826E+03    0.23437E-02   -0.34308E-01    96   0.189E+00    0.260E-01
DAV:   2    -0.103577666148E+03   -0.20543E-02   -0.21299E-02   132   0.529E-01    0.155E-01
DAV:   3    -0.103577577697E+03    0.88452E-04   -0.50157E-04   132   0.921E-02    0.814E-02
DAV:   4    -0.103577563081E+03    0.14616E-04   -0.25510E-04   132   0.603E-02    0.157E-02
DAV:   5    -0.103577551142E+03    0.11939E-04   -0.43526E-05   132   0.257E-02    0.108E-02
DAV:   6    -0.103577551548E+03   -0.40635E-06   -0.10042E-05   132   0.107E-02    0.646E-03
DAV:   7    -0.103577566232E+03   -0.14684E-04   -0.24843E-06   132   0.695E-03    0.223E-03
DAV:   8    -0.103577584437E+03   -0.18205E-04   -0.17999E-06   132   0.547E-03    0.159E-03
DAV:   9    -0.103577606383E+03   -0.21946E-04   -0.14438E-06   132   0.343E-03    0.139E-03
DAV:  10    -0.103577626463E+03   -0.20080E-04   -0.93822E-07   108   0.218E-03    0.517E-04
DAV:  11    -0.103577632361E+03   -0.58976E-05   -0.21019E-07   120   0.113E-03    0.363E-04
DAV:  12    -0.103577643439E+03   -0.11078E-04   -0.34803E-07   108   0.124E-03    0.241E-04
DAV:  13    -0.103577646713E+03   -0.32742E-05   -0.98140E-08   108   0.668E-04    0.215E-04
DAV:  14    -0.103577649079E+03   -0.23665E-05   -0.21780E-08   108   0.420E-04    0.131E-04
DAV:  15    -0.103577650502E+03   -0.14228E-05   -0.15758E-08   108   0.318E-04    0.748E-05
DAV:  16    -0.103577651264E+03   -0.76190E-06   -0.16641E-09   108   0.201E-04
  41 F= -.10357765E+03 E0= -.10357765E+03  d E =-.660760E-10
       N       E                     dE             d eps       ncg     rms          rms(c)
DAV:   1    -0.103576159406E+03    0.14911E-02   -0.17627E-01    96   0.130E+00    0.190E-01
DAV:   2    -0.103577432605E+03   -0.12732E-02   -0.13015E-02   132   0.410E-01    0.125E-01
DAV:   3    -0.103577364518E+03    0.68087E-04   -0.28796E-04   144   0.738E-02    0.678E-02
DAV:   4    -0.103577363021E+03    0.14965E-05   -0.21258E-04   132   0.574E-02    0.125E-02
DAV:   5    -0.103577357174E+03    0.58470E-05   -0.52304E-05   132   0.270E-02    0.927E-03
DAV:   6    -0.103577358853E+03   -0.16789E-05   -0.86115E-06   132   0.832E-03    0.597E-03
DAV:   7    -0.103577368556E+03   -0.97032E-05   -0.71151E-07   108   0.316E-03    0.278E-03
DAV:   8    -0.103577383876E+03   -0.15319E-04   -0.16832E-06   132   0.374E-03    0.848E-04
DAV:   9    -0.103577395908E+03   -0.12033E-04   -0.11315E-06   132   0.276E-03    0.121E-03
DAV:  10    -0.103577407897E+03   -0.11989E-04   -0.76385E-07   108   0.209E-03    0.495E-04
DAV:  11    -0.103577411193E+03   -0.32958E-05   -0.17709E-07   108   0.981E-04    0.336E-04
DAV:  12    -0.103577414698E+03   -0.35046E-05   -0.89381E-08    96   0.691E-04    0.132E-04
DAV:  13    -0.103577417120E+03   -0.24221E-05   -0.97413E-08   108   0.627E-04    0.178E-04
DAV:  14    -0.103577418239E+03   -0.11194E-05   -0.18949E-08   108   0.341E-04    0.129E-04
DAV:  15    -0.103577418699E+03   -0.46018E-06    0.56145E-10   108   0.198E-04
  42 F= -.10357742E+03 E0= -.10357742E+03  d E =-.755793E-10
       N       E                     dE             d eps       ncg     rms          rms(c)
DAV:   1    -0.103574415417E+03    0.30028E-02   -0.35150E-01    96   0.184E+00    0.246E-01
DAV:   2    -0.103577124892E+03   -0.27095E-02   -0.27521E-02   132   0.599E-01    0.180E-01
DAV:   3    -0.103576989562E+03    0.13533E-03   -0.57768E-04   132   0.106E-01    0.986E-02
DAV:   4    -0.103576986378E+03    0.31835E-05   -0.42840E-04   132   0.825E-02    0.175E-02
DAV:   5    -0.103576978422E+03    0.79562E-05   -0.10275E-04   132   0.378E-02    0.130E-02
DAV:   6    -0.103576984204E+03   -0.57816E-05   -0.18393E-05   132   0.123E-02    0.829E-03
DAV:   7    -0.103577008861E+03   -0.24657E-04   -0.23416E-06   132   0.530E-03    0.366E-03
DAV:   8    -0.103577042710E+03   -0.33849E-04   -0.40481E-06   120   0.577E-03    0.126E-03
DAV:   9    -0.103577067181E+03   -0.24472E-04   -0.30019E-06   120   0.429E-03    0.202E-03
DAV:  10    -0.103577087326E+03   -0.20145E-04   -0.15386E-06   120   0.306E-03    0.761E-04
DAV:  11    -0.103577094347E+03   -0.70204E-05   -0.35463E-07   108   0.149E-03    0.380E-04
DAV:  12    -0.103577101515E+03   -0.71689E-05   -0.36126E-07   108   0.123E-03    0.225E-04
DAV:  13    -0.103577103402E+03   -0.18865E-05   -0.64732E-08   108   0.544E-04    0.297E-04
DAV:  14    -0.103577105502E+03   -0.21005E-05   -0.45115E-08   108   0.518E-04    0.935E-05
DAV:  15    -0.103577106086E+03   -0.58352E-06   -0.85993E-09   108   0.284E-04
  43 F= -.10357711E+03 E0= -.10357711E+03  d E =-.629458E-10
       N       E                     dE             d eps       ncg     rms          rms(c)
DAV:   1    -0.103576168365E+03    0.93714E-03   -0.18362E-01    96   0.137E+00    0.166E-01
DAV:   2    -0.103577698835E+03   -0.15305E-02   -0.16670E-02   132   0.435E-01    0.116E-01
DAV:   3    -0.103577634034E+03    0.64802E-04   -0.30500E-04   156   0.684E-02    0.705E-02
DAV:   4    -0.103577612471E+03    0.21563E-04   -0.17473E-04   120   0.538E-02    0.107E-02
DAV:   5    -0.103577606209E+03    0.62619E-05   -0.51770E-05   132   0.264E-02    0.830E-03
DAV:   6    -0.103577602626E+03    0.35827E-05   -0.62846E-06   132   0.842E-03    0.558E-03
DAV:   7    -0.103577610101E+03   -0.74748E-05   -0.31973E-06   120   0.601E-03    0.206E-03
DAV:   8    -0.103577626361E+03   -0.16260E-04   -0.13090E-06   108   0.389E-03    0.120E-03
DAV:   9    -0.103577639401E+03   -0.13040E-04   -0.66298E-07   108   0.245E-03    0.130E-03
DAV:  10    -0.103577654229E+03   -0.14829E-04   -0.84977E-07    96   0.203E-03    0.293E-04
DAV:  11    -0.103577659032E+03   -0.48022E-05   -0.16697E-07   108   0.921E-04    0.314E-04
DAV:  12    -0.103577664029E+03   -0.49976E-05   -0.10247E-07   108   0.738E-04    0.130E-04
DAV:  13    -0.103577666088E+03   -0.20584E-05   -0.42455E-08   108   0.457E-04    0.108E-04
DAV:  14    -0.103577667596E+03   -0.15085E-05   -0.10997E-08   108   0.317E-04    0.721E-05
DAV:  15    -0.103577668402E+03   -0.80609E-06   -0.61816E-09   108   0.235E-04
  44 F= -.10357767E+03 E0= -.10357767E+03  d E =-.677841E-10
       N       E                     dE             d eps       ncg     rms          rms(c)
DAV:   1    -0.103576374005E+03    0.12936E-02   -0.40368E-01   108   0.185E+00    0.205E-01
DAV:   2    -0.103577928988E+03   -0.15550E-02   -0.18875E-02   132   0.451E-01    0.130E-01
DAV:   3    -0.103577805836E+03    0.12315E-03   -0.33134E-04   144   0.656E-02    0.669E-02
DAV:   4    -0.103577750006E+03    0.55830E-04   -0.12934E-04   144   0.431E-02    0.117E-02
DAV:   5    -0.103577741715E+03    0.82903E-05   -0.26588E-05   132   0.190E-02    0.722E-03
DAV:   6    -0.103577754886E+03   -0.13171E-04   -0.10361E-05   132   0.911E-03    0.401E-03
DAV:   7    -0.103577780719E+03   -0.25833E-04   -0.20280E-06   120   0.424E-03    0.198E-03
DAV:   8    -0.103577816820E+03   -0.36101E-04   -0.39252E-06   108   0.452E-03    0.130E-03
DAV:   9    -0.103577839639E+03   -0.22819E-04   -0.17089E-06   120   0.301E-03    0.882E-04
DAV:  10    -0.103577860048E+03   -0.20409E-04   -0.17318E-06   120   0.266E-03    0.388E-04
DAV:  11    -0.103577866081E+03   -0.60328E-05   -0.17087E-07   108   0.107E-03    0.338E-04
DAV:  12    -0.103577873247E+03   -0.71664E-05   -0.37284E-07   108   0.125E-03    0.155E-04
DAV:  13    -0.103577874333E+03   -0.10863E-05   -0.38100E-08   120   0.490E-04    0.116E-04
DAV:  14    -0.103577875757E+03   -0.14238E-05   -0.16519E-08   108   0.378E-04    0.471E-05
DAV:  15    -0.103577876491E+03   -0.73394E-06   -0.93591E-09   108   0.271E-04
  45 F= -.10357788E+03 E0= -.10357788E+03  d E =-.804080E-10
       N       E                     dE             d eps       ncg     rms          rms(c)
DAV:   1    -0.103577126016E+03    0.74974E-03   -0.20218E-01    96   0.135E+00    0.148E-01
DAV:   2    -0.103577901442E+03   -0.77543E-03   -0.94110E-03   120   0.312E-01    0.800E-02
DAV:   3    -0.103577860591E+03    0.40851E-04   -0.19772E-04   156   0.478E-02    0.416E-02
DAV:   4    -0.103577834284E+03    0.26307E-04   -0.42708E-05   132   0.256E-02    0.852E-03
DAV:   5    -0.103577826474E+03    0.78093E-05   -0.91499E-06   132   0.123E-02    0.487E-03
DAV:   6    -0.103577827520E+03   -0.10452E-05   -0.31801E-06   132   0.658E-03    0.272E-03
DAV:   7    -0.103577835094E+03   -0.75743E-05   -0.11198E-06   108   0.438E-03    0.124E-03
DAV:   8    -0.103577846643E+03   -0.11549E-04   -0.10543E-06   120   0.345E-03    0.990E-04
DAV:   9    -0.103577860180E+03   -0.13537E-04   -0.75310E-07   108   0.243E-03    0.469E-04
DAV:  10    -0.103577867399E+03   -0.72194E-05   -0.32713E-07   108   0.132E-03    0.346E-04
DAV:  11    -0.103577873092E+03   -0.56930E-05   -0.13313E-07   108   0.812E-04    0.188E-04
DAV:  12    -0.103577876779E+03   -0.36874E-05   -0.75517E-08   108   0.595E-04    0.103E-04
DAV:  13    -0.103577879270E+03   -0.24902E-05   -0.46123E-08   108   0.437E-04    0.632E-05
DAV:  14    -0.103577880452E+03   -0.11821E-05   -0.86544E-09   108   0.261E-04    0.341E-05
DAV:  15    -0.103577881006E+03   -0.55456E-06   -0.11551E-09   108   0.177E-04
  46 F= -.10357788E+03 E0= -.10357788E+03  d E =-.452292E-11
       N       E                     dE             d eps       ncg     rms          rms(c)
DAV:   1    -0.103576899869E+03    0.98058E-03   -0.40406E-01    96   0.190E+00    0.217E-01
DAV:   2    -0.103578437844E+03   -0.15380E-02   -0.18899E-02   132   0.444E-01    0.118E-01
DAV:   3    -0.103578340166E+03    0.97678E-04   -0.37963E-04   144   0.665E-02    0.602E-02
DAV:   4    -0.103578274027E+03    0.66140E-04   -0.84157E-05   132   0.353E-02    0.126E-02
DAV:   5    -0.103578266611E+03    0.74160E-05   -0.15041E-05   132   0.163E-02    0.692E-03
DAV:   6    -0.103578284654E+03   -0.18044E-04   -0.78332E-06   132   0.100E-02    0.354E-03
DAV:   7    -0.103578314759E+03   -0.30104E-04   -0.45467E-06   132   0.695E-03    0.206E-03
DAV:   8    -0.103578348133E+03   -0.33375E-04   -0.27670E-06   120   0.437E-03    0.111E-03
DAV:   9    -0.103578373509E+03   -0.25375E-04   -0.23001E-06   120   0.349E-03    0.777E-04
DAV:  10    -0.103578393178E+03   -0.19669E-04   -0.18183E-06   120   0.275E-03    0.348E-04
DAV:  11    -0.103578400342E+03   -0.71641E-05   -0.32375E-07   108   0.134E-03    0.263E-04
DAV:  12    -0.103578405169E+03   -0.48271E-05   -0.24015E-07   108   0.974E-04    0.133E-04
DAV:  13    -0.103578406409E+03   -0.12396E-05   -0.34540E-08   108   0.446E-04    0.759E-05
DAV:  14    -0.103578407300E+03   -0.89144E-06   -0.10277E-08   108   0.316E-04
  47 F= -.10357841E+03 E0= -.10357841E+03  d E =-.578342E-10
       N       E                     dE             d eps       ncg     rms          rms(c)
DAV:   1    -0.103578258909E+03    0.14750E-03   -0.20287E-01    96   0.134E+00    0.152E-01
DAV:   2    -0.103579023644E+03   -0.76474E-03   -0.91934E-03   132   0.300E-01    0.730E-02
DAV:   3    -0.103578993788E+03    0.29856E-04   -0.21487E-04   144   0.506E-02    0.376E-02
DAV:   4    -0.103578981556E+03    0.12232E-04   -0.43573E-05   132   0.289E-02    0.915E-03
DAV:   5    -0.103578977297E+03    0.42590E-05   -0.13282E-05   132   0.143E-02    0.574E-03
DAV:   6    -0.103578977955E+03   -0.65751E-06   -0.24607E-06   132   0.517E-03
  48 F= -.10357898E+03 E0= -.10357898E+03  d E =-.532619E-10
       N       E                     dE             d eps       ncg     rms          rms(c)
DAV:   1    -0.103577256554E+03    0.17207E-02   -0.40787E-01    96   0.189E+00    0.215E-01
DAV:   2    -0.103578752669E+03   -0.14961E-02   -0.17836E-02   120   0.412E-01    0.100E-01
DAV:   3    -0.103578705373E+03    0.47297E-04   -0.44216E-04   144   0.734E-02    0.523E-02
DAV:   4    -0.103578688997E+03    0.16376E-04   -0.96759E-05   132   0.408E-02    0.131E-02
DAV:   5    -0.103578685318E+03    0.36786E-05   -0.25360E-05   132   0.196E-02    0.856E-03
DAV:   6    -0.103578687350E+03   -0.20321E-05   -0.44001E-06   132   0.751E-03    0.498E-03
DAV:   7    -0.103578694644E+03   -0.72944E-05   -0.89589E-07   108   0.454E-03    0.163E-03
DAV:   8    -0.103578703801E+03   -0.91569E-05   -0.93108E-07   108   0.372E-03    0.112E-03
DAV:   9    -0.103578719681E+03   -0.15879E-04   -0.11644E-06   120   0.348E-03    0.528E-04
DAV:  10    -0.103578726516E+03   -0.68348E-05   -0.41250E-07   108   0.202E-03    0.445E-04
DAV:  11    -0.103578729792E+03   -0.32768E-05   -0.80470E-08   108   0.883E-04    0.374E-04
DAV:  12    -0.103578735393E+03   -0.56009E-05   -0.18266E-07    96   0.945E-04    0.155E-04
DAV:  13    -0.103578737123E+03   -0.17295E-05   -0.38091E-08   108   0.474E-04    0.130E-04
DAV:  14    -0.103578738901E+03   -0.17781E-05   -0.31505E-08    96   0.392E-04    0.487E-05
DAV:  15    -0.103578739451E+03   -0.54978E-06   -0.25674E-09   108   0.213E-04
  49 F= -.10357874E+03 E0= -.10357874E+03  d E =-.536016E-11
       N       E                     dE             d eps       ncg     rms          rms(c)
DAV:   1    -0.103577748538E+03    0.99036E-03   -0.20004E-01    96   0.133E+00    0.164E-01
DAV:   2    -0.103578816797E+03   -0.10683E-02   -0.12710E-02   132   0.322E-01    0.750E-02
DAV:   3    -0.103578778737E+03    0.38060E-04   -0.30952E-04   144   0.581E-02    0.416E-02
DAV:   4    -0.103578757696E+03    0.21041E-04   -0.56579E-05   144   0.314E-02    0.112E-02
DAV:   5    -0.103578752067E+03    0.56291E-05   -0.15714E-05   132   0.154E-02    0.636E-03
DAV:   6    -0.103578752949E+03   -0.88280E-06   -0.24639E-06   132   0.592E-03
  50 F= -.10357875E+03 E0= -.10357875E+03  d E =-.762391E-10
       N       E                     dE             d eps       ncg     rms          rms(c)
DAV:   1    -0.103577334417E+03    0.14177E-02   -0.40761E-01    96   0.171E+00    0.225E-01
DAV:   2    -0.103578783406E+03   -0.14490E-02   -0.17358E-02   132   0.376E-01    0.103E-01
DAV:   3    -0.103578712270E+03    0.71136E-04   -0.38765E-04   132   0.681E-02    0.535E-02
DAV:   4    -0.103578691543E+03    0.20727E-04   -0.11395E-04   120   0.403E-02    0.132E-02
DAV:   5    -0.103578685219E+03    0.63240E-05   -0.20887E-05   132   0.178E-02    0.783E-03
DAV:   6    -0.103578687056E+03   -0.18376E-05   -0.45718E-06   120   0.722E-03    0.423E-03
DAV:   7    -0.103578694256E+03   -0.71997E-05   -0.87946E-07   120   0.338E-03    0.132E-03
DAV:   8    -0.103578701241E+03   -0.69844E-05   -0.42932E-07    96   0.231E-03    0.823E-04
DAV:   9    -0.103578712470E+03   -0.11230E-04   -0.92107E-07   108   0.245E-03    0.428E-04
DAV:  10    -0.103578719762E+03   -0.72921E-05   -0.61172E-07   120   0.185E-03    0.331E-04
DAV:  11    -0.103578721793E+03   -0.20303E-05   -0.48053E-08   108   0.777E-04    0.219E-04
DAV:  12    -0.103578724529E+03   -0.27363E-05   -0.95990E-08    96   0.688E-04    0.110E-04
DAV:  13    -0.103578725886E+03   -0.13569E-05   -0.38325E-08   108   0.421E-04    0.899E-05
DAV:  14    -0.103578726784E+03   -0.89775E-06   -0.12488E-08    84   0.287E-04
  51 F= -.10357873E+03 E0= -.10357873E+03  d E =-.742341E-10
       N       E                     dE             d eps       ncg     rms          rms(c)
DAV:   1    -0.103577444353E+03    0.12815E-02   -0.20410E-01    96   0.123E+00    0.159E-01
DAV:   2    -0.103578062627E+03   -0.61827E-03   -0.76285E-03   132   0.252E-01    0.651E-02
DAV:   3    -0.103578026775E+03    0.35852E-04   -0.19218E-04   132   0.472E-02    0.341E-02
DAV:   4    -0.103578017929E+03    0.88467E-05   -0.45126E-05   132   0.264E-02    0.101E-02
DAV:   5    -0.103578015661E+03    0.22678E-05   -0.95978E-06   132   0.125E-02    0.571E-03
DAV:   6    -0.103578015825E+03   -0.16432E-06   -0.22026E-06   132   0.535E-03
  52 F= -.10357802E+03 E0= -.10357802E+03  d E =-.723846E-10
       N       E                     dE             d eps       ncg     rms          rms(c)
DAV:   1    -0.103577044649E+03    0.97101E-03   -0.39816E-01    96   0.168E+00    0.219E-01
DAV:   2    -0.103578636168E+03   -0.15915E-02   -0.19171E-02   132   0.377E-01    0.118E-01
DAV:   3    -0.103578519257E+03    0.11691E-03   -0.36945E-04   132   0.686E-02    0.606E-02
DAV:   4    -0.103578486683E+03    0.32575E-04   -0.13786E-04   132   0.426E-02    0.130E-02
DAV:   5    -0.103578474665E+03    0.12017E-04   -0.21465E-05   132   0.174E-02    0.748E-03
DAV:   6    -0.103578475507E+03   -0.84212E-06   -0.58521E-06   132   0.725E-03
  53 F= -.10357848E+03 E0= -.10357848E+03  d E =-.713888E-10
       N       E                     dE             d eps       ncg     rms          rms(c)
DAV:   1    -0.103578376224E+03    0.98442E-04   -0.20361E-01    96   0.122E+00    0.161E-01
DAV:   2    -0.103579136310E+03   -0.76009E-03   -0.88906E-03   132   0.268E-01    0.728E-02
DAV:   3    -0.103579110418E+03    0.25892E-04   -0.19490E-04   132   0.483E-02    0.385E-02
DAV:   4    -0.103579117927E+03   -0.75098E-05   -0.56391E-05   132   0.283E-02    0.974E-03
DAV:   5    -0.103579119867E+03   -0.19399E-05   -0.10369E-05   132   0.126E-02    0.563E-03
DAV:   6    -0.103579121228E+03   -0.13605E-05   -0.21463E-06    96   0.541E-03    0.267E-03
DAV:   7    -0.103579123369E+03   -0.21414E-05   -0.53032E-07   108   0.281E-03    0.958E-04
DAV:   8    -0.103579125486E+03   -0.21170E-05   -0.22127E-07    96   0.188E-03    0.467E-04
DAV:   9    -0.103579128012E+03   -0.25258E-05   -0.15902E-07   108   0.144E-03    0.275E-04
DAV:  10    -0.103579130395E+03   -0.23833E-05   -0.15188E-07    84   0.115E-03    0.156E-04
DAV:  11    -0.103579131490E+03   -0.10948E-05   -0.38068E-08   108   0.657E-04    0.151E-04
DAV:  12    -0.103579132335E+03   -0.84512E-06   -0.15383E-08    96   0.392E-04
  54 F= -.10357913E+03 E0= -.10357913E+03  d E =-.445174E-11
       N       E                     dE             d eps       ncg     rms          rms(c)
DAV:   1    -0.103578091551E+03    0.10399E-02   -0.41404E-01    96   0.173E+00    0.219E-01
DAV:   2    -0.103579235445E+03   -0.11439E-02   -0.14247E-02   132   0.353E-01    0.895E-02
DAV:   3    -0.103579171314E+03    0.64131E-04   -0.38280E-04   144   0.674E-02    0.457E-02
DAV:   4    -0.103579157550E+03    0.13763E-04   -0.76476E-05   132   0.363E-02    0.137E-02
DAV:   5    -0.103579154663E+03    0.28869E-05   -0.18062E-05   132   0.174E-02    0.779E-03
DAV:   6    -0.103579155616E+03   -0.95236E-06   -0.36513E-06   132   0.688E-03
  55 F= -.10357916E+03 E0= -.10357916E+03  d E =-.735200E-10
       N       E                     dE             d eps       ncg     rms          rms(c)
DAV:   1    -0.103577783080E+03    0.13716E-02   -0.20133E-01    96   0.133E+00    0.167E-01
DAV:   2    -0.103578886021E+03   -0.11029E-02   -0.12834E-02   132   0.313E-01    0.724E-02
DAV:   3    -0.103578863406E+03    0.22615E-04   -0.30300E-04   144   0.567E-02    0.403E-02
DAV:   4    -0.103578860204E+03    0.32021E-05   -0.61371E-05   144   0.300E-02    0.113E-02
DAV:   5    -0.103578860183E+03    0.20601E-07   -0.11958E-05   132   0.133E-02    0.643E-03
DAV:   6    -0.103578862347E+03   -0.21637E-05   -0.24624E-06   132   0.590E-03    0.330E-03
DAV:   7    -0.103578867101E+03   -0.47543E-05   -0.72063E-07   108   0.315E-03    0.987E-04
DAV:   8    -0.103578871558E+03   -0.44571E-05   -0.35184E-07   108   0.204E-03    0.669E-04
DAV:   9    -0.103578877422E+03   -0.58636E-05   -0.34997E-07   108   0.167E-03    0.259E-04
DAV:  10    -0.103578880824E+03   -0.34021E-05   -0.26790E-07   108   0.126E-03    0.220E-04
DAV:  11    -0.103578882870E+03   -0.20458E-05   -0.89389E-08   108   0.782E-04    0.138E-04
DAV:  12    -0.103578884021E+03   -0.11518E-05   -0.36258E-08   108   0.475E-04    0.934E-05
DAV:  13    -0.103578884769E+03   -0.74741E-06   -0.14930E-08   108   0.302E-04
  56 F= -.10357888E+03 E0= -.10357888E+03  d E =-.566307E-10
       N       E                     dE             d eps       ncg     rms          rms(c)
DAV:   1    -0.103577057354E+03    0.18267E-02   -0.40768E-01    96   0.189E+00    0.219E-01
DAV:   2    -0.103578640389E+03   -0.15830E-02   -0.18892E-02   120   0.421E-01    0.104E-01
DAV:   3    -0.103578583023E+03    0.57365E-04   -0.44691E-04   144   0.731E-02    0.545E-02
DAV:   4    -0.103578556739E+03    0.26284E-04   -0.10398E-04   144   0.422E-02    0.130E-02
DAV:   5    -0.103578549883E+03    0.68565E-05   -0.26480E-05   132   0.198E-02    0.841E-03
DAV:   6    -0.103578550532E+03   -0.64964E-06   -0.50298E-06   132   0.791E-03
  57 F= -.10357855E+03 E0= -.10357855E+03  d E =-.562587E-11
       N       E                     dE             d eps       ncg     rms          rms(c)
DAV:   1    -0.103577291623E+03    0.12583E-02   -0.20536E-01    96   0.132E+00    0.151E-01
DAV:   2    -0.103578003764E+03   -0.71214E-03   -0.84133E-03   120   0.269E-01    0.654E-02
DAV:   3    -0.103577996932E+03    0.68321E-05   -0.22988E-04   156   0.524E-02    0.340E-02
DAV:   4    -0.103578001770E+03   -0.48383E-05   -0.38788E-05   132   0.281E-02    0.873E-03
DAV:   5    -0.103578005859E+03   -0.40887E-05   -0.13057E-05   132   0.139E-02    0.589E-03
DAV:   6    -0.103578008939E+03   -0.30803E-05   -0.16295E-06   120   0.436E-03    0.391E-03
DAV:   7    -0.103578014828E+03   -0.58888E-05   -0.44291E-07   108   0.245E-03    0.120E-03
DAV:   8    -0.103578020001E+03   -0.51731E-05   -0.32982E-07   108   0.202E-03    0.720E-04
DAV:   9    -0.103578029199E+03   -0.91984E-05   -0.55388E-07   108   0.255E-03    0.360E-04
DAV:  10    -0.103578031625E+03   -0.24255E-05   -0.18873E-07   108   0.133E-03    0.417E-04
DAV:  11    -0.103578033281E+03   -0.16567E-05   -0.29644E-08   108   0.583E-04    0.280E-04
DAV:  12    -0.103578035847E+03   -0.25657E-05   -0.58472E-08   108   0.558E-04    0.111E-04
DAV:  13    -0.103578037596E+03   -0.17485E-05   -0.36013E-08   108   0.426E-04    0.126E-04
DAV:  14    -0.103578038565E+03   -0.96948E-06   -0.10946E-08   108   0.280E-04
  58 F= -.10357804E+03 E0= -.10357804E+03  d E =-.828521E-10
       N       E                     dE             d eps       ncg     rms          rms(c)
DAV:   1    -0.103576778425E+03    0.12592E-02   -0.40351E-01    96   0.188E+00    0.217E-01
DAV:   2    -0.103578408873E+03   -0.16304E-02   -0.19745E-02   132   0.457E-01    0.119E-01
DAV:   3    -0.103578315699E+03    0.93174E-04   -0.40609E-04   144   0.697E-02    0.624E-02
DAV:   4    -0.103578264597E+03    0.51102E-04   -0.10246E-04   132   0.409E-02    0.124E-02
DAV:   5    -0.103578257865E+03    0.67317E-05   -0.23612E-05   132   0.189E-02    0.787E-03
DAV:   6    -0.103578268737E+03   -0.10872E-04   -0.74601E-06   132   0.867E-03    0.455E-03
DAV:   7    -0.103578291738E+03   -0.23001E-04   -0.24596E-06   120   0.515E-03    0.199E-03
DAV:   8    -0.103578321321E+03   -0.29583E-04   -0.29665E-06   120   0.462E-03    0.133E-03
DAV:   9    -0.103578343939E+03   -0.22618E-04   -0.21329E-06   120   0.357E-03    0.920E-04
DAV:  10    -0.103578359305E+03   -0.15366E-04   -0.12258E-06   120   0.248E-03    0.437E-04
DAV:  11    -0.103578366530E+03   -0.72250E-05   -0.29279E-07   108   0.129E-03    0.316E-04
DAV:  12    -0.103578371556E+03   -0.50264E-05   -0.26656E-07   108   0.102E-03    0.178E-04
DAV:  13    -0.103578373373E+03   -0.18167E-05   -0.49919E-08   108   0.498E-04    0.950E-05
DAV:  14    -0.103578374574E+03   -0.12004E-05   -0.14259E-08    96   0.332E-04    0.595E-05
DAV:  15    -0.103578375060E+03   -0.48696E-06   -0.37267E-09   108   0.213E-04
  59 F= -.10357838E+03 E0= -.10357838E+03  d E =-.639526E-10
       N       E                     dE             d eps       ncg     rms          rms(c)
DAV:   1    -0.103576741104E+03    0.16335E-02   -0.20149E-01    96   0.136E+00    0.153E-01
DAV:   2    -0.103577548930E+03   -0.80783E-03   -0.98341E-03   132   0.320E-01    0.810E-02
DAV:   3    -0.103577503817E+03    0.45113E-04   -0.18563E-04   132   0.461E-02    0.425E-02
DAV:   4    -0.103577473320E+03    0.30498E-04   -0.46669E-05   132   0.253E-02    0.875E-03
DAV:   5    -0.103577464882E+03    0.84379E-05   -0.74994E-06   132   0.116E-02    0.480E-03
DAV:   6    -0.103577466284E+03   -0.14024E-05   -0.33908E-06   132   0.738E-03    0.245E-03
DAV:   7    -0.103577475288E+03   -0.90042E-05   -0.18434E-06   120   0.519E-03    0.140E-03
DAV:   8    -0.103577487860E+03   -0.12572E-04   -0.67284E-07   108   0.287E-03    0.805E-04
DAV:   9    -0.103577501220E+03   -0.13360E-04   -0.86393E-07   120   0.225E-03    0.498E-04
DAV:  10    -0.103577511790E+03   -0.10570E-04   -0.44496E-07   108   0.158E-03    0.268E-04
DAV:  11    -0.103577517319E+03   -0.55290E-05   -0.18235E-07   108   0.948E-04    0.188E-04
DAV:  12    -0.103577521810E+03   -0.44913E-05   -0.98443E-08   108   0.690E-04    0.930E-05
DAV:  13    -0.103577523181E+03   -0.13707E-05   -0.16925E-08   108   0.360E-04    0.586E-05
DAV:  14    -0.103577524212E+03   -0.10310E-05   -0.79240E-09   108   0.261E-04    0.359E-05
DAV:  15    -0.103577524675E+03   -0.46290E-06    0.17410E-09   108   0.164E-04
  60 F= -.10357752E+03 E0= -.10357752E+03  d E =-.912366E-10
       N       E                     dE             d eps       ncg     rms          rms(c)
DAV:   1    -0.103576563337E+03    0.96087E-03   -0.40225E-01   108   0.188E+00    0.211E-01
DAV:   2    -0.103578172830E+03   -0.16095E-02   -0.19765E-02   120   0.451E-01    0.127E-01
DAV:   3    -0.103578056259E+03    0.11657E-03   -0.34197E-04   144   0.660E-02    0.666E-02
DAV:   4    -0.103577985306E+03    0.70953E-04   -0.12325E-04   132   0.404E-02    0.120E-02
DAV:   5    -0.103577980507E+03    0.47987E-05   -0.18087E-05   132   0.168E-02    0.751E-03
DAV:   6    -0.103578000708E+03   -0.20201E-04   -0.11596E-05   132   0.110E-02    0.366E-03
DAV:   7    -0.103578031957E+03   -0.31249E-04   -0.49623E-06   108   0.689E-03    0.229E-03
DAV:   8    -0.103578070581E+03   -0.38624E-04   -0.33663E-06   108   0.439E-03    0.115E-03
DAV:   9    -0.103578099639E+03   -0.29058E-04   -0.28676E-06   120   0.368E-03    0.866E-04
DAV:  10    -0.103578122561E+03   -0.22921E-04   -0.23381E-06   120   0.300E-03    0.373E-04
DAV:  11    -0.103578129818E+03   -0.72574E-05   -0.34310E-07   108   0.137E-03    0.266E-04
DAV:  12    -0.103578134444E+03   -0.46257E-05   -0.21924E-07   108   0.967E-04    0.161E-04
DAV:  13    -0.103578136141E+03   -0.16970E-05   -0.46485E-08   108   0.519E-04    0.675E-05
DAV:  14    -0.103578137156E+03   -0.10151E-05   -0.12731E-08   108   0.348E-04    0.561E-05
DAV:  15    -0.103578137531E+03   -0.37500E-06    0.14152E-09   108   0.183E-04
  61 F= -.10357814E+03 E0= -.10357814E+03  d E =-.629763E-10
       N       E                     dE             d eps       ncg     rms          rms(c)
DAV:   1    -0.103580792208E+03   -0.26551E-02   -0.23739E-01    96   0.177E+00    0.156E-01
DAV:   2    -0.103581205041E+03   -0.41283E-03   -0.67295E-03   120   0.278E-01    0.890E-02
DAV:   3    -0.103581124015E+03    0.81027E-04   -0.20946E-04   144   0.529E-02    0.404E-02
DAV:   4    -0.103581105285E+03    0.18730E-04   -0.79503E-05   132   0.314E-02    0.900E-03
DAV:   5    -0.103581100919E+03    0.43657E-05   -0.99300E-06   132   0.123E-02    0.628E-03
DAV:   6    -0.103581101735E+03   -0.81533E-06   -0.34459E-06   132   0.643E-03
  62 F= -.10358110E+03 E0= -.10358110E+03  d E =-.743910E-10
       N       E                     dE             d eps       ncg     rms          rms(c)
DAV:   1    -0.103581504808E+03   -0.40389E-03   -0.54928E-01    96   0.280E+00    0.228E-01
DAV:   2    -0.103581182765E+03    0.32204E-03   -0.35124E-03   120   0.217E-01    0.121E-01
DAV:   3    -0.103580979480E+03    0.20328E-03   -0.51002E-04   132   0.725E-02    0.362E-02
DAV:   4    -0.103580985340E+03   -0.58600E-05   -0.11021E-04   132   0.336E-02    0.129E-02
DAV:   5    -0.103580989668E+03   -0.43279E-05   -0.65228E-06   132   0.102E-02    0.692E-03
DAV:   6    -0.103580996351E+03   -0.66832E-05   -0.31694E-06   132   0.626E-03    0.151E-03
DAV:   7    -0.103580999948E+03   -0.35970E-05   -0.46820E-07   108   0.275E-03    0.938E-04
DAV:   8    -0.103581004978E+03   -0.50298E-05   -0.16480E-07   108   0.131E-03    0.353E-04
DAV:   9    -0.103581008880E+03   -0.39022E-05   -0.11719E-07   108   0.102E-03    0.277E-04
DAV:  10    -0.103581013481E+03   -0.46013E-05   -0.19730E-07   108   0.109E-03    0.118E-04
DAV:  11    -0.103581014960E+03   -0.14783E-05   -0.59684E-08   108   0.643E-04    0.105E-04
DAV:  12    -0.103581015641E+03   -0.68194E-06   -0.54288E-09   108   0.315E-04
  63 F= -.10358102E+03 E0= -.10358102E+03  d E =-.603586E-10
       N       E                     dE             d eps       ncg     rms          rms(c)
DAV:   1    -0.103580242080E+03    0.77288E-03   -0.29092E-01    96   0.201E+00    0.211E-01
DAV:   2    -0.103580003442E+03    0.23864E-03   -0.24776E-03   132   0.182E-01    0.103E-01
DAV:   3    -0.103579849190E+03    0.15425E-03   -0.38719E-04   132   0.632E-02    0.366E-02
DAV:   4    -0.103579842083E+03    0.71066E-05   -0.11685E-04   132   0.338E-02    0.139E-02
DAV:   5    -0.103579840430E+03    0.16535E-05   -0.55994E-06   132   0.102E-02    0.553E-03
DAV:   6    -0.103579841497E+03   -0.10678E-05   -0.28141E-06   132   0.624E-03    0.202E-03
DAV:   7    -0.103579843243E+03   -0.17461E-05   -0.56526E-07    96   0.292E-03    0.843E-04
DAV:   8    -0.103579845837E+03   -0.25937E-05   -0.18377E-07   108   0.168E-03    0.505E-04
DAV:   9    -0.103579847883E+03   -0.20463E-05   -0.12890E-07   108   0.120E-03    0.469E-04
DAV:  10    -0.103579851241E+03   -0.33577E-05   -0.17340E-07    96   0.103E-03    0.204E-04
DAV:  11    -0.103579852013E+03   -0.77190E-06   -0.26356E-08   120   0.506E-04
  64 F= -.10357985E+03 E0= -.10357985E+03  d E =-.682537E-10
       N       E                     dE             d eps       ncg     rms          rms(c)
DAV:   1    -0.103580565049E+03   -0.71381E-03   -0.56902E-01    96   0.280E+00    0.280E-01
DAV:   2    -0.103580116854E+03    0.44820E-03   -0.45121E-03   132   0.252E-01    0.137E-01
DAV:   3    -0.103579825897E+03    0.29096E-03   -0.68349E-04   132   0.817E-02    0.489E-02
DAV:   4    -0.103579810921E+03    0.14976E-04   -0.18169E-04   144   0.424E-02    0.173E-02
DAV:   5    -0.103579813491E+03   -0.25700E-05   -0.10461E-05   132   0.140E-02    0.731E-03
DAV:   6    -0.103579820133E+03   -0.66422E-05   -0.52621E-06   132   0.817E-03    0.254E-03
DAV:   7    -0.103579825273E+03   -0.51403E-05   -0.90256E-07   108   0.375E-03    0.118E-03
DAV:   8    -0.103579833397E+03   -0.81234E-05   -0.48505E-07   108   0.232E-03    0.600E-04
DAV:   9    -0.103579837752E+03   -0.43552E-05   -0.28583E-07   108   0.175E-03    0.639E-04
DAV:  10    -0.103579844723E+03   -0.69710E-05   -0.48578E-07   108   0.175E-03    0.294E-04
DAV:  11    -0.103579846619E+03   -0.18957E-05   -0.12979E-07   108   0.939E-04    0.214E-04
DAV:  12    -0.103579847566E+03   -0.94763E-06   -0.16272E-08   120   0.455E-04
  65 F= -.10357985E+03 E0= -.10357985E+03  d E =-.584238E-10
       N       E                     dE             d eps       ncg     rms          rms(c)
DAV:   1    -0.103581540791E+03   -0.16942E-02   -0.28983E-01    96   0.203E+00    0.206E-01
DAV:   2    -0.103581283269E+03    0.25752E-03   -0.25446E-03   132   0.192E-01    0.101E-01
DAV:   3    -0.103581128878E+03    0.15439E-03   -0.42341E-04   132   0.689E-02    0.353E-02
DAV:   4    -0.103581126864E+03    0.20143E-05   -0.12313E-04   132   0.362E-02    0.142E-02
DAV:   5    -0.103581125912E+03    0.95196E-06   -0.54739E-06   132   0.964E-03
  66 F= -.10358113E+03 E0= -.10358113E+03  d E =-.673678E-10
       N       E                     dE             d eps       ncg     rms          rms(c)
DAV:   1    -0.103581578111E+03   -0.45125E-03   -0.55785E-01    96   0.277E+00    0.223E-01
DAV:   2    -0.103581225488E+03    0.35262E-03   -0.37554E-03   132   0.223E-01    0.122E-01
DAV:   3    -0.103580995277E+03    0.23021E-03   -0.66131E-04   132   0.863E-02    0.325E-02
DAV:   4    -0.103581003251E+03   -0.79742E-05   -0.14310E-04   132   0.410E-02    0.156E-02
DAV:   5    -0.103581002737E+03    0.51474E-06   -0.44523E-06   132   0.819E-03
  67 F= -.10358100E+03 E0= -.10358100E+03  d E =-.754943E-10
       N       E                     dE             d eps       ncg     rms          rms(c)
DAV:   1    -0.103581577146E+03   -0.57389E-03   -0.27495E-01    96   0.200E+00    0.150E-01
DAV:   2    -0.103581512940E+03    0.64206E-04   -0.19139E-03   132   0.158E-01    0.852E-02
DAV:   3    -0.103581428226E+03    0.84714E-04   -0.17565E-04   132   0.439E-02    0.208E-02
DAV:   4    -0.103581429121E+03   -0.89462E-06   -0.35589E-05   120   0.188E-02    0.615E-03
DAV:   5    -0.103581429349E+03   -0.22804E-06   -0.13818E-06   120   0.467E-03
  68 F= -.10358143E+03 E0= -.10358143E+03  d E =-.667322E-10
       N       E                     dE             d eps       ncg     rms          rms(c)
DAV:   1    -0.103582231519E+03   -0.80240E-03   -0.54313E-01    96   0.268E+00    0.201E-01
DAV:   2    -0.103581960171E+03    0.27135E-03   -0.29446E-03   120   0.194E-01    0.113E-01
DAV:   3    -0.103581788372E+03    0.17180E-03   -0.49380E-04   132   0.724E-02    0.249E-02
DAV:   4    -0.103581797607E+03   -0.92353E-05   -0.95046E-05   132   0.319E-02    0.105E-02
DAV:   5    -0.103581797733E+03   -0.12546E-06   -0.33118E-06   132   0.683E-03
  69 F= -.10358180E+03 E0= -.10358180E+03  d E =-.699433E-10
       N       E                     dE             d eps       ncg     rms          rms(c)
DAV:   1    -0.103581762573E+03    0.35034E-04   -0.27515E-01    96   0.193E+00    0.142E-01
DAV:   2    -0.103581620565E+03    0.14201E-03   -0.14431E-03   120   0.131E-01    0.799E-02
[...]
DAV:  11    -0.103579750818E+03   -0.13224E-05   -0.87858E-08   108   0.796E-04    0.259E-04
DAV:  12    -0.103579751283E+03   -0.46563E-06   -0.56959E-09   108   0.347E-04
 129 F= -.10357975E+03 E0= -.10357975E+03  d E =-.594964E-10
       N       E                     dE             d eps       ncg     rms          rms(c)
DAV:   1    -0.103581950225E+03   -0.21994E-02   -0.28257E-01    96   0.170E+00    0.185E-01
DAV:   2    -0.103581750901E+03    0.19932E-03   -0.20651E-03   132   0.156E-01    0.929E-02
DAV:   3    -0.103581630910E+03    0.11999E-03   -0.33397E-04   132   0.536E-02    0.313E-02
DAV:   4    -0.103581628651E+03    0.22592E-05   -0.75973E-05   132   0.257E-02    0.114E-02
DAV:   5    -0.103581627537E+03    0.11138E-05   -0.36005E-06   132   0.827E-03    0.475E-03
DAV:   6    -0.103581628425E+03   -0.88799E-06   -0.24397E-06   132   0.529E-03
 130 F= -.10358163E+03 E0= -.10358163E+03  d E =-.763945E-10
       N       E                     dE             d eps       ncg     rms          rms(c)
DAV:   1    -0.103582014018E+03   -0.38648E-03   -0.54105E-01    96   0.238E+00    0.196E-01
DAV:   2    -0.103581792355E+03    0.22166E-03   -0.28943E-03   132   0.188E-01    0.111E-01
DAV:   3    -0.103581638186E+03    0.15417E-03   -0.43556E-04   132   0.652E-02    0.237E-02
DAV:   4    -0.103581644750E+03   -0.65635E-05   -0.66313E-05   132   0.264E-02    0.957E-03
DAV:   5    -0.103581645313E+03   -0.56366E-06   -0.28826E-06   132   0.615E-03
 131 F= -.10358165E+03 E0= -.10358165E+03  d E =-.678511E-10
       N       E                     dE             d eps       ncg     rms          rms(c)
DAV:   1    -0.103581257744E+03    0.38701E-03   -0.27107E-01    96   0.165E+00    0.140E-01
DAV:   2    -0.103581137353E+03    0.12039E-03   -0.14663E-03   132   0.128E-01    0.784E-02
DAV:   3    -0.103581060602E+03    0.76751E-04   -0.21368E-04   132   0.448E-02    0.187E-02
DAV:   4    -0.103581063636E+03   -0.30337E-05   -0.35426E-05   132   0.190E-02    0.687E-03
DAV:   5    -0.103581064186E+03   -0.54957E-06   -0.16709E-06   120   0.491E-03
 132 F= -.10358106E+03 E0= -.10358106E+03  d E =-.719078E-10
       N       E                     dE             d eps       ncg     rms          rms(c)
DAV:   1    -0.103581687003E+03   -0.62337E-03   -0.55145E-01    96   0.232E+00    0.225E-01
DAV:   2    -0.103581399718E+03    0.28729E-03   -0.33616E-03   120   0.193E-01    0.118E-01
DAV:   3    -0.103581218114E+03    0.18160E-03   -0.46973E-04   132   0.661E-02    0.367E-02
DAV:   4    -0.103581219358E+03   -0.12441E-05   -0.10487E-04   132   0.311E-02    0.116E-02
DAV:   5    -0.103581218418E+03    0.94060E-06   -0.57696E-06   132   0.941E-03
 133 F= -.10358122E+03 E0= -.10358122E+03  d E =-.651026E-10
       N       E                     dE             d eps       ncg     rms          rms(c)
DAV:   1    -0.103581181294E+03    0.38064E-04   -0.27677E-01    96   0.191E+00    0.161E-01
DAV:   2    -0.103581078901E+03    0.10239E-03   -0.20484E-03   120   0.159E-01    0.861E-02
DAV:   3    -0.103580988915E+03    0.89986E-04   -0.22636E-04   132   0.478E-02    0.282E-02
DAV:   4    -0.103580988718E+03    0.19710E-06   -0.60152E-05   132   0.237E-02    0.839E-03
DAV:   5    -0.103580988022E+03    0.69565E-06   -0.34065E-06   132   0.707E-03
 134 F= -.10358099E+03 E0= -.10358099E+03  d E =-.753835E-10
       N       E                     dE             d eps       ncg     rms          rms(c)
DAV:   1    -0.103581454836E+03   -0.46612E-03   -0.55425E-01    96   0.222E+00    0.231E-01
DAV:   2    -0.103581129745E+03    0.32509E-03   -0.32944E-03   132   0.175E-01    0.122E-01
DAV:   3    -0.103580911867E+03    0.21788E-03   -0.49681E-04   132   0.605E-02    0.366E-02
DAV:   4    -0.103580907494E+03    0.43731E-05   -0.10218E-04   144   0.289E-02    0.119E-02
DAV:   5    -0.103580907649E+03   -0.15512E-06   -0.55274E-06   132   0.913E-03
 135 F= -.10358091E+03 E0= -.10358091E+03  d E =-.551546E-10
       N       E                     dE             d eps       ncg     rms          rms(c)
DAV:   1    -0.103580146609E+03    0.76088E-03   -0.28999E-01   108   0.157E+00    0.212E-01
DAV:   2    -0.103579898828E+03    0.24778E-03   -0.23806E-03   132   0.154E-01    0.103E-01
DAV:   3    -0.103579756077E+03    0.14275E-03   -0.39657E-04   132   0.573E-02    0.369E-02
DAV:   4    -0.103579755860E+03    0.21642E-06   -0.11981E-04   132   0.308E-02    0.142E-02
DAV:   5    -0.103579754391E+03    0.14689E-05   -0.51015E-06   132   0.889E-03    0.579E-03
DAV:   6    -0.103579754563E+03   -0.17156E-06   -0.29323E-06   132   0.559E-03
 136 F= -.10357975E+03 E0= -.10357975E+03  d E =-.684183E-10
       N       E                     dE             d eps       ncg     rms          rms(c)
DAV:   1    -0.103581030511E+03   -0.12761E-02   -0.57345E-01   108   0.221E+00    0.267E-01
DAV:   2    -0.103580467168E+03    0.56334E-03   -0.42536E-03   132   0.207E-01    0.137E-01
DAV:   3    -0.103580173640E+03    0.29353E-03   -0.88488E-04   132   0.829E-02    0.429E-02
DAV:   4    -0.103580176338E+03   -0.26980E-05   -0.18357E-04   132   0.398E-02    0.214E-02
DAV:   5    -0.103580175524E+03    0.81376E-06   -0.64117E-06   132   0.956E-03
 137 F= -.10358018E+03 E0= -.10358018E+03  d E =-.618596E-10
       N       E                     dE             d eps       ncg     rms          rms(c)
DAV:   1    -0.103581483253E+03   -0.13069E-02   -0.28884E-01    96   0.157E+00    0.203E-01
DAV:   2    -0.103581194432E+03    0.28882E-03   -0.20980E-03   132   0.147E-01    0.101E-01
DAV:   3    -0.103581054876E+03    0.13956E-03   -0.43771E-04   132   0.598E-02    0.329E-02
DAV:   4    -0.103581057220E+03   -0.23442E-05   -0.10464E-04   132   0.299E-02    0.149E-02
DAV:   5    -0.103581056211E+03    0.10097E-05   -0.37135E-06   132   0.781E-03    0.588E-03
DAV:   6    -0.103581056370E+03   -0.15940E-06   -0.28477E-06   132   0.573E-03
 138 F= -.10358106E+03 E0= -.10358106E+03  d E =-.712489E-10
       N       E                     dE             d eps       ncg     rms          rms(c)
DAV:   1    -0.103581628158E+03   -0.57195E-03   -0.54816E-01    96   0.224E+00    0.226E-01
DAV:   2    -0.103581302533E+03    0.32563E-03   -0.32006E-03   120   0.182E-01    0.121E-01
DAV:   3    -0.103581096350E+03    0.20618E-03   -0.49929E-04   132   0.656E-02    0.345E-02
DAV:   4    -0.103581098639E+03   -0.22891E-05   -0.98588E-05   132   0.302E-02    0.128E-02
DAV:   5    -0.103581098984E+03   -0.34531E-06   -0.52841E-06   132   0.879E-03
 139 F= -.10358110E+03 E0= -.10358110E+03  d E =-.605160E-10
       N       E                     dE             d eps       ncg     rms          rms(c)
DAV:   1    -0.103580901711E+03    0.19693E-03   -0.27660E-01    96   0.164E+00    0.166E-01
DAV:   2    -0.103580785558E+03    0.11615E-03   -0.18423E-03   132   0.134E-01    0.876E-02
DAV:   3    -0.103580695501E+03    0.90056E-04   -0.26861E-04   132   0.428E-02    0.266E-02
DAV:   4    -0.103580693330E+03    0.21714E-05   -0.39834E-05   144   0.177E-02    0.105E-02
DAV:   5    -0.103580691677E+03    0.16524E-05   -0.26023E-06   132   0.686E-03    0.491E-03
DAV:   6    -0.103580691678E+03   -0.60209E-09   -0.22518E-06   132   0.524E-03
 140 F= -.10358069E+03 E0= -.10358069E+03  d E =-.724526E-10
       N       E                     dE             d eps       ncg     rms          rms(c)
DAV:   1    -0.103581344725E+03   -0.65305E-03   -0.55660E-01    96   0.219E+00    0.242E-01
DAV:   2    -0.103580992156E+03    0.35257E-03   -0.35852E-03   132   0.186E-01    0.125E-01
DAV:   3    -0.103580769219E+03    0.22294E-03   -0.52508E-04   132   0.632E-02    0.391E-02
DAV:   4    -0.103580762981E+03    0.62382E-05   -0.11557E-04   132   0.308E-02    0.138E-02
DAV:   5    -0.103580762938E+03    0.42684E-07   -0.64256E-06   132   0.102E-02
 141 F= -.10358076E+03 E0= -.10358076E+03  d E =-.599207E-10
       N       E                     dE             d eps       ncg     rms          rms(c)
DAV:   1    -0.103579989685E+03    0.77330E-03   -0.27301E-01    96   0.153E+00    0.139E-01
DAV:   2    -0.103579852462E+03    0.13722E-03   -0.14590E-03   132   0.119E-01    0.785E-02
DAV:   3    -0.103579768386E+03    0.84077E-04   -0.26338E-04   132   0.478E-02    0.158E-02
DAV:   4    -0.103579773492E+03   -0.51066E-05   -0.48011E-05   132   0.216E-02    0.846E-03
DAV:   5    -0.103579774072E+03   -0.58006E-06   -0.11600E-06   120   0.405E-03
 142 F= -.10357977E+03 E0= -.10357977E+03  d E =-.638998E-10
       N       E                     dE             d eps       ncg     rms          rms(c)
DAV:   1    -0.103580317200E+03   -0.54371E-03   -0.58212E-01    96   0.220E+00    0.288E-01
DAV:   2    -0.103579760842E+03    0.55636E-03   -0.48195E-03   132   0.221E-01    0.142E-01
DAV:   3    -0.103579451347E+03    0.30950E-03   -0.85875E-04   132   0.849E-02    0.471E-02
DAV:   4    -0.103579454536E+03   -0.31887E-05   -0.23086E-04   132   0.434E-02    0.192E-02
DAV:   5    -0.103579452421E+03    0.21142E-05   -0.87540E-06   132   0.115E-02    0.800E-03
DAV:   6    -0.103579452678E+03   -0.25686E-06   -0.53331E-06   132   0.767E-03
 143 F= -.10357945E+03 E0= -.10357945E+03  d E =-.696359E-10
       N       E                     dE             d eps       ncg     rms          rms(c)
DAV:   1    -0.103581982144E+03   -0.25297E-02   -0.28183E-01    96   0.154E+00    0.168E-01
DAV:   2    -0.103581756335E+03    0.22581E-03   -0.18217E-03   132   0.136E-01    0.899E-02
DAV:   3    -0.103581641940E+03    0.11439E-03   -0.35143E-04   132   0.554E-02    0.245E-02
DAV:   4    -0.103581647638E+03   -0.56988E-05   -0.79185E-05   132   0.268E-02    0.119E-02
DAV:   5    -0.103581647684E+03   -0.45594E-07   -0.24081E-06   132   0.604E-03
 144 F= -.10358165E+03 E0= -.10358165E+03  d E =-.664531E-10
       N       E                     dE             d eps       ncg     rms          rms(c)
DAV:   1    -0.103582062231E+03   -0.41459E-03   -0.54214E-01    96   0.220E+00    0.198E-01
DAV:   2    -0.103581775412E+03    0.28682E-03   -0.26871E-03   132   0.166E-01    0.112E-01
DAV:   3    -0.103581610126E+03    0.16529E-03   -0.44272E-04   144   0.650E-02    0.217E-02
DAV:   4    -0.103581616145E+03   -0.60189E-05   -0.70584E-05   132   0.270E-02    0.103E-02
DAV:   5    -0.103581616532E+03   -0.38728E-06   -0.28274E-06   132   0.603E-03
 145 F= -.10358162E+03 E0= -.10358162E+03  d E =-.639596E-10
       N       E                     dE             d eps       ncg     rms          rms(c)
DAV:   1    -0.103581009135E+03    0.60701E-03   -0.27066E-01    96   0.187E+00    0.134E-01
DAV:   2    -0.103580945662E+03    0.63473E-04   -0.18449E-03   132   0.158E-01    0.760E-02
DAV:   3    -0.103580871100E+03    0.74563E-04   -0.22304E-04   144   0.510E-02    0.184E-02
DAV:   4    -0.103580874821E+03   -0.37218E-05   -0.53869E-05   132   0.240E-02    0.802E-03
DAV:   5    -0.103580874609E+03    0.21228E-06   -0.14575E-06   108   0.505E-03
 146 F= -.10358087E+03 E0= -.10358087E+03  d E =-.702911E-10
       N       E                     dE             d eps       ncg     rms          rms(c)
DAV:   1    -0.103581102529E+03   -0.22771E-03   -0.53662E-01    96   0.257E+00    0.179E-01
DAV:   2    -0.103580948718E+03    0.15381E-03   -0.30344E-03   132   0.191E-01    0.100E-01
DAV:   3    -0.103580792615E+03    0.15610E-03   -0.48938E-04   132   0.715E-02    0.204E-02
DAV:   4    -0.103580797502E+03   -0.48874E-05   -0.10566E-04   132   0.334E-02    0.112E-02
DAV:   5    -0.103580796567E+03    0.93469E-06   -0.24886E-06   132   0.598E-03
 147 F= -.10358080E+03 E0= -.10358080E+03  d E =-.642698E-10
       N       E                     dE             d eps       ncg     rms          rms(c)
DAV:   1    -0.103579902424E+03    0.89508E-03   -0.26375E-01    96   0.173E+00    0.112E-01
DAV:   2    -0.103579837658E+03    0.64766E-04   -0.99912E-04   120   0.108E-01    0.636E-02
DAV:   3    -0.103579781271E+03    0.56388E-04   -0.16879E-04   132   0.406E-02    0.101E-02
DAV:   4    -0.103579784370E+03   -0.30999E-05   -0.26520E-05   132   0.173E-02    0.593E-03
DAV:   5    -0.103579785615E+03   -0.12444E-05   -0.94856E-07   108   0.359E-03    0.403E-03
DAV:   6    -0.103579788949E+03   -0.33339E-05   -0.88824E-07    96   0.350E-03    0.726E-04
DAV:   7    -0.103579790801E+03   -0.18523E-05   -0.34078E-07   108   0.200E-03    0.674E-04
DAV:   8    -0.103579793997E+03   -0.31961E-05   -0.18808E-07    96   0.161E-03    0.259E-04
DAV:   9    -0.103579796133E+03   -0.21356E-05   -0.16176E-07   108   0.115E-03    0.242E-04
DAV:  10    -0.103579797928E+03   -0.17952E-05   -0.64466E-08   108   0.755E-04    0.150E-04
DAV:  11    -0.103579798967E+03   -0.10388E-05   -0.39172E-08    96   0.453E-04    0.856E-05
DAV:  12    -0.103579799596E+03   -0.62929E-06   -0.11968E-08   108   0.285E-04
 148 F= -.10357980E+03 E0= -.10357980E+03  d E =-.625880E-10
       N       E                     dE             d eps       ncg     rms          rms(c)
DAV:   1    -0.103579997374E+03   -0.19841E-03   -0.54233E-01   108   0.258E+00    0.204E-01
DAV:   2    -0.103579920349E+03    0.77025E-04   -0.42826E-03   132   0.226E-01    0.110E-01
DAV:   3    -0.103579727592E+03    0.19276E-03   -0.48597E-04   132   0.664E-02    0.313E-02
DAV:   4    -0.103579719651E+03    0.79409E-05   -0.11502E-04   132   0.309E-02    0.123E-02
DAV:   5    -0.103579717373E+03    0.22782E-05   -0.48025E-06   132   0.950E-03    0.711E-03
DAV:   6    -0.103579719420E+03   -0.20472E-05   -0.49468E-06   132   0.884E-03    0.186E-03
DAV:   7    -0.103579723179E+03   -0.37592E-05   -0.21274E-06   132   0.481E-03    0.178E-03
DAV:   8    -0.103579728014E+03   -0.48351E-05   -0.20960E-07   108   0.141E-03    0.701E-04
DAV:   9    -0.103579733910E+03   -0.58952E-05   -0.38408E-07   108   0.163E-03    0.531E-04
DAV:  10    -0.103579740152E+03   -0.62420E-05   -0.37076E-07   108   0.163E-03    0.298E-04
DAV:  11    -0.103579743188E+03   -0.30360E-05   -0.11615E-07   108   0.914E-04    0.265E-04
DAV:  12    -0.103579744528E+03   -0.13399E-05   -0.99696E-09   108   0.456E-04    0.124E-04
DAV:  13    -0.103579746611E+03   -0.20835E-05   -0.42300E-08    96   0.460E-04    0.821E-05
DAV:  14    -0.103579747122E+03   -0.51047E-06   -0.14669E-10   108   0.208E-04
 149 F= -.10357975E+03 E0= -.10357975E+03  d E =-.659450E-10
       N       E                     dE             d eps       ncg     rms          rms(c)
DAV:   1    -0.103581802417E+03   -0.20558E-02   -0.26623E-01    96   0.178E+00    0.128E-01
DAV:   2    -0.103581728285E+03    0.74132E-04   -0.14955E-03   132   0.141E-01    0.711E-02
DAV:   3    -0.103581657376E+03    0.70909E-04   -0.20540E-04   132   0.456E-02    0.161E-02
DAV:   4    -0.103581657968E+03   -0.59234E-06   -0.41554E-05   120   0.207E-02    0.787E-03
DAV:   5    -0.103581658238E+03   -0.26908E-06   -0.14063E-06   108   0.473E-03
 150 F= -.10358166E+03 E0= -.10358166E+03  d E =-.658629E-10
       N       E                     dE             d eps       ncg     rms          rms(c)
DAV:   1    -0.103581872109E+03   -0.21414E-03   -0.52547E-01    96   0.254E+00    0.159E-01
DAV:   2    -0.103581754818E+03    0.11729E-03   -0.21482E-03   132   0.163E-01    0.919E-02
DAV:   3    -0.103581651308E+03    0.10351E-03   -0.34361E-04   132   0.606E-02    0.125E-02
DAV:   4    -0.103581657810E+03   -0.65023E-05   -0.53178E-05   132   0.247E-02    0.859E-03
DAV:   5    -0.103581658821E+03   -0.10112E-05   -0.17393E-06   120   0.456E-03    0.671E-03
DAV:   6    -0.103581662657E+03   -0.38358E-05   -0.12648E-06    96   0.408E-03    0.136E-03
DAV:   7    -0.103581665022E+03   -0.23654E-05   -0.63602E-07   108   0.261E-03    0.123E-03
DAV:   8    -0.103581667411E+03   -0.23888E-05   -0.14090E-07   108   0.166E-03    0.444E-04
DAV:   9    -0.103581671609E+03   -0.41979E-05   -0.30434E-07   108   0.203E-03    0.721E-04
DAV:  10    -0.103581672667E+03   -0.10584E-05   -0.94760E-08   108   0.106E-03    0.364E-04
DAV:  11    -0.103581673794E+03   -0.11270E-05   -0.30818E-08   108   0.582E-04    0.321E-04
DAV:  12    -0.103581674972E+03   -0.11779E-05   -0.38217E-08   108   0.500E-04    0.897E-05
DAV:  13    -0.103581675894E+03   -0.92131E-06   -0.28612E-08   108   0.361E-04
 151 F= -.10358168E+03 E0= -.10358168E+03  d E =-.612866E-10
       N       E                     dE             d eps       ncg     rms          rms(c)
DAV:   1    -0.103579602767E+03    0.20722E-02   -0.26663E-01    96   0.194E+00    0.130E-01
DAV:   2    -0.103579559289E+03    0.43478E-04   -0.19858E-03   132   0.161E-01    0.711E-02
DAV:   3    -0.103579481401E+03    0.77888E-04   -0.20632E-04   132   0.495E-02    0.203E-02
DAV:   4    -0.103579483093E+03   -0.16927E-05   -0.68593E-05   132   0.256E-02    0.782E-03
DAV:   5    -0.103579483216E+03   -0.12312E-06   -0.26452E-06   132   0.600E-03
 152 F= -.10357948E+03 E0= -.10357948E+03  d E =-.583087E-10
       N       E                     dE             d eps       ncg     rms          rms(c)
DAV:   1    -0.103579832329E+03   -0.34924E-03   -0.54480E-01   108   0.265E+00    0.210E-01
DAV:   2    -0.103579789427E+03    0.42902E-04   -0.50778E-03   132   0.252E-01    0.113E-01
DAV:   3    -0.103579581675E+03    0.20775E-03   -0.51990E-04   132   0.755E-02    0.335E-02
DAV:   4    -0.103579580945E+03    0.73001E-06   -0.17695E-04   120   0.391E-02    0.128E-02
DAV:   5    -0.103579578731E+03    0.22139E-05   -0.51567E-06   132   0.941E-03    0.822E-03
DAV:   6    -0.103579578833E+03   -0.10202E-06   -0.56273E-06   108   0.957E-03
 153 F= -.10357958E+03 E0= -.10357958E+03  d E =-.721148E-10
       N       E                     dE             d eps       ncg     rms          rms(c)
DAV:   1    -0.103581624083E+03   -0.20454E-02   -0.26887E-01    96   0.189E+00    0.141E-01
DAV:   2    -0.103581576425E+03    0.47658E-04   -0.19872E-03   132   0.156E-01    0.758E-02
DAV:   3    -0.103581503470E+03    0.72955E-04   -0.23168E-04   132   0.436E-02    0.221E-02
DAV:   4    -0.103581501907E+03    0.15627E-05   -0.42434E-05   120   0.195E-02    0.827E-03
DAV:   5    -0.103581500968E+03    0.93873E-06   -0.26599E-06   120   0.677E-03
 154 F= -.10358150E+03 E0= -.10358150E+03  d E =-.585785E-10
       N       E                     dE             d eps       ncg     rms          rms(c)
DAV:   1    -0.103581914126E+03   -0.41222E-03   -0.53214E-01    96   0.262E+00    0.161E-01
DAV:   2    -0.103581797652E+03    0.11647E-03   -0.19624E-03   132   0.155E-01    0.919E-02
DAV:   3    -0.103581690619E+03    0.10703E-03   -0.34538E-04   132   0.572E-02    0.144E-02
DAV:   4    -0.103581693772E+03   -0.31521E-05   -0.51772E-05   132   0.237E-02    0.757E-03
DAV:   5    -0.103581693167E+03    0.60449E-06   -0.20620E-06   132   0.512E-03
 155 F= -.10358169E+03 E0= -.10358169E+03  d E =-.752010E-10
       N       E                     dE             d eps       ncg     rms          rms(c)
DAV:   1    -0.103581157079E+03    0.53669E-03   -0.26467E-01    96   0.185E+00    0.116E-01
DAV:   2    -0.103581086929E+03    0.70150E-04   -0.10609E-03   132   0.119E-01    0.665E-02
DAV:   3    -0.103581039210E+03    0.47719E-04   -0.18583E-04   132   0.459E-02    0.943E-03
DAV:   4    -0.103581043225E+03   -0.40144E-05   -0.34760E-05   132   0.196E-02    0.643E-03
DAV:   5    -0.103581043533E+03   -0.30829E-06   -0.75283E-07   108   0.341E-03
 156 F= -.10358104E+03 E0= -.10358104E+03  d E =-.703725E-10
       N       E                     dE             d eps       ncg     rms          rms(c)
DAV:   1    -0.103581477765E+03   -0.43454E-03   -0.52657E-01   108   0.262E+00    0.174E-01
DAV:   2    -0.103581358125E+03    0.11964E-03   -0.26037E-03   120   0.183E-01    0.969E-02
DAV:   3    -0.103581231008E+03    0.12712E-03   -0.38212E-04   132   0.598E-02    0.204E-02
DAV:   4    -0.103581232400E+03   -0.13923E-05   -0.59082E-05   132   0.247E-02    0.996E-03
DAV:   5    -0.103581232627E+03   -0.22675E-06   -0.32166E-06   132   0.646E-03
 157 F= -.10358123E+03 E0= -.10358123E+03  d E =-.516236E-10
