       N       E                     dE             d eps       ncg     rms          rms(c)
DAV:   1     0.195058833969E+03    0.19506E+03   -0.10511E+04   116   0.546E+02
DAV:   2    -0.305886819813E+02   -0.22565E+03   -0.21163E+03   136   0.102E+02
DAV:   3    -0.105125654834E+03   -0.74537E+02   -0.74357E+02   112   0.548E+01
DAV:   4    -0.109393701786E+03   -0.42680E+01   -0.42505E+01   104   0.186E+01
DAV:   5    -0.109488693090E+03   -0.94991E-01   -0.94932E-01   144   0.313E+00    0.155E+01
DAV:   6    -0.106210065042E+03    0.32786E+01   -0.16227E+00   104   0.459E+00    0.904E+00
DAV:   7    -0.104479660899E+03    0.17304E+01   -0.42151E+00   112   0.679E+00    0.124E+00
DAV:   8    -0.104430032524E+03    0.49628E-01   -0.27360E-01   104   0.221E+00    0.633E-01
DAV:   9    -0.104394643595E+03    0.35389E-01   -0.76598E-02   128   0.807E-01    0.370E-01
DAV:  10    -0.104395197754E+03   -0.55416E-03   -0.32851E-03   112   0.220E-01    0.173E-01
DAV:  11    -0.104394655425E+03    0.54233E-03   -0.76204E-03   104   0.249E-01    0.805E-02
DAV:  12    -0.104398053273E+03   -0.33978E-02   -0.68775E-04   104   0.852E-02    0.617E-02
DAV:  13    -0.104403437286E+03   -0.53840E-02   -0.20575E-03   104   0.116E-01    0.350E-02
DAV:  14    -0.104406951222E+03   -0.35139E-02   -0.30445E-04   112   0.476E-02    0.178E-02
DAV:  15    -0.104412331506E+03   -0.53803E-02   -0.79071E-04   112   0.730E-02    0.207E-02
DAV:  16    -0.104413048921E+03   -0.71742E-03   -0.32904E-05   112   0.202E-02    0.998E-03
DAV:  17    -0.104414153723E+03   -0.11048E-02   -0.10926E-04   104   0.267E-02    0.411E-03
DAV:  18    -0.104414284913E+03   -0.13119E-03   -0.50904E-06   112   0.854E-03    0.287E-03
DAV:  19    -0.104414541973E+03   -0.25706E-03   -0.10720E-05    96   0.774E-03    0.207E-03
DAV:  20    -0.104414582343E+03   -0.40370E-04   -0.87888E-07    80   0.312E-03    0.114E-03
DAV:  21    -0.104414614676E+03   -0.32333E-04   -0.73442E-07    80   0.244E-03    0.911E-04
DAV:  22    -0.104414623859E+03   -0.91828E-05   -0.22810E-07    80   0.135E-03    0.742E-04
DAV:  23    -0.104414626697E+03   -0.28382E-05   -0.44541E-08    88   0.727E-04    0.280E-04
DAV:  24    -0.104414630940E+03   -0.42430E-05   -0.81204E-08    80   0.718E-04    0.249E-04
DAV:  25    -0.104414631583E+03   -0.64271E-06   -0.10858E-08    72   0.331E-04
   1 F= -.10441463E+03 E0= -.10441463E+03  d E =-.104415E+03
       N       E                     dE             d eps       ncg     rms          rms(c)
DAV:   1    -0.104598304851E+03   -0.18367E+00   -0.76147E+00    86   0.119E+01    0.116E+00
DAV:   2    -0.104618812060E+03   -0.20507E-01   -0.29814E-01   120   0.223E+00    0.614E-01
DAV:   3    -0.104613205294E+03    0.56068E-02   -0.13686E-02   120   0.474E-01    0.291E-01
DAV:   4    -0.104612079050E+03    0.11262E-02   -0.64914E-03   112   0.276E-01    0.668E-02
DAV:   5    -0.104611956986E+03    0.12206E-03   -0.48310E-04   112   0.967E-02    0.379E-02
DAV:   6    -0.104612029001E+03   -0.72014E-04   -0.14546E-04   112   0.442E-02    0.182E-02
DAV:   7    -0.104612200019E+03   -0.17102E-03   -0.41355E-05   102   0.240E-02    0.772E-03
DAV:   8    -0.104612312781E+03   -0.11276E-03   -0.12147E-05   104   0.120E-02    0.619E-03
DAV:   9    -0.104612452919E+03   -0.14014E-03   -0.86885E-06   112   0.756E-03    0.345E-03
DAV:  10    -0.104612579223E+03   -0.12630E-03   -0.84057E-06   104   0.648E-03    0.189E-03
DAV:  11    -0.104612644805E+03   -0.65581E-04   -0.26043E-06    96   0.410E-03    0.878E-04
DAV:  12    -0.104612684263E+03   -0.39458E-04   -0.17780E-06    96   0.310E-03    0.696E-04
DAV:  13    -0.104612704243E+03   -0.19980E-04   -0.22813E-07    96   0.169E-03    0.416E-04
DAV:  14    -0.104612720044E+03   -0.15801E-04   -0.54648E-07    88   0.162E-03    0.275E-04
DAV:  15    -0.104612727650E+03   -0.76066E-05   -0.14591E-07    88   0.916E-04    0.183E-04
DAV:  16    -0.104612729682E+03   -0.20315E-05   -0.36002E-08    88   0.501E-04    0.939E-05
DAV:  17    -0.104612731164E+03   -0.14822E-05   -0.25386E-08    80   0.426E-04    0.368E-05
DAV:  18    -0.104612731373E+03   -0.20918E-06   -0.40529E-09    72   0.193E-04
   2 F= -.10461273E+03 E0= -.10461273E+03  d E =-.198100E+00
       N       E                     dE             d eps       ncg     rms          rms(c)
DAV:   1    -0.104614427019E+03   -0.16959E-02   -0.54305E-02    86   0.102E+00    0.964E-02
DAV:   2    -0.104614554882E+03   -0.12786E-03   -0.21227E-03   118   0.188E-01    0.537E-02
DAV:   3    -0.104614506860E+03    0.48021E-04   -0.10438E-04   120   0.411E-02    0.258E-02
DAV:   4    -0.104614491594E+03    0.15267E-04   -0.45532E-05   112   0.232E-02    0.636E-03
DAV:   5    -0.104614490654E+03    0.93915E-06   -0.31174E-06   104   0.793E-03
   3 F= -.10461449E+03 E0= -.10461449E+03  d E =-.199859E+00
       N       E                     dE             d eps       ncg     rms          rms(c)
DAV:   1    -0.104673061221E+03   -0.58570E-01   -0.14105E+00    84   0.504E+00    0.499E-01
DAV:   2    -0.104679123427E+03   -0.60622E-02   -0.75727E-02   120   0.109E+00    0.260E-01
DAV:   3    -0.104678470502E+03    0.65292E-03   -0.37176E-03   128   0.252E-01    0.134E-01
DAV:   4    -0.104678566438E+03   -0.95936E-04   -0.13037E-03   112   0.134E-01    0.481E-02
DAV:   5    -0.104678554944E+03    0.11494E-04   -0.86773E-05   104   0.386E-02    0.223E-02
DAV:   6    -0.104678545836E+03    0.91085E-05   -0.33280E-05   112   0.214E-02    0.813E-03
DAV:   7    -0.104678553478E+03   -0.76419E-05   -0.10275E-05   104   0.121E-02    0.360E-03
DAV:   8    -0.104678557633E+03   -0.41549E-05   -0.70034E-07    80   0.358E-03    0.183E-03
DAV:   9    -0.104678564917E+03   -0.72844E-05   -0.54805E-07    80   0.229E-03    0.607E-04
DAV:  10    -0.104678571739E+03   -0.68220E-05   -0.42728E-07    88   0.177E-03    0.567E-04
DAV:  11    -0.104678579065E+03   -0.73262E-05   -0.59704E-07    80   0.183E-03    0.232E-04
DAV:  12    -0.104678582123E+03   -0.30577E-05   -0.20820E-07    88   0.105E-03    0.161E-04
DAV:  13    -0.104678583727E+03   -0.16039E-05   -0.56237E-08    88   0.599E-04    0.938E-05
DAV:  14    -0.104678584440E+03   -0.71275E-06   -0.30309E-08    88   0.401E-04
   4 F= -.10467858E+03 E0= -.10467858E+03  d E =-.640938E-01
       N       E                     dE             d eps       ncg     rms          rms(c)
DAV:   1    -0.104686165807E+03   -0.75821E-02   -0.40665E-01    84   0.271E+00    0.264E-01
DAV:   2    -0.104687909368E+03   -0.17436E-02   -0.22046E-02   120   0.589E-01    0.141E-01
DAV:   3    -0.104687719349E+03    0.19002E-03   -0.11118E-03   128   0.137E-01    0.717E-02
DAV:   4    -0.104687755479E+03   -0.36131E-04   -0.38601E-04   112   0.723E-02    0.274E-02
DAV:   5    -0.104687750797E+03    0.46823E-05   -0.25531E-05   104   0.210E-02    0.124E-02
DAV:   6    -0.104687747102E+03    0.36952E-05   -0.10735E-05   112   0.120E-02    0.431E-03
DAV:   7    -0.104687748847E+03   -0.17458E-05   -0.28781E-06   102   0.651E-03    0.190E-03
DAV:   8    -0.104687750232E+03   -0.13850E-05   -0.17545E-07    80   0.175E-03    0.946E-04
DAV:   9    -0.104687752947E+03   -0.27148E-05   -0.16325E-07    80   0.122E-03    0.319E-04
DAV:  10    -0.104687755507E+03   -0.25601E-05   -0.12084E-07    80   0.921E-04    0.316E-04
DAV:  11    -0.104687758711E+03   -0.32037E-05   -0.20997E-07    80   0.107E-03    0.126E-04
DAV:  12    -0.104687759817E+03   -0.11063E-05   -0.60587E-08    88   0.576E-04    0.894E-05
DAV:  13    -0.104687760440E+03   -0.62244E-06   -0.16057E-08    88   0.331E-04
   5 F= -.10468776E+03 E0= -.10468776E+03  d E =-.732698E-01
       N       E                     dE             d eps       ncg     rms          rms(c)
DAV:   1    -0.104704812273E+03   -0.17052E-01   -0.51527E-01    84   0.324E+00    0.269E-01
DAV:   2    -0.104706286199E+03   -0.14739E-02   -0.20352E-02   112   0.586E-01    0.157E-01
DAV:   3    -0.104706054260E+03    0.23194E-03   -0.80753E-04   112   0.117E-01    0.745E-02
DAV:   4    -0.104706024297E+03    0.29963E-04   -0.28601E-04   104   0.604E-02    0.205E-02
DAV:   5    -0.104706005761E+03    0.18535E-04   -0.21941E-05   112   0.196E-02    0.961E-03
DAV:   6    -0.104706010917E+03   -0.51560E-05   -0.14687E-05   104   0.133E-02    0.325E-03
DAV:   7    -0.104706031412E+03   -0.20495E-04   -0.32500E-06   104   0.685E-03    0.187E-03
DAV:   8    -0.104706047657E+03   -0.16245E-04   -0.87029E-07    80   0.299E-03    0.135E-03
DAV:   9    -0.104706074548E+03   -0.26891E-04   -0.19157E-06    88   0.310E-03    0.538E-04
DAV:  10    -0.104706089009E+03   -0.14462E-04   -0.82206E-07    80   0.210E-03    0.561E-04
DAV:  11    -0.104706099721E+03   -0.10711E-04   -0.69779E-07    80   0.187E-03    0.244E-04
DAV:  12    -0.104706103427E+03   -0.37063E-05   -0.13716E-07    88   0.969E-04    0.210E-04
DAV:  13    -0.104706105617E+03   -0.21895E-05   -0.50344E-08    80   0.674E-04    0.122E-04
DAV:  14    -0.104706106639E+03   -0.10220E-05   -0.32387E-08    80   0.421E-04    0.639E-05
DAV:  15    -0.104706107304E+03   -0.66574E-06   -0.73588E-09    80   0.266E-04
   6 F= -.10470611E+03 E0= -.10470611E+03  d E =-.183469E-01
       N       E                     dE             d eps       ncg     rms          rms(c)
DAV:   1    -0.104707324436E+03   -0.12178E-02   -0.63529E-02    84   0.114E+00    0.944E-02
DAV:   2    -0.104707511828E+03   -0.18739E-03   -0.25403E-03   120   0.207E-01    0.554E-02
DAV:   3    -0.104707486652E+03    0.25177E-04   -0.10190E-04   112   0.415E-02    0.262E-02
DAV:   4    -0.104707483934E+03    0.27173E-05   -0.35499E-05   104   0.214E-02    0.734E-03
DAV:   5    -0.104707480277E+03    0.36574E-05   -0.26156E-06   104   0.684E-03    0.341E-03
DAV:   6    -0.104707479964E+03    0.31290E-06   -0.18620E-06    88   0.495E-03
   7 F= -.10470748E+03 E0= -.10470748E+03  d E =-.197195E-01
       N       E                     dE             d eps       ncg     rms          rms(c)
DAV:   1    -0.104713410510E+03   -0.59302E-02   -0.32920E-01    84   0.259E+00    0.192E-01
DAV:   2    -0.104714307609E+03   -0.89710E-03   -0.12734E-02   128   0.435E-01    0.112E-01
DAV:   3    -0.104714170523E+03    0.13709E-03   -0.38010E-04   120   0.740E-02    0.542E-02
DAV:   4    -0.104714171738E+03   -0.12156E-05   -0.17694E-04   112   0.442E-02    0.152E-02
DAV:   5    -0.104714169766E+03    0.19726E-05   -0.14039E-05   104   0.150E-02    0.584E-03
DAV:   6    -0.104714171291E+03   -0.15258E-05   -0.46664E-06   112   0.719E-03    0.209E-03
DAV:   7    -0.104714174922E+03   -0.36309E-05   -0.53412E-07    72   0.302E-03    0.103E-03
DAV:   8    -0.104714179403E+03   -0.44809E-05   -0.30157E-07    72   0.179E-03    0.565E-04
DAV:   9    -0.104714184760E+03   -0.53566E-05   -0.23826E-07    80   0.131E-03    0.306E-04
DAV:  10    -0.104714190359E+03   -0.55990E-05   -0.36797E-07    80   0.134E-03    0.226E-04
DAV:  11    -0.104714192678E+03   -0.23188E-05   -0.64781E-08    88   0.710E-04    0.123E-04
DAV:  12    -0.104714194923E+03   -0.22458E-05   -0.80335E-08    80   0.613E-04    0.113E-04
DAV:  13    -0.104714195655E+03   -0.73154E-06   -0.13913E-08    88   0.312E-04
   8 F= -.10471420E+03 E0= -.10471420E+03  d E =-.671569E-02
       N       E                     dE             d eps       ncg     rms          rms(c)
DAV:   1    -0.104714212107E+03   -0.17184E-04   -0.74008E-04   100   0.123E-01    0.910E-03
DAV:   2    -0.104714213160E+03   -0.10528E-05   -0.28933E-05   128   0.207E-02    0.537E-03
DAV:   3    -0.104714212286E+03    0.87362E-06   -0.72392E-07    72   0.353E-03
   9 F= -.10471421E+03 E0= -.10471421E+03  d E =-.673232E-02
       N       E                     dE             d eps       ncg     rms          rms(c)
DAV:   1    -0.104715451574E+03   -0.12384E-02   -0.30890E-02    84   0.792E-01    0.563E-02
DAV:   2    -0.104715517357E+03   -0.65783E-04   -0.10769E-03   102   0.135E-01    0.341E-02
DAV:   3    -0.104715504533E+03    0.12824E-04   -0.52499E-05   120   0.313E-02    0.172E-02
DAV:   4    -0.104715503639E+03    0.89451E-06   -0.15972E-05   104   0.150E-02    0.405E-03
DAV:   5    -0.104715502308E+03    0.13308E-05   -0.12135E-06    88   0.488E-03    0.189E-03
DAV:   6    -0.104715501980E+03    0.32811E-06   -0.39666E-07    80   0.260E-03
  10 F= -.10471550E+03 E0= -.10471550E+03  d E =-.128969E-02
       N       E                     dE             d eps       ncg     rms          rms(c)
DAV:   1    -0.104716277552E+03   -0.77524E-03   -0.10994E-01    84   0.149E+00    0.106E-01
DAV:   2    -0.104716508073E+03   -0.23052E-03   -0.38270E-03   102   0.254E-01    0.642E-02
DAV:   3    -0.104716459412E+03    0.48662E-04   -0.18686E-04   120   0.590E-02    0.326E-02
DAV:   4    -0.104716454916E+03    0.44953E-05   -0.56516E-05   112   0.282E-02    0.760E-03
DAV:   5    -0.104716452569E+03    0.23474E-05   -0.49225E-06   112   0.927E-03    0.418E-03
DAV:   6    -0.104716453537E+03   -0.96766E-06   -0.82001E-07    72   0.362E-03
  11 F= -.10471645E+03 E0= -.10471645E+03  d E =-.224125E-02
       N       E                     dE             d eps       ncg     rms          rms(c)
DAV:   1    -0.104717057907E+03   -0.60534E-03   -0.78690E-03    84   0.412E-01    0.268E-02
DAV:   2    -0.104717059029E+03   -0.11218E-05   -0.86914E-05   112   0.395E-02    0.142E-02
DAV:   3    -0.104717059195E+03   -0.16613E-06   -0.11369E-05   112   0.132E-02    0.515E-03
DAV:   4    -0.104717061519E+03   -0.23236E-05   -0.28887E-06    88   0.623E-03    0.179E-03
DAV:   5    -0.104717062846E+03   -0.13274E-05   -0.16514E-07    80   0.170E-03    0.846E-04
DAV:   6    -0.104717064345E+03   -0.14991E-05   -0.92423E-08    80   0.107E-03    0.255E-04
DAV:   7    -0.104717066205E+03   -0.18598E-05   -0.60285E-08    80   0.690E-04    0.162E-04
DAV:   8    -0.104717067617E+03   -0.14114E-05   -0.42463E-08    80   0.498E-04    0.133E-04
DAV:   9    -0.104717068905E+03   -0.12880E-05   -0.57125E-08    80   0.499E-04    0.714E-05
DAV:  10    -0.104717069186E+03   -0.28191E-06   -0.71468E-09    80   0.231E-04
  12 F= -.10471707E+03 E0= -.10471707E+03  d E =-.615650E-03
       N       E                     dE             d eps       ncg     rms          rms(c)
DAV:   1    -0.104718374622E+03   -0.13057E-02   -0.70649E-02    84   0.123E+00    0.804E-02
DAV:   2    -0.104718360121E+03    0.14502E-04   -0.77889E-04   112   0.118E-01    0.427E-02
DAV:   3    -0.104718332084E+03    0.28037E-04   -0.10195E-04   120   0.394E-02    0.155E-02
DAV:   4    -0.104718333688E+03   -0.16037E-05   -0.25968E-05   112   0.185E-02    0.545E-03
DAV:   5    -0.104718333306E+03    0.38157E-06   -0.96392E-07    80   0.429E-03
  13 F= -.10471833E+03 E0= -.10471833E+03  d E =-.187977E-02
       N       E                     dE             d eps       ncg     rms          rms(c)
DAV:   1    -0.104718650069E+03   -0.31638E-03   -0.28312E-01    84   0.247E+00    0.162E-01
DAV:   2    -0.104718590968E+03    0.59100E-04   -0.31415E-03   112   0.237E-01    0.857E-02
DAV:   3    -0.104718471804E+03    0.11916E-03   -0.40967E-04   120   0.791E-02    0.312E-02
DAV:   4    -0.104718478307E+03   -0.65038E-05   -0.10560E-04   112   0.373E-02    0.109E-02
DAV:   5    -0.104718478210E+03    0.97043E-07   -0.45188E-06   112   0.866E-03
  14 F= -.10471848E+03 E0= -.10471848E+03  d E =-.202467E-02
       N       E                     dE             d eps       ncg     rms          rms(c)
DAV:   1    -0.104718846472E+03   -0.36816E-03   -0.59794E-02    84   0.114E+00    0.740E-02
DAV:   2    -0.104718831180E+03    0.15292E-04   -0.65484E-04   112   0.108E-01    0.395E-02
DAV:   3    -0.104718806093E+03    0.25087E-04   -0.89501E-05   112   0.367E-02    0.140E-02
DAV:   4    -0.104718808740E+03   -0.26470E-05   -0.21796E-05   104   0.170E-02    0.514E-03
DAV:   5    -0.104718809714E+03   -0.97345E-06   -0.76899E-07    88   0.385E-03
  15 F= -.10471881E+03 E0= -.10471881E+03  d E =-.235618E-02
       N       E                     dE             d eps       ncg     rms          rms(c)
DAV:   1    -0.104718974729E+03   -0.16599E-03   -0.19119E-03    84   0.201E-01    0.139E-02
DAV:   2    -0.104718976482E+03   -0.17528E-05   -0.37323E-05   120   0.244E-02    0.746E-03
DAV:   3    -0.104718975898E+03    0.58387E-06   -0.21252E-06    88   0.587E-03
  16 F= -.10471898E+03 E0= -.10471898E+03  d E =-.166184E-03
       N       E                     dE             d eps       ncg     rms          rms(c)
DAV:   1    -0.104719197792E+03   -0.22131E-03   -0.17097E-02    84   0.602E-01    0.417E-02
DAV:   2    -0.104719211962E+03   -0.14170E-04   -0.32966E-04   120   0.725E-02    0.226E-02
DAV:   3    -0.104719205051E+03    0.69105E-05   -0.19625E-05   120   0.172E-02    0.101E-02
DAV:   4    -0.104719203903E+03    0.11480E-05   -0.65991E-06   104   0.913E-03    0.247E-03
DAV:   5    -0.104719203556E+03    0.34745E-06   -0.30949E-07    72   0.266E-03
  17 F= -.10471920E+03 E0= -.10471920E+03  d E =-.393842E-03
       N       E                     dE             d eps       ncg     rms          rms(c)
DAV:   1    -0.104719360802E+03   -0.15690E-03   -0.19305E-03    84   0.197E-01    0.132E-02
DAV:   2    -0.104719362659E+03   -0.18569E-05   -0.42322E-05   112   0.261E-02    0.769E-03
DAV:   3    -0.104719362379E+03    0.28032E-06   -0.21924E-06    96   0.597E-03
  18 F= -.10471936E+03 E0= -.10471936E+03  d E =-.158823E-03
       N       E                     dE             d eps       ncg     rms          rms(c)
DAV:   1    -0.104719708212E+03   -0.34555E-03   -0.17233E-02    84   0.591E-01    0.397E-02
DAV:   2    -0.104719723526E+03   -0.15314E-04   -0.37842E-04   112   0.782E-02    0.234E-02
DAV:   3    -0.104719718618E+03    0.49080E-05   -0.20138E-05   120   0.175E-02    0.106E-02
DAV:   4    -0.104719718639E+03   -0.21166E-07   -0.42975E-06   104   0.702E-03
  19 F= -.10471972E+03 E0= -.10471972E+03  d E =-.515083E-03
