       N       E                     dE             d eps       ncg     rms          rms(c)
DAV:   1     0.241614503726E+03    0.24161E+03   -0.10253E+04   120   0.484E+02
DAV:   2    -0.264923524887E+02   -0.26811E+03   -0.25358E+03   156   0.919E+01
DAV:   3    -0.106566891360E+03   -0.80075E+02   -0.79850E+02   120   0.551E+01
DAV:   4    -0.110534107843E+03   -0.39672E+01   -0.39529E+01   120   0.178E+01
DAV:   5    -0.110629921816E+03   -0.95814E-01   -0.95716E-01   156   0.314E+00    0.165E+01
DAV:   6    -0.106873734316E+03    0.37562E+01   -0.17056E+00   120   0.445E+00    0.962E+00
DAV:   7    -0.104922990680E+03    0.19507E+01   -0.46242E+00   120   0.655E+00    0.135E+00
DAV:   8    -0.104871355903E+03    0.51635E-01   -0.33461E-01   132   0.220E+00    0.713E-01
DAV:   9    -0.104836012852E+03    0.35343E-01   -0.67686E-02   156   0.707E-01    0.414E-01
DAV:  10    -0.104835904621E+03    0.10823E-03   -0.34841E-03   132   0.210E-01    0.164E-01
DAV:  11    -0.104833254871E+03    0.26498E-02   -0.82493E-03   120   0.232E-01    0.105E-01
DAV:  12    -0.104838208751E+03   -0.49539E-02   -0.95498E-04   120   0.901E-02    0.566E-02
DAV:  13    -0.104842641579E+03   -0.44328E-02   -0.25596E-03   120   0.117E-01    0.443E-02
DAV:  14    -0.104845423367E+03   -0.27818E-02   -0.15945E-04   144   0.364E-02    0.250E-02
DAV:  15    -0.104851542299E+03   -0.61189E-02   -0.79156E-04   108   0.678E-02    0.192E-02
DAV:  16    -0.104852765152E+03   -0.12229E-02   -0.73004E-05   132   0.276E-02    0.102E-02
DAV:  17    -0.104854184255E+03   -0.14191E-02   -0.14264E-04   132   0.255E-02    0.762E-03
DAV:  18    -0.104854383162E+03   -0.19891E-03   -0.37711E-06   132   0.489E-03    0.304E-03
DAV:  19    -0.104854702845E+03   -0.31968E-03   -0.14793E-05   132   0.859E-03    0.263E-03
DAV:  20    -0.104854753031E+03   -0.50186E-04   -0.89093E-07   108   0.313E-03    0.139E-03
DAV:  21    -0.104854798973E+03   -0.45942E-04   -0.15457E-06   120   0.299E-03    0.670E-04
DAV:  22    -0.104854806119E+03   -0.71464E-05   -0.12537E-07   108   0.121E-03    0.480E-04
DAV:  23    -0.104854811558E+03   -0.54388E-05   -0.10525E-07   108   0.840E-04    0.189E-04
DAV:  24    -0.104854813985E+03   -0.24267E-05   -0.29923E-08   108   0.474E-04    0.118E-04
DAV:  25    -0.104854815468E+03   -0.14834E-05   -0.69979E-09   108   0.313E-04    0.768E-05
DAV:  26    -0.104854815913E+03   -0.44501E-06    0.12632E-09   108   0.188E-04
   1 F= -.10485482E+03 E0= -.10485482E+03  d E =-.133874E-10
       N       E                     dE             d eps       ncg     rms          rms(c)
DAV:   1    -0.104851470771E+03    0.33447E-02   -0.82461E-02    96   0.815E-01    0.134E-01
DAV:   2    -0.104851790260E+03   -0.31949E-03   -0.37720E-03   132   0.209E-01    0.573E-02
DAV:   3    -0.104851775586E+03    0.14674E-04   -0.15458E-04   144   0.459E-02    0.302E-02
DAV:   4    -0.104851778651E+03   -0.30642E-05   -0.36426E-05   144   0.221E-02    0.935E-03
DAV:   5    -0.104851777949E+03    0.70130E-06   -0.61394E-06   132   0.960E-03
   2 F= -.10485178E+03 E0= -.10485178E+03  d E =-.133985E-10
       N       E                     dE             d eps       ncg     rms          rms(c)
DAV:   1    -0.104850469930E+03    0.13087E-02   -0.32884E-01    96   0.164E+00    0.270E-01
DAV:   2    -0.104851732182E+03   -0.12623E-02   -0.14893E-02   132   0.415E-01    0.116E-01
DAV:   3    -0.104851675211E+03    0.56970E-04   -0.62731E-04   144   0.916E-02    0.618E-02
DAV:   4    -0.104851692383E+03   -0.17172E-04   -0.14677E-04   132   0.440E-02    0.196E-02
DAV:   5    -0.104851690506E+03    0.18770E-05   -0.24442E-05   132   0.189E-02    0.106E-02
DAV:   6    -0.104851689747E+03    0.75865E-06   -0.53277E-06   144   0.827E-03
   3 F= -.10485169E+03 E0= -.10485169E+03  d E =-.151593E-10
       N       E                     dE             d eps       ncg     rms          rms(c)
DAV:   1    -0.104851073798E+03    0.61671E-03   -0.16714E-01    96   0.116E+00    0.191E-01
DAV:   2    -0.104851688930E+03   -0.61513E-03   -0.72998E-03   132   0.290E-01    0.803E-02
DAV:   3    -0.104851663876E+03    0.25054E-04   -0.30154E-04   132   0.637E-02    0.424E-02
DAV:   4    -0.104851674892E+03   -0.11016E-04   -0.67770E-05   144   0.298E-02    0.135E-02
DAV:   5    -0.104851674736E+03    0.15617E-06   -0.11210E-05   132   0.129E-02    0.683E-03
DAV:   6    -0.104851675035E+03   -0.29871E-06   -0.25636E-06   132   0.544E-03
   4 F= -.10485168E+03 E0= -.10485168E+03  d E =-.146829E-10
       N       E                     dE             d eps       ncg     rms          rms(c)
DAV:   1    -0.104850484148E+03    0.11906E-02   -0.32848E-01    96   0.164E+00    0.271E-01
DAV:   2    -0.104851792263E+03   -0.13081E-02   -0.15226E-02   132   0.418E-01    0.116E-01
DAV:   3    -0.104851732914E+03    0.59349E-04   -0.59867E-04   144   0.910E-02    0.623E-02
DAV:   4    -0.104851746936E+03   -0.14022E-04   -0.15263E-04   132   0.445E-02    0.184E-02
DAV:   5    -0.104851743369E+03    0.35668E-05   -0.27959E-05   132   0.202E-02    0.102E-02
DAV:   6    -0.104851743125E+03    0.24477E-06   -0.54878E-06   144   0.797E-03
   5 F= -.10485174E+03 E0= -.10485174E+03  d E =-.162527E-10
       N       E                     dE             d eps       ncg     rms          rms(c)
DAV:   1    -0.104849855246E+03    0.18881E-02   -0.16558E-01    96   0.115E+00    0.192E-01
DAV:   2    -0.104850726390E+03   -0.87114E-03   -0.96855E-03   132   0.327E-01    0.961E-02
DAV:   3    -0.104850675750E+03    0.50640E-04   -0.32107E-04   132   0.693E-02    0.518E-02
DAV:   4    -0.104850682330E+03   -0.65807E-05   -0.12531E-04   132   0.391E-02    0.139E-02
DAV:   5    -0.104850680514E+03    0.18166E-05   -0.19222E-05   132   0.163E-02    0.794E-03
DAV:   6    -0.104850682310E+03   -0.17962E-05   -0.36566E-06   132   0.611E-03    0.487E-03
DAV:   7    -0.104850687871E+03   -0.55609E-05   -0.44475E-07   108   0.239E-03    0.159E-03
DAV:   8    -0.104850692724E+03   -0.48536E-05   -0.36079E-07   108   0.201E-03    0.615E-04
DAV:   9    -0.104850698445E+03   -0.57202E-05   -0.33966E-07   108   0.168E-03    0.528E-04
DAV:  10    -0.104850705318E+03   -0.68731E-05   -0.59138E-07   120   0.166E-03    0.441E-04
DAV:  11    -0.104850706355E+03   -0.10367E-05   -0.30200E-08   120   0.697E-04    0.308E-04
DAV:  12    -0.104850708014E+03   -0.16598E-05   -0.39937E-08   108   0.525E-04    0.144E-04
DAV:  13    -0.104850709267E+03   -0.12528E-05   -0.30373E-08   108   0.395E-04    0.987E-05
DAV:  14    -0.104850710177E+03   -0.90972E-06   -0.14018E-08   108   0.283E-04
   6 F= -.10485071E+03 E0= -.10485071E+03  d E =-.172677E-10
       N       E                     dE             d eps       ncg     rms          rms(c)
DAV:   1    -0.104848000358E+03    0.27089E-02   -0.33292E-01    96   0.164E+00    0.271E-01
DAV:   2    -0.104850284844E+03   -0.22845E-02   -0.25008E-02   132   0.500E-01    0.171E-01
DAV:   3    -0.104850104620E+03    0.18022E-03   -0.70388E-04   132   0.105E-01    0.878E-02
DAV:   4    -0.104850110121E+03   -0.55007E-05   -0.43381E-04   132   0.679E-02    0.171E-02
DAV:   5    -0.104850099073E+03    0.11048E-04   -0.50772E-05   144   0.250E-02    0.114E-02
DAV:   6    -0.104850100436E+03   -0.13631E-05   -0.10352E-05   144   0.843E-03    0.708E-03
DAV:   7    -0.104850113400E+03   -0.12963E-04   -0.10170E-06   120   0.351E-03    0.284E-03
DAV:   8    -0.104850130221E+03   -0.16821E-04   -0.17663E-06   132   0.445E-03    0.148E-03
DAV:   9    -0.104850142786E+03   -0.12565E-04   -0.97121E-07   132   0.250E-03    0.170E-03
DAV:  10    -0.104850162058E+03   -0.19272E-04   -0.84973E-07   120   0.207E-03    0.885E-04
DAV:  11    -0.104850168857E+03   -0.67988E-05   -0.28057E-07   108   0.123E-03    0.577E-04
DAV:  12    -0.104850176534E+03   -0.76765E-05   -0.21794E-07   108   0.106E-03    0.260E-04
DAV:  13    -0.104850180005E+03   -0.34714E-05   -0.92855E-08   108   0.625E-04    0.233E-04
DAV:  14    -0.104850182128E+03   -0.21230E-05   -0.17700E-08   108   0.365E-04    0.122E-04
DAV:  15    -0.104850183630E+03   -0.15022E-05   -0.24426E-08   108   0.350E-04    0.841E-05
DAV:  16    -0.104850184171E+03   -0.54022E-06    0.25174E-09   120   0.177E-04
   7 F= -.10485018E+03 E0= -.10485018E+03  d E =-.122454E-10
       N       E                     dE             d eps       ncg     rms          rms(c)
DAV:   1    -0.104849621461E+03    0.56217E-03   -0.19159E-01    96   0.133E+00    0.200E-01
DAV:   2    -0.104850949861E+03   -0.13284E-02   -0.13952E-02   132   0.417E-01    0.119E-01
DAV:   3    -0.104850873075E+03    0.76786E-04   -0.42071E-04   144   0.850E-02    0.638E-02
DAV:   4    -0.104850875602E+03   -0.25265E-05   -0.20529E-04   132   0.531E-02    0.130E-02
DAV:   5    -0.104850870335E+03    0.52666E-05   -0.34323E-05   120   0.208E-02    0.935E-03
DAV:   6    -0.104850871327E+03   -0.99175E-06   -0.37883E-06   144   0.630E-03
   8 F= -.10485087E+03 E0= -.10485087E+03  d E =-.117973E-10
       N       E                     dE             d eps       ncg     rms          rms(c)
DAV:   1    -0.104848934045E+03    0.19363E-02   -0.33746E-01    96   0.179E+00    0.257E-01
DAV:   2    -0.104850856993E+03   -0.19229E-02   -0.19931E-02   132   0.507E-01    0.152E-01
DAV:   3    -0.104850797541E+03    0.59452E-04   -0.56605E-04   132   0.946E-02    0.804E-02
DAV:   4    -0.104850795685E+03    0.18565E-05   -0.21094E-04   132   0.556E-02    0.157E-02
DAV:   5    -0.104850784925E+03    0.10760E-04   -0.37391E-05   144   0.238E-02    0.102E-02
DAV:   6    -0.104850785367E+03   -0.44235E-06   -0.74555E-06   132   0.984E-03
   9 F= -.10485079E+03 E0= -.10485079E+03  d E =-.133598E-10
       N       E                     dE             d eps       ncg     rms          rms(c)
DAV:   1    -0.104848876610E+03    0.19083E-02   -0.17058E-01    96   0.128E+00    0.184E-01
DAV:   2    -0.104849971059E+03   -0.10944E-02   -0.11045E-02   132   0.370E-01    0.115E-01
DAV:   3    -0.104849950938E+03    0.20121E-04   -0.28815E-04   132   0.701E-02    0.618E-02
DAV:   4    -0.104849970597E+03   -0.19659E-04   -0.15730E-04   120   0.478E-02    0.118E-02
DAV:   5    -0.104849966185E+03    0.44123E-05   -0.31387E-05   132   0.207E-02    0.875E-03
DAV:   6    -0.104849967018E+03   -0.83252E-06   -0.64494E-06   132   0.761E-03
  10 F= -.10484997E+03 E0= -.10484997E+03  d E =-.128079E-10
       N       E                     dE             d eps       ncg     rms          rms(c)
DAV:   1    -0.104847555824E+03    0.24104E-02   -0.34835E-01    96   0.182E+00    0.280E-01
DAV:   2    -0.104849988843E+03   -0.24330E-02   -0.24833E-02   132   0.574E-01    0.180E-01
DAV:   3    -0.104849862763E+03    0.12608E-03   -0.65201E-04   144   0.114E-01    0.874E-02
DAV:   4    -0.104849893770E+03   -0.31007E-04   -0.44595E-04   120   0.780E-02    0.181E-02
DAV:   5    -0.104849876583E+03    0.17187E-04   -0.67015E-05   132   0.311E-02    0.112E-02
DAV:   6    -0.104849879014E+03   -0.24311E-05   -0.15268E-05   144   0.111E-02    0.570E-03
DAV:   7    -0.104849891789E+03   -0.12775E-04   -0.82855E-07   108   0.299E-03    0.280E-03
DAV:   8    -0.104849911002E+03   -0.19212E-04   -0.30799E-06   132   0.477E-03    0.129E-03
DAV:   9    -0.104849924852E+03   -0.13850E-04   -0.11615E-06   108   0.288E-03    0.115E-03
DAV:  10    -0.104849940155E+03   -0.15303E-04   -0.12481E-06   108   0.245E-03    0.441E-04
DAV:  11    -0.104849944730E+03   -0.45753E-05   -0.14016E-07   108   0.103E-03    0.284E-04
DAV:  12    -0.104849950518E+03   -0.57884E-05   -0.21706E-07    96   0.989E-04    0.136E-04
DAV:  13    -0.104849952515E+03   -0.19966E-05   -0.52030E-08   108   0.509E-04    0.158E-04
DAV:  14    -0.104849954448E+03   -0.19325E-05   -0.27620E-08    96   0.427E-04    0.874E-05
DAV:  15    -0.104849954979E+03   -0.53123E-06   -0.45759E-09   108   0.241E-04
  11 F= -.10484995E+03 E0= -.10484995E+03  d E =-.148458E-10
       N       E                     dE             d eps       ncg     rms          rms(c)
DAV:   1    -0.104850085653E+03   -0.13121E-03   -0.17216E-01    96   0.130E+00    0.192E-01
DAV:   2    -0.104851298647E+03   -0.12130E-02   -0.12518E-02   132   0.402E-01    0.121E-01
DAV:   3    -0.104851231980E+03    0.66667E-04   -0.31739E-04   132   0.769E-02    0.632E-02
DAV:   4    -0.104851235235E+03   -0.32549E-05   -0.19206E-04   120   0.536E-02    0.124E-02
DAV:   5    -0.104851228792E+03    0.64435E-05   -0.38862E-05   132   0.235E-02    0.858E-03
DAV:   6    -0.104851230986E+03   -0.21938E-05   -0.67142E-06   144   0.756E-03    0.528E-03
DAV:   7    -0.104851240669E+03   -0.96835E-05   -0.60915E-07   108   0.286E-03    0.237E-03
DAV:   8    -0.104851255020E+03   -0.14351E-04   -0.20282E-06   120   0.420E-03    0.115E-03
DAV:   9    -0.104851263877E+03   -0.88568E-05   -0.66937E-07   108   0.248E-03    0.100E-03
DAV:  10    -0.104851275482E+03   -0.11605E-04   -0.10154E-06   108   0.212E-03    0.533E-04
DAV:  11    -0.104851279371E+03   -0.38890E-05   -0.13878E-07   108   0.103E-03    0.325E-04
DAV:  12    -0.104851282925E+03   -0.35540E-05   -0.12004E-07    96   0.773E-04    0.136E-04
DAV:  13    -0.104851285185E+03   -0.22597E-05   -0.68663E-08   108   0.556E-04    0.175E-04
DAV:  14    -0.104851286582E+03   -0.13978E-05   -0.22217E-08   108   0.364E-04    0.754E-05
DAV:  15    -0.104851287168E+03   -0.58520E-06   -0.71322E-09    96   0.243E-04
  12 F= -.10485129E+03 E0= -.10485129E+03  d E =-.131099E-10
       N       E                     dE             d eps       ncg     rms          rms(c)
DAV:   1    -0.104849845104E+03    0.14415E-02   -0.33327E-01    96   0.174E+00    0.270E-01
DAV:   2    -0.104851543300E+03   -0.16982E-02   -0.18014E-02   144   0.466E-01    0.133E-01
DAV:   3    -0.104851490806E+03    0.52495E-04   -0.58428E-04   132   0.927E-02    0.720E-02
DAV:   4    -0.104851500310E+03   -0.95048E-05   -0.19195E-04   132   0.558E-02    0.159E-02
DAV:   5    -0.104851493699E+03    0.66110E-05   -0.46970E-05   132   0.264E-02    0.115E-02
DAV:   6    -0.104851493645E+03    0.54471E-07   -0.70966E-06   144   0.906E-03
  13 F= -.10485149E+03 E0= -.10485149E+03  d E =-.161873E-10
       N       E                     dE             d eps       ncg     rms          rms(c)
DAV:   1    -0.104848950647E+03    0.25431E-02   -0.16643E-01    96   0.129E+00    0.195E-01
DAV:   2    -0.104850259105E+03   -0.13085E-02   -0.13531E-02   132   0.400E-01    0.116E-01
DAV:   3    -0.104850207158E+03    0.51947E-04   -0.37816E-04   144   0.793E-02    0.675E-02
DAV:   4    -0.104850225742E+03   -0.18584E-04   -0.18682E-04   132   0.558E-02    0.136E-02
DAV:   5    -0.104850225402E+03    0.33991E-06   -0.51629E-05   132   0.268E-02    0.102E-02
DAV:   6    -0.104850224469E+03    0.93313E-06   -0.48855E-06   132   0.755E-03
  14 F= -.10485022E+03 E0= -.10485022E+03  d E =-.140879E-10
       N       E                     dE             d eps       ncg     rms          rms(c)
DAV:   1    -0.104848083586E+03    0.21418E-02   -0.34265E-01    96   0.183E+00    0.270E-01
DAV:   2    -0.104850450651E+03   -0.23671E-02   -0.24163E-02   132   0.567E-01    0.172E-01
DAV:   3    -0.104850359835E+03    0.90816E-04   -0.63570E-04   144   0.109E-01    0.889E-02
DAV:   4    -0.104850374063E+03   -0.14228E-04   -0.37385E-04   132   0.738E-02    0.180E-02
DAV:   5    -0.104850358901E+03    0.15162E-04   -0.69321E-05   144   0.315E-02    0.117E-02
DAV:   6    -0.104850359690E+03   -0.78886E-06   -0.13619E-05   144   0.107E-02    0.731E-03
DAV:   7    -0.104850372792E+03   -0.13103E-04   -0.11661E-06   108   0.411E-03    0.314E-03
DAV:   8    -0.104850389948E+03   -0.17156E-04   -0.22952E-06   108   0.456E-03    0.111E-03
DAV:   9    -0.104850404076E+03   -0.14128E-04   -0.14321E-06   120   0.327E-03    0.134E-03
DAV:  10    -0.104850419184E+03   -0.15109E-04   -0.12406E-06   108   0.259E-03    0.542E-04
DAV:  11    -0.104850422998E+03   -0.38139E-05   -0.14703E-07   108   0.112E-03    0.387E-04
DAV:  12    -0.104850427488E+03   -0.44894E-05   -0.15699E-07    84   0.906E-04    0.165E-04
DAV:  13    -0.104850430317E+03   -0.28288E-05   -0.12125E-07   108   0.724E-04    0.187E-04
DAV:  14    -0.104850432089E+03   -0.17719E-05   -0.49523E-08   108   0.505E-04    0.104E-04
DAV:  15    -0.104850432532E+03   -0.44308E-06   -0.44975E-09   120   0.245E-04
  15 F= -.10485043E+03 E0= -.10485043E+03  d E =-.162448E-10
       N       E                     dE             d eps       ncg     rms          rms(c)
DAV:   1    -0.104849786375E+03    0.64571E-03   -0.17424E-01    96   0.130E+00    0.195E-01
DAV:   2    -0.104850952664E+03   -0.11663E-02   -0.12078E-02   132   0.397E-01    0.126E-01
DAV:   3    -0.104850884970E+03    0.67694E-04   -0.32813E-04   144   0.795E-02    0.601E-02
DAV:   4    -0.104850892126E+03   -0.71558E-05   -0.20789E-04   120   0.527E-02    0.128E-02
DAV:   5    -0.104850883509E+03    0.86176E-05   -0.29876E-05   132   0.204E-02    0.768E-03
DAV:   6    -0.104850887528E+03   -0.40189E-05   -0.73793E-06   144   0.758E-03    0.378E-03
DAV:   7    -0.104850899118E+03   -0.11591E-04   -0.58570E-07    96   0.235E-03    0.167E-03
DAV:   8    -0.104850915660E+03   -0.16542E-04   -0.20437E-06   108   0.363E-03    0.114E-03
DAV:   9    -0.104850928592E+03   -0.12932E-04   -0.80221E-07   108   0.233E-03    0.649E-04
DAV:  10    -0.104850938349E+03   -0.97572E-05   -0.83246E-07   108   0.181E-03    0.306E-04
DAV:  11    -0.104850942250E+03   -0.39007E-05   -0.95288E-08   108   0.812E-04    0.179E-04
DAV:  12    -0.104850945368E+03   -0.31181E-05   -0.94643E-08    96   0.649E-04    0.147E-04
DAV:  13    -0.104850946975E+03   -0.16067E-05   -0.29289E-08   108   0.398E-04    0.954E-05
DAV:  14    -0.104850948001E+03   -0.10259E-05   -0.10230E-08    96   0.280E-04    0.483E-05
DAV:  15    -0.104850948414E+03   -0.41354E-06    0.20856E-09   108   0.164E-04
  16 F= -.10485095E+03 E0= -.10485095E+03  d E =-.142384E-10
       N       E                     dE             d eps       ncg     rms          rms(c)
DAV:   1    -0.104848735060E+03    0.22129E-02   -0.33873E-01    96   0.177E+00    0.265E-01
DAV:   2    -0.104850782713E+03   -0.20477E-02   -0.21340E-02   132   0.521E-01    0.155E-01
DAV:   3    -0.104850687020E+03    0.95693E-04   -0.56566E-04   132   0.981E-02    0.814E-02
DAV:   4    -0.104850693551E+03   -0.65315E-05   -0.30207E-04   132   0.666E-02    0.168E-02
DAV:   5    -0.104850682958E+03    0.10593E-04   -0.61857E-05   132   0.299E-02    0.120E-02
DAV:   6    -0.104850682390E+03    0.56748E-06   -0.11767E-05   132   0.107E-02    0.760E-03
DAV:   7    -0.104850691295E+03   -0.89045E-05   -0.16059E-06   132   0.515E-03    0.304E-03
DAV:   8    -0.104850705520E+03   -0.14225E-04   -0.17385E-06   132   0.500E-03    0.130E-03
DAV:   9    -0.104850719383E+03   -0.13864E-04   -0.10043E-06   120   0.306E-03    0.142E-03
DAV:  10    -0.104850735907E+03   -0.16523E-04   -0.78209E-07   108   0.228E-03    0.561E-04
DAV:  11    -0.104850742270E+03   -0.63634E-05   -0.27410E-07   108   0.131E-03    0.384E-04
DAV:  12    -0.104850749862E+03   -0.75925E-05   -0.18871E-07    96   0.977E-04    0.187E-04
DAV:  13    -0.104850753051E+03   -0.31890E-05   -0.88106E-08   108   0.621E-04    0.214E-04
DAV:  14    -0.104850755217E+03   -0.21658E-05   -0.22436E-08   108   0.392E-04    0.122E-04
DAV:  15    -0.104850756640E+03   -0.14224E-05   -0.18258E-08    96   0.338E-04    0.469E-05
DAV:  16    -0.104850757207E+03   -0.56731E-06   -0.12728E-10   108   0.184E-04
  17 F= -.10485076E+03 E0= -.10485076E+03  d E =-.135237E-10
       N       E                     dE             d eps       ncg     rms          rms(c)
DAV:   1    -0.104849854907E+03    0.90173E-03   -0.17118E-01    96   0.130E+00    0.182E-01
DAV:   2    -0.104850963183E+03   -0.11083E-02   -0.11496E-02   120   0.381E-01    0.117E-01
DAV:   3    -0.104850908429E+03    0.54754E-04   -0.27977E-04   132   0.689E-02    0.634E-02
DAV:   4    -0.104850893719E+03    0.14710E-04   -0.14663E-04   120   0.458E-02    0.114E-02
DAV:   5    -0.104850889245E+03    0.44743E-05   -0.23317E-05   132   0.182E-02    0.844E-03
DAV:   6    -0.104850893147E+03   -0.39018E-05   -0.60119E-06   132   0.857E-03    0.488E-03
DAV:   7    -0.104850909526E+03   -0.16379E-04   -0.25248E-06   120   0.611E-03    0.167E-03
DAV:   8    -0.104850927889E+03   -0.18363E-04   -0.14829E-06   120   0.437E-03    0.112E-03
DAV:   9    -0.104850943357E+03   -0.15468E-04   -0.12684E-06   120   0.305E-03    0.110E-03
DAV:  10    -0.104850957131E+03   -0.13774E-04   -0.11291E-06   108   0.226E-03    0.415E-04
DAV:  11    -0.104850960387E+03   -0.32557E-05   -0.11263E-07   108   0.989E-04    0.291E-04
DAV:  12    -0.104850965601E+03   -0.52137E-05   -0.30752E-07    84   0.119E-03    0.135E-04
DAV:  13    -0.104850966650E+03   -0.10491E-05   -0.48691E-08   120   0.555E-04    0.134E-04
DAV:  14    -0.104850967571E+03   -0.92147E-06   -0.13000E-08    96   0.381E-04
  18 F= -.10485097E+03 E0= -.10485097E+03  d E =-.136217E-10
       N       E                     dE             d eps       ncg     rms          rms(c)
DAV:   1    -0.104849352478E+03    0.16142E-02   -0.33521E-01    96   0.180E+00    0.260E-01
DAV:   2    -0.104851183705E+03   -0.18312E-02   -0.19263E-02   132   0.495E-01    0.145E-01
DAV:   3    -0.104851115406E+03    0.68299E-04   -0.56552E-04   132   0.937E-02    0.767E-02
DAV:   4    -0.104851111631E+03    0.37752E-05   -0.20551E-04   120   0.560E-02    0.158E-02
DAV:   5    -0.104851101459E+03    0.10172E-04   -0.40106E-05   132   0.247E-02    0.107E-02
DAV:   6    -0.104851102658E+03   -0.11988E-05   -0.73815E-06   132   0.945E-03    0.687E-03
DAV:   7    -0.104851115359E+03   -0.12701E-04   -0.18401E-06   132   0.678E-03    0.202E-03
DAV:   8    -0.104851129582E+03   -0.14223E-04   -0.18863E-06   132   0.590E-03    0.183E-03
DAV:   9    -0.104851140100E+03   -0.10518E-04   -0.66781E-07   108   0.313E-03    0.139E-03
DAV:  10    -0.104851155081E+03   -0.14980E-04   -0.57579E-07   108   0.186E-03    0.540E-04
DAV:  11    -0.104851166777E+03   -0.11696E-04   -0.65177E-07   108   0.186E-03    0.488E-04
DAV:  12    -0.104851173864E+03   -0.70875E-05   -0.23274E-07   108   0.124E-03    0.289E-04
DAV:  13    -0.104851178720E+03   -0.48562E-05   -0.12939E-07    96   0.873E-04    0.400E-04
DAV:  14    -0.104851180499E+03   -0.17785E-05   -0.23968E-08   108   0.511E-04    0.170E-04
DAV:  15    -0.104851182365E+03   -0.18656E-05   -0.28311E-08    96   0.532E-04    0.283E-04
DAV:  16    -0.104851183013E+03   -0.64819E-06   -0.38922E-09   108   0.331E-04
  19 F= -.10485118E+03 E0= -.10485118E+03  d E =-.149363E-10
       N       E                     dE             d eps       ncg     rms          rms(c)
DAV:   1    -0.104848670803E+03    0.25116E-02   -0.16883E-01    96   0.133E+00    0.186E-01
DAV:   2    -0.104850053498E+03   -0.13827E-02   -0.14057E-02   132   0.425E-01    0.119E-01
DAV:   3    -0.104849995438E+03    0.58059E-04   -0.31960E-04   144   0.729E-02    0.715E-02
DAV:   4    -0.104849984025E+03    0.11414E-04   -0.17476E-04   120   0.535E-02    0.117E-02
DAV:   5    -0.104849980112E+03    0.39124E-05   -0.51888E-05   144   0.260E-02    0.948E-03
DAV:   6    -0.104849979951E+03    0.16128E-06   -0.53341E-06   132   0.810E-03
  20 F= -.10484998E+03 E0= -.10484998E+03  d E =-.144251E-10
       N       E                     dE             d eps       ncg     rms          rms(c)
DAV:   1    -0.104847717147E+03    0.22630E-02   -0.35269E-01    96   0.172E+00    0.261E-01
DAV:   2    -0.104850317338E+03   -0.26002E-02   -0.26055E-02   132   0.552E-01    0.178E-01
DAV:   3    -0.104850208194E+03    0.10914E-03   -0.57639E-04   156   0.102E-01    0.970E-02
DAV:   4    -0.104850228192E+03   -0.19998E-04   -0.42524E-04   120   0.780E-02    0.177E-02
DAV:   5    -0.104850216511E+03    0.11681E-04   -0.96518E-05   132   0.355E-02    0.128E-02
DAV:   6    -0.104850217216E+03   -0.70510E-06   -0.15651E-05   132   0.109E-02    0.834E-03
DAV:   7    -0.104850231863E+03   -0.14647E-04   -0.14552E-06   132   0.415E-03    0.370E-03
DAV:   8    -0.104850253094E+03   -0.21231E-04   -0.27786E-06   120   0.483E-03    0.113E-03
DAV:   9    -0.104850267601E+03   -0.14507E-04   -0.15038E-06   120   0.312E-03    0.158E-03
DAV:  10    -0.104850285620E+03   -0.18020E-04   -0.15735E-06   108   0.275E-03    0.591E-04
DAV:  11    -0.104850289690E+03   -0.40696E-05   -0.15285E-07   108   0.109E-03    0.386E-04
DAV:  12    -0.104850294871E+03   -0.51809E-05   -0.17616E-07    96   0.918E-04    0.158E-04
DAV:  13    -0.104850297798E+03   -0.29268E-05   -0.12415E-07   108   0.695E-04    0.213E-04
DAV:  14    -0.104850299604E+03   -0.18060E-05   -0.39049E-08   108   0.458E-04    0.125E-04
DAV:  15    -0.104850300234E+03   -0.63026E-06   -0.68240E-09   108   0.252E-04
  21 F= -.10485030E+03 E0= -.10485030E+03  d E =-.158325E-10
       N       E                     dE             d eps       ncg     rms          rms(c)
DAV:   1    -0.104849450921E+03    0.84868E-03   -0.17262E-01    96   0.122E+00    0.183E-01
DAV:   2    -0.104850445474E+03   -0.99455E-03   -0.10322E-02   120   0.338E-01    0.108E-01
DAV:   3    -0.104850405311E+03    0.40163E-04   -0.25146E-04   132   0.609E-02    0.586E-02
DAV:   4    -0.104850399682E+03    0.56286E-05   -0.11697E-04   132   0.407E-02    0.109E-02
DAV:   5    -0.104850393305E+03    0.63772E-05   -0.24029E-05   144   0.182E-02    0.766E-03
DAV:   6    -0.104850393064E+03    0.24091E-06   -0.43104E-06   132   0.671E-03
  22 F= -.10485039E+03 E0= -.10485039E+03  d E =-.189250E-10
       N       E                     dE             d eps       ncg     rms          rms(c)
DAV:   1    -0.104848510642E+03    0.18827E-02   -0.34857E-01    96   0.171E+00    0.264E-01
DAV:   2    -0.104850693881E+03   -0.21832E-02   -0.22053E-02   132   0.493E-01    0.162E-01
DAV:   3    -0.104850631132E+03    0.62749E-04   -0.50781E-04   132   0.868E-02    0.931E-02
DAV:   4    -0.104850616848E+03    0.14283E-04   -0.26137E-04   132   0.605E-02    0.159E-02
DAV:   5    -0.104850608813E+03    0.80357E-05   -0.54895E-05   144   0.265E-02    0.114E-02
DAV:   6    -0.104850612459E+03   -0.36463E-05   -0.10527E-05   132   0.105E-02    0.715E-03
DAV:   7    -0.104850634036E+03   -0.21577E-04   -0.36764E-06   132   0.687E-03    0.250E-03
DAV:   8    -0.104850656270E+03   -0.22235E-04   -0.18455E-06   108   0.450E-03    0.125E-03
DAV:   9    -0.104850677477E+03   -0.21206E-04   -0.17391E-06   108   0.335E-03    0.118E-03
DAV:  10    -0.104850697513E+03   -0.20036E-04   -0.19905E-06   120   0.288E-03    0.524E-04
DAV:  11    -0.104850701262E+03   -0.37492E-05   -0.11759E-07   120   0.111E-03    0.410E-04
DAV:  12    -0.104850708398E+03   -0.71356E-05   -0.42565E-07   108   0.135E-03    0.150E-04
DAV:  13    -0.104850710145E+03   -0.17471E-05   -0.75322E-08   120   0.612E-04    0.187E-04
DAV:  14    -0.104850711820E+03   -0.16749E-05   -0.32411E-08   108   0.476E-04    0.862E-05
DAV:  15    -0.104850712410E+03   -0.59002E-06   -0.11243E-08   108   0.285E-04
  23 F= -.10485071E+03 E0= -.10485071E+03  d E =-.133091E-10
       N       E                     dE             d eps       ncg     rms          rms(c)
DAV:   1    -0.104850547880E+03    0.16394E-03   -0.17172E-01    96   0.117E+00    0.176E-01
DAV:   2    -0.104851399445E+03   -0.85156E-03   -0.88637E-03   132   0.315E-01    0.940E-02
DAV:   3    -0.104851377696E+03    0.21749E-04   -0.26173E-04   144   0.639E-02    0.485E-02
DAV:   4    -0.104851385437E+03   -0.77413E-05   -0.10067E-04   132   0.408E-02    0.108E-02
DAV:   5    -0.104851381987E+03    0.34507E-05   -0.24183E-05   144   0.186E-02    0.785E-03
DAV:   6    -0.104851381976E+03    0.10476E-07   -0.39800E-06   132   0.622E-03
  24 F= -.10485138E+03 E0= -.10485138E+03  d E =-.109340E-10
       N       E                     dE             d eps       ncg     rms          rms(c)
DAV:   1    -0.104849985609E+03    0.13964E-02   -0.33705E-01    96   0.162E+00    0.214E-01
DAV:   2    -0.104851647200E+03   -0.16616E-02   -0.17011E-02   132   0.417E-01    0.127E-01
DAV:   3    -0.104851639182E+03    0.80179E-05   -0.47383E-04   132   0.845E-02    0.646E-02
DAV:   4    -0.104851657152E+03   -0.17970E-04   -0.15016E-04   132   0.503E-02    0.134E-02
DAV:   5    -0.104851652833E+03    0.43191E-05   -0.35343E-05   120   0.227E-02    0.937E-03
DAV:   6    -0.104851654674E+03   -0.18414E-05   -0.64542E-06   144   0.806E-03    0.611E-03
DAV:   7    -0.104851662521E+03   -0.78467E-05   -0.86405E-07   108   0.426E-03    0.228E-03
DAV:   8    -0.104851672043E+03   -0.95222E-05   -0.14651E-06   132   0.458E-03    0.147E-03
DAV:   9    -0.104851684306E+03   -0.12263E-04   -0.74933E-07   108   0.325E-03    0.833E-04
DAV:  10    -0.104851694269E+03   -0.99637E-05   -0.63792E-07   108   0.239E-03    0.745E-04
DAV:  11    -0.104851698555E+03   -0.42853E-05   -0.17490E-07   108   0.137E-03    0.584E-04
DAV:  12    -0.104851703317E+03   -0.47627E-05   -0.10879E-07   108   0.898E-04    0.243E-04
DAV:  13    -0.104851706440E+03   -0.31225E-05   -0.77168E-08   108   0.629E-04    0.225E-04
DAV:  14    -0.104851708699E+03   -0.22594E-05   -0.36123E-08   108   0.433E-04    0.103E-04
DAV:  15    -0.104851709627E+03   -0.92795E-06   -0.96119E-09   108   0.269E-04
  25 F= -.10485171E+03 E0= -.10485171E+03  d E =-.301750E-10
       N       E                     dE             d eps       ncg     rms          rms(c)
DAV:   1    -0.104849549070E+03    0.21596E-02   -0.16652E-01    96   0.126E+00    0.160E-01
DAV:   2    -0.104850776103E+03   -0.12270E-02   -0.12763E-02   132   0.390E-01    0.106E-01
DAV:   3    -0.104850722165E+03    0.53939E-04   -0.32741E-04   144   0.732E-02    0.595E-02
DAV:   4    -0.104850712800E+03    0.93643E-05   -0.14674E-04   132   0.482E-02    0.110E-02
DAV:   5    -0.104850706713E+03    0.60871E-05   -0.36231E-05   132   0.224E-02    0.861E-03
DAV:   6    -0.104850707099E+03   -0.38593E-06   -0.49292E-06   132   0.741E-03
  26 F= -.10485071E+03 E0= -.10485071E+03  d E =-.134907E-10
       N       E                     dE             d eps       ncg     rms          rms(c)
DAV:   1    -0.104848274457E+03    0.24323E-02   -0.33667E-01    96   0.174E+00    0.257E-01
DAV:   2    -0.104850633866E+03   -0.23594E-02   -0.25077E-02   132   0.525E-01    0.164E-01
DAV:   3    -0.104850485429E+03    0.14844E-03   -0.65659E-04   132   0.106E-01    0.855E-02
DAV:   4    -0.104850503015E+03   -0.17586E-04   -0.42418E-04   132   0.742E-02    0.175E-02
DAV:   5    -0.104850494247E+03    0.87671E-05   -0.72020E-05   132   0.313E-02    0.125E-02
DAV:   6    -0.104850492743E+03    0.15048E-05   -0.11098E-05   132   0.958E-03    0.806E-03
DAV:   7    -0.104850498233E+03   -0.54901E-05   -0.81310E-07   108   0.363E-03    0.351E-03
DAV:   8    -0.104850508729E+03   -0.10496E-04   -0.18317E-06   120   0.501E-03    0.129E-03
DAV:   9    -0.104850517074E+03   -0.83453E-05   -0.83750E-07   120   0.266E-03    0.142E-03
DAV:  10    -0.104850530117E+03   -0.13043E-04   -0.59973E-07    96   0.187E-03    0.744E-04
DAV:  11    -0.104850534862E+03   -0.47451E-05   -0.24325E-07   108   0.114E-03    0.544E-04
DAV:  12    -0.104850540035E+03   -0.51728E-05   -0.13477E-07   108   0.906E-04    0.252E-04
DAV:  13    -0.104850543410E+03   -0.33748E-05   -0.10284E-07   108   0.658E-04    0.202E-04
DAV:  14    -0.104850545538E+03   -0.21284E-05   -0.31953E-08   108   0.429E-04    0.110E-04
DAV:  15    -0.104850546492E+03   -0.95345E-06   -0.87119E-09   108   0.280E-04
  27 F= -.10485055E+03 E0= -.10485055E+03  d E =-.143950E-10
       N       E                     dE             d eps       ncg     rms          rms(c)
DAV:   1    -0.104850877726E+03   -0.33219E-03   -0.17201E-01    96   0.122E+00    0.191E-01
DAV:   2    -0.104851887364E+03   -0.10096E-02   -0.11012E-02   120   0.359E-01    0.107E-01
DAV:   3    -0.104851821488E+03    0.65876E-04   -0.33687E-04   132   0.747E-02    0.591E-02
DAV:   4    -0.104851820418E+03    0.10698E-05   -0.16423E-04   132   0.466E-02    0.136E-02
DAV:   5    -0.104851815923E+03    0.44951E-05   -0.25790E-05   132   0.186E-02    0.889E-03
DAV:   6    -0.104851816729E+03   -0.80588E-06   -0.41214E-06   144   0.647E-03
  28 F= -.10485182E+03 E0= -.10485182E+03  d E =-.301216E-10
       N       E                     dE             d eps       ncg     rms          rms(c)
DAV:   1    -0.104850273138E+03    0.15428E-02   -0.34031E-01    96   0.166E+00    0.225E-01
DAV:   2    -0.104851774401E+03   -0.15013E-02   -0.16126E-02   132   0.431E-01    0.111E-01
DAV:   3    -0.104851737472E+03    0.36929E-04   -0.55702E-04   144   0.892E-02    0.554E-02
DAV:   4    -0.104851763441E+03   -0.25969E-04   -0.14585E-04   132   0.444E-02    0.162E-02
DAV:   5    -0.104851762602E+03    0.83935E-06   -0.23713E-05   144   0.191E-02    0.862E-03
DAV:   6    -0.104851763600E+03   -0.99793E-06   -0.61248E-06   144   0.824E-03
  29 F= -.10485176E+03 E0= -.10485176E+03  d E =-.123866E-10
       N       E                     dE             d eps       ncg     rms          rms(c)
DAV:   1    -0.104850780981E+03    0.98162E-03   -0.17098E-01    96   0.122E+00    0.183E-01
DAV:   2    -0.104851499660E+03   -0.71868E-03   -0.79837E-03   132   0.306E-01    0.802E-02
DAV:   3    -0.104851477360E+03    0.22300E-04   -0.28352E-04   144   0.621E-02    0.427E-02
DAV:   4    -0.104851490517E+03   -0.13156E-04   -0.77810E-05   132   0.322E-02    0.120E-02
DAV:   5    -0.104851490287E+03    0.22975E-06   -0.14672E-05   132   0.147E-02    0.684E-03
DAV:   6    -0.104851490718E+03   -0.43078E-06   -0.28705E-06   144   0.577E-03
  30 F= -.10485149E+03 E0= -.10485149E+03  d E =-.111563E-10
       N       E                     dE             d eps       ncg     rms          rms(c)
DAV:   1    -0.104850005201E+03    0.14851E-02   -0.34305E-01    96   0.173E+00    0.271E-01
DAV:   2    -0.104851511305E+03   -0.15061E-02   -0.16968E-02   132   0.466E-01    0.125E-01
DAV:   3    -0.104851441473E+03    0.69831E-04   -0.57678E-04   132   0.935E-02    0.689E-02
DAV:   4    -0.104851455877E+03   -0.14404E-04   -0.19381E-04   132   0.515E-02    0.188E-02
DAV:   5    -0.104851450775E+03    0.51027E-05   -0.30572E-05   132   0.213E-02    0.102E-02
DAV:   6    -0.104851450549E+03    0.22527E-06   -0.57945E-06   144   0.827E-03
  31 F= -.10485145E+03 E0= -.10485145E+03  d E =-.188270E-10
       N       E                     dE             d eps       ncg     rms          rms(c)
DAV:   1    -0.104850385731E+03    0.10650E-02   -0.16794E-01    96   0.124E+00    0.176E-01
DAV:   2    -0.104851472648E+03   -0.10869E-02   -0.11662E-02   132   0.361E-01    0.933E-02
DAV:   3    -0.104851426500E+03    0.46148E-04   -0.38725E-04   144   0.750E-02    0.515E-02
DAV:   4    -0.104851437251E+03   -0.10750E-04   -0.12531E-04   132   0.413E-02    0.132E-02
DAV:   5    -0.104851436910E+03    0.34034E-06   -0.23694E-05   132   0.182E-02    0.821E-03
DAV:   6    -0.104851437045E+03   -0.13471E-06   -0.35972E-06   144   0.664E-03
  32 F= -.10485144E+03 E0= -.10485144E+03  d E =-.226627E-10
       N       E                     dE             d eps       ncg     rms          rms(c)
DAV:   1    -0.104849618751E+03    0.18182E-02   -0.33889E-01    96   0.168E+00    0.223E-01
DAV:   2    -0.104851481522E+03   -0.18628E-02   -0.19662E-02   132   0.481E-01    0.133E-01
DAV:   3    -0.104851409098E+03    0.72423E-04   -0.56600E-04   144   0.938E-02    0.727E-02
DAV:   4    -0.104851421253E+03   -0.12154E-04   -0.22923E-04   132   0.562E-02    0.175E-02
DAV:   5    -0.104851414236E+03    0.70168E-05   -0.41214E-05   132   0.240E-02    0.103E-02
DAV:   6    -0.104851414076E+03    0.16014E-06   -0.73263E-06   156   0.877E-03
  33 F= -.10485141E+03 E0= -.10485141E+03  d E =-.147349E-10
       N       E                     dE             d eps       ncg     rms          rms(c)
DAV:   1    -0.104850064810E+03    0.13494E-02   -0.17052E-01    96   0.120E+00    0.174E-01
DAV:   2    -0.104850831988E+03   -0.76718E-03   -0.83307E-03   132   0.310E-01    0.795E-02
DAV:   3    -0.104850810495E+03    0.21493E-04   -0.27848E-04   144   0.628E-02    0.417E-02
DAV:   4    -0.104850824232E+03   -0.13737E-04   -0.76522E-05   132   0.316E-02    0.119E-02
DAV:   5    -0.104850825716E+03   -0.14837E-05   -0.13342E-05   132   0.140E-02    0.636E-03
DAV:   6    -0.104850827843E+03   -0.21266E-05   -0.29845E-06   132   0.578E-03    0.383E-03
DAV:   7    -0.104850831760E+03   -0.39174E-05   -0.31636E-07   108   0.206E-03    0.125E-03
DAV:   8    -0.104850835323E+03   -0.35626E-05   -0.26210E-07   108   0.182E-03    0.569E-04
DAV:   9    -0.104850840432E+03   -0.51097E-05   -0.30606E-07   108   0.187E-03    0.327E-04
DAV:  10    -0.104850843396E+03   -0.29641E-05   -0.22461E-07   108   0.129E-03    0.368E-04
DAV:  11    -0.104850844569E+03   -0.11726E-05   -0.31642E-08   108   0.677E-04    0.223E-04
DAV:  12    -0.104850846034E+03   -0.14650E-05   -0.40936E-08   108   0.512E-04    0.836E-05
DAV:  13    -0.104850846755E+03   -0.72082E-06   -0.10350E-08   108   0.288E-04
  34 F= -.10485085E+03 E0= -.10485085E+03  d E =-.245840E-10
       N       E                     dE             d eps       ncg     rms          rms(c)
DAV:   1    -0.104848571320E+03    0.22747E-02   -0.34052E-01    96   0.173E+00    0.265E-01
DAV:   2    -0.104850749358E+03   -0.21780E-02   -0.23521E-02   132   0.519E-01    0.158E-01
DAV:   3    -0.104850585759E+03    0.16360E-03   -0.64598E-04   132   0.104E-01    0.835E-02
DAV:   4    -0.104850588394E+03   -0.26347E-05   -0.39976E-04   132   0.717E-02    0.182E-02
DAV:   5    -0.104850580136E+03    0.82579E-05   -0.63462E-05   132   0.296E-02    0.128E-02
DAV:   6    -0.104850580865E+03   -0.72889E-06   -0.10579E-05   132   0.960E-03    0.812E-03
DAV:   7    -0.104850590973E+03   -0.10108E-04   -0.94330E-07    96   0.384E-03    0.308E-03
DAV:   8    -0.104850604175E+03   -0.13203E-04   -0.13341E-06   120   0.426E-03    0.115E-03
DAV:   9    -0.104850617048E+03   -0.12872E-04   -0.97274E-07   120   0.287E-03    0.133E-03
DAV:  10    -0.104850635455E+03   -0.18407E-04   -0.10685E-06   108   0.237E-03    0.836E-04
DAV:  11    -0.104850639261E+03   -0.38064E-05   -0.11031E-07   120   0.104E-03    0.568E-04
DAV:  12    -0.104850644974E+03   -0.57130E-05   -0.12395E-07    96   0.908E-04    0.344E-04
DAV:  13    -0.104850649316E+03   -0.43423E-05   -0.12554E-07   108   0.768E-04    0.215E-04
DAV:  14    -0.104850651533E+03   -0.22169E-05   -0.29578E-08   108   0.426E-04    0.160E-04
DAV:  15    -0.104850652643E+03   -0.11095E-05   -0.85521E-09   108   0.276E-04    0.885E-05
DAV:  16    -0.104850653315E+03   -0.67224E-06    0.31122E-10   108   0.209E-04
  35 F= -.10485065E+03 E0= -.10485065E+03  d E =-.101757E-10
       N       E                     dE             d eps       ncg     rms          rms(c)
DAV:   1    -0.104850957566E+03   -0.30492E-03   -0.17111E-01    96   0.122E+00    0.189E-01
DAV:   2    -0.104851807753E+03   -0.85019E-03   -0.94013E-03   132   0.341E-01    0.948E-02
DAV:   3    -0.104851756399E+03    0.51354E-04   -0.30216E-04   132   0.690E-02    0.503E-02
DAV:   4    -0.104851759228E+03   -0.28288E-05   -0.12205E-04   132   0.408E-02    0.127E-02
DAV:   5    -0.104851755900E+03    0.33277E-05   -0.19358E-05   132   0.168E-02    0.790E-03
DAV:   6    -0.104851756661E+03   -0.76097E-06   -0.34895E-06   132   0.630E-03
  36 F= -.10485176E+03 E0= -.10485176E+03  d E =-.107571E-10
       N       E                     dE             d eps       ncg     rms          rms(c)
DAV:   1    -0.104850387293E+03    0.13686E-02   -0.34079E-01    96   0.172E+00    0.268E-01
DAV:   2    -0.104851736427E+03   -0.13491E-02   -0.15277E-02   132   0.429E-01    0.111E-01
DAV:   3    -0.104851694606E+03    0.41820E-04   -0.56125E-04   132   0.876E-02    0.622E-02
DAV:   4    -0.104851714737E+03   -0.20130E-04   -0.13284E-04   132   0.425E-02    0.190E-02
DAV:   5    -0.104851715007E+03   -0.27069E-06   -0.25118E-05   144   0.198E-02    0.951E-03
DAV:   6    -0.104851716595E+03   -0.15875E-05   -0.56506E-06   132   0.822E-03    0.585E-03
DAV:   7    -0.104851720407E+03   -0.38119E-05   -0.40917E-07   108   0.236E-03    0.240E-03
DAV:   8    -0.104851725093E+03   -0.46862E-05   -0.39867E-07   108   0.247E-03    0.858E-04
DAV:   9    -0.104851729527E+03   -0.44338E-05   -0.25442E-07   108   0.199E-03    0.580E-04
DAV:  10    -0.104851735684E+03   -0.61569E-05   -0.39712E-07   108   0.212E-03    0.625E-04
DAV:  11    -0.104851737125E+03   -0.14418E-05   -0.11578E-07   120   0.117E-03    0.493E-04
DAV:  12    -0.104851738255E+03   -0.11292E-05   -0.24777E-08   108   0.567E-04    0.235E-04
DAV:  13    -0.104851739852E+03   -0.15974E-05   -0.42586E-08   108   0.503E-04    0.996E-05
DAV:  14    -0.104851740926E+03   -0.10743E-05   -0.24401E-08    96   0.372E-04    0.184E-04
DAV:  15    -0.104851741498E+03   -0.57147E-06   -0.42554E-09   108   0.248E-04
  37 F= -.10485174E+03 E0= -.10485174E+03  d E =-.206759E-10
       N       E                     dE             d eps       ncg     rms          rms(c)
DAV:   1    -0.104849419036E+03    0.23219E-02   -0.15760E-01    96   0.126E+00    0.169E-01
DAV:   2    -0.104850441121E+03   -0.10221E-02   -0.10949E-02   120   0.366E-01    0.102E-01
DAV:   3    -0.104850400506E+03    0.40615E-04   -0.29616E-04   144   0.676E-02    0.567E-02
DAV:   4    -0.104850391094E+03    0.94115E-05   -0.10774E-04   132   0.401E-02    0.107E-02
DAV:   5    -0.104850385275E+03    0.58193E-05   -0.19629E-05   132   0.171E-02    0.778E-03
DAV:   6    -0.104850384992E+03    0.28308E-06   -0.42219E-06   132   0.744E-03
  38 F= -.10485038E+03 E0= -.10485038E+03  d E =-.143900E-10
       N       E                     dE             d eps       ncg     rms          rms(c)
DAV:   1    -0.104848261176E+03    0.21241E-02   -0.34927E-01    96   0.183E+00    0.238E-01
DAV:   2    -0.104850464818E+03   -0.22036E-02   -0.22184E-02   120   0.546E-01    0.163E-01
DAV:   3    -0.104850417740E+03    0.47078E-04   -0.50075E-04   132   0.936E-02    0.866E-02
DAV:   4    -0.104850401699E+03    0.16041E-04   -0.27432E-04   132   0.612E-02    0.150E-02
DAV:   5    -0.104850388629E+03    0.13070E-04   -0.40543E-05   132   0.240E-02    0.107E-02
DAV:   6    -0.104850390599E+03   -0.19699E-05   -0.13358E-05   132   0.120E-02    0.618E-03
DAV:   7    -0.104850410561E+03   -0.19962E-04   -0.37496E-06   108   0.717E-03    0.224E-03
DAV:   8    -0.104850432479E+03   -0.21918E-04   -0.20235E-06   108   0.489E-03    0.121E-03
DAV:   9    -0.104850455534E+03   -0.23055E-04   -0.24224E-06   108   0.405E-03    0.123E-03
DAV:  10    -0.104850474182E+03   -0.18648E-04   -0.17558E-06   108   0.295E-03    0.432E-04
DAV:  11    -0.104850480583E+03   -0.64015E-05   -0.26081E-07   120   0.126E-03    0.265E-04
DAV:  12    -0.104850485664E+03   -0.50805E-05   -0.28449E-07   108   0.109E-03    0.188E-04
DAV:  13    -0.104850487283E+03   -0.16197E-05   -0.38965E-08   120   0.508E-04    0.936E-05
DAV:  14    -0.104850488060E+03   -0.77608E-06   -0.10563E-08   108   0.321E-04
  39 F= -.10485049E+03 E0= -.10485049E+03  d E =-.177446E-10
       N       E                     dE             d eps       ncg     rms          rms(c)
DAV:   1    -0.104850752295E+03   -0.26501E-03   -0.17404E-01    96   0.128E+00    0.187E-01
DAV:   2    -0.104851699017E+03   -0.94672E-03   -0.98084E-03   132   0.358E-01    0.104E-01
DAV:   3    -0.104851662005E+03    0.37012E-04   -0.25449E-04   132   0.647E-02    0.540E-02
DAV:   4    -0.104851663209E+03   -0.12043E-05   -0.12727E-04   132   0.427E-02    0.112E-02
DAV:   5    -0.104851657922E+03    0.52876E-05   -0.24464E-05   132   0.187E-02    0.781E-03
DAV:   6    -0.104851658168E+03   -0.24582E-06   -0.50484E-06   144   0.704E-03
  40 F= -.10485166E+03 E0= -.10485166E+03  d E =-.130064E-10
       N       E                     dE             d eps       ncg     rms          rms(c)
DAV:   1    -0.104850198080E+03    0.14598E-02   -0.34393E-01    96   0.170E+00    0.238E-01
DAV:   2    -0.104851736413E+03   -0.15383E-02   -0.15759E-02   132   0.437E-01    0.118E-01
DAV:   3    -0.104851736662E+03   -0.24914E-06   -0.47382E-04   132   0.852E-02    0.630E-02
DAV:   4    -0.104851766772E+03   -0.30110E-04   -0.14308E-04   132   0.513E-02    0.137E-02
DAV:   5    -0.104851766943E+03   -0.17107E-06   -0.43116E-05   132   0.248E-02    0.104E-02
DAV:   6    -0.104851767707E+03   -0.76405E-06   -0.57361E-06   156   0.777E-03
  41 F= -.10485177E+03 E0= -.10485177E+03  d E =-.264701E-10
       N       E                     dE             d eps       ncg     rms          rms(c)
DAV:   1    -0.104849031811E+03    0.27351E-02   -0.17418E-01    96   0.126E+00    0.179E-01
DAV:   2    -0.104849985769E+03   -0.95396E-03   -0.97865E-03   120   0.347E-01    0.977E-02
DAV:   3    -0.104849965397E+03    0.20373E-04   -0.29539E-04   156   0.684E-02    0.517E-02
DAV:   4    -0.104849981030E+03   -0.15633E-04   -0.12592E-04   132   0.441E-02    0.110E-02
DAV:   5    -0.104849980789E+03    0.24063E-06   -0.30204E-05   144   0.202E-02    0.849E-03
DAV:   6    -0.104849981961E+03   -0.11717E-05   -0.46734E-06   132   0.697E-03    0.513E-03
DAV:   7    -0.104849986343E+03   -0.43817E-05   -0.81410E-07   108   0.373E-03    0.211E-03
DAV:   8    -0.104849992990E+03   -0.66471E-05   -0.88378E-07   120   0.331E-03    0.850E-04
DAV:   9    -0.104849999631E+03   -0.66414E-05   -0.35881E-07   108   0.211E-03    0.722E-04
DAV:  10    -0.104850006310E+03   -0.66794E-05   -0.34677E-07    96   0.153E-03    0.371E-04
DAV:  11    -0.104850009366E+03   -0.30559E-05   -0.91918E-08   108   0.868E-04    0.244E-04
DAV:  12    -0.104850012635E+03   -0.32685E-05   -0.74039E-08    96   0.648E-04    0.122E-04
DAV:  13    -0.104850013979E+03   -0.13438E-05   -0.19891E-08   108   0.369E-04    0.105E-04
DAV:  14    -0.104850015351E+03   -0.13722E-05   -0.16708E-08    96   0.319E-04    0.687E-05
DAV:  15    -0.104850015844E+03   -0.49309E-06   -0.53266E-10   108   0.188E-04
  42 F= -.10485002E+03 E0= -.10485002E+03  d E =-.153444E-10
       N       E                     dE             d eps       ncg     rms          rms(c)
DAV:   1    -0.104847782169E+03    0.22332E-02   -0.35799E-01    96   0.183E+00    0.263E-01
DAV:   2    -0.104850194978E+03   -0.24128E-02   -0.24739E-02   132   0.578E-01    0.176E-01
DAV:   3    -0.104850072190E+03    0.12279E-03   -0.60227E-04   132   0.106E-01    0.915E-02
DAV:   4    -0.104850073626E+03   -0.14361E-05   -0.39068E-04   120   0.758E-02    0.178E-02
DAV:   5    -0.104850064351E+03    0.92744E-05   -0.77578E-05   132   0.325E-02    0.117E-02
DAV:   6    -0.104850073038E+03   -0.86872E-05   -0.14731E-05   132   0.110E-02    0.691E-03
DAV:   7    -0.104850099278E+03   -0.26239E-04   -0.17610E-06   120   0.439E-03    0.305E-03
DAV:   8    -0.104850132699E+03   -0.33421E-04   -0.41321E-06   108   0.578E-03    0.142E-03
DAV:   9    -0.104850155408E+03   -0.22708E-04   -0.23876E-06   120   0.394E-03    0.158E-03
DAV:  10    -0.104850176018E+03   -0.20610E-04   -0.17541E-06   108   0.310E-03    0.569E-04
DAV:  11    -0.104850181501E+03   -0.54830E-05   -0.23188E-07   108   0.134E-03    0.359E-04
DAV:  12    -0.104850188143E+03   -0.66423E-05   -0.28283E-07    96   0.116E-03    0.161E-04
DAV:  13    -0.104850190335E+03   -0.21920E-05   -0.81844E-08   108   0.631E-04    0.211E-04
DAV:  14    -0.104850192227E+03   -0.18915E-05   -0.35292E-08    96   0.478E-04    0.100E-04
DAV:  15    -0.104850192743E+03   -0.51614E-06   -0.57312E-09   108   0.263E-04
  43 F= -.10485019E+03 E0= -.10485019E+03  d E =-.159874E-10
       N       E                     dE             d eps       ncg     rms          rms(c)
DAV:   1    -0.104850022039E+03    0.17019E-03   -0.17310E-01    96   0.130E+00    0.168E-01
DAV:   2    -0.104851339745E+03   -0.13177E-02   -0.13723E-02   132   0.417E-01    0.114E-01
DAV:   3    -0.104851280014E+03    0.59731E-04   -0.33502E-04   156   0.754E-02    0.653E-02
DAV:   4    -0.104851266097E+03    0.13917E-04   -0.18452E-04   120   0.557E-02    0.111E-02
DAV:   5    -0.104851260257E+03    0.58403E-05   -0.55088E-05   144   0.275E-02    0.972E-03
DAV:   6    -0.104851259104E+03    0.11529E-05   -0.60220E-06   144   0.789E-03    0.708E-03
DAV:   7    -0.104851266420E+03   -0.73162E-05   -0.14570E-06   120   0.540E-03    0.289E-03
DAV:   8    -0.104851279313E+03   -0.12893E-04   -0.23941E-06   132   0.598E-03    0.145E-03
DAV:   9    -0.104851294564E+03   -0.15251E-04   -0.12100E-06   108   0.386E-03    0.126E-03
DAV:  10    -0.104851304671E+03   -0.10107E-04   -0.58203E-07   108   0.210E-03    0.783E-04
DAV:  11    -0.104851312281E+03   -0.76096E-05   -0.28268E-07   108   0.130E-03    0.363E-04
DAV:  12    -0.104851317378E+03   -0.50973E-05   -0.17110E-07    96   0.911E-04    0.160E-04
DAV:  13    -0.104851320435E+03   -0.30570E-05   -0.86407E-08   108   0.621E-04    0.217E-04
DAV:  14    -0.104851322120E+03   -0.16845E-05   -0.25320E-08    96   0.396E-04    0.671E-05
DAV:  15    -0.104851322927E+03   -0.80697E-06   -0.10546E-08   108   0.283E-04
  44 F= -.10485132E+03 E0= -.10485132E+03  d E =-.167406E-10
       N       E                     dE             d eps       ncg     rms          rms(c)
DAV:   1    -0.104849591316E+03    0.17308E-02   -0.34417E-01    96   0.176E+00    0.225E-01
DAV:   2    -0.104851451122E+03   -0.18598E-02   -0.18959E-02   132   0.486E-01    0.135E-01
DAV:   3    -0.104851410732E+03    0.40390E-04   -0.49126E-04   132   0.903E-02    0.699E-02
DAV:   4    -0.104851421930E+03   -0.11198E-04   -0.20764E-04   132   0.582E-02    0.142E-02
DAV:   5    -0.104851413879E+03    0.80507E-05   -0.50574E-05   132   0.268E-02    0.100E-02
DAV:   6    -0.104851414118E+03   -0.23837E-06   -0.82719E-06   144   0.913E-03
  45 F= -.10485141E+03 E0= -.10485141E+03  d E =-.223388E-10
       N       E                     dE             d eps       ncg     rms          rms(c)
DAV:   1    -0.104849764416E+03    0.16495E-02   -0.17205E-01    96   0.120E+00    0.167E-01
DAV:   2    -0.104850523901E+03   -0.75949E-03   -0.77651E-03   132   0.299E-01    0.823E-02
DAV:   3    -0.104850526928E+03   -0.30263E-05   -0.23594E-04   132   0.593E-02    0.429E-02
DAV:   4    -0.104850550273E+03   -0.23346E-04   -0.72194E-05   132   0.348E-02    0.102E-02
DAV:   5    -0.104850554446E+03   -0.41728E-05   -0.18890E-05   132   0.161E-02    0.714E-03
DAV:   6    -0.104850557261E+03   -0.28153E-05   -0.25758E-06   120   0.522E-03    0.476E-03
DAV:   7    -0.104850563045E+03   -0.57841E-05   -0.48337E-07   108   0.268E-03    0.166E-03
DAV:   8    -0.104850568405E+03   -0.53593E-05   -0.50473E-07   108   0.258E-03    0.835E-04
DAV:   9    -0.104850576710E+03   -0.83054E-05   -0.44455E-07   108   0.261E-03    0.543E-04
DAV:  10    -0.104850579866E+03   -0.31556E-05   -0.24145E-07   108   0.152E-03    0.591E-04
DAV:  11    -0.104850581348E+03   -0.14821E-05   -0.38608E-08   120   0.761E-04    0.388E-04
DAV:  12    -0.104850583874E+03   -0.25260E-05   -0.56807E-08    96   0.611E-04    0.120E-04
DAV:  13    -0.104850585482E+03   -0.16078E-05   -0.28928E-08    96   0.403E-04    0.143E-04
DAV:  14    -0.104850586877E+03   -0.13948E-05   -0.20375E-08   108   0.326E-04    0.743E-05
DAV:  15    -0.104850587317E+03   -0.44029E-06   -0.38879E-10   108   0.180E-04
  46 F= -.10485059E+03 E0= -.10485059E+03  d E =-.114134E-10
       N       E                     dE             d eps       ncg     rms          rms(c)
DAV:   1    -0.104848470803E+03    0.21161E-02   -0.35180E-01    96   0.181E+00    0.266E-01
DAV:   2    -0.104850667136E+03   -0.21963E-02   -0.22588E-02   132   0.545E-01    0.162E-01
DAV:   3    -0.104850573754E+03    0.93382E-04   -0.53878E-04   144   0.964E-02    0.917E-02
DAV:   4    -0.104850565953E+03    0.78010E-05   -0.31256E-04   132   0.683E-02    0.167E-02
DAV:   5    -0.104850559120E+03    0.68328E-05   -0.68420E-05   132   0.307E-02    0.124E-02
DAV:   6    -0.104850564063E+03   -0.49424E-05   -0.12635E-05   144   0.112E-02    0.808E-03
DAV:   7    -0.104850584232E+03   -0.20170E-04   -0.27899E-06   132   0.588E-03    0.307E-03
DAV:   8    -0.104850607917E+03   -0.23685E-04   -0.20406E-06   108   0.438E-03    0.114E-03
DAV:   9    -0.104850631694E+03   -0.23777E-04   -0.23820E-06   120   0.393E-03    0.150E-03
DAV:  10    -0.104850651810E+03   -0.20116E-04   -0.20076E-06   108   0.324E-03    0.604E-04
DAV:  11    -0.104850658284E+03   -0.64738E-05   -0.28416E-07   108   0.143E-03    0.286E-04
DAV:  12    -0.104850663607E+03   -0.53233E-05   -0.25445E-07   108   0.106E-03    0.212E-04
DAV:  13    -0.104850665490E+03   -0.18830E-05   -0.52504E-08   108   0.516E-04    0.198E-04
DAV:  14    -0.104850667027E+03   -0.15368E-05   -0.30828E-08   108   0.418E-04    0.814E-05
DAV:  15    -0.104850667500E+03   -0.47297E-06   -0.18324E-09   108   0.217E-04
  47 F= -.10485067E+03 E0= -.10485067E+03  d E =-.206783E-10
       N       E                     dE             d eps       ncg     rms          rms(c)
DAV:   1    -0.104849242822E+03    0.14242E-02   -0.17312E-01    96   0.131E+00    0.186E-01
DAV:   2    -0.104850223830E+03   -0.98101E-03   -0.10225E-02   120   0.362E-01    0.108E-01
DAV:   3    -0.104850181346E+03    0.42484E-04   -0.25968E-04   144   0.641E-02    0.566E-02
DAV:   4    -0.104850170673E+03    0.10673E-04   -0.10834E-04   120   0.391E-02    0.109E-02
DAV:   5    -0.104850163553E+03    0.71202E-05   -0.18722E-05   144   0.165E-02    0.705E-03
DAV:   6    -0.104850164211E+03   -0.65820E-06   -0.41317E-06   132   0.713E-03
  48 F= -.10485016E+03 E0= -.10485016E+03  d E =-.155442E-10
       N       E                     dE             d eps       ncg     rms          rms(c)
DAV:   1    -0.104847971671E+03    0.21919E-02   -0.35215E-01    96   0.183E+00    0.246E-01
DAV:   2    -0.104850333434E+03   -0.23618E-02   -0.23740E-02   120   0.561E-01    0.170E-01
DAV:   3    -0.104850266950E+03    0.66484E-04   -0.57214E-04   132   0.103E-01    0.902E-02
DAV:   4    -0.104850259695E+03    0.72544E-05   -0.34257E-04   132   0.710E-02    0.167E-02
DAV:   5    -0.104850249684E+03    0.10012E-04   -0.61736E-05   144   0.292E-02    0.123E-02
DAV:   6    -0.104850251843E+03   -0.21593E-05   -0.15425E-05   132   0.125E-02    0.707E-03
DAV:   7    -0.104850272769E+03   -0.20926E-04   -0.42483E-06   132   0.718E-03    0.258E-03
DAV:   8    -0.104850298886E+03   -0.26117E-04   -0.23809E-06   120   0.481E-03    0.122E-03
DAV:   9    -0.104850322810E+03   -0.23924E-04   -0.23738E-06   120   0.385E-03    0.127E-03
DAV:  10    -0.104850342551E+03   -0.19741E-04   -0.18701E-06   108   0.304E-03    0.511E-04
DAV:  11    -0.104850348340E+03   -0.57891E-05   -0.23341E-07   108   0.127E-03    0.298E-04
DAV:  12    -0.104850353795E+03   -0.54555E-05   -0.31827E-07    96   0.122E-03    0.166E-04
DAV:  13    -0.104850355291E+03   -0.14954E-05   -0.43843E-08   108   0.560E-04    0.109E-04
DAV:  14    -0.104850356333E+03   -0.10425E-05   -0.16943E-08    96   0.378E-04    0.584E-05
DAV:  15    -0.104850356944E+03   -0.61063E-06   -0.49068E-09   108   0.246E-04
  49 F= -.10485036E+03 E0= -.10485036E+03  d E =-.152760E-10
       N       E                     dE             d eps       ncg     rms          rms(c)
DAV:   1    -0.104850579711E+03   -0.22338E-03   -0.21085E-01    96   0.137E+00    0.171E-01
DAV:   2    -0.104851747960E+03   -0.11682E-02   -0.12395E-02   120   0.374E-01    0.999E-02
DAV:   3    -0.104851707909E+03    0.40050E-04   -0.29951E-04   156   0.708E-02    0.518E-02
DAV:   4    -0.104851713603E+03   -0.56935E-05   -0.14542E-04   120   0.455E-02    0.103E-02
DAV:   5    -0.104851710072E+03    0.35305E-05   -0.27754E-05   144   0.192E-02    0.769E-03
DAV:   6    -0.104851709994E+03    0.78645E-07   -0.40142E-06   132   0.616E-03
  50 F= -.10485171E+03 E0= -.10485171E+03  d E =-.228691E-10
       N       E                     dE             d eps       ncg     rms          rms(c)
DAV:   1    -0.104850451465E+03    0.12586E-02   -0.41555E-01    96   0.173E+00    0.223E-01
DAV:   2    -0.104851820621E+03   -0.13692E-02   -0.16543E-02   132   0.372E-01    0.100E-01
DAV:   3    -0.104851735852E+03    0.84769E-04   -0.38718E-04   120   0.684E-02    0.520E-02
DAV:   4    -0.104851712737E+03    0.23115E-04   -0.11151E-04   132   0.406E-02    0.140E-02
DAV:   5    -0.104851708105E+03    0.46321E-05   -0.22667E-05   132   0.187E-02    0.856E-03
DAV:   6    -0.104851711300E+03   -0.31951E-05   -0.49965E-06   120   0.785E-03    0.482E-03
DAV:   7    -0.104851720226E+03   -0.89266E-05   -0.87624E-07   120   0.343E-03    0.160E-03
DAV:   8    -0.104851729769E+03   -0.95428E-05   -0.53876E-07   108   0.269E-03    0.922E-04
DAV:   9    -0.104851744640E+03   -0.14871E-04   -0.10514E-06   120   0.285E-03    0.505E-04
DAV:  10    -0.104851754717E+03   -0.10077E-04   -0.77057E-07   120   0.222E-03    0.449E-04
DAV:  11    -0.104851757448E+03   -0.27312E-05   -0.72222E-08   108   0.989E-04    0.296E-04
DAV:  12    -0.104851760863E+03   -0.34157E-05   -0.97637E-08    96   0.756E-04    0.152E-04
DAV:  13    -0.104851762825E+03   -0.19620E-05   -0.45905E-08   108   0.480E-04    0.147E-04
DAV:  14    -0.104851764149E+03   -0.13231E-05   -0.20072E-08   108   0.342E-04    0.593E-05
DAV:  15    -0.104851764726E+03   -0.57738E-06   -0.16537E-09   108   0.207E-04
  51 F= -.10485176E+03 E0= -.10485176E+03  d E =-.174654E-10
       N       E                     dE             d eps       ncg     rms          rms(c)
DAV:   1    -0.104850466272E+03    0.12979E-02   -0.20015E-01    96   0.119E+00    0.158E-01
DAV:   2    -0.104851239761E+03   -0.77349E-03   -0.95007E-03   132   0.267E-01    0.857E-02
DAV:   3    -0.104851172377E+03    0.67384E-04   -0.18283E-04   132   0.485E-02    0.436E-02
DAV:   4    -0.104851149321E+03    0.23056E-04   -0.70386E-05   132   0.307E-02    0.913E-03
DAV:   5    -0.104851142554E+03    0.67670E-05   -0.11598E-05   132   0.128E-02    0.533E-03
DAV:   6    -0.104851143923E+03   -0.13687E-05   -0.30438E-06   132   0.506E-03    0.294E-03
DAV:   7    -0.104851151226E+03   -0.73031E-05   -0.69942E-07    96   0.281E-03    0.110E-03
DAV:   8    -0.104851160682E+03   -0.94565E-05   -0.48872E-07    96   0.206E-03    0.813E-04
DAV:   9    -0.104851173566E+03   -0.12884E-04   -0.78645E-07   108   0.189E-03    0.404E-04
DAV:  10    -0.104851181669E+03   -0.81033E-05   -0.38447E-07   108   0.131E-03    0.294E-04
DAV:  11    -0.104851184332E+03   -0.26623E-05   -0.52361E-08   108   0.628E-04    0.168E-04
DAV:  12    -0.104851188513E+03   -0.41813E-05   -0.12627E-07    96   0.721E-04    0.938E-05
DAV:  13    -0.104851189663E+03   -0.11502E-05   -0.16201E-08   108   0.330E-04    0.691E-05
DAV:  14    -0.104851191006E+03   -0.13425E-05   -0.13306E-08    96   0.290E-04    0.339E-05
DAV:  15    -0.104851191317E+03   -0.31088E-06    0.27650E-09   108   0.141E-04
  52 F= -.10485119E+03 E0= -.10485119E+03  d E =-.192828E-10
       N       E                     dE             d eps       ncg     rms          rms(c)
DAV:   1    -0.104849918199E+03    0.12728E-02   -0.40434E-01    96   0.169E+00    0.225E-01
DAV:   2    -0.104851429105E+03   -0.15109E-02   -0.18373E-02   132   0.379E-01    0.114E-01
DAV:   3    -0.104851314106E+03    0.11500E-03   -0.37163E-04   132   0.684E-02    0.596E-02
DAV:   4    -0.104851271809E+03    0.42297E-04   -0.12777E-04   120   0.426E-02    0.130E-02
DAV:   5    -0.104851263388E+03    0.84213E-05   -0.23846E-05   132   0.187E-02    0.759E-03
DAV:   6    -0.104851270680E+03   -0.72926E-05   -0.56459E-06   132   0.722E-03    0.434E-03
DAV:   7    -0.104851288375E+03   -0.17695E-04   -0.16964E-06   132   0.390E-03    0.149E-03
DAV:   8    -0.104851304360E+03   -0.15985E-04   -0.11032E-06   108   0.276E-03    0.111E-03
DAV:   9    -0.104851324538E+03   -0.20178E-04   -0.16621E-06   120   0.274E-03    0.555E-04
DAV:  10    -0.104851337763E+03   -0.13225E-04   -0.11660E-06   120   0.207E-03    0.426E-04
DAV:  11    -0.104851341197E+03   -0.34342E-05   -0.75652E-08   108   0.831E-04    0.246E-04
DAV:  12    -0.104851346547E+03   -0.53507E-05   -0.25865E-07    96   0.993E-04    0.143E-04
DAV:  13    -0.104851348063E+03   -0.15153E-05   -0.41538E-08   108   0.440E-04    0.109E-04
DAV:  14    -0.104851349492E+03   -0.14294E-05   -0.21260E-08   108   0.357E-04    0.431E-05
DAV:  15    -0.104851349989E+03   -0.49626E-06   -0.34288E-09   108   0.208E-04
  53 F= -.10485135E+03 E0= -.10485135E+03  d E =-.160727E-10
       N       E                     dE             d eps       ncg     rms          rms(c)
DAV:   1    -0.104851058961E+03    0.29053E-03   -0.20197E-01    96   0.118E+00    0.155E-01
DAV:   2    -0.104851842365E+03   -0.78340E-03   -0.95367E-03   132   0.270E-01    0.843E-02
DAV:   3    -0.104851777990E+03    0.64375E-04   -0.18268E-04   132   0.479E-02    0.432E-02
DAV:   4    -0.104851755541E+03    0.22449E-04   -0.72047E-05   132   0.307E-02    0.921E-03
DAV:   5    -0.104851749097E+03    0.64441E-05   -0.11979E-05   132   0.129E-02    0.558E-03
DAV:   6    -0.104851750191E+03   -0.10943E-05   -0.31986E-06   132   0.530E-03    0.304E-03
DAV:   7    -0.104851756982E+03   -0.67903E-05   -0.71638E-07   108   0.286E-03    0.115E-03
DAV:   8    -0.104851766401E+03   -0.94194E-05   -0.51154E-07   108   0.211E-03    0.811E-04
DAV:   9    -0.104851778491E+03   -0.12090E-04   -0.72437E-07   108   0.184E-03    0.432E-04
DAV:  10    -0.104851786914E+03   -0.84230E-05   -0.40724E-07    96   0.134E-03    0.302E-04
DAV:  11    -0.104851789580E+03   -0.26663E-05   -0.55619E-08   108   0.634E-04    0.176E-04
DAV:  12    -0.104851793828E+03   -0.42474E-05   -0.12383E-07    96   0.728E-04    0.920E-05
DAV:  13    -0.104851795053E+03   -0.12249E-05   -0.18918E-08   108   0.346E-04    0.704E-05
DAV:  14    -0.104851796302E+03   -0.12490E-05   -0.10457E-08    96   0.277E-04    0.321E-05
DAV:  15    -0.104851796699E+03   -0.39742E-06    0.17230E-09   108   0.158E-04
  54 F= -.10485180E+03 E0= -.10485180E+03  d E =-.255957E-10
       N       E                     dE             d eps       ncg     rms          rms(c)
DAV:   1    -0.104850467789E+03    0.13285E-02   -0.41702E-01    96   0.168E+00    0.221E-01
DAV:   2    -0.104851819173E+03   -0.13514E-02   -0.16507E-02   132   0.371E-01    0.983E-02
DAV:   3    -0.104851735752E+03    0.83420E-04   -0.38893E-04   144   0.678E-02    0.501E-02
DAV:   4    -0.104851711737E+03    0.24015E-04   -0.98404E-05   132   0.387E-02    0.136E-02
DAV:   5    -0.104851705886E+03    0.58513E-05   -0.18531E-05   144   0.170E-02    0.751E-03
DAV:   6    -0.104851708673E+03   -0.27867E-05   -0.45299E-06   132   0.741E-03    0.403E-03
DAV:   7    -0.104851717418E+03   -0.87455E-05   -0.92801E-07   120   0.358E-03    0.120E-03
DAV:   8    -0.104851725461E+03   -0.80428E-05   -0.44169E-07   108   0.247E-03    0.876E-04
DAV:   9    -0.104851740325E+03   -0.14864E-04   -0.12713E-06   108   0.299E-03    0.394E-04
DAV:  10    -0.104851747185E+03   -0.68604E-05   -0.48149E-07   108   0.188E-03    0.344E-04
DAV:  11    -0.104851749801E+03   -0.26154E-05   -0.96023E-08   108   0.906E-04    0.254E-04
DAV:  12    -0.104851753294E+03   -0.34931E-05   -0.11537E-07    96   0.794E-04    0.122E-04
DAV:  13    -0.104851754781E+03   -0.14874E-05   -0.48595E-08   108   0.480E-04    0.118E-04
DAV:  14    -0.104851755725E+03   -0.94351E-06   -0.11256E-08    96   0.305E-04
  55 F= -.10485176E+03 E0= -.10485176E+03  d E =-.179755E-10
       N       E                     dE             d eps       ncg     rms          rms(c)
DAV:   1    -0.104850615578E+03    0.11392E-02   -0.20218E-01    96   0.128E+00    0.168E-01
DAV:   2    -0.104851781451E+03   -0.11659E-02   -0.13582E-02   132   0.305E-01    0.740E-02
DAV:   3    -0.104851751530E+03    0.29921E-04   -0.33518E-04   144   0.573E-02    0.409E-02
DAV:   4    -0.104851742418E+03    0.91113E-05   -0.65488E-05   144   0.310E-02    0.118E-02
DAV:   5    -0.104851739541E+03    0.28776E-05   -0.12429E-05   132   0.137E-02    0.643E-03
DAV:   6    -0.104851740525E+03   -0.98415E-06   -0.22896E-06   132   0.579E-03
  56 F= -.10485174E+03 E0= -.10485174E+03  d E =-.130797E-10
       N       E                     dE             d eps       ncg     rms          rms(c)
DAV:   1    -0.104850256056E+03    0.14835E-02   -0.41095E-01    96   0.173E+00    0.216E-01
DAV:   2    -0.104851747817E+03   -0.14918E-02   -0.17695E-02   132   0.384E-01    0.101E-01
DAV:   3    -0.104851701388E+03    0.46429E-04   -0.42366E-04   144   0.698E-02    0.532E-02
DAV:   4    -0.104851685297E+03    0.16091E-04   -0.89453E-05   120   0.420E-02    0.132E-02
DAV:   5    -0.104851679845E+03    0.54513E-05   -0.28978E-05   132   0.209E-02    0.887E-03
DAV:   6    -0.104851680156E+03   -0.31081E-06   -0.45074E-06   132   0.700E-03
  57 F= -.10485168E+03 E0= -.10485168E+03  d E =-.191157E-10
       N       E                     dE             d eps       ncg     rms          rms(c)
DAV:   1    -0.104850431950E+03    0.12479E-02   -0.20179E-01    96   0.121E+00    0.152E-01
DAV:   2    -0.104851217121E+03   -0.78517E-03   -0.93897E-03   132   0.282E-01    0.836E-02
DAV:   3    -0.104851190007E+03    0.27115E-04   -0.19366E-04   144   0.455E-02    0.423E-02
DAV:   4    -0.104851162398E+03    0.27608E-04   -0.46332E-05   120   0.244E-02    0.874E-03
DAV:   5    -0.104851154035E+03    0.83633E-05   -0.67347E-06   132   0.104E-02    0.472E-03
DAV:   6    -0.104851158174E+03   -0.41392E-05   -0.33970E-06    96   0.626E-03    0.224E-03
DAV:   7    -0.104851168640E+03   -0.10466E-04   -0.17858E-06   120   0.414E-03    0.131E-03
DAV:   8    -0.104851181481E+03   -0.12841E-04   -0.82286E-07   120   0.236E-03    0.669E-04
DAV:   9    -0.104851192202E+03   -0.10721E-04   -0.77475E-07   108   0.192E-03    0.473E-04
DAV:  10    -0.104851201833E+03   -0.96311E-05   -0.81256E-07   120   0.170E-03    0.213E-04
DAV:  11    -0.104851205400E+03   -0.35667E-05   -0.14976E-07   108   0.882E-04    0.160E-04
DAV:  12    -0.104851207765E+03   -0.23650E-05   -0.11119E-07   108   0.634E-04    0.847E-05
DAV:  13    -0.104851208506E+03   -0.74059E-06   -0.16675E-08   108   0.308E-04
  58 F= -.10485121E+03 E0= -.10485121E+03  d E =-.986589E-11
       N       E                     dE             d eps       ncg     rms          rms(c)
DAV:   1    -0.104849418389E+03    0.17894E-02   -0.40377E-01    96   0.176E+00    0.215E-01
DAV:   2    -0.104851020546E+03   -0.16022E-02   -0.19467E-02   132   0.404E-01    0.116E-01
DAV:   3    -0.104850931607E+03    0.88939E-04   -0.39731E-04   132   0.655E-02    0.597E-02
DAV:   4    -0.104850876375E+03    0.55233E-04   -0.99274E-05   132   0.369E-02    0.126E-02
DAV:   5    -0.104850861654E+03    0.14721E-04   -0.16949E-05   132   0.168E-02    0.703E-03
DAV:   6    -0.104850865245E+03   -0.35916E-05   -0.71040E-06   132   0.915E-03    0.376E-03
DAV:   7    -0.104850881418E+03   -0.16173E-04   -0.28019E-06   132   0.610E-03    0.190E-03
DAV:   8    -0.104850902579E+03   -0.21161E-04   -0.12828E-06   120   0.369E-03    0.120E-03
DAV:   9    -0.104850925180E+03   -0.22601E-04   -0.12953E-06   120   0.285E-03    0.698E-04
DAV:  10    -0.104850943501E+03   -0.18321E-04   -0.94815E-07   120   0.209E-03    0.411E-04
DAV:  11    -0.104850953351E+03   -0.98508E-05   -0.22989E-07   108   0.120E-03    0.219E-04
DAV:  12    -0.104850959158E+03   -0.58067E-05   -0.15638E-07   108   0.831E-04    0.176E-04
DAV:  13    -0.104850961816E+03   -0.26579E-05   -0.28192E-08   108   0.458E-04    0.733E-05
DAV:  14    -0.104850963296E+03   -0.14802E-05   -0.11959E-08   108   0.314E-04    0.534E-05
DAV:  15    -0.104850963808E+03   -0.51208E-06    0.15468E-09   108   0.168E-04
  59 F= -.10485096E+03 E0= -.10485096E+03  d E =-.272811E-10
       N       E                     dE             d eps       ncg     rms          rms(c)
DAV:   1    -0.104849679349E+03    0.12839E-02   -0.20254E-01   108   0.117E+00    0.148E-01
DAV:   2    -0.104850450633E+03   -0.77128E-03   -0.94413E-03   132   0.288E-01    0.909E-02
DAV:   3    -0.104850390350E+03    0.60283E-04   -0.17578E-04   144   0.463E-02    0.464E-02
DAV:   4    -0.104850359943E+03    0.30407E-04   -0.61524E-05   132   0.298E-02    0.838E-03
DAV:   5    -0.104850354142E+03    0.58012E-05   -0.12419E-05   132   0.131E-02    0.540E-03
DAV:   6    -0.104850359463E+03   -0.53211E-05   -0.50039E-06   132   0.616E-03    0.299E-03
DAV:   7    -0.104850371845E+03   -0.12382E-04   -0.95106E-07   108   0.285E-03    0.144E-03
DAV:   8    -0.104850390424E+03   -0.18579E-04   -0.17024E-06   120   0.288E-03    0.921E-04
DAV:   9    -0.104850403612E+03   -0.13188E-04   -0.83705E-07   120   0.203E-03    0.631E-04
DAV:  10    -0.104850415803E+03   -0.12191E-04   -0.91337E-07   120   0.187E-03    0.259E-04
DAV:  11    -0.104850419781E+03   -0.39776E-05   -0.98792E-08   108   0.800E-04    0.240E-04
DAV:  12    -0.104850423915E+03   -0.41343E-05   -0.16595E-07    96   0.826E-04    0.977E-05
DAV:  13    -0.104850424698E+03   -0.78265E-06   -0.16139E-08   120   0.336E-04
  60 F= -.10485042E+03 E0= -.10485042E+03  d E =-.205046E-10
       N       E                     dE             d eps       ncg     rms          rms(c)
DAV:   1    -0.104849243937E+03    0.11800E-02   -0.40323E-01   120   0.169E+00    0.205E-01
DAV:   2    -0.104850675060E+03   -0.14311E-02   -0.17837E-02   132   0.389E-01    0.131E-01
DAV:   3    -0.104850553392E+03    0.12167E-03   -0.33886E-04   144   0.649E-02    0.644E-02
DAV:   4    -0.104850494041E+03    0.59351E-04   -0.11838E-04   132   0.403E-02    0.121E-02
DAV:   5    -0.104850488278E+03    0.57635E-05   -0.18962E-05   132   0.165E-02    0.728E-03
DAV:   6    -0.104850508620E+03   -0.20342E-04   -0.12527E-05   132   0.958E-03    0.351E-03
DAV:   7    -0.104850537043E+03   -0.28423E-04   -0.28087E-06   120   0.494E-03    0.209E-03
DAV:   8    -0.104850576192E+03   -0.39149E-04   -0.39838E-06   108   0.412E-03    0.110E-03
DAV:   9    -0.104850597868E+03   -0.21675E-04   -0.16036E-06   120   0.263E-03    0.830E-04
DAV:  10    -0.104850621526E+03   -0.23659E-04   -0.23549E-06   108   0.284E-03    0.469E-04
DAV:  11    -0.104850627945E+03   -0.64192E-05   -0.23935E-07   108   0.115E-03    0.293E-04
DAV:  12    -0.104850633522E+03   -0.55764E-05   -0.27891E-07   108   0.107E-03    0.242E-04
DAV:  13    -0.104850634774E+03   -0.12527E-05   -0.35846E-08   108   0.484E-04    0.125E-04
DAV:  14    -0.104850636038E+03   -0.12636E-05   -0.18365E-08   108   0.379E-04    0.663E-05
DAV:  15    -0.104850636365E+03   -0.32706E-06    0.57064E-10   108   0.187E-04
  61 F= -.10485064E+03 E0= -.10485064E+03  d E =-.105773E-10
       N       E                     dE             d eps       ncg     rms          rms(c)
DAV:   1    -0.104853651133E+03   -0.30151E-02   -0.21719E-01    96   0.144E+00    0.128E-01
DAV:   2    -0.104853981301E+03   -0.33017E-03   -0.53476E-03   132   0.220E-01    0.794E-02
DAV:   3    -0.104853916439E+03    0.64863E-04   -0.15405E-04   132   0.424E-02    0.329E-02
DAV:   4    -0.104853904502E+03    0.11936E-04   -0.58232E-05   132   0.257E-02    0.762E-03
DAV:   5    -0.104853901310E+03    0.31927E-05   -0.50572E-06   132   0.893E-03    0.530E-03
DAV:   6    -0.104853901794E+03   -0.48403E-06   -0.29986E-06   120   0.590E-03
  62 F= -.10485390E+03 E0= -.10485390E+03  d E =-.186506E-10
       N       E                     dE             d eps       ncg     rms          rms(c)
DAV:   1    -0.104854203077E+03   -0.30177E-03   -0.52828E-01    96   0.214E+00    0.175E-01
DAV:   2    -0.104854085542E+03    0.11753E-03   -0.28310E-03   132   0.168E-01    0.978E-02
DAV:   3    -0.104853958305E+03    0.12724E-03   -0.39705E-04   132   0.601E-02    0.201E-02
DAV:   4    -0.104853964343E+03   -0.60381E-05   -0.67614E-05   120   0.261E-02    0.105E-02
DAV:   5    -0.104853966313E+03   -0.19701E-05   -0.28222E-06   144   0.593E-03    0.782E-03
DAV:   6    -0.104853973267E+03   -0.69535E-05   -0.20777E-06   120   0.513E-03    0.170E-03
DAV:   7    -0.104853977852E+03   -0.45856E-05   -0.11298E-06   120   0.319E-03    0.162E-03
DAV:   8    -0.104853980356E+03   -0.25035E-05   -0.10122E-07   108   0.126E-03    0.987E-04
DAV:   9    -0.104853988712E+03   -0.83567E-05   -0.47864E-07   108   0.208E-03    0.848E-04
DAV:  10    -0.104853990684E+03   -0.19718E-05   -0.13755E-07   108   0.100E-03    0.807E-04
DAV:  11    -0.104853992310E+03   -0.16258E-05   -0.33267E-08   108   0.665E-04    0.219E-04
DAV:  12    -0.104853995338E+03   -0.30277E-05   -0.14272E-07   108   0.808E-04    0.527E-04
DAV:  13    -0.104853996230E+03   -0.89212E-06   -0.22557E-08   108   0.475E-04
  63 F= -.10485400E+03 E0= -.10485400E+03  d E =-.134788E-10
       N       E                     dE             d eps       ncg     rms          rms(c)
DAV:   1    -0.104852921655E+03    0.10737E-02   -0.27257E-01    96   0.152E+00    0.148E-01
DAV:   2    -0.104852887522E+03    0.34133E-04   -0.23660E-03   120   0.141E-01    0.799E-02
DAV:   3    -0.104852786875E+03    0.10065E-03   -0.26707E-04   132   0.437E-02    0.232E-02
DAV:   4    -0.104852781833E+03    0.50421E-05   -0.54152E-05   132   0.200E-02    0.844E-03
DAV:   5    -0.104852780572E+03    0.12613E-05   -0.31308E-06   120   0.693E-03    0.399E-03
DAV:   6    -0.104852782164E+03   -0.15916E-05   -0.25396E-06   132   0.525E-03    0.138E-03
DAV:   7    -0.104852784889E+03   -0.27256E-05   -0.63536E-07   108   0.269E-03    0.860E-04
DAV:   8    -0.104852787968E+03   -0.30788E-05   -0.19930E-07   108   0.151E-03    0.492E-04
DAV:   9    -0.104852791324E+03   -0.33556E-05   -0.19614E-07   108   0.122E-03    0.265E-04
DAV:  10    -0.104852794598E+03   -0.32740E-05   -0.18260E-07   108   0.946E-04    0.155E-04
DAV:  11    -0.104852796047E+03   -0.14494E-05   -0.27040E-08   108   0.453E-04    0.102E-04
DAV:  12    -0.104852797380E+03   -0.13325E-05   -0.21442E-08    96   0.331E-04    0.722E-05
DAV:  13    -0.104852797955E+03   -0.57491E-06   -0.35818E-09   108   0.203E-04
  64 F= -.10485280E+03 E0= -.10485280E+03  d E =-.148920E-10
       N       E                     dE             d eps       ncg     rms          rms(c)
DAV:   1    -0.104853248734E+03   -0.45135E-03   -0.53756E-01    96   0.212E+00    0.198E-01
DAV:   2    -0.104853126320E+03    0.12241E-03   -0.39454E-03   120   0.182E-01    0.108E-01
DAV:   3    -0.104852925728E+03    0.20059E-03   -0.48759E-04   132   0.577E-02    0.291E-02
DAV:   4    -0.104852916857E+03    0.88713E-05   -0.79576E-05   132   0.253E-02    0.116E-02
DAV:   5    -0.104852919713E+03   -0.28569E-05   -0.56859E-06   132   0.892E-03    0.575E-03
DAV:   6    -0.104852928384E+03   -0.86709E-05   -0.39633E-06   132   0.643E-03    0.170E-03
DAV:   7    -0.104852936605E+03   -0.82209E-05   -0.12056E-06   132   0.346E-03    0.137E-03
DAV:   8    -0.104852945057E+03   -0.84513E-05   -0.37587E-07    96   0.176E-03    0.655E-04
DAV:   9    -0.104852953944E+03   -0.88871E-05   -0.70398E-07   108   0.179E-03    0.354E-04
DAV:  10    -0.104852959983E+03   -0.60391E-05   -0.39557E-07   108   0.137E-03    0.236E-04
DAV:  11    -0.104852962337E+03   -0.23543E-05   -0.12945E-07   108   0.749E-04    0.151E-04
DAV:  12    -0.104852963975E+03   -0.16378E-05   -0.42614E-08    96   0.454E-04    0.830E-05
DAV:  13    -0.104852964934E+03   -0.95932E-06   -0.27988E-08   108   0.348E-04
  65 F= -.10485296E+03 E0= -.10485296E+03  d E =-.121730E-10
       N       E                     dE             d eps       ncg     rms          rms(c)
DAV:   1    -0.104854123406E+03   -0.11594E-02   -0.27216E-01    96   0.149E+00    0.144E-01
DAV:   2    -0.104854068628E+03    0.54779E-04   -0.22073E-03   144   0.141E-01    0.786E-02
DAV:   3    -0.104853966629E+03    0.10200E-03   -0.27693E-04   132   0.474E-02    0.217E-02
DAV:   4    -0.104853965290E+03    0.13390E-05   -0.64481E-05   132   0.229E-02    0.852E-03
DAV:   5    -0.104853964564E+03    0.72587E-06   -0.27566E-06   132   0.623E-03
  66 F= -.10485396E+03 E0= -.10485396E+03  d E =-.146977E-10
       N       E                     dE             d eps       ncg     rms          rms(c)
DAV:   1    -0.104854298425E+03   -0.33313E-03   -0.53552E-01    96   0.208E+00    0.171E-01
DAV:   2    -0.104854168968E+03    0.12946E-03   -0.28589E-03   144   0.161E-01    0.971E-02
DAV:   3    -0.104854032776E+03    0.13619E-03   -0.44248E-04   132   0.616E-02    0.185E-02
DAV:   4    -0.104854039945E+03   -0.71693E-05   -0.90004E-05   132   0.280E-02    0.968E-03
DAV:   5    -0.104854039285E+03    0.65969E-06   -0.25366E-06   132   0.553E-03
  67 F= -.10485404E+03 E0= -.10485404E+03  d E =-.151892E-10
       N       E                     dE             d eps       ncg     rms          rms(c)
DAV:   1    -0.104854607392E+03   -0.56745E-03   -0.26579E-01    96   0.158E+00    0.118E-01
DAV:   2    -0.104854585026E+03    0.22366E-04   -0.13819E-03   132   0.119E-01    0.687E-02
DAV:   3    -0.104854529504E+03    0.55523E-04   -0.14607E-04   132   0.361E-02    0.102E-02
DAV:   4    -0.104854531292E+03   -0.17883E-05   -0.22051E-05   132   0.147E-02    0.500E-03
DAV:   5    -0.104854531488E+03   -0.19610E-06   -0.52016E-07   108   0.281E-03
  68 F= -.10485453E+03 E0= -.10485453E+03  d E =-.146203E-10
       N       E                     dE             d eps       ncg     rms          rms(c)
DAV:   1    -0.104854736154E+03   -0.20486E-03   -0.52620E-01    96   0.220E+00    0.159E-01
DAV:   2    -0.104854593695E+03    0.14246E-03   -0.18925E-03   132   0.142E-01    0.923E-02
DAV:   3    -0.104854494926E+03    0.98769E-04   -0.36084E-04   132   0.631E-02    0.114E-02
DAV:   4    -0.104854501762E+03   -0.68358E-05   -0.64929E-05   120   0.267E-02    0.931E-03
DAV:   5    -0.104854502011E+03   -0.24945E-06   -0.16562E-06   120   0.460E-03
  69 F= -.10485450E+03 E0= -.10485450E+03  d E =-.143103E-10
       N       E                     dE             d eps       ncg     rms          rms(c)
DAV:   1    -0.104854528638E+03   -0.26877E-04   -0.26654E-01    96   0.156E+00    0.113E-01
DAV:   2    -0.104854462952E+03    0.65686E-04   -0.10387E-03   132   0.976E-02    0.651E-02
DAV:   3    -0.104854411183E+03    0.51769E-04   -0.18115E-04   132   0.386E-02    0.931E-03
DAV:   4    -0.104854412692E+03   -0.15098E-05   -0.25977E-05   132   0.159E-02    0.541E-03
DAV:   5    -0.104854412432E+03    0.25989E-06   -0.78347E-07   108   0.327E-03
  70 F= -.10485441E+03 E0= -.10485441E+03  d E =-.156670E-10
       N       E                     dE             d eps       ncg     rms          rms(c)
DAV:   1    -0.104854629024E+03   -0.21633E-03   -0.53091E-01    96   0.216E+00    0.163E-01
DAV:   2    -0.104854492814E+03    0.13621E-03   -0.20679E-03   120   0.139E-01    0.926E-02
DAV:   3    -0.104854380469E+03    0.11235E-03   -0.34506E-04   132   0.536E-02    0.152E-02
DAV:   4    -0.104854382848E+03   -0.23790E-05   -0.49649E-05   132   0.224E-02    0.809E-03
DAV:   5    -0.104854383002E+03   -0.15377E-06   -0.21974E-06   132   0.509E-03
  71 F= -.10485438E+03 E0= -.10485438E+03  d E =-.111354E-10
       N       E                     dE             d eps       ncg     rms          rms(c)
DAV:   1    -0.104852225977E+03    0.21569E-02   -0.26702E-01    96   0.154E+00    0.123E-01
DAV:   2    -0.104852157777E+03    0.68200E-04   -0.14871E-03   132   0.122E-01    0.692E-02
DAV:   3    -0.104852082234E+03    0.75543E-04   -0.21844E-04   132   0.443E-02    0.145E-02
DAV:   4    -0.104852085162E+03   -0.29281E-05   -0.47035E-05   132   0.203E-02    0.711E-03
DAV:   5    -0.104852086276E+03   -0.11133E-05   -0.13943E-06   132   0.428E-03    0.456E-03
DAV:   6    -0.104852089856E+03   -0.35803E-05   -0.14037E-06   120   0.407E-03    0.821E-04
DAV:   7    -0.104852092070E+03   -0.22140E-05   -0.45217E-07   108   0.218E-03    0.676E-04
DAV:   8    -0.104852095267E+03   -0.31975E-05   -0.17293E-07   108   0.116E-03    0.288E-04
DAV:   9    -0.104852097983E+03   -0.27155E-05   -0.15901E-07   108   0.946E-04    0.254E-04
DAV:  10    -0.104852099696E+03   -0.17132E-05   -0.75197E-08   108   0.684E-04    0.123E-04
[...]
 131 F= -.10485446E+03 E0= -.10485446E+03  d E =-.171017E-10
       N       E                     dE             d eps       ncg     rms          rms(c)
DAV:   1    -0.104854189205E+03    0.26522E-03   -0.27064E-01    96   0.167E+00    0.138E-01
DAV:   2    -0.104854074132E+03    0.11507E-03   -0.14555E-03   132   0.128E-01    0.780E-02
DAV:   3    -0.104853997775E+03    0.76357E-04   -0.21631E-04   132   0.455E-02    0.175E-02
DAV:   4    -0.104854001126E+03   -0.33506E-05   -0.33790E-05   132   0.187E-02    0.703E-03
DAV:   5    -0.104854001512E+03   -0.38599E-06   -0.14084E-06   108   0.462E-03
 132 F= -.10485400E+03 E0= -.10485400E+03  d E =-.146798E-10
       N       E                     dE             d eps       ncg     rms          rms(c)
DAV:   1    -0.104854532584E+03   -0.53146E-03   -0.55091E-01    96   0.232E+00    0.223E-01
DAV:   2    -0.104854234059E+03    0.29853E-03   -0.32044E-03   132   0.190E-01    0.118E-01
DAV:   3    -0.104854053624E+03    0.18043E-03   -0.48093E-04   132   0.672E-02    0.355E-02
DAV:   4    -0.104854055878E+03   -0.22536E-05   -0.10428E-04   120   0.314E-02    0.123E-02
DAV:   5    -0.104854055056E+03    0.82195E-06   -0.53975E-06   132   0.924E-03
 133 F= -.10485406E+03 E0= -.10485406E+03  d E =-.136617E-10
       N       E                     dE             d eps       ncg     rms          rms(c)
DAV:   1    -0.104853988773E+03    0.67105E-04   -0.27647E-01    96   0.205E+00    0.161E-01
DAV:   2    -0.104853886127E+03    0.10265E-03   -0.20154E-03   120   0.168E-01    0.852E-02
DAV:   3    -0.104853796851E+03    0.89277E-04   -0.21061E-04   132   0.481E-02    0.283E-02
DAV:   4    -0.104853796367E+03    0.48331E-06   -0.59771E-05   132   0.243E-02    0.808E-03
DAV:   5    -0.104853795621E+03    0.74595E-06   -0.39961E-06   132   0.777E-03
 134 F= -.10485380E+03 E0= -.10485380E+03  d E =-.144258E-10
       N       E                     dE             d eps       ncg     rms          rms(c)
DAV:   1    -0.104854448970E+03   -0.65260E-03   -0.55375E-01    96   0.254E+00    0.232E-01
DAV:   2    -0.104854107418E+03    0.34155E-03   -0.32392E-03   120   0.204E-01    0.120E-01
DAV:   3    -0.104853902435E+03    0.20498E-03   -0.45805E-04   132   0.640E-02    0.372E-02
DAV:   4    -0.104853896303E+03    0.61320E-05   -0.10056E-04   132   0.307E-02    0.120E-02
DAV:   5    -0.104853896664E+03   -0.36121E-06   -0.63570E-06   132   0.103E-02
 135 F= -.10485390E+03 E0= -.10485390E+03  d E =-.122350E-10
       N       E                     dE             d eps       ncg     rms          rms(c)
DAV:   1    -0.104853171627E+03    0.72468E-03   -0.29060E-01   108   0.188E+00    0.214E-01
DAV:   2    -0.104852919904E+03    0.25172E-03   -0.24577E-03   132   0.181E-01    0.102E-01
DAV:   3    -0.104852778910E+03    0.14099E-03   -0.38863E-04   132   0.645E-02    0.367E-02
DAV:   4    -0.104852777928E+03    0.98164E-06   -0.11719E-04   132   0.344E-02    0.147E-02
DAV:   5    -0.104852776664E+03    0.12641E-05   -0.54310E-06   132   0.980E-03    0.654E-03
DAV:   6    -0.104852776737E+03   -0.73313E-07   -0.25852E-06   132   0.615E-03
 136 F= -.10485278E+03 E0= -.10485278E+03  d E =-.140848E-10
       N       E                     dE             d eps       ncg     rms          rms(c)
DAV:   1    -0.104853595174E+03   -0.81851E-03   -0.57417E-01    96   0.267E+00    0.274E-01
DAV:   2    -0.104853049748E+03    0.54543E-03   -0.46459E-03   132   0.253E-01    0.138E-01
DAV:   3    -0.104852755345E+03    0.29440E-03   -0.84442E-04   132   0.935E-02    0.447E-02
DAV:   4    -0.104852756186E+03   -0.84065E-06   -0.19861E-04   132   0.467E-02    0.206E-02
DAV:   5    -0.104852755622E+03    0.56342E-06   -0.79713E-06   132   0.111E-02
 137 F= -.10485276E+03 E0= -.10485276E+03  d E =-.130334E-10
       N       E                     dE             d eps       ncg     rms          rms(c)
DAV:   1    -0.104854381750E+03   -0.16256E-02   -0.28915E-01    96   0.185E+00    0.210E-01
DAV:   2    -0.104854104088E+03    0.27766E-03   -0.23297E-03   132   0.179E-01    0.100E-01
DAV:   3    -0.104853967623E+03    0.13647E-03   -0.41415E-04   132   0.654E-02    0.345E-02
DAV:   4    -0.104853967919E+03   -0.29625E-06   -0.10810E-04   132   0.332E-02    0.138E-02
DAV:   5    -0.104853967192E+03    0.72646E-06   -0.45448E-06   132   0.893E-03
 138 F= -.10485397E+03 E0= -.10485397E+03  d E =-.150442E-10
       N       E                     dE             d eps       ncg     rms          rms(c)
DAV:   1    -0.104854453388E+03   -0.48547E-03   -0.54806E-01    96   0.261E+00    0.227E-01
DAV:   2    -0.104854129342E+03    0.32405E-03   -0.33057E-03   132   0.205E-01    0.120E-01
DAV:   3    -0.104853932040E+03    0.19730E-03   -0.48073E-04   144   0.685E-02    0.351E-02
DAV:   4    -0.104853933029E+03   -0.98950E-06   -0.97540E-05   132   0.316E-02    0.129E-02
DAV:   5    -0.104853933300E+03   -0.27044E-06   -0.54605E-06   132   0.929E-03
 139 F= -.10485393E+03 E0= -.10485393E+03  d E =-.126850E-10
       N       E                     dE             d eps       ncg     rms          rms(c)
DAV:   1    -0.104853795969E+03    0.13706E-03   -0.27704E-01    96   0.197E+00    0.166E-01
DAV:   2    -0.104853679178E+03    0.11679E-03   -0.17892E-03   132   0.151E-01    0.876E-02
DAV:   3    -0.104853589427E+03    0.89751E-04   -0.27127E-04   132   0.475E-02    0.265E-02
DAV:   4    -0.104853586799E+03    0.26273E-05   -0.43835E-05   132   0.202E-02    0.109E-02
DAV:   5    -0.104853585202E+03    0.15971E-05   -0.24402E-06   144   0.711E-03    0.564E-03
DAV:   6    -0.104853585063E+03    0.13898E-06   -0.23214E-06   132   0.619E-03
 140 F= -.10485359E+03 E0= -.10485359E+03  d E =-.148825E-10
       N       E                     dE             d eps       ncg     rms          rms(c)
DAV:   1    -0.104854136385E+03   -0.55118E-03   -0.55771E-01    96   0.274E+00    0.245E-01
DAV:   2    -0.104853799632E+03    0.33675E-03   -0.36337E-03   120   0.215E-01    0.125E-01
DAV:   3    -0.104853573439E+03    0.22619E-03   -0.49179E-04   132   0.666E-02    0.424E-02
DAV:   4    -0.104853563662E+03    0.97766E-05   -0.13155E-04   132   0.345E-02    0.131E-02
DAV:   5    -0.104853564008E+03   -0.34583E-06   -0.82943E-06   132   0.118E-02
 141 F= -.10485356E+03 E0= -.10485356E+03  d E =-.115219E-10
       N       E                     dE             d eps       ncg     rms          rms(c)
DAV:   1    -0.104852713105E+03    0.85056E-03   -0.27340E-01    96   0.186E+00    0.138E-01
DAV:   2    -0.104852580035E+03    0.13307E-03   -0.14542E-03   132   0.133E-01    0.786E-02
DAV:   3    -0.104852494194E+03    0.85840E-04   -0.26478E-04   132   0.525E-02    0.160E-02
DAV:   4    -0.104852499335E+03   -0.51412E-05   -0.47886E-05   132   0.233E-02    0.848E-03
DAV:   5    -0.104852499898E+03   -0.56223E-06   -0.12246E-06   120   0.425E-03
 142 F= -.10485250E+03 E0= -.10485250E+03  d E =-.128626E-10
       N       E                     dE             d eps       ncg     rms          rms(c)
DAV:   1    -0.104853374684E+03   -0.87535E-03   -0.58096E-01   108   0.276E+00    0.284E-01
DAV:   2    -0.104852835977E+03    0.53871E-03   -0.47780E-03   144   0.261E-01    0.143E-01
DAV:   3    -0.104852522370E+03    0.31361E-03   -0.87440E-04   120   0.984E-02    0.471E-02
DAV:   4    -0.104852524810E+03   -0.24405E-05   -0.24151E-04   120   0.509E-02    0.212E-02
DAV:   5    -0.104852522749E+03    0.20608E-05   -0.91773E-06   120   0.121E-02    0.912E-03
DAV:   6    -0.104852522831E+03   -0.81533E-07   -0.53163E-06   132   0.885E-03
 143 F= -.10485252E+03 E0= -.10485252E+03  d E =-.144002E-10
       N       E                     dE             d eps       ncg     rms          rms(c)
DAV:   1    -0.104854802783E+03   -0.22800E-02   -0.28148E-01    96   0.191E+00    0.167E-01
DAV:   2    -0.104854582901E+03    0.21988E-03   -0.18346E-03   132   0.156E-01    0.893E-02
DAV:   3    -0.104854470578E+03    0.11232E-03   -0.32939E-04   132   0.604E-02    0.256E-02
DAV:   4    -0.104854475739E+03   -0.51606E-05   -0.80509E-05   132   0.297E-02    0.117E-02
DAV:   5    -0.104854475958E+03   -0.21911E-06   -0.26803E-06   132   0.650E-03
 144 F= -.10485448E+03 E0= -.10485448E+03  d E =-.148985E-10
       N       E                     dE             d eps       ncg     rms          rms(c)
DAV:   1    -0.104854895640E+03   -0.41990E-03   -0.54134E-01    96   0.271E+00    0.199E-01
DAV:   2    -0.104854643517E+03    0.25212E-03   -0.29286E-03   132   0.189E-01    0.113E-01
DAV:   3    -0.104854472353E+03    0.17116E-03   -0.44774E-04   132   0.670E-02    0.241E-02
DAV:   4    -0.104854477411E+03   -0.50580E-05   -0.70233E-05   132   0.277E-02    0.101E-02
DAV:   5    -0.104854477885E+03   -0.47346E-06   -0.31232E-06   132   0.659E-03
 145 F= -.10485448E+03 E0= -.10485448E+03  d E =-.124166E-10
       N       E                     dE             d eps       ncg     rms          rms(c)
DAV:   1    -0.104853863775E+03    0.61364E-03   -0.27687E-01    96   0.206E+00    0.156E-01
DAV:   2    -0.104853733805E+03    0.12997E-03   -0.20277E-03   132   0.167E-01    0.859E-02
DAV:   3    -0.104853635065E+03    0.98739E-04   -0.28183E-04   132   0.571E-02    0.252E-02
DAV:   4    -0.104853639626E+03   -0.45606E-05   -0.74866E-05   132   0.282E-02    0.106E-02
DAV:   5    -0.104853639304E+03    0.32227E-06   -0.24282E-06   120   0.657E-03
 146 F= -.10485364E+03 E0= -.10485364E+03  d E =-.146411E-10
       N       E                     dE             d eps       ncg     rms          rms(c)
DAV:   1    -0.104854205496E+03   -0.56587E-03   -0.56144E-01    96   0.255E+00    0.238E-01
DAV:   2    -0.104853790670E+03    0.41483E-03   -0.39133E-03   132   0.214E-01    0.127E-01
DAV:   3    -0.104853541025E+03    0.24965E-03   -0.68654E-04   132   0.811E-02    0.359E-02
DAV:   4    -0.104853546409E+03   -0.53839E-05   -0.15929E-04   132   0.396E-02    0.168E-02
DAV:   5    -0.104853545565E+03    0.84311E-06   -0.56954E-06   132   0.898E-03
 147 F= -.10485355E+03 E0= -.10485355E+03  d E =-.125207E-10
       N       E                     dE             d eps       ncg     rms          rms(c)
DAV:   1    -0.104852739070E+03    0.80734E-03   -0.27274E-01    96   0.181E+00    0.142E-01
DAV:   2    -0.104852602955E+03    0.13612E-03   -0.13794E-03   120   0.121E-01    0.781E-02
DAV:   3    -0.104852513420E+03    0.89535E-04   -0.21226E-04   132   0.423E-02    0.193E-02
DAV:   4    -0.104852515413E+03   -0.19935E-05   -0.37084E-05   132   0.189E-02    0.679E-03
DAV:   5    -0.104852516618E+03   -0.12045E-05   -0.18435E-06   132   0.503E-03    0.443E-03
DAV:   6    -0.104852518931E+03   -0.23127E-05   -0.75573E-07    96   0.311E-03    0.989E-04
DAV:   7    -0.104852520553E+03   -0.16225E-05   -0.26834E-07   108   0.182E-03    0.641E-04
DAV:   8    -0.104852523047E+03   -0.24939E-05   -0.11387E-07    96   0.137E-03    0.248E-04
DAV:   9    -0.104852525182E+03   -0.21350E-05   -0.14191E-07   108   0.116E-03    0.258E-04
DAV:  10    -0.104852526919E+03   -0.17369E-05   -0.75657E-08   108   0.778E-04    0.160E-04
DAV:  11    -0.104852527722E+03   -0.80323E-06   -0.24262E-08   108   0.417E-04
 148 F= -.10485253E+03 E0= -.10485253E+03  d E =-.120208E-10
       N       E                     dE             d eps       ncg     rms          rms(c)
DAV:   1    -0.104853168963E+03   -0.64204E-03   -0.57820E-01    96   0.252E+00    0.293E-01
DAV:   2    -0.104852683419E+03    0.48554E-03   -0.42708E-03   132   0.213E-01    0.141E-01
DAV:   3    -0.104852390589E+03    0.29283E-03   -0.74059E-04   132   0.771E-02    0.505E-02
DAV:   4    -0.104852375605E+03    0.14984E-04   -0.18271E-04   144   0.396E-02    0.180E-02
DAV:   5    -0.104852372500E+03    0.31050E-05   -0.94204E-06   132   0.126E-02    0.701E-03
DAV:   6    -0.104852374175E+03   -0.16749E-05   -0.46692E-06   132   0.744E-03    0.298E-03
DAV:   7    -0.104852377114E+03   -0.29388E-05   -0.93514E-07   120   0.344E-03    0.113E-03
DAV:   8    -0.104852381345E+03   -0.42312E-05   -0.28935E-07   108   0.201E-03    0.708E-04
DAV:   9    -0.104852385040E+03   -0.36951E-05   -0.24400E-07   108   0.150E-03    0.604E-04
DAV:  10    -0.104852390796E+03   -0.57560E-05   -0.32188E-07   108   0.138E-03    0.270E-04
DAV:  11    -0.104852392297E+03   -0.15010E-05   -0.56651E-08   120   0.687E-04    0.207E-04
DAV:  12    -0.104852393532E+03   -0.12352E-05   -0.89531E-09   108   0.327E-04    0.125E-04
DAV:  13    -0.104852395747E+03   -0.22149E-05   -0.49735E-08    96   0.460E-04    0.797E-05
DAV:  14    -0.104852396311E+03   -0.56427E-06   -0.25413E-09   108   0.209E-04
 149 F= -.10485240E+03 E0= -.10485240E+03  d E =-.144481E-10
       N       E                     dE             d eps       ncg     rms          rms(c)
DAV:   1    -0.104854818190E+03   -0.24224E-02   -0.27863E-01    96   0.177E+00    0.170E-01
DAV:   2    -0.104854606110E+03    0.21208E-03   -0.17370E-03   132   0.143E-01    0.888E-02
DAV:   3    -0.104854493865E+03    0.11225E-03   -0.28557E-04   144   0.511E-02    0.270E-02
DAV:   4    -0.104854495047E+03   -0.11819E-05   -0.59314E-05   144   0.241E-02    0.106E-02
DAV:   5    -0.104854495935E+03   -0.88810E-06   -0.34172E-06   132   0.728E-03
 150 F= -.10485450E+03 E0= -.10485450E+03  d E =-.136377E-10
       N       E                     dE             d eps       ncg     rms          rms(c)
DAV:   1    -0.104854919401E+03   -0.42435E-03   -0.54323E-01    96   0.253E+00    0.201E-01
DAV:   2    -0.104854633606E+03    0.28580E-03   -0.27662E-03   132   0.175E-01    0.112E-01
DAV:   3    -0.104854458569E+03    0.17504E-03   -0.45346E-04   132   0.644E-02    0.241E-02
DAV:   4    -0.104854465032E+03   -0.64634E-05   -0.71403E-05   120   0.267E-02    0.884E-03
DAV:   5    -0.104854466435E+03   -0.14031E-05   -0.33656E-06   132   0.653E-03    0.621E-03
DAV:   6    -0.104854470026E+03   -0.35906E-05   -0.16248E-06   120   0.407E-03    0.118E-03
DAV:   7    -0.104854472192E+03   -0.21659E-05   -0.33021E-07   108   0.198E-03    0.944E-04
DAV:   8    -0.104854475397E+03   -0.32049E-05   -0.12629E-07   108   0.157E-03    0.359E-04
DAV:   9    -0.104854478830E+03   -0.34336E-05   -0.21147E-07   108   0.160E-03    0.444E-04
DAV:  10    -0.104854481002E+03   -0.21712E-05   -0.10767E-07   108   0.940E-04    0.228E-04
DAV:  11    -0.104854482182E+03   -0.11808E-05   -0.31847E-08   108   0.469E-04    0.185E-04
DAV:  12    -0.104854482950E+03   -0.76730E-06   -0.14274E-08   108   0.332E-04
 151 F= -.10485448E+03 E0= -.10485448E+03  d E =-.114343E-10
       N       E                     dE             d eps       ncg     rms          rms(c)
DAV:   1    -0.104852557939E+03    0.19242E-02   -0.28090E-01    96   0.184E+00    0.181E-01
DAV:   2    -0.104852335215E+03    0.22272E-03   -0.22943E-03   132   0.166E-01    0.904E-02
DAV:   3    -0.104852202876E+03    0.13234E-03   -0.35212E-04   132   0.592E-02    0.309E-02
DAV:   4    -0.104852206165E+03   -0.32883E-05   -0.97072E-05   132   0.310E-02    0.106E-02
DAV:   5    -0.104852207274E+03   -0.11095E-05   -0.49505E-06   132   0.820E-03    0.618E-03
DAV:   6    -0.104852209030E+03   -0.17560E-05   -0.17348E-06   132   0.458E-03    0.133E-03
DAV:   7    -0.104852210191E+03   -0.11604E-05   -0.34968E-07   108   0.223E-03    0.666E-04
DAV:   8    -0.104852211975E+03   -0.17846E-05   -0.73550E-08   108   0.104E-03    0.241E-04
DAV:   9    -0.104852213232E+03   -0.12570E-05   -0.41430E-08   108   0.696E-04    0.193E-04
DAV:  10    -0.104852215051E+03   -0.18191E-05   -0.71883E-08   108   0.712E-04    0.870E-05
DAV:  11    -0.104852215654E+03   -0.60311E-06   -0.18398E-08   108   0.425E-04
 152 F= -.10485222E+03 E0= -.10485222E+03  d E =-.128241E-10
       N       E                     dE             d eps       ncg     rms          rms(c)
DAV:   1    -0.104853011425E+03   -0.79637E-03   -0.58477E-01    96   0.264E+00    0.293E-01
DAV:   2    -0.104852438326E+03    0.57310E-03   -0.48934E-03   132   0.236E-01    0.147E-01
DAV:   3    -0.104852107876E+03    0.33045E-03   -0.92018E-04   132   0.910E-02    0.476E-02
DAV:   4    -0.104852107393E+03    0.48315E-06   -0.22875E-04   132   0.459E-02    0.213E-02
DAV:   5    -0.104852105267E+03    0.21266E-05   -0.91840E-06   132   0.118E-02    0.911E-03
DAV:   6    -0.104852106598E+03   -0.13315E-05   -0.57799E-06   132   0.864E-03    0.218E-03
DAV:   7    -0.104852109245E+03   -0.26470E-05   -0.15913E-06   132   0.426E-03    0.133E-03
DAV:   8    -0.104852112995E+03   -0.37501E-05   -0.17698E-07   108   0.120E-03    0.570E-04
DAV:   9    -0.104852116036E+03   -0.30413E-05   -0.14228E-07   108   0.115E-03    0.445E-04
DAV:  10    -0.104852120357E+03   -0.43205E-05   -0.23388E-07   108   0.138E-03    0.629E-04
DAV:  11    -0.104852122441E+03   -0.20844E-05   -0.90555E-08   108   0.820E-04    0.274E-04
DAV:  12    -0.104852123324E+03   -0.88310E-06   -0.10711E-08   120   0.441E-04
 153 F= -.10485212E+03 E0= -.10485212E+03  d E =-.141741E-10
       N       E                     dE             d eps       ncg     rms          rms(c)
DAV:   1    -0.104854842483E+03   -0.27200E-02   -0.28562E-01    96   0.176E+00    0.196E-01
DAV:   2    -0.104854574812E+03    0.26767E-03   -0.19477E-03   120   0.147E-01    0.960E-02
DAV:   3    -0.104854438245E+03    0.13657E-03   -0.34302E-04   132   0.518E-02    0.332E-02
DAV:   4    -0.104854434259E+03    0.39859E-05   -0.75781E-05   132   0.258E-02    0.118E-02
DAV:   5    -0.104854435688E+03   -0.14290E-05   -0.38356E-06   132   0.829E-03    0.559E-03
DAV:   6    -0.104854439783E+03   -0.40955E-05   -0.26328E-06   132   0.575E-03    0.148E-03
DAV:   7    -0.104854442396E+03   -0.26129E-05   -0.58750E-07   108   0.288E-03    0.879E-04
DAV:   8    -0.104854447019E+03   -0.46223E-05   -0.24442E-07   108   0.146E-03    0.438E-04
DAV:   9    -0.104854449399E+03   -0.23805E-05   -0.11154E-07   108   0.118E-03    0.389E-04
DAV:  10    -0.104854452878E+03   -0.34786E-05   -0.20971E-07    96   0.124E-03    0.317E-04
DAV:  11    -0.104854454239E+03   -0.13616E-05   -0.87114E-08   108   0.782E-04    0.140E-04
DAV:  12    -0.104854454857E+03   -0.61714E-06   -0.13847E-08    96   0.412E-04
 154 F= -.10485445E+03 E0= -.10485445E+03  d E =-.122652E-10
       N       E                     dE             d eps       ncg     rms          rms(c)
DAV:   1    -0.104854832773E+03   -0.37853E-03   -0.55036E-01    96   0.254E+00    0.204E-01
DAV:   2    -0.104854560849E+03    0.27192E-03   -0.28032E-03   120   0.169E-01    0.113E-01
DAV:   3    -0.104854369428E+03    0.19142E-03   -0.44991E-04   132   0.604E-02    0.286E-02
DAV:   4    -0.104854371174E+03   -0.17457E-05   -0.80669E-05   132   0.276E-02    0.936E-03
DAV:   5    -0.104854370475E+03    0.69870E-06   -0.36440E-06   132   0.699E-03
 155 F= -.10485437E+03 E0= -.10485437E+03  d E =-.160941E-10
       N       E                     dE             d eps       ncg     rms          rms(c)
DAV:   1    -0.104854223499E+03    0.14767E-03   -0.27363E-01    96   0.179E+00    0.146E-01
DAV:   2    -0.104854075383E+03    0.14812E-03   -0.15051E-03   132   0.128E-01    0.818E-02
DAV:   3    -0.104853990171E+03    0.85211E-04   -0.25060E-04   132   0.494E-02    0.173E-02
DAV:   4    -0.104853996279E+03   -0.61072E-05   -0.45664E-05   132   0.213E-02    0.782E-03
DAV:   5    -0.104853997163E+03   -0.88411E-06   -0.16915E-06   132   0.493E-03
 156 F= -.10485400E+03 E0= -.10485400E+03  d E =-.178048E-10
       N       E                     dE             d eps       ncg     rms          rms(c)
DAV:   1    -0.104854469242E+03   -0.47296E-03   -0.54861E-01    96   0.252E+00    0.227E-01
DAV:   2    -0.104854141641E+03    0.32760E-03   -0.32552E-03   132   0.190E-01    0.120E-01
DAV:   3    -0.104853934947E+03    0.20669E-03   -0.49427E-04   132   0.657E-02    0.346E-02
DAV:   4    -0.104853936584E+03   -0.16365E-05   -0.95197E-05   144   0.300E-02    0.116E-02
DAV:   5    -0.104853937257E+03   -0.67384E-06   -0.58791E-06   132   0.922E-03
 157 F= -.10485394E+03 E0= -.10485394E+03  d E =-.107705E-10
