       N       E                     dE             d eps       ncg     rms          rms(c)
DAV:   1     0.195791703725E+03    0.19579E+03   -0.10505E+04   116   0.546E+02
DAV:   2    -0.333174257275E+02   -0.22911E+03   -0.21399E+03   144   0.102E+02
DAV:   3    -0.105529276516E+03   -0.72212E+02   -0.72040E+02   112   0.534E+01
DAV:   4    -0.109535212576E+03   -0.40059E+01   -0.39907E+01   104   0.178E+01
DAV:   5    -0.109625491358E+03   -0.90279E-01   -0.90216E-01   136   0.298E+00    0.156E+01
DAV:   6    -0.106328870264E+03    0.32966E+01   -0.16128E+00   102   0.462E+00    0.908E+00
DAV:   7    -0.104590410121E+03    0.17385E+01   -0.42285E+00   104   0.684E+00    0.123E+00
DAV:   8    -0.104542831453E+03    0.47579E-01   -0.27000E-01   104   0.221E+00    0.635E-01
DAV:   9    -0.104506749123E+03    0.36082E-01   -0.82336E-02   120   0.831E-01    0.357E-01
DAV:  10    -0.104507191021E+03   -0.44190E-03   -0.36525E-03   112   0.244E-01    0.175E-01
DAV:  11    -0.104507117967E+03    0.73054E-04   -0.68352E-03   104   0.241E-01    0.747E-02
DAV:  12    -0.104510762958E+03   -0.36450E-02   -0.90329E-04    96   0.930E-02    0.572E-02
DAV:  13    -0.104515664815E+03   -0.49019E-02   -0.20079E-03   104   0.113E-01    0.334E-02
DAV:  14    -0.104519848229E+03   -0.41834E-02   -0.39488E-04   112   0.547E-02    0.162E-02
DAV:  15    -0.104524639975E+03   -0.47917E-02   -0.63437E-04   112   0.655E-02    0.158E-02
DAV:  16    -0.104525323173E+03   -0.68320E-03   -0.25644E-05   112   0.163E-02    0.740E-03
DAV:  17    -0.104526437808E+03   -0.11146E-02   -0.90130E-05   102   0.230E-02    0.297E-03
DAV:  18    -0.104526711349E+03   -0.27354E-03   -0.90977E-06   104   0.839E-03    0.212E-03
DAV:  19    -0.104526913168E+03   -0.20182E-03   -0.72801E-06    96   0.673E-03    0.180E-03
DAV:  20    -0.104526961901E+03   -0.48732E-04   -0.93337E-07    88   0.347E-03    0.585E-04
DAV:  21    -0.104526991953E+03   -0.30052E-04   -0.95486E-07    80   0.259E-03    0.642E-04
DAV:  22    -0.104526998852E+03   -0.68996E-05   -0.18782E-07    88   0.148E-03    0.244E-04
DAV:  23    -0.104527001807E+03   -0.29545E-05   -0.61853E-08    88   0.730E-04    0.180E-04
DAV:  24    -0.104527005011E+03   -0.32047E-05   -0.45223E-08    80   0.572E-04    0.966E-05
DAV:  25    -0.104527005566E+03   -0.55473E-06   -0.12706E-08    80   0.325E-04
   1 F= -.10452701E+03 E0= -.10452701E+03  d E =-.104527E+03
       N       E                     dE             d eps       ncg     rms          rms(c)
DAV:   1    -0.104732649124E+03   -0.20564E+00   -0.85071E+00    84   0.126E+01    0.122E+00
DAV:   2    -0.104754512508E+03   -0.21863E-01   -0.32949E-01   120   0.229E+00    0.640E-01
DAV:   3    -0.104748243784E+03    0.62687E-02   -0.15545E-02   120   0.488E-01    0.300E-01
DAV:   4    -0.104746936214E+03    0.13076E-02   -0.69449E-03   112   0.275E-01    0.679E-02
DAV:   5    -0.104746822002E+03    0.11421E-03   -0.42019E-04   112   0.908E-02    0.400E-02
DAV:   6    -0.104746901014E+03   -0.79012E-04   -0.16071E-04   120   0.498E-02    0.181E-02
DAV:   7    -0.104747102514E+03   -0.20150E-03   -0.64410E-05   104   0.317E-02    0.105E-02
DAV:   8    -0.104747192187E+03   -0.89673E-04   -0.12181E-05   112   0.130E-02    0.839E-03
DAV:   9    -0.104747303256E+03   -0.11107E-03   -0.42748E-06   104   0.606E-03    0.300E-03
DAV:  10    -0.104747432404E+03   -0.12915E-03   -0.10987E-05   112   0.825E-03    0.262E-03
DAV:  11    -0.104747489389E+03   -0.56985E-04   -0.22991E-06    96   0.539E-03    0.166E-03
DAV:  12    -0.104747543662E+03   -0.54274E-04   -0.32125E-06   104   0.441E-03    0.832E-04
DAV:  13    -0.104747563414E+03   -0.19752E-04   -0.27957E-07    88   0.189E-03    0.527E-04
DAV:  14    -0.104747585795E+03   -0.22382E-04   -0.66927E-07    88   0.191E-03    0.475E-04
DAV:  15    -0.104747593264E+03   -0.74688E-05   -0.11743E-07    88   0.912E-04    0.150E-04
DAV:  16    -0.104747598145E+03   -0.48805E-05   -0.89366E-08    88   0.761E-04    0.235E-04
DAV:  17    -0.104747599259E+03   -0.11145E-05   -0.16265E-08    88   0.427E-04    0.542E-05
DAV:  18    -0.104747600533E+03   -0.12740E-05   -0.28691E-08    80   0.431E-04    0.795E-05
DAV:  19    -0.104747600706E+03   -0.17300E-06   -0.26819E-09    72   0.186E-04
   2 F= -.10474760E+03 E0= -.10474760E+03  d E =-.220595E+00
       N       E                     dE             d eps       ncg     rms          rms(c)
DAV:   1    -0.104748980407E+03   -0.13799E-02   -0.45536E-02    84   0.930E-01    0.877E-02
DAV:   2    -0.104749078016E+03   -0.97609E-04   -0.17340E-03   120   0.165E-01    0.484E-02
DAV:   3    -0.104749036828E+03    0.41188E-04   -0.87283E-05   120   0.361E-02    0.232E-02
DAV:   4    -0.104749022930E+03    0.13898E-04   -0.36254E-05   112   0.199E-02    0.579E-03
DAV:   5    -0.104749022512E+03    0.41747E-06   -0.19984E-06    88   0.657E-03
   3 F= -.10474902E+03 E0= -.10474902E+03  d E =-.222017E+00
       N       E                     dE             d eps       ncg     rms          rms(c)
DAV:   1    -0.104813638743E+03   -0.64616E-01   -0.14059E+00    84   0.514E+00    0.490E-01
DAV:   2    -0.104819813960E+03   -0.61752E-02   -0.77698E-02   112   0.108E+00    0.255E-01
DAV:   3    -0.104819219949E+03    0.59401E-03   -0.34157E-03   128   0.245E-01    0.128E-01
DAV:   4    -0.104819256589E+03   -0.36640E-04   -0.11320E-03   112   0.125E-01    0.449E-02
DAV:   5    -0.104819239694E+03    0.16895E-04   -0.79748E-05   120   0.397E-02    0.238E-02
DAV:   6    -0.104819229931E+03    0.97628E-05   -0.31927E-05   120   0.234E-02    0.938E-03
DAV:   7    -0.104819241693E+03   -0.11762E-04   -0.13635E-05    96   0.147E-02    0.390E-03
DAV:   8    -0.104819250477E+03   -0.87835E-05   -0.17958E-06    96   0.554E-03    0.264E-03
DAV:   9    -0.104819259398E+03   -0.89215E-05   -0.44121E-07    80   0.227E-03    0.129E-03
DAV:  10    -0.104819275748E+03   -0.16350E-04   -0.14155E-06    88   0.358E-03    0.105E-03
DAV:  11    -0.104819281925E+03   -0.61771E-05   -0.33920E-07    88   0.196E-03    0.608E-04
DAV:  12    -0.104819290144E+03   -0.82183E-05   -0.56609E-07    80   0.202E-03    0.266E-04
DAV:  13    -0.104819292877E+03   -0.27333E-05   -0.14842E-07    88   0.113E-03    0.327E-04
DAV:  14    -0.104819295660E+03   -0.27826E-05   -0.91883E-08    88   0.924E-04    0.115E-04
DAV:  15    -0.104819296593E+03   -0.93311E-06   -0.39560E-08    88   0.498E-04
   4 F= -.10481930E+03 E0= -.10481930E+03  d E =-.702741E-01
       N       E                     dE             d eps       ncg     rms          rms(c)
DAV:   1    -0.104831619270E+03   -0.12324E-01   -0.71880E-01    84   0.369E+00    0.348E-01
DAV:   2    -0.104834798489E+03   -0.31792E-02   -0.40190E-02   112   0.782E-01    0.184E-01
DAV:   3    -0.104834489109E+03    0.30938E-03   -0.17916E-03   128   0.178E-01    0.921E-02
DAV:   4    -0.104834514698E+03   -0.25588E-04   -0.58991E-04   112   0.901E-02    0.337E-02
DAV:   5    -0.104834504491E+03    0.10206E-04   -0.40284E-05   120   0.284E-02    0.174E-02
DAV:   6    -0.104834497836E+03    0.66554E-05   -0.17766E-05   120   0.173E-02    0.652E-03
DAV:   7    -0.104834503052E+03   -0.52162E-05   -0.69658E-06    96   0.104E-02    0.292E-03
DAV:   8    -0.104834507392E+03   -0.43398E-05   -0.78469E-07    88   0.373E-03    0.182E-03
DAV:   9    -0.104834513079E+03   -0.56873E-05   -0.30526E-07    80   0.193E-03    0.762E-04
DAV:  10    -0.104834520902E+03   -0.78222E-05   -0.51842E-07    80   0.230E-03    0.641E-04
DAV:  11    -0.104834527993E+03   -0.70914E-05   -0.52122E-07    80   0.211E-03    0.286E-04
DAV:  12    -0.104834530729E+03   -0.27363E-05   -0.18164E-07    88   0.128E-03    0.236E-04
DAV:  13    -0.104834531794E+03   -0.10644E-05   -0.26661E-08    88   0.630E-04    0.157E-04
DAV:  14    -0.104834533775E+03   -0.19817E-05   -0.79075E-08    80   0.725E-04    0.108E-04
DAV:  15    -0.104834534129E+03   -0.35418E-06   -0.10062E-08    88   0.301E-04
   5 F= -.10483453E+03 E0= -.10483453E+03  d E =-.855116E-01
       N       E                     dE             d eps       ncg     rms          rms(c)
DAV:   1    -0.104850510641E+03   -0.15977E-01   -0.61398E-01    84   0.350E+00    0.308E-01
DAV:   2    -0.104852222225E+03   -0.17116E-02   -0.25042E-02   112   0.645E-01    0.169E-01
DAV:   3    -0.104851965000E+03    0.25722E-03   -0.10075E-03   128   0.129E-01    0.886E-02
DAV:   4    -0.104851902023E+03    0.62977E-04   -0.34972E-04   104   0.687E-02    0.229E-02
DAV:   5    -0.104851885458E+03    0.16565E-04   -0.41227E-05   112   0.259E-02    0.134E-02
DAV:   6    -0.104851893291E+03   -0.78326E-05   -0.11755E-05   120   0.123E-02    0.598E-03
DAV:   7    -0.104851918831E+03   -0.25540E-04   -0.32909E-06   104   0.682E-03    0.214E-03
DAV:   8    -0.104851940988E+03   -0.22158E-04   -0.89868E-07    80   0.325E-03    0.151E-03
DAV:   9    -0.104851975819E+03   -0.34831E-04   -0.23156E-06    86   0.373E-03    0.729E-04
DAV:  10    -0.104851994902E+03   -0.19083E-04   -0.98334E-07    80   0.254E-03    0.513E-04
DAV:  11    -0.104852006201E+03   -0.11299E-04   -0.57120E-07    80   0.170E-03    0.257E-04
DAV:  12    -0.104852014009E+03   -0.78085E-05   -0.30322E-07    80   0.130E-03    0.220E-04
DAV:  13    -0.104852016139E+03   -0.21301E-05   -0.52840E-08    88   0.616E-04    0.111E-04
DAV:  14    -0.104852018224E+03   -0.20850E-05   -0.58844E-08    80   0.547E-04    0.578E-05
DAV:  15    -0.104852018655E+03   -0.43070E-06   -0.75599E-09    88   0.251E-04
   6 F= -.10485202E+03 E0= -.10485202E+03  d E =-.174845E-01
       N       E                     dE             d eps       ncg     rms          rms(c)
DAV:   1    -0.104852114339E+03   -0.96115E-04   -0.41679E-03    84   0.289E-01    0.253E-02
DAV:   2    -0.104852127626E+03   -0.13287E-04   -0.17234E-04   112   0.535E-02    0.140E-02
DAV:   3    -0.104852126875E+03    0.75112E-06   -0.69512E-06   128   0.107E-02
   7 F= -.10485213E+03 E0= -.10485213E+03  d E =-.175927E-01
       N       E                     dE             d eps       ncg     rms          rms(c)
DAV:   1    -0.104859710594E+03   -0.75830E-02   -0.27865E-01    84   0.243E+00    0.178E-01
DAV:   2    -0.104860240041E+03   -0.52945E-03   -0.10039E-02   120   0.387E-01    0.998E-02
DAV:   3    -0.104860108388E+03    0.13165E-03   -0.55527E-04   128   0.952E-02    0.499E-02
DAV:   4    -0.104860095154E+03    0.13233E-04   -0.16333E-04   120   0.529E-02    0.163E-02
DAV:   5    -0.104860090704E+03    0.44505E-05   -0.27107E-05   120   0.220E-02    0.104E-02
DAV:   6    -0.104860090217E+03    0.48655E-06   -0.48609E-06   112   0.842E-03
   8 F= -.10486009E+03 E0= -.10486009E+03  d E =-.796334E-02
       N       E                     dE             d eps       ncg     rms          rms(c)
DAV:   1    -0.104860601295E+03   -0.51059E-03   -0.33010E-02    84   0.836E-01    0.611E-02
DAV:   2    -0.104860666756E+03   -0.65462E-04   -0.11977E-03   120   0.134E-01    0.345E-02
DAV:   3    -0.104860652685E+03    0.14071E-04   -0.66904E-05   128   0.333E-02    0.174E-02
DAV:   4    -0.104860653333E+03   -0.64756E-06   -0.19622E-05   120   0.189E-02    0.567E-03
DAV:   5    -0.104860655689E+03   -0.23565E-05   -0.36950E-06   112   0.833E-03    0.366E-03
DAV:   6    -0.104860658912E+03   -0.32228E-05   -0.67183E-07    80   0.358E-03    0.173E-03
DAV:   7    -0.104860663917E+03   -0.50053E-05   -0.30169E-07    80   0.226E-03    0.575E-04
DAV:   8    -0.104860669723E+03   -0.58058E-05   -0.24684E-07    88   0.184E-03    0.503E-04
DAV:   9    -0.104860677511E+03   -0.77877E-05   -0.49581E-07    80   0.211E-03    0.230E-04
DAV:  10    -0.104860679818E+03   -0.23069E-05   -0.13738E-07    88   0.121E-03    0.200E-04
DAV:  11    -0.104860680595E+03   -0.77712E-06   -0.23835E-08    80   0.533E-04
   9 F= -.10486068E+03 E0= -.10486068E+03  d E =-.855372E-02
       N       E                     dE             d eps       ncg     rms          rms(c)
DAV:   1    -0.104863747516E+03   -0.30677E-02   -0.10820E-01    84   0.150E+00    0.111E-01
DAV:   2    -0.104863931664E+03   -0.18415E-03   -0.33008E-03   120   0.239E-01    0.600E-02
DAV:   3    -0.104863881367E+03    0.50298E-04   -0.19945E-04   128   0.598E-02    0.297E-02
DAV:   4    -0.104863877975E+03    0.33913E-05   -0.66255E-05   120   0.308E-02    0.846E-03
DAV:   5    -0.104863874915E+03    0.30607E-05   -0.58354E-06   128   0.108E-02    0.555E-03
DAV:   6    -0.104863874013E+03    0.90190E-06   -0.11560E-06    96   0.525E-03
  10 F= -.10486387E+03 E0= -.10486387E+03  d E =-.319342E-02
       N       E                     dE             d eps       ncg     rms          rms(c)
DAV:   1    -0.104864881189E+03   -0.10063E-02   -0.12332E-01    84   0.160E+00    0.118E-01
DAV:   2    -0.104865092478E+03   -0.21129E-03   -0.37890E-03   120   0.256E-01    0.642E-02
DAV:   3    -0.104865033339E+03    0.59140E-04   -0.22916E-04   128   0.640E-02    0.319E-02
DAV:   4    -0.104865027580E+03    0.57587E-05   -0.75690E-05   120   0.331E-02    0.905E-03
DAV:   5    -0.104865024785E+03    0.27954E-05   -0.69452E-06   128   0.119E-02    0.600E-03
DAV:   6    -0.104865025225E+03   -0.44030E-06   -0.14242E-06    96   0.588E-03
  11 F= -.10486503E+03 E0= -.10486503E+03  d E =-.434463E-02
       N       E                     dE             d eps       ncg     rms          rms(c)
DAV:   1    -0.104867296362E+03   -0.22716E-02   -0.95736E-02    84   0.143E+00    0.936E-02
DAV:   2    -0.104867359279E+03   -0.62917E-04   -0.17533E-03   120   0.171E-01    0.510E-02
DAV:   3    -0.104867322862E+03    0.36417E-04   -0.13542E-04   128   0.491E-02    0.222E-02
DAV:   4    -0.104867326574E+03   -0.37122E-05   -0.54589E-05   120   0.262E-02    0.757E-03
DAV:   5    -0.104867326815E+03   -0.24106E-06   -0.30286E-06    96   0.739E-03
  12 F= -.10486733E+03 E0= -.10486733E+03  d E =-.230159E-02
       N       E                     dE             d eps       ncg     rms          rms(c)
DAV:   1    -0.104868319249E+03   -0.99267E-03   -0.11140E-01    84   0.155E+00    0.101E-01
DAV:   2    -0.104868390399E+03   -0.71150E-04   -0.20587E-03   120   0.185E-01    0.549E-02
DAV:   3    -0.104868343568E+03    0.46830E-04   -0.15409E-04   128   0.525E-02    0.241E-02
DAV:   4    -0.104868345486E+03   -0.19178E-05   -0.63393E-05   120   0.281E-02    0.805E-03
DAV:   5    -0.104868345577E+03   -0.90736E-07   -0.36905E-06   112   0.798E-03
  13 F= -.10486835E+03 E0= -.10486835E+03  d E =-.332035E-02
       N       E                     dE             d eps       ncg     rms          rms(c)
DAV:   1    -0.104870089451E+03   -0.17440E-02   -0.10603E-01    84   0.147E+00    0.113E-01
DAV:   2    -0.104870261524E+03   -0.17207E-03   -0.28356E-03   120   0.216E-01    0.578E-02
DAV:   3    -0.104870220094E+03    0.41430E-04   -0.15877E-04   128   0.534E-02    0.288E-02
DAV:   4    -0.104870220222E+03   -0.12772E-06   -0.55182E-05   120   0.269E-02    0.856E-03
DAV:   5    -0.104870220738E+03   -0.51616E-06   -0.44597E-06   112   0.888E-03
  14 F= -.10487022E+03 E0= -.10487022E+03  d E =-.187516E-02
       N       E                     dE             d eps       ncg     rms          rms(c)
DAV:   1    -0.104870422255E+03   -0.20203E-03   -0.24557E-02    84   0.705E-01    0.548E-02
DAV:   2    -0.104870463259E+03   -0.41004E-04   -0.67176E-04   120   0.105E-01    0.277E-02
DAV:   3    -0.104870453127E+03    0.10132E-04   -0.36412E-05   128   0.256E-02    0.138E-02
DAV:   4    -0.104870453169E+03   -0.41369E-07   -0.12577E-05   120   0.128E-02    0.414E-03
DAV:   5    -0.104870454070E+03   -0.90151E-06   -0.90639E-07    80   0.431E-03
  15 F= -.10487045E+03 E0= -.10487045E+03  d E =-.210849E-02
       N       E                     dE             d eps       ncg     rms          rms(c)
DAV:   1    -0.104870809167E+03   -0.35600E-03   -0.25297E-02    84   0.707E-01    0.550E-02
DAV:   2    -0.104870875358E+03   -0.66191E-04   -0.85851E-04   112   0.117E-01    0.297E-02
DAV:   3    -0.104870866509E+03    0.88489E-05   -0.32682E-05   128   0.249E-02    0.157E-02
DAV:   4    -0.104870867772E+03   -0.12630E-05   -0.16800E-05   104   0.149E-02    0.396E-03
DAV:   5    -0.104870868447E+03   -0.67468E-06   -0.15709E-06    88   0.568E-03
  16 F= -.10487087E+03 E0= -.10487087E+03  d E =-.414377E-03
       N       E                     dE             d eps       ncg     rms          rms(c)
DAV:   1    -0.104870890325E+03   -0.22553E-04   -0.21359E-03    84   0.205E-01    0.165E-02
DAV:   2    -0.104870896049E+03   -0.57234E-05   -0.75603E-05   112   0.346E-02    0.862E-03
DAV:   3    -0.104870895177E+03    0.87200E-06   -0.25706E-06   112   0.721E-03
  17 F= -.10487090E+03 E0= -.10487090E+03  d E =-.441107E-03
       N       E                     dE             d eps       ncg     rms          rms(c)
DAV:   1    -0.104871105922E+03   -0.20987E-03   -0.11150E-02    84   0.477E-01    0.345E-02
DAV:   2    -0.104871132083E+03   -0.26162E-04   -0.38588E-04   120   0.780E-02    0.198E-02
DAV:   3    -0.104871128081E+03    0.40017E-05   -0.16383E-05   120   0.168E-02    0.104E-02
DAV:   4    -0.104871128041E+03    0.40596E-07   -0.66563E-06   104   0.967E-03
  18 F= -.10487113E+03 E0= -.10487113E+03  d E =-.232864E-03
