       N       E                     dE             d eps       ncg     rms          rms(c)
DAV:   1     0.242712440606E+03    0.24271E+03   -0.10231E+04   120   0.484E+02
DAV:   2    -0.255058790202E+02   -0.26822E+03   -0.25333E+03   156   0.919E+01
DAV:   3    -0.105036307496E+03   -0.79530E+02   -0.79318E+02   120   0.548E+01
DAV:   4    -0.108865482036E+03   -0.38292E+01   -0.38151E+01   120   0.175E+01
DAV:   5    -0.108952747398E+03   -0.87265E-01   -0.87162E-01   156   0.298E+00    0.160E+01
DAV:   6    -0.105373447365E+03    0.35793E+01   -0.16182E+00   108   0.434E+00    0.927E+00
DAV:   7    -0.103513183738E+03    0.18603E+01   -0.43644E+00   120   0.638E+00    0.132E+00
DAV:   8    -0.103460091144E+03    0.53093E-01   -0.32931E-01   132   0.218E+00    0.697E-01
DAV:   9    -0.103426733762E+03    0.33357E-01   -0.61051E-02   144   0.678E-01    0.367E-01
DAV:  10    -0.103425098636E+03    0.16351E-02   -0.36530E-03   120   0.209E-01    0.155E-01
DAV:  11    -0.103423808162E+03    0.12905E-02   -0.63565E-03   108   0.213E-01    0.101E-01
DAV:  12    -0.103428782698E+03   -0.49745E-02   -0.14380E-03   132   0.103E-01    0.524E-02
DAV:  13    -0.103432617013E+03   -0.38343E-02   -0.19278E-03   120   0.105E-01    0.408E-02
DAV:  14    -0.103435727615E+03   -0.31106E-02   -0.17155E-04   144   0.400E-02    0.232E-02
DAV:  15    -0.103441219941E+03   -0.54923E-02   -0.62211E-04   120   0.591E-02    0.136E-02
DAV:  16    -0.103442549939E+03   -0.13300E-02   -0.65745E-05   132   0.231E-02    0.859E-03
DAV:  17    -0.103444131037E+03   -0.15811E-02   -0.16200E-04   120   0.264E-02    0.678E-03
DAV:  18    -0.103444315568E+03   -0.18453E-03   -0.38555E-06   144   0.486E-03    0.228E-03
DAV:  19    -0.103444603970E+03   -0.28840E-03   -0.12734E-05   132   0.764E-03    0.172E-03
DAV:  20    -0.103444664507E+03   -0.60537E-04   -0.10554E-06   108   0.301E-03    0.866E-04
DAV:  21    -0.103444701422E+03   -0.36915E-04   -0.10273E-06   120   0.225E-03    0.555E-04
DAV:  22    -0.103444711211E+03   -0.97885E-05   -0.14018E-07   108   0.106E-03    0.263E-04
DAV:  23    -0.103444715066E+03   -0.38552E-05   -0.75781E-08   108   0.635E-04    0.230E-04
DAV:  24    -0.103444719137E+03   -0.40710E-05   -0.56071E-08   108   0.534E-04    0.872E-05
DAV:  25    -0.103444719874E+03   -0.73670E-06   -0.47376E-09   108   0.265E-04
   1 F= -.10344472E+03 E0= -.10344472E+03  d E =-.659491E-11
       N       E                     dE             d eps       ncg     rms          rms(c)
DAV:   1    -0.103441322321E+03    0.33968E-02   -0.83502E-02    96   0.853E-01    0.127E-01
DAV:   2    -0.103441676277E+03   -0.35396E-03   -0.39807E-03   120   0.217E-01    0.559E-02
DAV:   3    -0.103441664947E+03    0.11330E-04   -0.15505E-04   144   0.463E-02    0.297E-02
DAV:   4    -0.103441667774E+03   -0.28272E-05   -0.35641E-05   132   0.221E-02    0.813E-03
DAV:   5    -0.103441667100E+03    0.67412E-06   -0.68467E-06   132   0.100E-02
   2 F= -.10344167E+03 E0= -.10344167E+03  d E =-.609840E-11
       N       E                     dE             d eps       ncg     rms          rms(c)
DAV:   1    -0.103440223446E+03    0.14443E-02   -0.34010E-01    96   0.169E+00    0.257E-01
DAV:   2    -0.103441655037E+03   -0.14316E-02   -0.16029E-02   132   0.437E-01    0.113E-01
DAV:   3    -0.103441609591E+03    0.45446E-04   -0.58399E-04   144   0.897E-02    0.601E-02
DAV:   4    -0.103441625242E+03   -0.15651E-04   -0.13760E-04   132   0.442E-02    0.170E-02
DAV:   5    -0.103441622228E+03    0.30142E-05   -0.25744E-05   132   0.198E-02    0.951E-03
DAV:   6    -0.103441621914E+03    0.31434E-06   -0.49543E-06   144   0.767E-03
   3 F= -.10344162E+03 E0= -.10344162E+03  d E =-.792816E-11
       N       E                     dE             d eps       ncg     rms          rms(c)
DAV:   1    -0.103441129306E+03    0.49292E-03   -0.16932E-01    96   0.121E+00    0.158E-01
DAV:   2    -0.103441847509E+03   -0.71820E-03   -0.78144E-03   132   0.292E-01    0.767E-02
DAV:   3    -0.103441835008E+03    0.12502E-04   -0.27332E-04   144   0.612E-02    0.393E-02
DAV:   4    -0.103441847436E+03   -0.12428E-04   -0.61248E-05   132   0.291E-02    0.114E-02
DAV:   5    -0.103441847138E+03    0.29823E-06   -0.10514E-05   132   0.127E-02    0.616E-03
DAV:   6    -0.103441847594E+03   -0.45561E-06   -0.27808E-06   132   0.562E-03
   4 F= -.10344185E+03 E0= -.10344185E+03  d E =-.495850E-11
       N       E                     dE             d eps       ncg     rms          rms(c)
DAV:   1    -0.103440012373E+03    0.18348E-02   -0.33882E-01    96   0.168E+00    0.238E-01
DAV:   2    -0.103441524062E+03   -0.15117E-02   -0.16409E-02   132   0.433E-01    0.112E-01
DAV:   3    -0.103441483676E+03    0.40386E-04   -0.55758E-04   144   0.895E-02    0.582E-02
DAV:   4    -0.103441499070E+03   -0.15394E-04   -0.14314E-04   132   0.445E-02    0.162E-02
DAV:   5    -0.103441494605E+03    0.44648E-05   -0.25397E-05   120   0.195E-02    0.900E-03
DAV:   6    -0.103441494077E+03    0.52827E-06   -0.55176E-06   132   0.804E-03
   5 F= -.10344149E+03 E0= -.10344149E+03  d E =-.101715E-10
       N       E                     dE             d eps       ncg     rms          rms(c)
DAV:   1    -0.103439224977E+03    0.22696E-02   -0.16789E-01    96   0.119E+00    0.159E-01
DAV:   2    -0.103440105701E+03   -0.88072E-03   -0.94366E-03   120   0.324E-01    0.924E-02
DAV:   3    -0.103440074945E+03    0.30755E-04   -0.30985E-04   156   0.681E-02    0.503E-02
DAV:   4    -0.103440082031E+03   -0.70852E-05   -0.10458E-04   132   0.372E-02    0.120E-02
DAV:   5    -0.103440080543E+03    0.14880E-05   -0.18447E-05   132   0.157E-02    0.739E-03
DAV:   6    -0.103440082160E+03   -0.16171E-05   -0.35349E-06   132   0.593E-03    0.460E-03
DAV:   7    -0.103440087837E+03   -0.56777E-05   -0.52804E-07   108   0.253E-03    0.161E-03
DAV:   8    -0.103440093423E+03   -0.55859E-05   -0.44761E-07   120   0.201E-03    0.617E-04
DAV:   9    -0.103440098716E+03   -0.52930E-05   -0.26421E-07   108   0.151E-03    0.569E-04
DAV:  10    -0.103440106309E+03   -0.75924E-05   -0.68686E-07   120   0.169E-03    0.351E-04
DAV:  11    -0.103440107534E+03   -0.12256E-05   -0.38628E-08   120   0.709E-04    0.273E-04
DAV:  12    -0.103440109248E+03   -0.17142E-05   -0.40676E-08   108   0.510E-04    0.159E-04
DAV:  13    -0.103440110623E+03   -0.13745E-05   -0.34392E-08   108   0.398E-04    0.817E-05
DAV:  14    -0.103440111520E+03   -0.89750E-06   -0.13724E-08   108   0.272E-04
   6 F= -.10344011E+03 E0= -.10344011E+03  d E =-.879792E-11
       N       E                     dE             d eps       ncg     rms          rms(c)
DAV:   1    -0.103438440706E+03    0.16699E-02   -0.33942E-01    96   0.165E+00    0.261E-01
DAV:   2    -0.103440692418E+03   -0.22517E-02   -0.24535E-02   132   0.512E-01    0.168E-01
DAV:   3    -0.103440527104E+03    0.16531E-03   -0.68231E-04   132   0.106E-01    0.864E-02
DAV:   4    -0.103440530202E+03   -0.30985E-05   -0.41142E-04   120   0.696E-02    0.165E-02
DAV:   5    -0.103440519542E+03    0.10660E-04   -0.52086E-05   132   0.260E-02    0.115E-02
DAV:   6    -0.103440520455E+03   -0.91301E-06   -0.10814E-05   132   0.901E-03    0.731E-03
DAV:   7    -0.103440532954E+03   -0.12499E-04   -0.11334E-06   132   0.357E-03    0.296E-03
DAV:   8    -0.103440550052E+03   -0.17098E-04   -0.15102E-06   132   0.414E-03    0.126E-03
DAV:   9    -0.103440564720E+03   -0.14669E-04   -0.98444E-07   120   0.245E-03    0.145E-03
DAV:  10    -0.103440588275E+03   -0.23554E-04   -0.14505E-06   132   0.245E-03    0.766E-04
DAV:  11    -0.103440591969E+03   -0.36940E-05   -0.72591E-08   108   0.869E-04    0.456E-04
DAV:  12    -0.103440600524E+03   -0.85554E-05   -0.24426E-07   108   0.109E-03    0.301E-04
DAV:  13    -0.103440603278E+03   -0.27537E-05   -0.78038E-08   108   0.592E-04    0.250E-04
DAV:  14    -0.103440605351E+03   -0.20735E-05   -0.16680E-08   108   0.380E-04    0.857E-05
DAV:  15    -0.103440606482E+03   -0.11312E-05   -0.12832E-08   108   0.291E-04    0.749E-05
DAV:  16    -0.103440607034E+03   -0.55178E-06    0.27078E-09   108   0.164E-04
   7 F= -.10344061E+03 E0= -.10344061E+03  d E =-.559479E-11
       N       E                     dE             d eps       ncg     rms          rms(c)
DAV:   1    -0.103439338259E+03    0.12682E-02   -0.19287E-01    96   0.135E+00    0.193E-01
DAV:   2    -0.103440708574E+03   -0.13703E-02   -0.14279E-02   120   0.426E-01    0.120E-01
DAV:   3    -0.103440628455E+03    0.80119E-04   -0.39922E-04   144   0.862E-02    0.653E-02
DAV:   4    -0.103440627999E+03    0.45557E-06   -0.21381E-04   132   0.570E-02    0.123E-02
DAV:   5    -0.103440623093E+03    0.49061E-05   -0.42553E-05   120   0.235E-02    0.975E-03
DAV:   6    -0.103440623562E+03   -0.46885E-06   -0.41634E-06   144   0.655E-03
   8 F= -.10344062E+03 E0= -.10344062E+03  d E =-.464726E-11
       N       E                     dE             d eps       ncg     rms          rms(c)
DAV:   1    -0.103438868692E+03    0.17544E-02   -0.33587E-01    96   0.176E+00    0.255E-01
DAV:   2    -0.103440855538E+03   -0.19868E-02   -0.20506E-02   132   0.487E-01    0.154E-01
DAV:   3    -0.103440784256E+03    0.71282E-04   -0.56500E-04   132   0.915E-02    0.798E-02
DAV:   4    -0.103440783651E+03    0.60451E-06   -0.21883E-04   120   0.548E-02    0.158E-02
DAV:   5    -0.103440772440E+03    0.11211E-04   -0.36608E-05   144   0.229E-02    0.101E-02
DAV:   6    -0.103440772992E+03   -0.55229E-06   -0.73727E-06   120   0.932E-03
   9 F= -.10344077E+03 E0= -.10344077E+03  d E =-.634832E-11
       N       E                     dE             d eps       ncg     rms          rms(c)
DAV:   1    -0.103438958061E+03    0.18144E-02   -0.17364E-01    96   0.124E+00    0.185E-01
DAV:   2    -0.103440103087E+03   -0.11450E-02   -0.11497E-02   132   0.367E-01    0.117E-01
DAV:   3    -0.103440076541E+03    0.26546E-04   -0.28939E-04   132   0.688E-02    0.631E-02
DAV:   4    -0.103440095685E+03   -0.19143E-04   -0.16487E-04   120   0.482E-02    0.120E-02
DAV:   5    -0.103440090504E+03    0.51809E-05   -0.34734E-05   132   0.214E-02    0.841E-03
DAV:   6    -0.103440091324E+03   -0.82025E-06   -0.67359E-06   132   0.755E-03
  10 F= -.10344009E+03 E0= -.10344009E+03  d E =-.662813E-11
       N       E                     dE             d eps       ncg     rms          rms(c)
DAV:   1    -0.103436958860E+03    0.31316E-02   -0.34812E-01    96   0.174E+00    0.265E-01
DAV:   2    -0.103439742467E+03   -0.27836E-02   -0.27949E-02   132   0.562E-01    0.186E-01
DAV:   3    -0.103439586952E+03    0.15551E-03   -0.63601E-04   144   0.105E-01    0.990E-02
DAV:   4    -0.103439611828E+03   -0.24875E-04   -0.50346E-04   120   0.826E-02    0.179E-02
DAV:   5    -0.103439596743E+03    0.15085E-04   -0.11571E-04   132   0.380E-02    0.130E-02
DAV:   6    -0.103439595047E+03    0.16954E-05   -0.17817E-05   132   0.111E-02    0.793E-03
DAV:   7    -0.103439607128E+03   -0.12081E-04   -0.15478E-06   132   0.402E-03    0.344E-03
DAV:   8    -0.103439624196E+03   -0.17068E-04   -0.29177E-06   132   0.507E-03    0.133E-03
DAV:   9    -0.103439639933E+03   -0.15737E-04   -0.15367E-06   132   0.303E-03    0.148E-03
DAV:  10    -0.103439655231E+03   -0.15298E-04   -0.12024E-06   108   0.236E-03    0.498E-04
DAV:  11    -0.103439660538E+03   -0.53064E-05   -0.17836E-07   108   0.106E-03    0.281E-04
DAV:  12    -0.103439667601E+03   -0.70636E-05   -0.35325E-07    96   0.111E-03    0.201E-04
DAV:  13    -0.103439669160E+03   -0.15588E-05   -0.36115E-08   108   0.408E-04    0.205E-04
DAV:  14    -0.103439671398E+03   -0.22379E-05   -0.46056E-08    96   0.461E-04    0.782E-05
DAV:  15    -0.103439672040E+03   -0.64168E-06   -0.66397E-09   108   0.245E-04
  11 F= -.10343967E+03 E0= -.10343967E+03  d E =-.609381E-11
       N       E                     dE             d eps       ncg     rms          rms(c)
DAV:   1    -0.103440064138E+03   -0.39274E-03   -0.17079E-01    96   0.125E+00    0.183E-01
DAV:   2    -0.103441328479E+03   -0.12643E-02   -0.12946E-02   132   0.393E-01    0.125E-01
DAV:   3    -0.103441255940E+03    0.72539E-04   -0.29821E-04   156   0.713E-02    0.688E-02
DAV:   4    -0.103441256234E+03   -0.29431E-06   -0.21283E-04   120   0.554E-02    0.124E-02
DAV:   5    -0.103441251287E+03    0.49473E-05   -0.54965E-05   132   0.264E-02    0.961E-03
DAV:   6    -0.103441251044E+03    0.24270E-06   -0.98392E-06   132   0.930E-03
  12 F= -.10344125E+03 E0= -.10344125E+03  d E =-.598855E-11
       N       E                     dE             d eps       ncg     rms          rms(c)
DAV:   1    -0.103439675327E+03    0.15760E-02   -0.33426E-01    96   0.174E+00    0.264E-01
DAV:   2    -0.103441328553E+03   -0.16532E-02   -0.17388E-02   132   0.458E-01    0.133E-01
DAV:   3    -0.103441295554E+03    0.32999E-04   -0.56793E-04   132   0.917E-02    0.703E-02
DAV:   4    -0.103441325660E+03   -0.30106E-04   -0.19064E-04   132   0.552E-02    0.159E-02
DAV:   5    -0.103441321703E+03    0.39574E-05   -0.44868E-05   144   0.256E-02    0.109E-02
DAV:   6    -0.103441321672E+03    0.30741E-07   -0.63427E-06   132   0.848E-03
  13 F= -.10344132E+03 E0= -.10344132E+03  d E =-.709953E-11
       N       E                     dE             d eps       ncg     rms          rms(c)
DAV:   1    -0.103439085087E+03    0.22366E-02   -0.16955E-01    96   0.130E+00    0.194E-01
DAV:   2    -0.103440413995E+03   -0.13289E-02   -0.13771E-02   132   0.405E-01    0.116E-01
DAV:   3    -0.103440352919E+03    0.61075E-04   -0.37121E-04   132   0.783E-02    0.673E-02
DAV:   4    -0.103440363557E+03   -0.10638E-04   -0.19332E-04   132   0.560E-02    0.134E-02
DAV:   5    -0.103440360832E+03    0.27256E-05   -0.55962E-05   132   0.271E-02    0.107E-02
DAV:   6    -0.103440358385E+03    0.24470E-05   -0.56995E-06   132   0.815E-03    0.742E-03
DAV:   7    -0.103440361834E+03   -0.34488E-05   -0.18042E-06   132   0.506E-03    0.284E-03
DAV:   8    -0.103440368358E+03   -0.65246E-05   -0.52936E-07   108   0.330E-03    0.786E-04
DAV:   9    -0.103440376015E+03   -0.76571E-05   -0.52478E-07   108   0.233E-03    0.100E-03
DAV:  10    -0.103440386667E+03   -0.10652E-04   -0.58610E-07   108   0.192E-03    0.377E-04
DAV:  11    -0.103440389260E+03   -0.25927E-05   -0.11293E-07   108   0.929E-04    0.308E-04
DAV:  12    -0.103440392744E+03   -0.34839E-05   -0.85602E-08   108   0.713E-04    0.147E-04
DAV:  13    -0.103440395332E+03   -0.25882E-05   -0.81000E-08   108   0.596E-04    0.133E-04
DAV:  14    -0.103440396836E+03   -0.15042E-05   -0.26984E-08   108   0.368E-04    0.101E-04
DAV:  15    -0.103440397562E+03   -0.72578E-06   -0.47535E-09   108   0.232E-04
  14 F= -.10344040E+03 E0= -.10344040E+03  d E =-.769486E-11
       N       E                     dE             d eps       ncg     rms          rms(c)
DAV:   1    -0.103437507420E+03    0.28894E-02   -0.34552E-01    96   0.173E+00    0.260E-01
DAV:   2    -0.103440106006E+03   -0.25986E-02   -0.26471E-02   132   0.554E-01    0.176E-01
DAV:   3    -0.103439966756E+03    0.13925E-03   -0.62105E-04   132   0.102E-01    0.965E-02
DAV:   4    -0.103439967749E+03   -0.99349E-06   -0.41739E-04   120   0.775E-02    0.174E-02
DAV:   5    -0.103439958872E+03    0.88776E-05   -0.10260E-04   132   0.361E-02    0.135E-02
DAV:   6    -0.103439961836E+03   -0.29645E-05   -0.17374E-05   132   0.118E-02    0.890E-03
DAV:   7    -0.103439981844E+03   -0.20008E-04   -0.28701E-06   132   0.571E-03    0.347E-03
DAV:   8    -0.103440005836E+03   -0.23991E-04   -0.24304E-06   132   0.450E-03    0.117E-03
DAV:   9    -0.103440029250E+03   -0.23414E-04   -0.22401E-06   120   0.348E-03    0.153E-03
DAV:  10    -0.103440048470E+03   -0.19221E-04   -0.15526E-06   132   0.271E-03    0.675E-04
DAV:  11    -0.103440056109E+03   -0.76390E-05   -0.33543E-07   108   0.134E-03    0.309E-04
DAV:  12    -0.103440062562E+03   -0.64526E-05   -0.34950E-07    96   0.113E-03    0.226E-04
DAV:  13    -0.103440064462E+03   -0.19005E-05   -0.48017E-08   120   0.474E-04    0.203E-04
DAV:  14    -0.103440066344E+03   -0.18821E-05   -0.44580E-08    96   0.473E-04    0.702E-05
DAV:  15    -0.103440066781E+03   -0.43676E-06   -0.29364E-09   120   0.217E-04
  15 F= -.10344007E+03 E0= -.10344007E+03  d E =-.588642E-11
       N       E                     dE             d eps       ncg     rms          rms(c)
DAV:   1    -0.103439574370E+03    0.49197E-03   -0.17256E-01    96   0.123E+00    0.184E-01
DAV:   2    -0.103440900674E+03   -0.13263E-02   -0.13462E-02   132   0.391E-01    0.130E-01
DAV:   3    -0.103440820194E+03    0.80481E-04   -0.31153E-04   144   0.735E-02    0.692E-02
DAV:   4    -0.103440823139E+03   -0.29454E-05   -0.23716E-04   120   0.567E-02    0.129E-02
DAV:   5    -0.103440816120E+03    0.70188E-05   -0.56381E-05   132   0.262E-02    0.953E-03
DAV:   6    -0.103440816605E+03   -0.48484E-06   -0.10549E-05   132   0.848E-03    0.564E-03
DAV:   7    -0.103440826135E+03   -0.95302E-05   -0.86137E-07   108   0.324E-03    0.263E-03
DAV:   8    -0.103440842494E+03   -0.16359E-04   -0.22310E-06   132   0.409E-03    0.105E-03
DAV:   9    -0.103440854334E+03   -0.11839E-04   -0.93052E-07   108   0.245E-03    0.123E-03
DAV:  10    -0.103440867545E+03   -0.13211E-04   -0.90447E-07    96   0.213E-03    0.387E-04
DAV:  11    -0.103440870686E+03   -0.31404E-05   -0.15914E-07   108   0.958E-04    0.269E-04
DAV:  12    -0.103440874803E+03   -0.41175E-05   -0.12778E-07    84   0.777E-04    0.115E-04
DAV:  13    -0.103440877130E+03   -0.23272E-05   -0.88333E-08   108   0.580E-04    0.128E-04
DAV:  14    -0.103440878465E+03   -0.13351E-05   -0.22441E-08   108   0.358E-04    0.931E-05
DAV:  15    -0.103440879050E+03   -0.58509E-06   -0.17269E-09    96   0.219E-04
  16 F= -.10344088E+03 E0= -.10344088E+03  d E =-.733735E-11
       N       E                     dE             d eps       ncg     rms          rms(c)
DAV:   1    -0.103438620133E+03    0.22583E-02   -0.33964E-01    96   0.177E+00    0.264E-01
DAV:   2    -0.103440654968E+03   -0.20348E-02   -0.21174E-02   132   0.509E-01    0.155E-01
DAV:   3    -0.103440559229E+03    0.95739E-04   -0.58008E-04   132   0.975E-02    0.796E-02
DAV:   4    -0.103440566341E+03   -0.71123E-05   -0.29225E-04   132   0.643E-02    0.165E-02
DAV:   5    -0.103440554934E+03    0.11408E-04   -0.59093E-05   132   0.287E-02    0.115E-02
DAV:   6    -0.103440554428E+03    0.50506E-06   -0.11428E-05   132   0.104E-02    0.708E-03
DAV:   7    -0.103440564012E+03   -0.95834E-05   -0.16068E-06   132   0.498E-03    0.275E-03
DAV:   8    -0.103440578976E+03   -0.14964E-04   -0.18872E-06   132   0.493E-03    0.140E-03
DAV:   9    -0.103440592513E+03   -0.13537E-04   -0.81396E-07   108   0.281E-03    0.123E-03
DAV:  10    -0.103440609751E+03   -0.17238E-04   -0.10957E-06   120   0.244E-03    0.523E-04
DAV:  11    -0.103440615779E+03   -0.60279E-05   -0.16849E-07   108   0.122E-03    0.357E-04
DAV:  12    -0.103440622810E+03   -0.70315E-05   -0.17818E-07    96   0.930E-04    0.198E-04
DAV:  13    -0.103440626006E+03   -0.31957E-05   -0.65262E-08   108   0.538E-04    0.198E-04
DAV:  14    -0.103440628364E+03   -0.23579E-05   -0.25354E-08   108   0.383E-04    0.957E-05
DAV:  15    -0.103440629524E+03   -0.11594E-05   -0.10077E-08   108   0.267E-04    0.441E-05
DAV:  16    -0.103440630367E+03   -0.84369E-06   -0.35165E-09    96   0.220E-04
  17 F= -.10344063E+03 E0= -.10344063E+03  d E =-.650476E-11
       N       E                     dE             d eps       ncg     rms          rms(c)
DAV:   1    -0.103439834583E+03    0.79494E-03   -0.17227E-01    96   0.127E+00    0.183E-01
DAV:   2    -0.103440900143E+03   -0.10656E-02   -0.11069E-02   120   0.362E-01    0.117E-01
DAV:   3    -0.103440847082E+03    0.53061E-04   -0.28863E-04   144   0.670E-02    0.618E-02
DAV:   4    -0.103440833463E+03    0.13619E-04   -0.13473E-04   132   0.417E-02    0.113E-02
DAV:   5    -0.103440828817E+03    0.46465E-05   -0.20169E-05   132   0.164E-02    0.768E-03
DAV:   6    -0.103440833623E+03   -0.48060E-05   -0.60665E-06   132   0.794E-03    0.432E-03
DAV:   7    -0.103440851506E+03   -0.17883E-04   -0.23657E-06   120   0.550E-03    0.148E-03
DAV:   8    -0.103440868070E+03   -0.16565E-04   -0.12468E-06   108   0.358E-03    0.107E-03
DAV:   9    -0.103440884441E+03   -0.16370E-04   -0.12286E-06   120   0.268E-03    0.818E-04
DAV:  10    -0.103440897813E+03   -0.13372E-04   -0.12014E-06   120   0.218E-03    0.393E-04
DAV:  11    -0.103440900576E+03   -0.27626E-05   -0.70481E-08   120   0.847E-04    0.282E-04
DAV:  12    -0.103440905772E+03   -0.51962E-05   -0.32617E-07    96   0.115E-03    0.140E-04
DAV:  13    -0.103440906638E+03   -0.86587E-06   -0.33040E-08   120   0.444E-04
  18 F= -.10344091E+03 E0= -.10344091E+03  d E =-.622856E-11
       N       E                     dE             d eps       ncg     rms          rms(c)
DAV:   1    -0.103439282920E+03    0.16229E-02   -0.33470E-01    96   0.175E+00    0.256E-01
DAV:   2    -0.103441098234E+03   -0.18153E-02   -0.19087E-02   132   0.476E-01    0.146E-01
DAV:   3    -0.103441027252E+03    0.70982E-04   -0.55751E-04   132   0.910E-02    0.754E-02
DAV:   4    -0.103441023938E+03    0.33137E-05   -0.19464E-04   132   0.540E-02    0.159E-02
DAV:   5    -0.103441013271E+03    0.10667E-04   -0.38226E-05   144   0.239E-02    0.101E-02
DAV:   6    -0.103441014954E+03   -0.16824E-05   -0.68661E-06   120   0.898E-03    0.639E-03
DAV:   7    -0.103441028648E+03   -0.13694E-04   -0.20470E-06   132   0.674E-03    0.168E-03
DAV:   8    -0.103441041280E+03   -0.12632E-04   -0.20690E-06   132   0.533E-03    0.207E-03
DAV:   9    -0.103441047578E+03   -0.62978E-05   -0.34789E-07   108   0.222E-03    0.161E-03
DAV:  10    -0.103441063939E+03   -0.16362E-04   -0.63449E-07   108   0.192E-03    0.653E-04
DAV:  11    -0.103441077409E+03   -0.13470E-04   -0.87228E-07   120   0.204E-03    0.798E-04
DAV:  12    -0.103441083914E+03   -0.65052E-05   -0.17577E-07    96   0.123E-03    0.403E-04
DAV:  13    -0.103441089472E+03   -0.55576E-05   -0.15098E-07   108   0.108E-03    0.752E-04
DAV:  14    -0.103441091206E+03   -0.17346E-05   -0.30709E-08   120   0.644E-04    0.359E-04
DAV:  15    -0.103441092796E+03   -0.15892E-05   -0.22377E-08    96   0.511E-04    0.175E-04
DAV:  16    -0.103441093889E+03   -0.10938E-05   -0.10780E-08   108   0.313E-04    0.138E-04
DAV:  17    -0.103441094355E+03   -0.46569E-06    0.24563E-09   108   0.147E-04
  19 F= -.10344109E+03 E0= -.10344109E+03  d E =-.690480E-11
       N       E                     dE             d eps       ncg     rms          rms(c)
DAV:   1    -0.103439051249E+03    0.20426E-02   -0.16651E-01    96   0.129E+00    0.183E-01
DAV:   2    -0.103440361393E+03   -0.13101E-02   -0.13613E-02   132   0.398E-01    0.113E-01
DAV:   3    -0.103440296144E+03    0.65250E-04   -0.34718E-04   132   0.746E-02    0.653E-02
DAV:   4    -0.103440277747E+03    0.18397E-04   -0.15750E-04   132   0.486E-02    0.120E-02
DAV:   5    -0.103440271103E+03    0.66437E-05   -0.36102E-05   144   0.219E-02    0.924E-03
DAV:   6    -0.103440271130E+03   -0.27115E-07   -0.43059E-06   132   0.756E-03
  20 F= -.10344027E+03 E0= -.10344027E+03  d E =-.603638E-11
       N       E                     dE             d eps       ncg     rms          rms(c)
DAV:   1    -0.103438645928E+03    0.16252E-02   -0.33781E-01    96   0.168E+00    0.258E-01
DAV:   2    -0.103440882539E+03   -0.22366E-02   -0.24039E-02   132   0.514E-01    0.161E-01
DAV:   3    -0.103440747479E+03    0.13506E-03   -0.67947E-04   132   0.107E-01    0.824E-02
DAV:   4    -0.103440770159E+03   -0.22681E-04   -0.39203E-04   132   0.689E-02    0.169E-02
DAV:   5    -0.103440761232E+03    0.89277E-05   -0.50809E-05   132   0.259E-02    0.116E-02
DAV:   6    -0.103440760980E+03    0.25125E-06   -0.10143E-05   132   0.912E-03    0.720E-03
DAV:   7    -0.103440768294E+03   -0.73137E-05   -0.83341E-07   108   0.352E-03    0.287E-03
DAV:   8    -0.103440778420E+03   -0.10126E-04   -0.13431E-06   108   0.422E-03    0.113E-03
DAV:   9    -0.103440787936E+03   -0.95159E-05   -0.82691E-07   120   0.255E-03    0.128E-03
DAV:  10    -0.103440802125E+03   -0.14189E-04   -0.76344E-07   108   0.199E-03    0.740E-04
DAV:  11    -0.103440805684E+03   -0.35589E-05   -0.11293E-07   108   0.954E-04    0.470E-04
DAV:  12    -0.103440811204E+03   -0.55198E-05   -0.15560E-07    96   0.956E-04    0.250E-04
DAV:  13    -0.103440813928E+03   -0.27239E-05   -0.75955E-08   108   0.600E-04    0.193E-04
DAV:  14    -0.103440815788E+03   -0.18601E-05   -0.20333E-08   108   0.381E-04    0.102E-04
DAV:  15    -0.103440816687E+03   -0.89881E-06   -0.10363E-08   108   0.270E-04
  21 F= -.10344082E+03 E0= -.10344082E+03  d E =-.577801E-11
       N       E                     dE             d eps       ncg     rms          rms(c)
DAV:   1    -0.103440725351E+03    0.90437E-04   -0.16802E-01    96   0.118E+00    0.160E-01
DAV:   2    -0.103441761998E+03   -0.10366E-02   -0.11052E-02   120   0.354E-01    0.105E-01
DAV:   3    -0.103441707606E+03    0.54391E-04   -0.33113E-04   144   0.741E-02    0.567E-02
DAV:   4    -0.103441706966E+03    0.64077E-06   -0.14192E-04   132   0.453E-02    0.124E-02
DAV:   5    -0.103441702522E+03    0.44436E-05   -0.25127E-05   132   0.186E-02    0.835E-03
DAV:   6    -0.103441703703E+03   -0.11805E-05   -0.44441E-06   132   0.666E-03    0.537E-03
DAV:   7    -0.103441710803E+03   -0.71000E-05   -0.62342E-07   108   0.290E-03    0.197E-03
DAV:   8    -0.103441718431E+03   -0.76288E-05   -0.58985E-07   108   0.253E-03    0.725E-04
DAV:   9    -0.103441726347E+03   -0.79156E-05   -0.57666E-07   108   0.209E-03    0.759E-04
DAV:  10    -0.103441735981E+03   -0.96342E-05   -0.81522E-07   120   0.196E-03    0.438E-04
DAV:  11    -0.103441737876E+03   -0.18948E-05   -0.57883E-08   108   0.782E-04    0.325E-04
DAV:  12    -0.103441739972E+03   -0.20960E-05   -0.51760E-08   108   0.571E-04    0.161E-04
DAV:  13    -0.103441741654E+03   -0.16826E-05   -0.48167E-08   108   0.482E-04    0.108E-04
DAV:  14    -0.103441742742E+03   -0.10877E-05   -0.24141E-08   108   0.345E-04    0.972E-05
DAV:  15    -0.103441743071E+03   -0.32883E-06    0.13958E-09   108   0.164E-04
  22 F= -.10344174E+03 E0= -.10344174E+03  d E =-.595746E-11
       N       E                     dE             d eps       ncg     rms          rms(c)
DAV:   1    -0.103440212373E+03    0.15304E-02   -0.33801E-01    96   0.168E+00    0.239E-01
DAV:   2    -0.103441699632E+03   -0.14873E-02   -0.16315E-02   132   0.434E-01    0.111E-01
DAV:   3    -0.103441653572E+03    0.46059E-04   -0.55859E-04   144   0.892E-02    0.576E-02
DAV:   4    -0.103441664342E+03   -0.10770E-04   -0.13540E-04   120   0.443E-02    0.159E-02
DAV:   5    -0.103441661148E+03    0.31942E-05   -0.25687E-05   132   0.199E-02    0.926E-03
DAV:   6    -0.103441661944E+03   -0.79646E-06   -0.57365E-06   132   0.817E-03
  23 F= -.10344166E+03 E0= -.10344166E+03  d E =-.840553E-11
       N       E                     dE             d eps       ncg     rms          rms(c)
DAV:   1    -0.103440895270E+03    0.76588E-03   -0.16931E-01    96   0.120E+00    0.156E-01
DAV:   2    -0.103441660693E+03   -0.76542E-03   -0.82147E-03   132   0.302E-01    0.792E-02
DAV:   3    -0.103441644451E+03    0.16242E-04   -0.27281E-04   132   0.627E-02    0.403E-02
DAV:   4    -0.103441660972E+03   -0.16521E-04   -0.75005E-05   132   0.318E-02    0.115E-02
DAV:   5    -0.103441662010E+03   -0.10382E-05   -0.11756E-05   132   0.131E-02    0.642E-03
DAV:   6    -0.103441663357E+03   -0.13464E-05   -0.28671E-06   132   0.580E-03    0.359E-03
DAV:   7    -0.103441665893E+03   -0.25363E-05   -0.35884E-07   108   0.231E-03    0.108E-03
DAV:   8    -0.103441668308E+03   -0.24150E-05   -0.21109E-07   108   0.186E-03    0.545E-04
DAV:   9    -0.103441671194E+03   -0.28864E-05   -0.14334E-07   108   0.142E-03    0.343E-04
DAV:  10    -0.103441674090E+03   -0.28958E-05   -0.16055E-07   108   0.120E-03    0.251E-04
DAV:  11    -0.103441674885E+03   -0.79467E-06   -0.33424E-08   108   0.668E-04
  24 F= -.10344167E+03 E0= -.10344167E+03  d E =-.506157E-11
       N       E                     dE             d eps       ncg     rms          rms(c)
DAV:   1    -0.103439577159E+03    0.20969E-02   -0.34346E-01    96   0.171E+00    0.264E-01
DAV:   2    -0.103441170740E+03   -0.15936E-02   -0.17663E-02   132   0.459E-01    0.126E-01
DAV:   3    -0.103441101683E+03    0.69058E-04   -0.58205E-04   132   0.932E-02    0.701E-02
DAV:   4    -0.103441109871E+03   -0.81885E-05   -0.18277E-04   132   0.507E-02    0.186E-02
DAV:   5    -0.103441105663E+03    0.42082E-05   -0.30670E-05   132   0.212E-02    0.952E-03
DAV:   6    -0.103441106835E+03   -0.11719E-05   -0.54421E-06   144   0.805E-03    0.608E-03
DAV:   7    -0.103441114065E+03   -0.72302E-05   -0.82808E-07   120   0.334E-03    0.181E-03
DAV:   8    -0.103441120259E+03   -0.61935E-05   -0.39783E-07   108   0.252E-03    0.907E-04
DAV:   9    -0.103441130232E+03   -0.99732E-05   -0.71189E-07   120   0.264E-03    0.599E-04
DAV:  10    -0.103441138660E+03   -0.84281E-05   -0.68579E-07   120   0.217E-03    0.576E-04
DAV:  11    -0.103441140409E+03   -0.17494E-05   -0.58391E-08   108   0.952E-04    0.394E-04
DAV:  12    -0.103441142503E+03   -0.20937E-05   -0.40760E-08   108   0.557E-04    0.196E-04
DAV:  13    -0.103441145010E+03   -0.25072E-05   -0.75649E-08    96   0.593E-04    0.137E-04
DAV:  14    -0.103441146094E+03   -0.10842E-05   -0.20109E-08   108   0.334E-04    0.162E-04
DAV:  15    -0.103441146803E+03   -0.70847E-06   -0.58746E-09    96   0.257E-04
  25 F= -.10344115E+03 E0= -.10344115E+03  d E =-.994578E-11
       N       E                     dE             d eps       ncg     rms          rms(c)
DAV:   1    -0.103440493212E+03    0.65288E-03   -0.16737E-01    96   0.125E+00    0.183E-01
DAV:   2    -0.103441576876E+03   -0.10837E-02   -0.11779E-02   132   0.365E-01    0.945E-02
DAV:   3    -0.103441511140E+03    0.65736E-04   -0.37831E-04   144   0.759E-02    0.517E-02
DAV:   4    -0.103441511143E+03   -0.30323E-08   -0.13217E-04   132   0.431E-02    0.132E-02
DAV:   5    -0.103441509586E+03    0.15574E-05   -0.23723E-05   132   0.185E-02    0.841E-03
DAV:   6    -0.103441510010E+03   -0.42354E-06   -0.35348E-06   132   0.667E-03
  26 F= -.10344151E+03 E0= -.10344151E+03  d E =-.481091E-11
       N       E                     dE             d eps       ncg     rms          rms(c)
DAV:   1    -0.103439194654E+03    0.23149E-02   -0.34268E-01    96   0.171E+00    0.261E-01
DAV:   2    -0.103440978660E+03   -0.17840E-02   -0.19321E-02   120   0.470E-01    0.134E-01
DAV:   3    -0.103440906734E+03    0.71926E-04   -0.63592E-04   144   0.987E-02    0.739E-02
DAV:   4    -0.103440920148E+03   -0.13414E-04   -0.22537E-04   132   0.552E-02    0.177E-02
DAV:   5    -0.103440914534E+03    0.56138E-05   -0.39825E-05   144   0.232E-02    0.104E-02
DAV:   6    -0.103440914276E+03    0.25767E-06   -0.60536E-06   132   0.818E-03
  27 F= -.10344091E+03 E0= -.10344091E+03  d E =-.900480E-11
       N       E                     dE             d eps       ncg     rms          rms(c)
DAV:   1    -0.103439842926E+03    0.10716E-02   -0.16897E-01    96   0.118E+00    0.158E-01
DAV:   2    -0.103440545777E+03   -0.70285E-03   -0.76854E-03   120   0.295E-01    0.788E-02
DAV:   3    -0.103440535064E+03    0.10713E-04   -0.29458E-04   156   0.644E-02    0.411E-02
DAV:   4    -0.103440549731E+03   -0.14667E-04   -0.64079E-05   132   0.302E-02    0.116E-02
DAV:   5    -0.103440551405E+03   -0.16738E-05   -0.11947E-05   132   0.133E-02    0.639E-03
DAV:   6    -0.103440553880E+03   -0.24747E-05   -0.29261E-06   132   0.567E-03    0.353E-03
DAV:   7    -0.103440557881E+03   -0.40016E-05   -0.34299E-07   108   0.204E-03    0.119E-03
DAV:   8    -0.103440561821E+03   -0.39396E-05   -0.26321E-07   108   0.172E-03    0.539E-04
DAV:   9    -0.103440565472E+03   -0.36507E-05   -0.16941E-07   108   0.135E-03    0.392E-04
DAV:  10    -0.103440570213E+03   -0.47411E-05   -0.34671E-07   108   0.151E-03    0.307E-04
DAV:  11    -0.103440570950E+03   -0.73738E-06   -0.48410E-08   120   0.756E-04
  28 F= -.10344057E+03 E0= -.10344057E+03  d E =-.718976E-11
       N       E                     dE             d eps       ncg     rms          rms(c)
DAV:   1    -0.103438868403E+03    0.17018E-02   -0.33385E-01    96   0.166E+00    0.241E-01
DAV:   2    -0.103441068068E+03   -0.21997E-02   -0.23558E-02   132   0.500E-01    0.155E-01
DAV:   3    -0.103440928594E+03    0.13947E-03   -0.63464E-04   132   0.102E-01    0.805E-02
DAV:   4    -0.103440932630E+03   -0.40366E-05   -0.34943E-04   132   0.659E-02    0.166E-02
DAV:   5    -0.103440923124E+03    0.95059E-05   -0.52774E-05   132   0.263E-02    0.114E-02
DAV:   6    -0.103440923423E+03   -0.29857E-06   -0.96738E-06   144   0.898E-03
  29 F= -.10344092E+03 E0= -.10344092E+03  d E =-.620072E-11
       N       E                     dE             d eps       ncg     rms          rms(c)
DAV:   1    -0.103440857517E+03    0.65607E-04   -0.16755E-01    96   0.119E+00    0.161E-01
DAV:   2    -0.103441767883E+03   -0.91037E-03   -0.96021E-03   120   0.338E-01    0.929E-02
DAV:   3    -0.103441749840E+03    0.18043E-04   -0.32314E-04   156   0.719E-02    0.497E-02
DAV:   4    -0.103441779470E+03   -0.29629E-04   -0.11211E-04   132   0.407E-02    0.118E-02
DAV:   5    -0.103441782904E+03   -0.34347E-05   -0.20167E-05   132   0.169E-02    0.786E-03
DAV:   6    -0.103441784645E+03   -0.17407E-05   -0.36360E-06   132   0.640E-03    0.500E-03
DAV:   7    -0.103441787482E+03   -0.28373E-05   -0.46547E-07   108   0.269E-03    0.176E-03
DAV:   8    -0.103441789684E+03   -0.22021E-05   -0.22511E-07   108   0.196E-03    0.496E-04
DAV:   9    -0.103441791725E+03   -0.20405E-05   -0.15630E-07   108   0.146E-03    0.494E-04
DAV:  10    -0.103441794413E+03   -0.26881E-05   -0.15389E-07    96   0.129E-03    0.281E-04
DAV:  11    -0.103441794997E+03   -0.58363E-06   -0.40880E-08   108   0.705E-04
  30 F= -.10344179E+03 E0= -.10344179E+03  d E =-.543401E-11
       N       E                     dE             d eps       ncg     rms          rms(c)
DAV:   1    -0.103440181716E+03    0.16127E-02   -0.34229E-01    96   0.169E+00    0.262E-01
DAV:   2    -0.103441534274E+03   -0.13526E-02   -0.15383E-02   132   0.432E-01    0.112E-01
DAV:   3    -0.103441491569E+03    0.42705E-04   -0.56264E-04   132   0.882E-02    0.611E-02
DAV:   4    -0.103441505460E+03   -0.13891E-04   -0.12460E-04   132   0.426E-02    0.182E-02
DAV:   5    -0.103441503424E+03    0.20358E-05   -0.23141E-05   132   0.193E-02    0.905E-03
DAV:   6    -0.103441504255E+03   -0.83109E-06   -0.48386E-06   132   0.762E-03
  31 F= -.10344150E+03 E0= -.10344150E+03  d E =-.868207E-11
       N       E                     dE             d eps       ncg     rms          rms(c)
DAV:   1    -0.103440338506E+03    0.11649E-02   -0.16704E-01    96   0.122E+00    0.166E-01
DAV:   2    -0.103441373257E+03   -0.10348E-02   -0.10749E-02   132   0.339E-01    0.848E-02
DAV:   3    -0.103441350510E+03    0.22747E-04   -0.30485E-04   132   0.658E-02    0.459E-02
DAV:   4    -0.103441363557E+03   -0.13047E-04   -0.90223E-05   132   0.336E-02    0.115E-02
DAV:   5    -0.103441363131E+03    0.42544E-06   -0.14184E-05   144   0.143E-02    0.718E-03
DAV:   6    -0.103441363475E+03   -0.34403E-06   -0.26930E-06   132   0.573E-03
  32 F= -.10344136E+03 E0= -.10344136E+03  d E =-.128280E-10
       N       E                     dE             d eps       ncg     rms          rms(c)
DAV:   1    -0.103439810303E+03    0.15528E-02   -0.34362E-01    96   0.155E+00    0.202E-01
DAV:   2    -0.103441494772E+03   -0.16845E-02   -0.17477E-02   132   0.414E-01    0.121E-01
DAV:   3    -0.103441472932E+03    0.21840E-04   -0.48701E-04   144   0.832E-02    0.661E-02
DAV:   4    -0.103441483423E+03   -0.10492E-04   -0.15021E-04   132   0.460E-02    0.158E-02
DAV:   5    -0.103441477023E+03    0.64008E-05   -0.28832E-05   144   0.204E-02    0.815E-03
DAV:   6    -0.103441477251E+03   -0.22826E-06   -0.60798E-06   132   0.820E-03
  33 F= -.10344148E+03 E0= -.10344148E+03  d E =-.104331E-10
       N       E                     dE             d eps       ncg     rms          rms(c)
DAV:   1    -0.103439560385E+03    0.19166E-02   -0.17320E-01    96   0.111E+00    0.163E-01
DAV:   2    -0.103440701956E+03   -0.11416E-02   -0.11963E-02   132   0.316E-01    0.111E-01
DAV:   3    -0.103440647162E+03    0.54794E-04   -0.29562E-04   132   0.655E-02    0.556E-02
DAV:   4    -0.103440659545E+03   -0.12383E-04   -0.17427E-04   132   0.425E-02    0.111E-02
DAV:   5    -0.103440654194E+03    0.53513E-05   -0.27275E-05   144   0.175E-02    0.724E-03
DAV:   6    -0.103440652914E+03    0.12803E-05   -0.48611E-06   132   0.570E-03    0.399E-03
DAV:   7    -0.103440655311E+03   -0.23974E-05   -0.38161E-07    96   0.226E-03    0.169E-03
DAV:   8    -0.103440660208E+03   -0.48967E-05   -0.72375E-07   120   0.257E-03    0.780E-04
DAV:   9    -0.103440665479E+03   -0.52712E-05   -0.34071E-07   108   0.154E-03    0.764E-04
DAV:  10    -0.103440671927E+03   -0.64477E-05   -0.35978E-07   108   0.126E-03    0.311E-04
DAV:  11    -0.103440674062E+03   -0.21348E-05   -0.57820E-08   120   0.616E-04    0.204E-04
DAV:  12    -0.103440677211E+03   -0.31495E-05   -0.76121E-08   108   0.590E-04    0.980E-05
DAV:  13    -0.103440678637E+03   -0.14261E-05   -0.30061E-08   120   0.362E-04    0.113E-04
DAV:  14    -0.103440679783E+03   -0.11463E-05   -0.10513E-08   108   0.266E-04    0.606E-05
DAV:  15    -0.103440680237E+03   -0.45403E-06    0.35550E-10   120   0.168E-04
  34 F= -.10344068E+03 E0= -.10344068E+03  d E =-.122037E-10
       N       E                     dE             d eps       ncg     rms          rms(c)
DAV:   1    -0.103439039348E+03    0.16404E-02   -0.34770E-01    96   0.153E+00    0.218E-01
DAV:   2    -0.103441027695E+03   -0.19883E-02   -0.20962E-02   132   0.434E-01    0.146E-01
DAV:   3    -0.103440936638E+03    0.91056E-04   -0.56084E-04   144   0.892E-02    0.777E-02
DAV:   4    -0.103440934857E+03    0.17815E-05   -0.24678E-04   132   0.532E-02    0.165E-02
DAV:   5    -0.103440927838E+03    0.70193E-05   -0.38022E-05   144   0.217E-02    0.937E-03
DAV:   6    -0.103440932635E+03   -0.47972E-05   -0.80172E-06   120   0.815E-03    0.536E-03
DAV:   7    -0.103440949386E+03   -0.16752E-04   -0.17192E-06   132   0.393E-03    0.177E-03
DAV:   8    -0.103440963719E+03   -0.14333E-04   -0.86516E-07   120   0.248E-03    0.995E-04
DAV:   9    -0.103440982012E+03   -0.18293E-04   -0.15165E-06   132   0.271E-03    0.896E-04
DAV:  10    -0.103440996843E+03   -0.14831E-04   -0.12731E-06   120   0.228E-03    0.370E-04
DAV:  11    -0.103441001561E+03   -0.47171E-05   -0.16476E-07   120   0.101E-03    0.252E-04
DAV:  12    -0.103441006836E+03   -0.52754E-05   -0.22369E-07    96   0.946E-04    0.133E-04
DAV:  13    -0.103441008534E+03   -0.16976E-05   -0.55680E-08   120   0.471E-04    0.132E-04
DAV:  14    -0.103441009706E+03   -0.11723E-05   -0.11716E-08   108   0.307E-04    0.700E-05
DAV:  15    -0.103441010182E+03   -0.47634E-06   -0.61071E-10   120   0.192E-04
  35 F= -.10344101E+03 E0= -.10344101E+03  d E =-.844275E-11
       N       E                     dE             d eps       ncg     rms          rms(c)
DAV:   1    -0.103440342947E+03    0.66676E-03   -0.17259E-01    96   0.110E+00    0.159E-01
DAV:   2    -0.103441463258E+03   -0.11203E-02   -0.11882E-02   132   0.318E-01    0.109E-01
DAV:   3    -0.103441397781E+03    0.65477E-04   -0.29415E-04   132   0.652E-02    0.544E-02
DAV:   4    -0.103441397121E+03    0.65994E-06   -0.16027E-04   132   0.419E-02    0.107E-02
DAV:   5    -0.103441391643E+03    0.54775E-05   -0.26524E-05   144   0.176E-02    0.721E-03
DAV:   6    -0.103441391835E+03   -0.19196E-06   -0.48681E-06   132   0.597E-03
  36 F= -.10344139E+03 E0= -.10344139E+03  d E =-.134524E-10
       N       E                     dE             d eps       ncg     rms          rms(c)
DAV:   1    -0.103439869754E+03    0.15219E-02   -0.34442E-01    96   0.152E+00    0.204E-01
DAV:   2    -0.103441481984E+03   -0.16122E-02   -0.16719E-02   132   0.408E-01    0.120E-01
DAV:   3    -0.103441474891E+03    0.70938E-05   -0.46961E-04   144   0.808E-02    0.694E-02
DAV:   4    -0.103441501515E+03   -0.26625E-04   -0.13046E-04   132   0.441E-02    0.168E-02
DAV:   5    -0.103441498311E+03    0.32038E-05   -0.27279E-05   144   0.200E-02    0.773E-03
DAV:   6    -0.103441497424E+03    0.88785E-06   -0.49598E-06   144   0.768E-03
  37 F= -.10344150E+03 E0= -.10344150E+03  d E =-.939266E-11
       N       E                     dE             d eps       ncg     rms          rms(c)
DAV:   1    -0.103440281654E+03    0.12167E-02   -0.16914E-01    96   0.124E+00    0.172E-01
DAV:   2    -0.103441362756E+03   -0.10811E-02   -0.11069E-02   132   0.359E-01    0.930E-02
DAV:   3    -0.103441338539E+03    0.24217E-04   -0.31921E-04   144   0.706E-02    0.514E-02
DAV:   4    -0.103441356257E+03   -0.17718E-04   -0.11655E-04   132   0.419E-02    0.124E-02
DAV:   5    -0.103441357289E+03   -0.10317E-05   -0.24133E-05   144   0.186E-02    0.812E-03
DAV:   6    -0.103441358072E+03   -0.78280E-06   -0.30614E-06   132   0.628E-03
  38 F= -.10344136E+03 E0= -.10344136E+03  d E =-.707734E-11
       N       E                     dE             d eps       ncg     rms          rms(c)
DAV:   1    -0.103439534064E+03    0.18232E-02   -0.33624E-01    96   0.175E+00    0.267E-01
DAV:   2    -0.103441275725E+03   -0.17417E-02   -0.18274E-02   132   0.478E-01    0.135E-01
DAV:   3    -0.103441227874E+03    0.47851E-04   -0.59277E-04   132   0.952E-02    0.711E-02
DAV:   4    -0.103441247667E+03   -0.19793E-04   -0.21039E-04   132   0.584E-02    0.160E-02
DAV:   5    -0.103441241460E+03    0.62076E-05   -0.49923E-05   144   0.269E-02    0.115E-02
DAV:   6    -0.103441240153E+03    0.13070E-05   -0.72789E-06   132   0.900E-03    0.753E-03
DAV:   7    -0.103441242987E+03   -0.28337E-05   -0.97052E-07   108   0.417E-03    0.312E-03
DAV:   8    -0.103441247542E+03   -0.45550E-05   -0.12961E-06   132   0.437E-03    0.127E-03
DAV:   9    -0.103441253884E+03   -0.63427E-05   -0.45864E-07   108   0.273E-03    0.786E-04
DAV:  10    -0.103441261652E+03   -0.77679E-05   -0.50959E-07   108   0.243E-03    0.579E-04
DAV:  11    -0.103441264277E+03   -0.26250E-05   -0.17414E-07   108   0.138E-03    0.621E-04
DAV:  12    -0.103441266720E+03   -0.24428E-05   -0.42627E-08   108   0.681E-04    0.404E-04
DAV:  13    -0.103441270275E+03   -0.35554E-05   -0.11772E-07   108   0.732E-04    0.127E-04
DAV:  14    -0.103441271731E+03   -0.14556E-05   -0.31036E-08   108   0.390E-04    0.161E-04
DAV:  15    -0.103441273056E+03   -0.13255E-05   -0.21801E-08    96   0.339E-04    0.469E-05
DAV:  16    -0.103441273384E+03   -0.32785E-06    0.91781E-10   120   0.166E-04
  39 F= -.10344127E+03 E0= -.10344127E+03  d E =-.669664E-11
       N       E                     dE             d eps       ncg     rms          rms(c)
DAV:   1    -0.103439649806E+03    0.16233E-02   -0.17170E-01    96   0.129E+00    0.183E-01
DAV:   2    -0.103440669449E+03   -0.10196E-02   -0.10601E-02   120   0.355E-01    0.114E-01
DAV:   3    -0.103440623073E+03    0.46376E-04   -0.27781E-04   132   0.665E-02    0.605E-02
DAV:   4    -0.103440611925E+03    0.11148E-04   -0.13501E-04   132   0.425E-02    0.113E-02
DAV:   5    -0.103440607711E+03    0.42138E-05   -0.23715E-05   132   0.180E-02    0.803E-03
DAV:   6    -0.103440612058E+03   -0.43464E-05   -0.65459E-06   132   0.773E-03    0.473E-03
DAV:   7    -0.103440626225E+03   -0.14167E-04   -0.14223E-06   120   0.433E-03    0.182E-03
DAV:   8    -0.103440642525E+03   -0.16300E-04   -0.13911E-06   108   0.367E-03    0.897E-04
DAV:   9    -0.103440657925E+03   -0.15400E-04   -0.14584E-06   120   0.304E-03    0.104E-03
DAV:  10    -0.103440670847E+03   -0.12923E-04   -0.11436E-06   120   0.238E-03    0.324E-04
DAV:  11    -0.103440674049E+03   -0.32018E-05   -0.10474E-07   108   0.895E-04    0.209E-04
DAV:  12    -0.103440678088E+03   -0.40384E-05   -0.21605E-07   108   0.943E-04    0.165E-04
DAV:  13    -0.103440678942E+03   -0.85465E-06   -0.23955E-08   120   0.384E-04
  40 F= -.10344068E+03 E0= -.10344068E+03  d E =-.674992E-11
       N       E                     dE             d eps       ncg     rms          rms(c)
DAV:   1    -0.103438578100E+03    0.21000E-02   -0.33799E-01    96   0.175E+00    0.258E-01
DAV:   2    -0.103440603100E+03   -0.20250E-02   -0.21030E-02   132   0.496E-01    0.157E-01
DAV:   3    -0.103440506688E+03    0.96411E-04   -0.55444E-04   132   0.922E-02    0.801E-02
DAV:   4    -0.103440497069E+03    0.96194E-05   -0.25290E-04   132   0.577E-02    0.156E-02
DAV:   5    -0.103440484285E+03    0.12784E-04   -0.41236E-05   132   0.240E-02    0.101E-02
DAV:   6    -0.103440484784E+03   -0.49970E-06   -0.97579E-06   132   0.102E-02
  41 F= -.10344048E+03 E0= -.10344048E+03  d E =-.623408E-11
       N       E                     dE             d eps       ncg     rms          rms(c)
DAV:   1    -0.103438831019E+03    0.16533E-02   -0.17429E-01    96   0.122E+00    0.188E-01
DAV:   2    -0.103440155979E+03   -0.13250E-02   -0.13292E-02   132   0.389E-01    0.127E-01
DAV:   3    -0.103440111193E+03    0.44786E-04   -0.31222E-04   144   0.722E-02    0.685E-02
DAV:   4    -0.103440145914E+03   -0.34721E-04   -0.21934E-04   108   0.544E-02    0.126E-02
DAV:   5    -0.103440144262E+03    0.16524E-05   -0.52349E-05   132   0.252E-02    0.940E-03
DAV:   6    -0.103440144012E+03    0.25007E-06   -0.83631E-06   132   0.793E-03
  42 F= -.10344014E+03 E0= -.10344014E+03  d E =-.683784E-11
       N       E                     dE             d eps       ncg     rms          rms(c)
DAV:   1    -0.103437265125E+03    0.28791E-02   -0.34679E-01    96   0.169E+00    0.256E-01
DAV:   2    -0.103439927091E+03   -0.26620E-02   -0.26912E-02   132   0.545E-01    0.182E-01
DAV:   3    -0.103439808987E+03    0.11810E-03   -0.61318E-04   132   0.101E-01    0.986E-02
DAV:   4    -0.103439821672E+03   -0.12684E-04   -0.44226E-04   120   0.766E-02    0.181E-02
DAV:   5    -0.103439808021E+03    0.13651E-04   -0.10028E-04   132   0.347E-02    0.136E-02
DAV:   6    -0.103439807694E+03    0.32680E-06   -0.18562E-05   132   0.114E-02    0.868E-03
DAV:   7    -0.103439824088E+03   -0.16394E-04   -0.24118E-06   132   0.523E-03    0.333E-03
DAV:   8    -0.103439842477E+03   -0.18389E-04   -0.20075E-06   132   0.408E-03    0.109E-03
DAV:   9    -0.103439862337E+03   -0.19861E-04   -0.23179E-06   108   0.345E-03    0.149E-03
DAV:  10    -0.103439877254E+03   -0.14917E-04   -0.11376E-06   108   0.239E-03    0.721E-04
DAV:  11    -0.103439884199E+03   -0.69450E-05   -0.37243E-07   108   0.136E-03    0.340E-04
DAV:  12    -0.103439889890E+03   -0.56905E-05   -0.32880E-07    96   0.110E-03    0.212E-04
DAV:  13    -0.103439891434E+03   -0.15441E-05   -0.50207E-08   108   0.482E-04    0.236E-04
DAV:  14    -0.103439892949E+03   -0.15146E-05   -0.36725E-08    96   0.447E-04    0.986E-05
DAV:  15    -0.103439893444E+03   -0.49530E-06   -0.54355E-09   108   0.247E-04
  43 F= -.10343989E+03 E0= -.10343989E+03  d E =-.582371E-11
       N       E                     dE             d eps       ncg     rms          rms(c)
DAV:   1    -0.103438995158E+03    0.89779E-03   -0.18207E-01    96   0.134E+00    0.169E-01
DAV:   2    -0.103440517046E+03   -0.15219E-02   -0.16553E-02   132   0.425E-01    0.116E-01
DAV:   3    -0.103440449477E+03    0.67569E-04   -0.32646E-04   144   0.698E-02    0.695E-02
DAV:   4    -0.103440429312E+03    0.20165E-04   -0.17316E-04   120   0.525E-02    0.108E-02
DAV:   5    -0.103440422705E+03    0.66067E-05   -0.48645E-05   144   0.252E-02    0.834E-03
DAV:   6    -0.103440419462E+03    0.32426E-05   -0.58623E-06   132   0.813E-03    0.569E-03
DAV:   7    -0.103440427059E+03   -0.75965E-05   -0.30768E-06   120   0.584E-03    0.205E-03
DAV:   8    -0.103440442635E+03   -0.15576E-04   -0.10939E-06    96   0.374E-03    0.115E-03
DAV:   9    -0.103440455347E+03   -0.12712E-04   -0.88987E-07   108   0.262E-03    0.138E-03
DAV:  10    -0.103440469306E+03   -0.13959E-04   -0.64628E-07    96   0.199E-03    0.300E-04
DAV:  11    -0.103440474201E+03   -0.48953E-05   -0.20737E-07   108   0.104E-03    0.355E-04
DAV:  12    -0.103440479316E+03   -0.51150E-05   -0.11384E-07    96   0.783E-04    0.141E-04
DAV:  13    -0.103440481522E+03   -0.22057E-05   -0.47489E-08   108   0.496E-04    0.116E-04
DAV:  14    -0.103440483342E+03   -0.18198E-05   -0.22891E-08    96   0.365E-04    0.518E-05
DAV:  15    -0.103440483997E+03   -0.65516E-06   -0.28061E-09   108   0.205E-04
  44 F= -.10344048E+03 E0= -.10344048E+03  d E =-.642579E-11
       N       E                     dE             d eps       ncg     rms          rms(c)
DAV:   1    -0.103438947537E+03    0.15358E-02   -0.40377E-01   108   0.188E+00    0.216E-01
DAV:   2    -0.103440623459E+03   -0.16759E-02   -0.20349E-02   120   0.451E-01    0.129E-01
DAV:   3    -0.103440506375E+03    0.11708E-03   -0.34620E-04   144   0.651E-02    0.676E-02
DAV:   4    -0.103440451316E+03    0.55059E-04   -0.12742E-04   120   0.435E-02    0.117E-02
DAV:   5    -0.103440443030E+03    0.82865E-05   -0.27470E-05   132   0.195E-02    0.739E-03
DAV:   6    -0.103440456105E+03   -0.13075E-04   -0.10054E-05   132   0.902E-03    0.427E-03
DAV:   7    -0.103440481839E+03   -0.25734E-04   -0.19960E-06   108   0.424E-03    0.204E-03
DAV:   8    -0.103440517295E+03   -0.35457E-04   -0.39146E-06   108   0.458E-03    0.134E-03
DAV:   9    -0.103440539966E+03   -0.22671E-04   -0.16898E-06   120   0.304E-03    0.960E-04
DAV:  10    -0.103440560749E+03   -0.20783E-04   -0.17862E-06   108   0.275E-03    0.394E-04
DAV:  11    -0.103440567229E+03   -0.64798E-05   -0.19890E-07   108   0.115E-03    0.352E-04
DAV:  12    -0.103440574405E+03   -0.71755E-05   -0.37555E-07    96   0.125E-03    0.169E-04
DAV:  13    -0.103440575538E+03   -0.11339E-05   -0.36114E-08   120   0.489E-04    0.116E-04
DAV:  14    -0.103440577143E+03   -0.16047E-05   -0.21698E-08    96   0.398E-04    0.473E-05
DAV:  15    -0.103440577777E+03   -0.63385E-06   -0.66389E-09   108   0.249E-04
  45 F= -.10344058E+03 E0= -.10344058E+03  d E =-.915016E-11
       N       E                     dE             d eps       ncg     rms          rms(c)
DAV:   1    -0.103439983098E+03    0.59405E-03   -0.20274E-01    96   0.136E+00    0.151E-01
DAV:   2    -0.103440809567E+03   -0.82647E-03   -0.99437E-03   132   0.304E-01    0.804E-02
DAV:   3    -0.103440765007E+03    0.44560E-04   -0.19032E-04   144   0.448E-02    0.430E-02
DAV:   4    -0.103440738934E+03    0.26073E-04   -0.45623E-05   132   0.262E-02    0.891E-03
DAV:   5    -0.103440730735E+03    0.81989E-05   -0.10320E-05   132   0.128E-02    0.499E-03
DAV:   6    -0.103440731824E+03   -0.10889E-05   -0.31446E-06   132   0.629E-03    0.289E-03
DAV:   7    -0.103440739465E+03   -0.76408E-05   -0.11209E-06   108   0.422E-03    0.119E-03
DAV:   8    -0.103440750174E+03   -0.10709E-04   -0.10403E-06   120   0.331E-03    0.105E-03
DAV:   9    -0.103440764892E+03   -0.14718E-04   -0.88398E-07   108   0.243E-03    0.414E-04
DAV:  10    -0.103440771185E+03   -0.62928E-05   -0.20167E-07   108   0.118E-03    0.360E-04
DAV:  11    -0.103440776777E+03   -0.55925E-05   -0.12773E-07    96   0.828E-04    0.161E-04
DAV:  12    -0.103440781050E+03   -0.42726E-05   -0.10982E-07    96   0.680E-04    0.112E-04
DAV:  13    -0.103440782881E+03   -0.18309E-05   -0.15973E-08   108   0.343E-04    0.565E-05
DAV:  14    -0.103440784284E+03   -0.14029E-05   -0.19999E-08    96   0.308E-04    0.379E-05
DAV:  15    -0.103440784832E+03   -0.54821E-06    0.11567E-09   108   0.166E-04
  46 F= -.10344078E+03 E0= -.10344078E+03  d E =-.742081E-11
       N       E                     dE             d eps       ncg     rms          rms(c)
DAV:   1    -0.103439432583E+03    0.13517E-02   -0.40648E-01    96   0.179E+00    0.217E-01
DAV:   2    -0.103441080428E+03   -0.16478E-02   -0.20047E-02   132   0.430E-01    0.120E-01
DAV:   3    -0.103440980984E+03    0.99444E-04   -0.35734E-04   144   0.620E-02    0.641E-02
DAV:   4    -0.103440909817E+03    0.71168E-04   -0.94205E-05   120   0.367E-02    0.125E-02
DAV:   5    -0.103440902214E+03    0.76028E-05   -0.17945E-05   132   0.170E-02    0.708E-03
DAV:   6    -0.103440919023E+03   -0.16809E-04   -0.79944E-06   132   0.981E-03    0.375E-03
DAV:   7    -0.103440949321E+03   -0.30298E-04   -0.47335E-06   120   0.686E-03    0.205E-03
DAV:   8    -0.103440983806E+03   -0.34484E-04   -0.29510E-06   108   0.453E-03    0.114E-03
DAV:   9    -0.103441008776E+03   -0.24970E-04   -0.22337E-06   120   0.350E-03    0.830E-04
DAV:  10    -0.103441029191E+03   -0.20415E-04   -0.18647E-06   108   0.281E-03    0.371E-04
DAV:  11    -0.103441035683E+03   -0.64921E-05   -0.25898E-07   108   0.121E-03    0.278E-04
DAV:  12    -0.103441041329E+03   -0.56458E-05   -0.28948E-07   108   0.108E-03    0.146E-04
DAV:  13    -0.103441042581E+03   -0.12518E-05   -0.39947E-08   120   0.483E-04    0.948E-05
DAV:  14    -0.103441043549E+03   -0.96822E-06   -0.11180E-08   108   0.332E-04
  47 F= -.10344104E+03 E0= -.10344104E+03  d E =-.774793E-11
       N       E                     dE             d eps       ncg     rms          rms(c)
DAV:   1    -0.103441033216E+03    0.93645E-05   -0.20339E-01    96   0.128E+00    0.154E-01
DAV:   2    -0.103441832933E+03   -0.79972E-03   -0.95204E-03   132   0.278E-01    0.733E-02
DAV:   3    -0.103441800744E+03    0.32189E-04   -0.20665E-04   144   0.471E-02    0.386E-02
DAV:   4    -0.103441787787E+03    0.12957E-04   -0.47020E-05   132   0.292E-02    0.934E-03
DAV:   5    -0.103441783533E+03    0.42543E-05   -0.14596E-05   132   0.147E-02    0.567E-03
DAV:   6    -0.103441784025E+03   -0.49270E-06   -0.26478E-06   132   0.529E-03
  48 F= -.10344178E+03 E0= -.10344178E+03  d E =-.877012E-10
       N       E                     dE             d eps       ncg     rms          rms(c)
DAV:   1    -0.103439875125E+03    0.19084E-02   -0.41084E-01    96   0.171E+00    0.223E-01
DAV:   2    -0.103441452956E+03   -0.15778E-02   -0.18726E-02   144   0.384E-01    0.100E-01
DAV:   3    -0.103441400424E+03    0.52532E-04   -0.39732E-04   132   0.649E-02    0.538E-02
DAV:   4    -0.103441383325E+03    0.17099E-04   -0.94248E-05   120   0.402E-02    0.128E-02
DAV:   5    -0.103441379304E+03    0.40211E-05   -0.27814E-05   144   0.203E-02    0.801E-03
DAV:   6    -0.103441381599E+03   -0.22952E-05   -0.45492E-06   132   0.736E-03    0.491E-03
DAV:   7    -0.103441389049E+03   -0.74500E-05   -0.82682E-07   108   0.423E-03    0.167E-03
DAV:   8    -0.103441398173E+03   -0.91244E-05   -0.10806E-06   120   0.387E-03    0.123E-03
DAV:   9    -0.103441413432E+03   -0.15259E-04   -0.10420E-06   120   0.339E-03    0.581E-04
DAV:  10    -0.103441419991E+03   -0.65585E-05   -0.37530E-07   108   0.191E-03    0.606E-04
DAV:  11    -0.103441423682E+03   -0.36912E-05   -0.87712E-08   120   0.950E-04    0.333E-04
DAV:  12    -0.103441429682E+03   -0.59998E-05   -0.22846E-07    96   0.103E-03    0.272E-04
DAV:  13    -0.103441430744E+03   -0.10620E-05   -0.23300E-08   120   0.433E-04    0.213E-04
DAV:  14    -0.103441432853E+03   -0.21088E-05   -0.44070E-08    96   0.462E-04    0.525E-05
DAV:  15    -0.103441433424E+03   -0.57114E-06   -0.45235E-09   108   0.240E-04
  49 F= -.10344143E+03 E0= -.10344143E+03  d E =-.173737E-10
       N       E                     dE             d eps       ncg     rms          rms(c)
DAV:   1    -0.103439357236E+03    0.20756E-02   -0.20068E-01   108   0.136E+00    0.157E-01
DAV:   2    -0.103440511389E+03   -0.11542E-02   -0.13709E-02   120   0.347E-01    0.810E-02
DAV:   3    -0.103440472714E+03    0.38675E-04   -0.27047E-04   144   0.524E-02    0.461E-02
DAV:   4    -0.103440442173E+03    0.30541E-04   -0.56736E-05   132   0.296E-02    0.997E-03
DAV:   5    -0.103440432247E+03    0.99264E-05   -0.13394E-05   132   0.147E-02    0.594E-03
DAV:   6    -0.103440432747E+03   -0.50009E-06   -0.32833E-06   132   0.713E-03
  50 F= -.10344043E+03 E0= -.10344043E+03  d E =-.849191E-11
       N       E                     dE             d eps       ncg     rms          rms(c)
DAV:   1    -0.103439379152E+03    0.10531E-02   -0.40595E-01    96   0.185E+00    0.216E-01
DAV:   2    -0.103441018411E+03   -0.16393E-02   -0.19436E-02   120   0.433E-01    0.123E-01
DAV:   3    -0.103440945129E+03    0.73282E-04   -0.33783E-04   144   0.622E-02    0.650E-02
DAV:   4    -0.103440875828E+03    0.69301E-04   -0.10258E-04   132   0.359E-02    0.119E-02
DAV:   5    -0.103440860760E+03    0.15068E-04   -0.14939E-05   144   0.155E-02    0.677E-03
DAV:   6    -0.103440870768E+03   -0.10008E-04   -0.81216E-06   120   0.101E-02    0.338E-03
DAV:   7    -0.103440894108E+03   -0.23340E-04   -0.45824E-06   120   0.670E-03    0.198E-03
DAV:   8    -0.103440919074E+03   -0.24966E-04   -0.18179E-06   108   0.359E-03    0.110E-03
DAV:   9    -0.103440942005E+03   -0.22931E-04   -0.20487E-06   108   0.313E-03    0.684E-04
DAV:  10    -0.103440958107E+03   -0.16102E-04   -0.13648E-06   120   0.240E-03    0.361E-04
DAV:  11    -0.103440966381E+03   -0.82733E-05   -0.49630E-07   108   0.152E-03    0.236E-04
DAV:  12    -0.103440969467E+03   -0.30863E-05   -0.13267E-07   108   0.772E-04    0.154E-04
DAV:  13    -0.103440971339E+03   -0.18719E-05   -0.60243E-08   108   0.545E-04    0.590E-05
DAV:  14    -0.103440972020E+03   -0.68068E-06   -0.87443E-09   108   0.286E-04
  51 F= -.10344097E+03 E0= -.10344097E+03  d E =-.658027E-11
       N       E                     dE             d eps       ncg     rms          rms(c)
DAV:   1    -0.103441233639E+03   -0.26230E-03   -0.20261E-01    96   0.130E+00    0.151E-01
DAV:   2    -0.103442072426E+03   -0.83879E-03   -0.10027E-02   132   0.297E-01    0.794E-02
DAV:   3    -0.103442032228E+03    0.40198E-04   -0.20097E-04   144   0.465E-02    0.423E-02
DAV:   4    -0.103442010376E+03    0.21853E-04   -0.49908E-05   132   0.284E-02    0.902E-03
DAV:   5    -0.103442003866E+03    0.65096E-05   -0.12862E-05   132   0.138E-02    0.542E-03
DAV:   6    -0.103442004674E+03   -0.80836E-06   -0.30474E-06   132   0.577E-03
  52 F= -.10344200E+03 E0= -.10344200E+03  d E =-.443667E-11
       N       E                     dE             d eps       ncg     rms          rms(c)
DAV:   1    -0.103440203085E+03    0.18008E-02   -0.41256E-01    96   0.168E+00    0.220E-01
DAV:   2    -0.103441701123E+03   -0.14980E-02   -0.17734E-02   144   0.362E-01    0.924E-02
DAV:   3    -0.103441671365E+03    0.29757E-04   -0.42093E-04   144   0.671E-02    0.489E-02
DAV:   4    -0.103441669515E+03    0.18507E-05   -0.74989E-05   132   0.399E-02    0.126E-02
DAV:   5    -0.103441670422E+03   -0.90750E-06   -0.28822E-05   132   0.206E-02    0.785E-03
DAV:   6    -0.103441672075E+03   -0.16524E-05   -0.33755E-06   132   0.611E-03    0.544E-03
DAV:   7    -0.103441676145E+03   -0.40708E-05   -0.56949E-07   108   0.299E-03    0.183E-03
DAV:   8    -0.103441680344E+03   -0.41988E-05   -0.61954E-07   108   0.295E-03    0.118E-03
DAV:   9    -0.103441688970E+03   -0.86261E-05   -0.63074E-07   108   0.340E-03    0.830E-04
DAV:  10    -0.103441692500E+03   -0.35300E-05   -0.36746E-07   108   0.194E-03    0.972E-04
DAV:  11    -0.103441693554E+03   -0.10542E-05   -0.38938E-08   120   0.823E-04    0.702E-04
DAV:  12    -0.103441696219E+03   -0.26640E-05   -0.60342E-08   108   0.730E-04    0.166E-04
DAV:  13    -0.103441698255E+03   -0.20368E-05   -0.55533E-08    96   0.579E-04    0.253E-04
DAV:  14    -0.103441699661E+03   -0.14054E-05   -0.22298E-08    96   0.404E-04    0.667E-05
DAV:  15    -0.103441700334E+03   -0.67354E-06   -0.92337E-09   108   0.261E-04
  53 F= -.10344170E+03 E0= -.10344170E+03  d E =-.160493E-10
       N       E                     dE             d eps       ncg     rms          rms(c)
DAV:   1    -0.103439540462E+03    0.21592E-02   -0.20376E-01    96   0.124E+00    0.153E-01
DAV:   2    -0.103440335778E+03   -0.79532E-03   -0.95085E-03   144   0.298E-01    0.747E-02
DAV:   3    -0.103440301650E+03    0.34128E-04   -0.21319E-04   144   0.488E-02    0.387E-02
DAV:   4    -0.103440289325E+03    0.12325E-04   -0.48518E-05   132   0.294E-02    0.943E-03
DAV:   5    -0.103440284494E+03    0.48311E-05   -0.13517E-05   132   0.142E-02    0.554E-03
DAV:   6    -0.103440284911E+03   -0.41669E-06   -0.27751E-06   132   0.551E-03
  54 F= -.10344028E+03 E0= -.10344028E+03  d E =-.666142E-11
       N       E                     dE             d eps       ncg     rms          rms(c)
DAV:   1    -0.103438954600E+03    0.13299E-02   -0.40347E-01    96   0.186E+00    0.213E-01
DAV:   2    -0.103440660767E+03   -0.17062E-02   -0.20337E-02   132   0.450E-01    0.132E-01
DAV:   3    -0.103440557962E+03    0.10280E-03   -0.32682E-04   144   0.637E-02    0.697E-02
DAV:   4    -0.103440504426E+03    0.53536E-04   -0.13764E-04   132   0.440E-02    0.117E-02
DAV:   5    -0.103440490725E+03    0.13701E-04   -0.25913E-05   132   0.192E-02    0.741E-03
DAV:   6    -0.103440499877E+03   -0.91520E-05   -0.10350E-05   132   0.914E-03    0.413E-03
DAV:   7    -0.103440521565E+03   -0.21688E-04   -0.22166E-06   120   0.458E-03    0.199E-03
DAV:   8    -0.103440551101E+03   -0.29536E-04   -0.33681E-06   108   0.429E-03    0.123E-03
DAV:   9    -0.103440569675E+03   -0.18574E-04   -0.14175E-06   120   0.270E-03    0.924E-04
DAV:  10    -0.103440588790E+03   -0.19115E-04   -0.17876E-06   108   0.270E-03    0.441E-04
DAV:  11    -0.103440594605E+03   -0.58151E-05   -0.21588E-07   108   0.113E-03    0.359E-04
DAV:  12    -0.103440600136E+03   -0.55311E-05   -0.31505E-07    96   0.116E-03    0.154E-04
DAV:  13    -0.103440601285E+03   -0.11493E-05   -0.36870E-08   108   0.489E-04    0.123E-04
DAV:  14    -0.103440602527E+03   -0.12421E-05   -0.16124E-08    96   0.361E-04    0.435E-05
DAV:  15    -0.103440602989E+03   -0.46132E-06   -0.45772E-09   108   0.223E-04
  55 F= -.10344060E+03 E0= -.10344060E+03  d E =-.816125E-11
       N       E                     dE             d eps       ncg     rms          rms(c)
DAV:   1    -0.103440491932E+03    0.11059E-03   -0.19945E-01    96   0.135E+00    0.161E-01
DAV:   2    -0.103441704763E+03   -0.12128E-02   -0.14648E-02   132   0.368E-01    0.873E-02
DAV:   3    -0.103441651253E+03    0.53511E-04   -0.29501E-04   144   0.574E-02    0.504E-02
DAV:   4    -0.103441616920E+03    0.34333E-04   -0.76775E-05   132   0.360E-02    0.105E-02
DAV:   5    -0.103441605901E+03    0.11019E-04   -0.23063E-05   132   0.180E-02    0.707E-03
DAV:   6    -0.103441606533E+03   -0.63225E-06   -0.38196E-06   132   0.671E-03
  56 F= -.10344161E+03 E0= -.10344161E+03  d E =-.764731E-10
       N       E                     dE             d eps       ncg     rms          rms(c)
DAV:   1    -0.103439640908E+03    0.19650E-02   -0.40880E-01    96   0.179E+00    0.221E-01
DAV:   2    -0.103441302680E+03   -0.16618E-02   -0.19448E-02   144   0.403E-01    0.105E-01
DAV:   3    -0.103441257666E+03    0.45014E-04   -0.40621E-04   144   0.659E-02    0.563E-02
DAV:   4    -0.103441248789E+03    0.88772E-05   -0.95164E-05   120   0.406E-02    0.126E-02
DAV:   5    -0.103441244897E+03    0.38926E-05   -0.27526E-05   132   0.202E-02    0.779E-03
DAV:   6    -0.103441246490E+03   -0.15936E-05   -0.48066E-06   132   0.724E-03    0.485E-03
DAV:   7    -0.103441252202E+03   -0.57119E-05   -0.84940E-07   108   0.382E-03    0.180E-03
DAV:   8    -0.103441259226E+03   -0.70234E-05   -0.98959E-07   108   0.366E-03    0.116E-03
DAV:   9    -0.103441270962E+03   -0.11736E-04   -0.91283E-07   108   0.321E-03    0.653E-04
DAV:  10    -0.103441276803E+03   -0.58412E-05   -0.39981E-07   108   0.190E-03    0.622E-04
DAV:  11    -0.103441279130E+03   -0.23272E-05   -0.54811E-08   120   0.864E-04    0.402E-04
DAV:  12    -0.103441284112E+03   -0.49815E-05   -0.17096E-07    96   0.100E-03    0.285E-04
DAV:  13    -0.103441285237E+03   -0.11253E-05   -0.26429E-08   108   0.465E-04    0.258E-04
DAV:  14    -0.103441286636E+03   -0.13985E-05   -0.19110E-08    96   0.403E-04    0.582E-05
DAV:  15    -0.103441287526E+03   -0.89076E-06   -0.12385E-08    96   0.299E-04
  57 F= -.10344129E+03 E0= -.10344129E+03  d E =-.160355E-10
       N       E                     dE             d eps       ncg     rms          rms(c)
DAV:   1    -0.103440221491E+03    0.10651E-02   -0.20556E-01    96   0.123E+00    0.152E-01
DAV:   2    -0.103440955221E+03   -0.73373E-03   -0.87262E-03   144   0.258E-01    0.652E-02
DAV:   3    -0.103440934049E+03    0.21172E-04   -0.21599E-04   144   0.478E-02    0.340E-02
DAV:   4    -0.103440927600E+03    0.64496E-05   -0.39160E-05   132   0.282E-02    0.956E-03
DAV:   5    -0.103440925588E+03    0.20112E-05   -0.13914E-05   132   0.146E-02    0.561E-03
DAV:   6    -0.103440925785E+03   -0.19696E-06   -0.18495E-06   120   0.460E-03
  58 F= -.10344093E+03 E0= -.10344093E+03  d E =-.589443E-11
       N       E                     dE             d eps       ncg     rms          rms(c)
DAV:   1    -0.103439362296E+03    0.15633E-02   -0.40583E-01    96   0.183E+00    0.218E-01
DAV:   2    -0.103441063067E+03   -0.17008E-02   -0.20296E-02   132   0.432E-01    0.119E-01
DAV:   3    -0.103440975569E+03    0.87497E-04   -0.37987E-04   144   0.653E-02    0.632E-02
DAV:   4    -0.103440927440E+03    0.48130E-04   -0.10887E-04   120   0.413E-02    0.121E-02
DAV:   5    -0.103440919578E+03    0.78614E-05   -0.25199E-05   132   0.192E-02    0.752E-03
DAV:   6    -0.103440928451E+03   -0.88728E-05   -0.75575E-06   132   0.850E-03    0.442E-03
DAV:   7    -0.103440948136E+03   -0.19685E-04   -0.22276E-06   120   0.476E-03    0.198E-03
DAV:   8    -0.103440973088E+03   -0.24952E-04   -0.25070E-06   120   0.414E-03    0.120E-03
DAV:   9    -0.103440990845E+03   -0.17758E-04   -0.15012E-06   120   0.297E-03    0.941E-04
DAV:  10    -0.103441007264E+03   -0.16419E-04   -0.14877E-06   108   0.259E-03    0.367E-04
DAV:  11    -0.103441012613E+03   -0.53493E-05   -0.20557E-07   108   0.114E-03    0.325E-04
DAV:  12    -0.103441018584E+03   -0.59701E-05   -0.35947E-07    96   0.121E-03    0.161E-04
DAV:  13    -0.103441019660E+03   -0.10768E-05   -0.40365E-08   120   0.476E-04    0.114E-04
DAV:  14    -0.103441020862E+03   -0.12021E-05   -0.17582E-08    84   0.357E-04    0.462E-05
DAV:  15    -0.103441021494E+03   -0.63124E-06   -0.98914E-09    96   0.256E-04
  59 F= -.10344102E+03 E0= -.10344102E+03  d E =-.959070E-11
       N       E                     dE             d eps       ncg     rms          rms(c)
DAV:   1    -0.103439574438E+03    0.14464E-02   -0.20241E-01    96   0.133E+00    0.154E-01
DAV:   2    -0.103440384188E+03   -0.80975E-03   -0.98345E-03   132   0.313E-01    0.809E-02
DAV:   3    -0.103440337888E+03    0.46300E-04   -0.18293E-04   144   0.448E-02    0.429E-02
DAV:   4    -0.103440306650E+03    0.31238E-04   -0.41380E-05   132   0.243E-02    0.897E-03
DAV:   5    -0.103440297908E+03    0.87418E-05   -0.79916E-06   144   0.116E-02    0.465E-03
DAV:   6    -0.103440299784E+03   -0.18755E-05   -0.30376E-06   120   0.691E-03    0.241E-03
DAV:   7    -0.103440308969E+03   -0.91854E-05   -0.18097E-06   120   0.510E-03    0.132E-03
DAV:   8    -0.103440322639E+03   -0.13670E-04   -0.83171E-07   108   0.318E-03    0.778E-04
DAV:   9    -0.103440334591E+03   -0.11952E-04   -0.71718E-07   108   0.218E-03    0.505E-04
DAV:  10    -0.103440345532E+03   -0.10942E-04   -0.49958E-07   108   0.156E-03    0.259E-04
DAV:  11    -0.103440350309E+03   -0.47765E-05   -0.12167E-07   108   0.846E-04    0.186E-04
DAV:  12    -0.103440355004E+03   -0.46951E-05   -0.10676E-07   108   0.715E-04    0.878E-05
DAV:  13    -0.103440356269E+03   -0.12647E-05   -0.17765E-08   108   0.380E-04    0.605E-05
DAV:  14    -0.103440357229E+03   -0.96073E-06   -0.49975E-09   108   0.260E-04
  60 F= -.10344036E+03 E0= -.10344036E+03  d E =-.874455E-11
       N       E                     dE             d eps       ncg     rms          rms(c)
DAV:   1    -0.103439248102E+03    0.11082E-02   -0.40499E-01    96   0.185E+00    0.212E-01
DAV:   2    -0.103440875557E+03   -0.16275E-02   -0.19892E-02   132   0.439E-01    0.128E-01
DAV:   3    -0.103440756502E+03    0.11906E-03   -0.33253E-04   144   0.627E-02    0.677E-02
DAV:   4    -0.103440685374E+03    0.71127E-04   -0.11321E-04   132   0.393E-02    0.124E-02
DAV:   5    -0.103440678591E+03    0.67837E-05   -0.18820E-05   132   0.171E-02    0.729E-03
DAV:   6    -0.103440699134E+03   -0.20543E-04   -0.10811E-05   132   0.103E-02    0.381E-03
DAV:   7    -0.103440732168E+03   -0.33034E-04   -0.48966E-06   108   0.670E-03    0.216E-03
DAV:   8    -0.103440770987E+03   -0.38819E-04   -0.35330E-06   108   0.450E-03    0.113E-03
DAV:   9    -0.103440798796E+03   -0.27809E-04   -0.26922E-06   120   0.359E-03    0.839E-04
DAV:  10    -0.103440820059E+03   -0.21263E-04   -0.20121E-06   120   0.283E-03    0.398E-04
DAV:  11    -0.103440826960E+03   -0.69013E-05   -0.29986E-07   108   0.126E-03    0.255E-04
DAV:  12    -0.103440831727E+03   -0.47665E-05   -0.22824E-07   108   0.981E-04    0.162E-04
DAV:  13    -0.103440833412E+03   -0.16857E-05   -0.42791E-08   108   0.513E-04    0.677E-05
DAV:  14    -0.103440834458E+03   -0.10454E-05   -0.12812E-08   108   0.339E-04    0.592E-05
DAV:  15    -0.103440834773E+03   -0.31588E-06    0.23319E-09   108   0.164E-04
  61 F= -.10344083E+03 E0= -.10344083E+03  d E =-.654839E-11
       N       E                     dE             d eps       ncg     rms          rms(c)
DAV:   1    -0.103443557360E+03   -0.27229E-02   -0.23785E-01    96   0.176E+00    0.156E-01
DAV:   2    -0.103443979663E+03   -0.42230E-03   -0.68330E-03   132   0.277E-01    0.894E-02
DAV:   3    -0.103443897712E+03    0.81952E-04   -0.20668E-04   132   0.521E-02    0.412E-02
DAV:   4    -0.103443879925E+03    0.17787E-04   -0.83730E-05   132   0.321E-02    0.914E-03
DAV:   5    -0.103443875760E+03    0.41653E-05   -0.10862E-05   132   0.127E-02    0.670E-03
DAV:   6    -0.103443876642E+03   -0.88215E-06   -0.33294E-06   132   0.630E-03
  62 F= -.10344388E+03 E0= -.10344388E+03  d E =-.724496E-11
       N       E                     dE             d eps       ncg     rms          rms(c)
DAV:   1    -0.103444182921E+03   -0.30716E-03   -0.54876E-01    96   0.256E+00    0.228E-01
DAV:   2    -0.103443865523E+03    0.31740E-03   -0.35515E-03   132   0.198E-01    0.122E-01
DAV:   3    -0.103443661077E+03    0.20445E-03   -0.50959E-04   132   0.689E-02    0.365E-02
DAV:   4    -0.103443668479E+03   -0.74018E-05   -0.11563E-04   132   0.336E-02    0.137E-02
DAV:   5    -0.103443672406E+03   -0.39269E-05   -0.59286E-06   132   0.970E-03    0.824E-03
DAV:   6    -0.103443679331E+03   -0.69252E-05   -0.33195E-06   120   0.646E-03    0.150E-03
DAV:   7    -0.103443682689E+03   -0.33582E-05   -0.64485E-07   108   0.311E-03    0.104E-03
DAV:   8    -0.103443687086E+03   -0.43970E-05   -0.14852E-07   108   0.140E-03    0.414E-04
DAV:   9    -0.103443691600E+03   -0.45133E-05   -0.15608E-07   108   0.119E-03    0.309E-04
DAV:  10    -0.103443695096E+03   -0.34960E-05   -0.12444E-07   108   0.959E-04    0.190E-04
DAV:  11    -0.103443697310E+03   -0.22139E-05   -0.86981E-08   108   0.709E-04    0.144E-04
DAV:  12    -0.103443698129E+03   -0.81901E-06   -0.13194E-08   108   0.394E-04
  63 F= -.10344370E+03 E0= -.10344370E+03  d E =-.645766E-11
       N       E                     dE             d eps       ncg     rms          rms(c)
DAV:   1    -0.103443209320E+03    0.48799E-03   -0.29100E-01    96   0.184E+00    0.210E-01
DAV:   2    -0.103442957476E+03    0.25184E-03   -0.24516E-03   120   0.162E-01    0.103E-01
DAV:   3    -0.103442804149E+03    0.15333E-03   -0.41926E-04   132   0.607E-02    0.358E-02
DAV:   4    -0.103442799992E+03    0.41577E-05   -0.11812E-04   132   0.318E-02    0.148E-02
DAV:   5    -0.103442798090E+03    0.19016E-05   -0.50169E-06   120   0.955E-03    0.529E-03
DAV:   6    -0.103442799172E+03   -0.10820E-05   -0.32779E-06   132   0.612E-03    0.184E-03
DAV:   7    -0.103442800819E+03   -0.16468E-05   -0.61998E-07   108   0.284E-03    0.868E-04
DAV:   8    -0.103442803394E+03   -0.25749E-05   -0.17376E-07   108   0.153E-03    0.441E-04
DAV:   9    -0.103442805281E+03   -0.18867E-05   -0.11137E-07   108   0.111E-03    0.413E-04
DAV:  10    -0.103442808570E+03   -0.32898E-05   -0.17701E-07    96   0.103E-03    0.162E-04
DAV:  11    -0.103442809356E+03   -0.78541E-06   -0.30571E-08   108   0.535E-04
  64 F= -.10344281E+03 E0= -.10344281E+03  d E =-.700034E-11
       N       E                     dE             d eps       ncg     rms          rms(c)
DAV:   1    -0.103443202393E+03   -0.39382E-03   -0.56847E-01    96   0.243E+00    0.276E-01
DAV:   2    -0.103442737681E+03    0.46471E-03   -0.43449E-03   120   0.209E-01    0.137E-01
DAV:   3    -0.103442448959E+03    0.28872E-03   -0.71879E-04   132   0.735E-02    0.472E-02
DAV:   4    -0.103442437211E+03    0.11748E-04   -0.17235E-04   144   0.378E-02    0.177E-02
DAV:   5    -0.103442439433E+03   -0.22225E-05   -0.87351E-06   132   0.125E-02    0.717E-03
DAV:   6    -0.103442445980E+03   -0.65469E-05   -0.54290E-06   132   0.757E-03    0.247E-03
DAV:   7    -0.103442451171E+03   -0.51913E-05   -0.98907E-07   132   0.344E-03    0.118E-03
DAV:   8    -0.103442458549E+03   -0.73780E-05   -0.39901E-07   108   0.196E-03    0.518E-04
DAV:   9    -0.103442463409E+03   -0.48599E-05   -0.30958E-07   108   0.152E-03    0.533E-04
DAV:  10    -0.103442470566E+03   -0.71566E-05   -0.57162E-07   108   0.167E-03    0.258E-04
DAV:  11    -0.103442471873E+03   -0.13068E-05   -0.93777E-08   120   0.798E-04    0.200E-04
DAV:  12    -0.103442472825E+03   -0.95251E-06   -0.20269E-08   108   0.435E-04
  65 F= -.10344247E+03 E0= -.10344247E+03  d E =-.596232E-11
       N       E                     dE             d eps       ncg     rms          rms(c)
DAV:   1    -0.103444309816E+03   -0.18379E-02   -0.28938E-01    96   0.169E+00    0.203E-01
DAV:   2    -0.103444040006E+03    0.26981E-03   -0.23486E-03   120   0.158E-01    0.101E-01
DAV:   3    -0.103443886894E+03    0.15311E-03   -0.43483E-04   132   0.620E-02    0.343E-02
DAV:   4    -0.103443886201E+03    0.69309E-06   -0.11738E-04   132   0.322E-02    0.148E-02
DAV:   5    -0.103443885177E+03    0.10240E-05   -0.44320E-06   120   0.863E-03    0.605E-03
DAV:   6    -0.103443885925E+03   -0.74740E-06   -0.29445E-06   132   0.609E-03
  66 F= -.10344389E+03 E0= -.10344389E+03  d E =-.638182E-11
       N       E                     dE             d eps       ncg     rms          rms(c)
DAV:   1    -0.103444411148E+03   -0.52597E-03   -0.55668E-01    96   0.236E+00    0.221E-01
DAV:   2    -0.103444049920E+03    0.36123E-03   -0.36577E-03   132   0.185E-01    0.121E-01
DAV:   3    -0.103443825583E+03    0.22434E-03   -0.64776E-04   132   0.752E-02    0.318E-02
DAV:   4    -0.103443832990E+03   -0.74074E-05   -0.13394E-04   132   0.354E-02    0.150E-02
DAV:   5    -0.103443832319E+03    0.67159E-06   -0.45392E-06   132   0.797E-03
  67 F= -.10344383E+03 E0= -.10344383E+03  d E =-.728273E-11
       N       E                     dE             d eps       ncg     rms          rms(c)
DAV:   1    -0.103444486910E+03   -0.65392E-03   -0.27426E-01    96   0.170E+00    0.148E-01
DAV:   2    -0.103444421060E+03    0.65850E-04   -0.18481E-03   132   0.141E-01    0.850E-02
DAV:   3    -0.103444337861E+03    0.83199E-04   -0.18549E-04   132   0.433E-02    0.188E-02
DAV:   4    -0.103444339467E+03   -0.16058E-05   -0.35013E-05   132   0.187E-02    0.668E-03
DAV:   5    -0.103444339553E+03   -0.86716E-07   -0.97832E-07   108   0.419E-03
  68 F= -.10344434E+03 E0= -.10344434E+03  d E =-.674512E-11
       N       E                     dE             d eps       ncg     rms          rms(c)
DAV:   1    -0.103444847932E+03   -0.50847E-03   -0.54231E-01    96   0.256E+00    0.201E-01
DAV:   2    -0.103444573061E+03    0.27487E-03   -0.28461E-03   132   0.182E-01    0.113E-01
DAV:   3    -0.103444405491E+03    0.16757E-03   -0.45494E-04   132   0.701E-02    0.246E-02
DAV:   4    -0.103444413821E+03   -0.83297E-05   -0.88051E-05   132   0.305E-02    0.106E-02
DAV:   5    -0.103444414028E+03   -0.20681E-06   -0.31690E-06   132   0.674E-03
  69 F= -.10344441E+03 E0= -.10344441E+03  d E =-.685138E-11
       N       E                     dE             d eps       ncg     rms          rms(c)
DAV:   1    -0.103444517117E+03   -0.10330E-03   -0.27455E-01    96   0.181E+00    0.142E-01
DAV:   2    -0.103444377163E+03    0.13995E-03   -0.14446E-03   132   0.122E-01    0.796E-02
DAV:   3    -0.103444288787E+03    0.88376E-04   -0.23963E-04   132   0.448E-02    0.172E-02
DAV:   4    -0.103444290854E+03   -0.20668E-05   -0.37254E-05   132   0.191E-02    0.666E-03
DAV:   5    -0.103444290487E+03    0.36670E-06   -0.13946E-06   120   0.443E-03
  70 F= -.10344429E+03 E0= -.10344429E+03  d E =-.742682E-11
       N       E                     dE             d eps       ncg     rms          rms(c)
DAV:   1    -0.103444706105E+03   -0.41525E-03   -0.54782E-01    96   0.230E+00    0.204E-01
DAV:   2    -0.103444433414E+03    0.27269E-03   -0.29048E-03   132   0.169E-01    0.113E-01
DAV:   3    -0.103444247133E+03    0.18628E-03   -0.46373E-04   132   0.617E-02    0.260E-02
DAV:   4    -0.103444249266E+03   -0.21330E-05   -0.71029E-05   120   0.264E-02    0.947E-03
DAV:   5    -0.103444249452E+03   -0.18618E-06   -0.35694E-06   132   0.701E-03
  71 F= -.10344425E+03 E0= -.10344425E+03  d E =-.565621E-11
       N       E                     dE             d eps       ncg     rms          rms(c)
DAV:   1    -0.103441868112E+03    0.23812E-02   -0.27866E-01    96   0.165E+00    0.164E-01
DAV:   2    -0.103441664008E+03    0.20410E-03   -0.18293E-03   132   0.135E-01    0.870E-02
DAV:   3    -0.103441549971E+03    0.11404E-03   -0.31888E-04   132   0.518E-02    0.251E-02
DAV:   4    -0.103441553515E+03   -0.35443E-05   -0.70602E-05   132   0.248E-02    0.110E-02
DAV:   5    -0.103441554927E+03   -0.14119E-05   -0.23920E-06   132   0.615E-03    0.553E-03
DAV:   6    -0.103441557544E+03   -0.26175E-05   -0.19140E-06   132   0.451E-03    0.936E-04
DAV:   7    -0.103441558829E+03   -0.12848E-05   -0.35598E-07   108   0.212E-03    0.654E-04
DAV:   8    -0.103441560880E+03   -0.20505E-05   -0.10118E-07   108   0.957E-04    0.263E-04
DAV:   9    -0.103441562232E+03   -0.13528E-05   -0.46675E-08   108   0.631E-04    0.191E-04
DAV:  10    -0.103441563594E+03   -0.13616E-05   -0.47444E-08    96   0.553E-04    0.129E-04
DAV:  11    -0.103441564737E+03   -0.11429E-05   -0.54056E-08   108   0.490E-04    0.704E-05
DAV:  12    -0.103441565265E+03   -0.52831E-06   -0.11023E-08    96   0.277E-04
  72 F= -.10344157E+03 E0= -.10344157E+03  d E =-.604149E-11
       N       E                     dE             d eps       ncg     rms          rms(c)
DAV:   1    -0.103442687767E+03   -0.11230E-02   -0.59121E-01    96   0.224E+00    0.313E-01
DAV:   2    -0.103442052682E+03    0.63508E-03   -0.51942E-03   132   0.222E-01    0.152E-01
DAV:   3    -0.103441704677E+03    0.34801E-03   -0.10352E-03   132   0.912E-02    0.500E-02
DAV:   4    -0.103441700302E+03    0.43747E-05   -0.25179E-04   132   0.458E-02    0.222E-02
DAV:   5    -0.103441697483E+03    0.28193E-05   -0.79561E-06   132   0.121E-02    0.890E-03
DAV:   6    -0.103441698637E+03   -0.11544E-05   -0.67076E-06   132   0.946E-03    0.217E-03
DAV:   7    -0.103441701653E+03   -0.30154E-05   -0.19654E-06   132   0.462E-03    0.145E-03
DAV:   8    -0.103441705798E+03   -0.41453E-05   -0.24233E-07   108   0.135E-03    0.711E-04
DAV:   9    -0.103441709182E+03   -0.33840E-05   -0.18452E-07   108   0.145E-03    0.537E-04
DAV:  10    -0.103441713998E+03   -0.48161E-05   -0.28095E-07    96   0.160E-03    0.777E-04
[...]
DAV:  11    -0.103442357413E+03   -0.10813E-05   -0.40589E-08   108   0.641E-04    0.189E-04
DAV:  12    -0.103442358144E+03   -0.73146E-06   -0.11157E-08   108   0.327E-04
 129 F= -.10344236E+03 E0= -.10344236E+03  d E =-.564973E-11
       N       E                     dE             d eps       ncg     rms          rms(c)
DAV:   1    -0.103444606361E+03   -0.22489E-02   -0.28259E-01    96   0.154E+00    0.187E-01
DAV:   2    -0.103444400753E+03    0.20561E-03   -0.20676E-03   132   0.141E-01    0.932E-02
DAV:   3    -0.103444281751E+03    0.11900E-03   -0.33106E-04   132   0.511E-02    0.317E-02
DAV:   4    -0.103444279283E+03    0.24681E-05   -0.74569E-05   120   0.254E-02    0.110E-02
DAV:   5    -0.103444278229E+03    0.10534E-05   -0.33983E-06   132   0.822E-03    0.460E-03
DAV:   6    -0.103444279169E+03   -0.93989E-06   -0.22777E-06   132   0.521E-03
 130 F= -.10344428E+03 E0= -.10344428E+03  d E =-.880314E-11
       N       E                     dE             d eps       ncg     rms          rms(c)
DAV:   1    -0.103444869160E+03   -0.59093E-03   -0.53988E-01    96   0.233E+00    0.196E-01
DAV:   2    -0.103444640991E+03    0.22817E-03   -0.29051E-03   132   0.169E-01    0.111E-01
DAV:   3    -0.103444488446E+03    0.15255E-03   -0.43531E-04   132   0.631E-02    0.246E-02
DAV:   4    -0.103444494861E+03   -0.64149E-05   -0.68092E-05   120   0.265E-02    0.981E-03
DAV:   5    -0.103444495379E+03   -0.51836E-06   -0.30143E-06   132   0.629E-03
 131 F= -.10344450E+03 E0= -.10344450E+03  d E =-.622326E-11
       N       E                     dE             d eps       ncg     rms          rms(c)
DAV:   1    -0.103444076871E+03    0.41799E-03   -0.27134E-01    96   0.161E+00    0.140E-01
DAV:   2    -0.103443961181E+03    0.11569E-03   -0.15152E-03   132   0.120E-01    0.783E-02
DAV:   3    -0.103443885304E+03    0.75876E-04   -0.21496E-04   132   0.427E-02    0.186E-02
DAV:   4    -0.103443888119E+03   -0.28148E-05   -0.33285E-05   132   0.179E-02    0.646E-03
DAV:   5    -0.103443888746E+03   -0.62738E-06   -0.17199E-06   132   0.474E-03
 132 F= -.10344389E+03 E0= -.10344389E+03  d E =-.726465E-11
       N       E                     dE             d eps       ncg     rms          rms(c)
DAV:   1    -0.103444376822E+03   -0.48870E-03   -0.55062E-01    96   0.217E+00    0.224E-01
DAV:   2    -0.103444083474E+03    0.29335E-03   -0.32411E-03   132   0.177E-01    0.119E-01
DAV:   3    -0.103443897210E+03    0.18626E-03   -0.50074E-04   132   0.654E-02    0.356E-02
DAV:   4    -0.103443899281E+03   -0.20711E-05   -0.10567E-04   132   0.311E-02    0.119E-02
DAV:   5    -0.103443898323E+03    0.95818E-06   -0.55287E-06   132   0.919E-03
 133 F= -.10344390E+03 E0= -.10344390E+03  d E =-.656266E-11
       N       E                     dE             d eps       ncg     rms          rms(c)
DAV:   1    -0.103444078108E+03   -0.17883E-03   -0.27640E-01    96   0.195E+00    0.160E-01
DAV:   2    -0.103443981660E+03    0.96448E-04   -0.21078E-03   132   0.163E-01    0.861E-02
DAV:   3    -0.103443891053E+03    0.90607E-04   -0.22153E-04   132   0.479E-02    0.282E-02
DAV:   4    -0.103443890610E+03    0.44279E-06   -0.58268E-05   132   0.238E-02    0.840E-03
DAV:   5    -0.103443889940E+03    0.66941E-06   -0.36991E-06   132   0.741E-03
 134 F= -.10344389E+03 E0= -.10344389E+03  d E =-.749420E-11
       N       E                     dE             d eps       ncg     rms          rms(c)
DAV:   1    -0.103444078117E+03   -0.18751E-03   -0.55308E-01    96   0.242E+00    0.232E-01
DAV:   2    -0.103443776313E+03    0.30180E-03   -0.34608E-03   132   0.185E-01    0.121E-01
DAV:   3    -0.103443558738E+03    0.21758E-03   -0.47628E-04   132   0.609E-02    0.381E-02
DAV:   4    -0.103443553433E+03    0.53045E-05   -0.11019E-04   144   0.303E-02    0.121E-02
DAV:   5    -0.103443553679E+03   -0.24555E-06   -0.64377E-06   132   0.999E-03
 135 F= -.10344355E+03 E0= -.10344355E+03  d E =-.546110E-11
       N       E                     dE             d eps       ncg     rms          rms(c)
DAV:   1    -0.103443222620E+03    0.33081E-03   -0.29029E-01    96   0.171E+00    0.207E-01
DAV:   2    -0.103442957257E+03    0.26536E-03   -0.23341E-03   132   0.157E-01    0.103E-01
DAV:   3    -0.103442816807E+03    0.14045E-03   -0.44324E-04   132   0.612E-02    0.347E-02
DAV:   4    -0.103442818668E+03   -0.18611E-05   -0.11413E-04   132   0.321E-02    0.153E-02
DAV:   5    -0.103442817078E+03    0.15894E-05   -0.43938E-06   132   0.881E-03    0.545E-03
DAV:   6    -0.103442817247E+03   -0.16842E-06   -0.30843E-06   132   0.602E-03
 136 F= -.10344282E+03 E0= -.10344282E+03  d E =-.671111E-11
       N       E                     dE             d eps       ncg     rms          rms(c)
DAV:   1    -0.103443457922E+03   -0.64084E-03   -0.57200E-01    96   0.242E+00    0.268E-01
DAV:   2    -0.103442937380E+03    0.52054E-03   -0.45973E-03   132   0.213E-01    0.138E-01
DAV:   3    -0.103442639767E+03    0.29761E-03   -0.85843E-04   132   0.834E-02    0.448E-02
DAV:   4    -0.103442641840E+03   -0.20722E-05   -0.19917E-04   132   0.431E-02    0.200E-02
DAV:   5    -0.103442641109E+03    0.73050E-06   -0.71706E-06   132   0.104E-02
 137 F= -.10344264E+03 E0= -.10344264E+03  d E =-.653749E-11
       N       E                     dE             d eps       ncg     rms          rms(c)
DAV:   1    -0.103444382324E+03   -0.17405E-02   -0.28857E-01    96   0.170E+00    0.201E-01
DAV:   2    -0.103444105459E+03    0.27687E-03   -0.22525E-03   132   0.157E-01    0.101E-01
DAV:   3    -0.103443966139E+03    0.13932E-03   -0.45213E-04   132   0.643E-02    0.325E-02
DAV:   4    -0.103443969558E+03   -0.34188E-05   -0.10873E-04   132   0.327E-02    0.149E-02
DAV:   5    -0.103443968534E+03    0.10239E-05   -0.38097E-06   132   0.835E-03    0.620E-03
DAV:   6    -0.103443968700E+03   -0.16622E-06   -0.30079E-06   132   0.637E-03
 138 F= -.10344397E+03 E0= -.10344397E+03  d E =-.711075E-11
       N       E                     dE             d eps       ncg     rms          rms(c)
DAV:   1    -0.103444224380E+03   -0.25585E-03   -0.54802E-01    96   0.256E+00    0.226E-01
DAV:   2    -0.103443930432E+03    0.29395E-03   -0.34508E-03   132   0.195E-01    0.121E-01
DAV:   3    -0.103443723868E+03    0.20656E-03   -0.49221E-04   132   0.666E-02    0.356E-02
DAV:   4    -0.103443725759E+03   -0.18916E-05   -0.10343E-04   144   0.315E-02    0.128E-02
DAV:   5    -0.103443726099E+03   -0.33939E-06   -0.56651E-06   132   0.939E-03
 139 F= -.10344373E+03 E0= -.10344373E+03  d E =-.607790E-11
       N       E                     dE             d eps       ncg     rms          rms(c)
DAV:   1    -0.103443767440E+03   -0.41681E-04   -0.27643E-01    96   0.182E+00    0.167E-01
DAV:   2    -0.103443663136E+03    0.10430E-03   -0.18997E-03   132   0.140E-01    0.875E-02
DAV:   3    -0.103443572310E+03    0.90825E-04   -0.25801E-04   132   0.440E-02    0.271E-02
DAV:   4    -0.103443569861E+03    0.24497E-05   -0.42657E-05   144   0.186E-02    0.104E-02
DAV:   5    -0.103443568238E+03    0.16226E-05   -0.26443E-06   132   0.713E-03    0.515E-03
DAV:   6    -0.103443568205E+03    0.33468E-07   -0.22966E-06   132   0.554E-03
 140 F= -.10344357E+03 E0= -.10344357E+03  d E =-.716936E-11
       N       E                     dE             d eps       ncg     rms          rms(c)
DAV:   1    -0.103444004320E+03   -0.43608E-03   -0.55636E-01    96   0.236E+00    0.241E-01
DAV:   2    -0.103443650197E+03    0.35412E-03   -0.34848E-03   132   0.185E-01    0.125E-01
DAV:   3    -0.103443426089E+03    0.22411E-03   -0.53887E-04   120   0.640E-02    0.389E-02
DAV:   4    -0.103443419213E+03    0.68763E-05   -0.10868E-04   132   0.301E-02    0.133E-02
DAV:   5    -0.103443419055E+03    0.15790E-06   -0.63673E-06   132   0.103E-02
 141 F= -.10344342E+03 E0= -.10344342E+03  d E =-.530426E-11
       N       E                     dE             d eps       ncg     rms          rms(c)
DAV:   1    -0.103442497038E+03    0.92217E-03   -0.27266E-01    96   0.163E+00    0.138E-01
DAV:   2    -0.103442368085E+03    0.12895E-03   -0.15077E-03   132   0.121E-01    0.785E-02
DAV:   3    -0.103442282764E+03    0.85320E-04   -0.25943E-04   132   0.480E-02    0.165E-02
DAV:   4    -0.103442287643E+03   -0.48787E-05   -0.46396E-05   132   0.211E-02    0.803E-03
DAV:   5    -0.103442288293E+03   -0.64959E-06   -0.12140E-06   132   0.422E-03
 142 F= -.10344229E+03 E0= -.10344229E+03  d E =-.599244E-11
       N       E                     dE             d eps       ncg     rms          rms(c)
DAV:   1    -0.103443344381E+03   -0.10567E-02   -0.58148E-01    96   0.221E+00    0.286E-01
DAV:   2    -0.103442796654E+03    0.54773E-03   -0.47753E-03   132   0.213E-01    0.143E-01
DAV:   3    -0.103442485786E+03    0.31087E-03   -0.90511E-04   132   0.868E-02    0.472E-02
DAV:   4    -0.103442489036E+03   -0.32497E-05   -0.22734E-04   132   0.436E-02    0.197E-02
DAV:   5    -0.103442486866E+03    0.21693E-05   -0.80176E-06   132   0.114E-02    0.843E-03
DAV:   6    -0.103442486992E+03   -0.12513E-06   -0.55347E-06   120   0.806E-03
 143 F= -.10344249E+03 E0= -.10344249E+03  d E =-.711998E-11
       N       E                     dE             d eps       ncg     rms          rms(c)
DAV:   1    -0.103444740111E+03   -0.22532E-02   -0.28144E-01    96   0.158E+00    0.168E-01
DAV:   2    -0.103444515986E+03    0.22413E-03   -0.18451E-03   132   0.140E-01    0.897E-02
DAV:   3    -0.103444401489E+03    0.11450E-03   -0.34278E-04   132   0.583E-02    0.247E-02
DAV:   4    -0.103444407108E+03   -0.56197E-05   -0.81392E-05   132   0.285E-02    0.118E-02
DAV:   5    -0.103444407074E+03    0.34506E-07   -0.24803E-06   132   0.619E-03
 144 F= -.10344441E+03 E0= -.10344441E+03  d E =-.703067E-11
       N       E                     dE             d eps       ncg     rms          rms(c)
DAV:   1    -0.103444808871E+03   -0.40176E-03   -0.54142E-01    96   0.246E+00    0.198E-01
DAV:   2    -0.103444549506E+03    0.25937E-03   -0.28248E-03   132   0.181E-01    0.112E-01
DAV:   3    -0.103444380301E+03    0.16920E-03   -0.44262E-04   144   0.663E-02    0.236E-02
DAV:   4    -0.103444385740E+03   -0.54382E-05   -0.70062E-05   120   0.273E-02    0.101E-02
DAV:   5    -0.103444386207E+03   -0.46703E-06   -0.30421E-06   132   0.640E-03
 145 F= -.10344439E+03 E0= -.10344439E+03  d E =-.624147E-11
       N       E                     dE             d eps       ncg     rms          rms(c)
DAV:   1    -0.103443774472E+03    0.61127E-03   -0.27039E-01    96   0.202E+00    0.134E-01
DAV:   2    -0.103443714204E+03    0.60268E-04   -0.18485E-03   132   0.161E-01    0.760E-02
DAV:   3    -0.103443639428E+03    0.74776E-04   -0.22215E-04   144   0.504E-02    0.183E-02
DAV:   4    -0.103443642705E+03   -0.32769E-05   -0.49060E-05   132   0.228E-02    0.762E-03
DAV:   5    -0.103443642521E+03    0.18380E-06   -0.14914E-06   120   0.511E-03
 146 F= -.10344364E+03 E0= -.10344364E+03  d E =-.721216E-11
       N       E                     dE             d eps       ncg     rms          rms(c)
DAV:   1    -0.103443838916E+03   -0.19621E-03   -0.53653E-01    96   0.264E+00    0.177E-01
DAV:   2    -0.103443717969E+03    0.12095E-03   -0.32861E-03   132   0.191E-01    0.101E-01
DAV:   3    -0.103443558611E+03    0.15936E-03   -0.49675E-04   132   0.681E-02    0.202E-02
DAV:   4    -0.103443563245E+03   -0.46339E-05   -0.10565E-04   132   0.319E-02    0.108E-02
DAV:   5    -0.103443562109E+03    0.11363E-05   -0.28868E-06   132   0.616E-03    0.674E-03
DAV:   6    -0.103443562864E+03   -0.75506E-06   -0.32011E-06   120   0.612E-03
 147 F= -.10344356E+03 E0= -.10344356E+03  d E =-.597797E-11
       N       E                     dE             d eps       ncg     rms          rms(c)
DAV:   1    -0.103442652020E+03    0.91009E-03   -0.26387E-01    96   0.185E+00    0.112E-01
DAV:   2    -0.103442591196E+03    0.60824E-04   -0.10491E-03   132   0.105E-01    0.638E-02
DAV:   3    -0.103442536000E+03    0.55196E-04   -0.16157E-04   132   0.378E-02    0.107E-02
DAV:   4    -0.103442538501E+03   -0.25002E-05   -0.22937E-05   132   0.154E-02    0.565E-03
DAV:   5    -0.103442539784E+03   -0.12833E-05   -0.91473E-07   108   0.350E-03    0.371E-03
DAV:   6    -0.103442542816E+03   -0.30323E-05   -0.78173E-07    96   0.319E-03    0.694E-04
DAV:   7    -0.103442544571E+03   -0.17550E-05   -0.28728E-07   108   0.179E-03    0.618E-04
DAV:   8    -0.103442547762E+03   -0.31904E-05   -0.19297E-07    96   0.154E-03    0.246E-04
DAV:   9    -0.103442549670E+03   -0.19082E-05   -0.13876E-07   108   0.104E-03    0.220E-04
DAV:  10    -0.103442551404E+03   -0.17340E-05   -0.57763E-08    96   0.679E-04    0.134E-04
DAV:  11    -0.103442552487E+03   -0.10830E-05   -0.40657E-08   108   0.440E-04    0.791E-05
DAV:  12    -0.103442553091E+03   -0.60458E-06   -0.10107E-08    84   0.267E-04
 148 F= -.10344255E+03 E0= -.10344255E+03  d E =-.643001E-11
       N       E                     dE             d eps       ncg     rms          rms(c)
DAV:   1    -0.103442784526E+03   -0.23204E-03   -0.54165E-01   108   0.252E+00    0.206E-01
DAV:   2    -0.103442714473E+03    0.70053E-04   -0.43879E-03   132   0.206E-01    0.110E-01
DAV:   3    -0.103442525199E+03    0.18927E-03   -0.47276E-04   132   0.598E-02    0.337E-02
DAV:   4    -0.103442514841E+03    0.10358E-04   -0.11307E-04   132   0.287E-02    0.115E-02
DAV:   5    -0.103442512368E+03    0.24729E-05   -0.58725E-06   132   0.971E-03    0.606E-03
DAV:   6    -0.103442514653E+03   -0.22851E-05   -0.47749E-06   132   0.759E-03    0.185E-03
DAV:   7    -0.103442518442E+03   -0.37890E-05   -0.15026E-06   132   0.402E-03    0.153E-03
DAV:   8    -0.103442524085E+03   -0.56427E-05   -0.29278E-07   108   0.167E-03    0.579E-04
DAV:   9    -0.103442529125E+03   -0.50406E-05   -0.29116E-07   108   0.142E-03    0.432E-04
DAV:  10    -0.103442535805E+03   -0.66795E-05   -0.38228E-07    96   0.144E-03    0.183E-04
DAV:  11    -0.103442538899E+03   -0.30945E-05   -0.10783E-07   108   0.820E-04    0.213E-04
DAV:  12    -0.103442540755E+03   -0.18553E-05   -0.20586E-08    96   0.442E-04    0.991E-05
DAV:  13    -0.103442542118E+03   -0.13638E-05   -0.19124E-08   108   0.339E-04    0.663E-05
DAV:  14    -0.103442542940E+03   -0.82148E-06   -0.51299E-09   108   0.224E-04
 149 F= -.10344254E+03 E0= -.10344254E+03  d E =-.647690E-11
       N       E                     dE             d eps       ncg     rms          rms(c)
DAV:   1    -0.103444398871E+03   -0.18568E-02   -0.26628E-01    96   0.177E+00    0.127E-01
DAV:   2    -0.103444320059E+03    0.78812E-04   -0.14190E-03   132   0.134E-01    0.711E-02
DAV:   3    -0.103444248581E+03    0.71478E-04   -0.21433E-04   132   0.454E-02    0.157E-02
DAV:   4    -0.103444249455E+03   -0.87458E-06   -0.40953E-05   132   0.199E-02    0.773E-03
DAV:   5    -0.103444249779E+03   -0.32368E-06   -0.15331E-06   120   0.465E-03
 150 F= -.10344425E+03 E0= -.10344425E+03  d E =-.745716E-11
       N       E                     dE             d eps       ncg     rms          rms(c)
DAV:   1    -0.103444801177E+03   -0.55172E-03   -0.52561E-01    96   0.264E+00    0.159E-01
DAV:   2    -0.103444676514E+03    0.12466E-03   -0.21006E-03   132   0.158E-01    0.917E-02
DAV:   3    -0.103444572686E+03    0.10383E-03   -0.34429E-04   132   0.585E-02    0.126E-02
DAV:   4    -0.103444578894E+03   -0.62079E-05   -0.51923E-05   132   0.235E-02    0.794E-03
DAV:   5    -0.103444580040E+03   -0.11458E-05   -0.17497E-06   120   0.449E-03    0.585E-03
DAV:   6    -0.103444583839E+03   -0.37989E-05   -0.12988E-06   108   0.388E-03    0.110E-03
DAV:   7    -0.103444586199E+03   -0.23598E-05   -0.50676E-07   108   0.232E-03    0.102E-03
DAV:   8    -0.103444588972E+03   -0.27734E-05   -0.13907E-07   108   0.160E-03    0.402E-04
DAV:   9    -0.103444593049E+03   -0.40771E-05   -0.29516E-07   108   0.189E-03    0.512E-04
DAV:  10    -0.103444594579E+03   -0.15296E-05   -0.96272E-08   108   0.104E-03    0.225E-04
DAV:  11    -0.103444595781E+03   -0.12019E-05   -0.37657E-08   108   0.512E-04    0.293E-04
DAV:  12    -0.103444596672E+03   -0.89127E-06   -0.22955E-08   108   0.418E-04
 151 F= -.10344460E+03 E0= -.10344460E+03  d E =-.535682E-11
       N       E                     dE             d eps       ncg     rms          rms(c)
DAV:   1    -0.103442353856E+03    0.22419E-02   -0.26692E-01    96   0.189E+00    0.129E-01
DAV:   2    -0.103442308116E+03    0.45740E-04   -0.19132E-03   132   0.148E-01    0.714E-02
DAV:   3    -0.103442227866E+03    0.80250E-04   -0.22044E-04   132   0.483E-02    0.191E-02
DAV:   4    -0.103442230112E+03   -0.22465E-05   -0.68935E-05   132   0.246E-02    0.791E-03
DAV:   5    -0.103442230228E+03   -0.11552E-06   -0.24437E-06   132   0.563E-03
 152 F= -.10344223E+03 E0= -.10344223E+03  d E =-.620027E-11
       N       E                     dE             d eps       ncg     rms          rms(c)
DAV:   1    -0.103442641075E+03   -0.41096E-03   -0.54587E-01   108   0.248E+00    0.206E-01
DAV:   2    -0.103442542877E+03    0.98198E-04   -0.45210E-03   132   0.216E-01    0.114E-01
DAV:   3    -0.103442332471E+03    0.21041E-03   -0.59542E-04   132   0.722E-02    0.299E-02
DAV:   4    -0.103442334171E+03   -0.17001E-05   -0.16207E-04   120   0.363E-02    0.130E-02
DAV:   5    -0.103442331974E+03    0.21966E-05   -0.44819E-06   132   0.815E-03    0.840E-03
DAV:   6    -0.103442332058E+03   -0.83603E-07   -0.56271E-06   120   0.891E-03
 153 F= -.10344233E+03 E0= -.10344233E+03  d E =-.719443E-11
       N       E                     dE             d eps       ncg     rms          rms(c)
DAV:   1    -0.103444512386E+03   -0.21804E-02   -0.26897E-01    96   0.174E+00    0.140E-01
DAV:   2    -0.103444460011E+03    0.52375E-04   -0.19398E-03   120   0.144E-01    0.757E-02
DAV:   3    -0.103444387111E+03    0.72900E-04   -0.23340E-04   132   0.420E-02    0.209E-02
DAV:   4    -0.103444386001E+03    0.11100E-05   -0.41833E-05   132   0.189E-02    0.832E-03
DAV:   5    -0.103444385179E+03    0.82273E-06   -0.25163E-06   132   0.610E-03
 154 F= -.10344439E+03 E0= -.10344439E+03  d E =-.615113E-11
       N       E                     dE             d eps       ncg     rms          rms(c)
DAV:   1    -0.103444555022E+03   -0.16902E-03   -0.53147E-01    96   0.254E+00    0.161E-01
DAV:   2    -0.103444457878E+03    0.97143E-04   -0.21570E-03   120   0.155E-01    0.920E-02
DAV:   3    -0.103444351484E+03    0.10639E-03   -0.34207E-04   132   0.539E-02    0.151E-02
DAV:   4    -0.103444354085E+03   -0.26015E-05   -0.46380E-05   132   0.218E-02    0.747E-03
DAV:   5    -0.103444353541E+03    0.54450E-06   -0.18008E-06   132   0.472E-03
 155 F= -.10344435E+03 E0= -.10344435E+03  d E =-.694668E-11
       N       E                     dE             d eps       ncg     rms          rms(c)
DAV:   1    -0.103443892897E+03    0.46119E-03   -0.26476E-01    96   0.180E+00    0.115E-01
DAV:   2    -0.103443825730E+03    0.67167E-04   -0.10734E-03   132   0.111E-01    0.666E-02
DAV:   3    -0.103443777998E+03    0.47732E-04   -0.19025E-04   144   0.446E-02    0.882E-03
DAV:   4    -0.103443781722E+03   -0.37244E-05   -0.33084E-05   132   0.186E-02    0.623E-03
DAV:   5    -0.103443782057E+03   -0.33505E-06   -0.79658E-07   108   0.336E-03
 156 F= -.10344378E+03 E0= -.10344378E+03  d E =-.845176E-11
       N       E                     dE             d eps       ncg     rms          rms(c)
DAV:   1    -0.103444281479E+03   -0.49976E-03   -0.52683E-01    96   0.254E+00    0.174E-01
DAV:   2    -0.103444166560E+03    0.11492E-03   -0.26691E-03   132   0.170E-01    0.968E-02
DAV:   3    -0.103444040982E+03    0.12558E-03   -0.36802E-04   132   0.560E-02    0.211E-02
DAV:   4    -0.103444041854E+03   -0.87225E-06   -0.56328E-05   144   0.235E-02    0.951E-03
DAV:   5    -0.103444042104E+03   -0.24962E-06   -0.32266E-06   132   0.625E-03
 157 F= -.10344404E+03 E0= -.10344404E+03  d E =-.474282E-11
