       N       E                     dE             d eps       ncg     rms          rms(c)
DAV:   1     0.242590792193E+03    0.24259E+03   -0.10241E+04   120   0.484E+02
DAV:   2    -0.262556231195E+02   -0.26885E+03   -0.25470E+03   156   0.923E+01
DAV:   3    -0.106596020197E+03   -0.80340E+02   -0.80124E+02   120   0.552E+01
DAV:   4    -0.110548136235E+03   -0.39521E+01   -0.39376E+01   120   0.177E+01
DAV:   5    -0.110645924664E+03   -0.97788E-01   -0.97689E-01   156   0.314E+00    0.166E+01
DAV:   6    -0.106891412971E+03    0.37545E+01   -0.16981E+00   120   0.444E+00    0.963E+00
DAV:   7    -0.104938298415E+03    0.19531E+01   -0.46199E+00   120   0.656E+00    0.135E+00
DAV:   8    -0.104887448714E+03    0.50850E-01   -0.33783E-01   132   0.220E+00    0.711E-01
DAV:   9    -0.104852998068E+03    0.34451E-01   -0.65541E-02   156   0.698E-01    0.396E-01
DAV:  10    -0.104852066228E+03    0.93184E-03   -0.32296E-03   132   0.203E-01    0.160E-01
DAV:  11    -0.104849512919E+03    0.25533E-02   -0.78135E-03   120   0.227E-01    0.103E-01
DAV:  12    -0.104854782032E+03   -0.52691E-02   -0.11198E-03   108   0.963E-02    0.540E-02
DAV:  13    -0.104858701175E+03   -0.39191E-02   -0.23814E-03   120   0.113E-01    0.411E-02
DAV:  14    -0.104861866602E+03   -0.31654E-02   -0.18504E-04   144   0.402E-02    0.245E-02
DAV:  15    -0.104867711009E+03   -0.58444E-02   -0.70450E-04   120   0.636E-02    0.163E-02
DAV:  16    -0.104869033348E+03   -0.13223E-02   -0.71350E-05   132   0.260E-02    0.952E-03
DAV:  17    -0.104870537221E+03   -0.15039E-02   -0.15604E-04   120   0.265E-02    0.794E-03
DAV:  18    -0.104870712011E+03   -0.17479E-03   -0.35199E-06   132   0.476E-03    0.278E-03
DAV:  19    -0.104871017945E+03   -0.30593E-03   -0.13640E-05   132   0.827E-03    0.244E-03
DAV:  20    -0.104871062140E+03   -0.44195E-04   -0.71637E-07   108   0.294E-03    0.120E-03
DAV:  21    -0.104871112062E+03   -0.49922E-04   -0.16595E-06   120   0.307E-03    0.632E-04
DAV:  22    -0.104871118825E+03   -0.67625E-05   -0.11713E-07   108   0.120E-03    0.367E-04
DAV:  23    -0.104871124313E+03   -0.54885E-05   -0.98774E-08   108   0.802E-04    0.200E-04
DAV:  24    -0.104871126983E+03   -0.26693E-05   -0.29806E-08   108   0.461E-04    0.109E-04
DAV:  25    -0.104871128688E+03   -0.17056E-05   -0.11702E-08   108   0.324E-04    0.837E-05
DAV:  26    -0.104871129125E+03   -0.43669E-06    0.18485E-09   108   0.173E-04
   1 F= -.10487113E+03 E0= -.10487113E+03  d E =-.355240E-10
       N       E                     dE             d eps       ncg     rms          rms(c)
DAV:   1    -0.104867565991E+03    0.35627E-02   -0.84187E-02    96   0.849E-01    0.133E-01
DAV:   2    -0.104867894554E+03   -0.32856E-03   -0.38553E-03   132   0.214E-01    0.578E-02
DAV:   3    -0.104867877381E+03    0.17173E-04   -0.15304E-04   144   0.453E-02    0.306E-02
DAV:   4    -0.104867880502E+03   -0.31206E-05   -0.40345E-05   144   0.227E-02    0.956E-03
DAV:   5    -0.104867879717E+03    0.78546E-06   -0.63442E-06   132   0.990E-03
   2 F= -.10486788E+03 E0= -.10486788E+03  d E =-.354865E-10
       N       E                     dE             d eps       ncg     rms          rms(c)
DAV:   1    -0.104866949825E+03    0.93068E-03   -0.34158E-01    96   0.168E+00    0.275E-01
DAV:   2    -0.104868264895E+03   -0.13151E-02   -0.15389E-02   132   0.425E-01    0.116E-01
DAV:   3    -0.104868202584E+03    0.62311E-04   -0.61987E-04   144   0.913E-02    0.632E-02
DAV:   4    -0.104868218205E+03   -0.15622E-04   -0.15175E-04   120   0.451E-02    0.193E-02
DAV:   5    -0.104868216401E+03    0.18044E-05   -0.27437E-05   144   0.205E-02    0.105E-02
DAV:   6    -0.104868215993E+03    0.40833E-06   -0.55011E-06   132   0.840E-03
   3 F= -.10486822E+03 E0= -.10486822E+03  d E =-.350127E-10
       N       E                     dE             d eps       ncg     rms          rms(c)
DAV:   1    -0.104867645554E+03    0.57085E-03   -0.17055E-01    96   0.120E+00    0.194E-01
DAV:   2    -0.104868281114E+03   -0.63556E-03   -0.75374E-03   132   0.302E-01    0.810E-02
DAV:   3    -0.104868253598E+03    0.27515E-04   -0.30651E-04   132   0.639E-02    0.437E-02
DAV:   4    -0.104868264268E+03   -0.10670E-04   -0.72097E-05   144   0.305E-02    0.137E-02
DAV:   5    -0.104868264350E+03   -0.82352E-07   -0.11662E-05   132   0.134E-02    0.720E-03
DAV:   6    -0.104868264573E+03   -0.22265E-06   -0.27744E-06   132   0.585E-03
   4 F= -.10486826E+03 E0= -.10486826E+03  d E =-.322048E-10
       N       E                     dE             d eps       ncg     rms          rms(c)
DAV:   1    -0.104866436775E+03    0.18276E-02   -0.33922E-01    96   0.171E+00    0.268E-01
DAV:   2    -0.104867800899E+03   -0.13641E-02   -0.15771E-02   132   0.434E-01    0.117E-01
DAV:   3    -0.104867732720E+03    0.68178E-04   -0.62033E-04   144   0.924E-02    0.618E-02
DAV:   4    -0.104867747368E+03   -0.14648E-04   -0.16585E-04   144   0.462E-02    0.190E-02
DAV:   5    -0.104867743813E+03    0.35548E-05   -0.25698E-05   132   0.197E-02    0.104E-02
DAV:   6    -0.104867743234E+03    0.57976E-06   -0.56740E-06   132   0.828E-03
   5 F= -.10486774E+03 E0= -.10486774E+03  d E =-.364367E-10
       N       E                     dE             d eps       ncg     rms          rms(c)
DAV:   1    -0.104865999269E+03    0.17445E-02   -0.16945E-01    96   0.121E+00    0.190E-01
DAV:   2    -0.104866880232E+03   -0.88096E-03   -0.97767E-03   132   0.342E-01    0.963E-02
DAV:   3    -0.104866828997E+03    0.51234E-04   -0.33101E-04   132   0.708E-02    0.522E-02
DAV:   4    -0.104866835364E+03   -0.63665E-05   -0.12832E-04   132   0.408E-02    0.140E-02
DAV:   5    -0.104866833553E+03    0.18109E-05   -0.19028E-05   132   0.165E-02    0.807E-03
DAV:   6    -0.104866835217E+03   -0.16643E-05   -0.34419E-06   132   0.617E-03    0.510E-03
DAV:   7    -0.104866840885E+03   -0.56681E-05   -0.52097E-07   108   0.270E-03    0.150E-03
DAV:   8    -0.104866845388E+03   -0.45022E-05   -0.37526E-07   108   0.212E-03    0.705E-04
DAV:   9    -0.104866851063E+03   -0.56757E-05   -0.30087E-07   108   0.170E-03    0.487E-04
DAV:  10    -0.104866858008E+03   -0.69446E-05   -0.61464E-07   120   0.173E-03    0.559E-04
DAV:  11    -0.104866858958E+03   -0.95025E-06   -0.31416E-08   108   0.735E-04
   6 F= -.10486686E+03 E0= -.10486686E+03  d E =-.362103E-10
       N       E                     dE             d eps       ncg     rms          rms(c)
DAV:   1    -0.104864477323E+03    0.23807E-02   -0.33738E-01    96   0.173E+00    0.273E-01
DAV:   2    -0.104866773794E+03   -0.22965E-02   -0.25064E-02   120   0.540E-01    0.171E-01
DAV:   3    -0.104866594355E+03    0.17944E-03   -0.73438E-04   132   0.116E-01    0.893E-02
DAV:   4    -0.104866599381E+03   -0.50267E-05   -0.46884E-04   120   0.782E-02    0.179E-02
DAV:   5    -0.104866588916E+03    0.10466E-04   -0.62236E-05   132   0.296E-02    0.129E-02
DAV:   6    -0.104866588663E+03    0.25242E-06   -0.11242E-05   144   0.970E-03    0.861E-03
DAV:   7    -0.104866599007E+03   -0.10344E-04   -0.99728E-07   108   0.380E-03    0.355E-03
DAV:   8    -0.104866615613E+03   -0.16606E-04   -0.22522E-06   132   0.560E-03    0.161E-03
DAV:   9    -0.104866626649E+03   -0.11037E-04   -0.11209E-06   132   0.295E-03    0.183E-03
DAV:  10    -0.104866643236E+03   -0.16587E-04   -0.53827E-07   108   0.191E-03    0.920E-04
DAV:  11    -0.104866653161E+03   -0.99245E-05   -0.62291E-07   108   0.160E-03    0.774E-04
DAV:  12    -0.104866659268E+03   -0.61075E-05   -0.14908E-07   108   0.956E-04    0.228E-04
DAV:  13    -0.104866664138E+03   -0.48700E-05   -0.14028E-07   108   0.766E-04    0.276E-04
DAV:  14    -0.104866666268E+03   -0.21303E-05   -0.22881E-08   108   0.372E-04    0.212E-04
DAV:  15    -0.104866668136E+03   -0.18680E-05   -0.27155E-08   108   0.394E-04    0.790E-05
DAV:  16    -0.104866668542E+03   -0.40529E-06    0.21002E-09   108   0.166E-04
   7 F= -.10486667E+03 E0= -.10486667E+03  d E =-.336848E-10
       N       E                     dE             d eps       ncg     rms          rms(c)
DAV:   1    -0.104865879886E+03    0.78825E-03   -0.19303E-01    96   0.138E+00    0.196E-01
DAV:   2    -0.104867288877E+03   -0.14090E-02   -0.14703E-02   120   0.440E-01    0.121E-01
DAV:   3    -0.104867205343E+03    0.83535E-04   -0.42103E-04   144   0.898E-02    0.653E-02
DAV:   4    -0.104867206136E+03   -0.79306E-06   -0.22562E-04   132   0.594E-02    0.128E-02
DAV:   5    -0.104867201069E+03    0.50669E-05   -0.41632E-05   132   0.237E-02    0.988E-03
DAV:   6    -0.104867201665E+03   -0.59628E-06   -0.42193E-06   144   0.683E-03
   8 F= -.10486720E+03 E0= -.10486720E+03  d E =-.286481E-10
       N       E                     dE             d eps       ncg     rms          rms(c)
DAV:   1    -0.104865160375E+03    0.20407E-02   -0.33769E-01    96   0.184E+00    0.260E-01
DAV:   2    -0.104867156379E+03   -0.19960E-02   -0.20596E-02   132   0.514E-01    0.152E-01
DAV:   3    -0.104867084364E+03    0.72014E-04   -0.55797E-04   132   0.946E-02    0.794E-02
DAV:   4    -0.104867082894E+03    0.14702E-05   -0.22526E-04   132   0.570E-02    0.157E-02
DAV:   5    -0.104867072094E+03    0.10800E-04   -0.38781E-05   144   0.240E-02    0.103E-02
DAV:   6    -0.104867072260E+03   -0.16646E-06   -0.72714E-06   132   0.980E-03
   9 F= -.10486707E+03 E0= -.10486707E+03  d E =-.339106E-10
       N       E                     dE             d eps       ncg     rms          rms(c)
DAV:   1    -0.104865195351E+03    0.18767E-02   -0.17379E-01    96   0.131E+00    0.185E-01
DAV:   2    -0.104866304907E+03   -0.11096E-02   -0.11159E-02   132   0.391E-01    0.115E-01
DAV:   3    -0.104866281237E+03    0.23670E-04   -0.27630E-04   132   0.714E-02    0.628E-02
DAV:   4    -0.104866301143E+03   -0.19906E-04   -0.16064E-04   120   0.495E-02    0.122E-02
DAV:   5    -0.104866296274E+03    0.48693E-05   -0.32054E-05   132   0.217E-02    0.828E-03
DAV:   6    -0.104866297429E+03   -0.11546E-05   -0.59492E-06   144   0.758E-03    0.545E-03
DAV:   7    -0.104866305389E+03   -0.79605E-05   -0.71429E-07   108   0.345E-03    0.218E-03
DAV:   8    -0.104866314435E+03   -0.90455E-05   -0.88798E-07   108   0.341E-03    0.780E-04
DAV:   9    -0.104866322487E+03   -0.80523E-05   -0.85707E-07   108   0.267E-03    0.981E-04
DAV:  10    -0.104866331204E+03   -0.87170E-05   -0.49630E-07    84   0.188E-03    0.468E-04
DAV:  11    -0.104866334427E+03   -0.32226E-05   -0.17526E-07   108   0.985E-04    0.309E-04
DAV:  12    -0.104866337300E+03   -0.28732E-05   -0.82731E-08    84   0.728E-04    0.113E-04
DAV:  13    -0.104866339270E+03   -0.19705E-05   -0.80997E-08    96   0.599E-04    0.165E-04
DAV:  14    -0.104866340256E+03   -0.98592E-06   -0.16420E-08   108   0.335E-04
  10 F= -.10486634E+03 E0= -.10486634E+03  d E =-.497035E-10
       N       E                     dE             d eps       ncg     rms          rms(c)
DAV:   1    -0.104863673291E+03    0.26660E-02   -0.34841E-01    96   0.189E+00    0.277E-01
DAV:   2    -0.104866342589E+03   -0.26693E-02   -0.27272E-02   132   0.610E-01    0.182E-01
DAV:   3    -0.104866181788E+03    0.16080E-03   -0.66396E-04   144   0.116E-01    0.921E-02
DAV:   4    -0.104866197335E+03   -0.15547E-04   -0.47102E-04   120   0.829E-02    0.175E-02
DAV:   5    -0.104866181975E+03    0.15361E-04   -0.92453E-05   132   0.365E-02    0.121E-02
DAV:   6    -0.104866187859E+03   -0.58842E-05   -0.14319E-05   132   0.110E-02    0.686E-03
DAV:   7    -0.104866208249E+03   -0.20390E-04   -0.15077E-06   120   0.365E-03    0.305E-03
DAV:   8    -0.104866234245E+03   -0.25996E-04   -0.38792E-06   132   0.595E-03    0.174E-03
DAV:   9    -0.104866256482E+03   -0.22236E-04   -0.17611E-06   108   0.371E-03    0.118E-03
DAV:  10    -0.104866274126E+03   -0.17645E-04   -0.13624E-06   120   0.262E-03    0.620E-04
DAV:  11    -0.104866280027E+03   -0.59010E-05   -0.14766E-07   108   0.112E-03    0.343E-04
DAV:  12    -0.104866288489E+03   -0.84620E-05   -0.38720E-07    96   0.128E-03    0.210E-04
DAV:  13    -0.104866290238E+03   -0.17492E-05   -0.36250E-08   120   0.501E-04    0.222E-04
DAV:  14    -0.104866292838E+03   -0.25998E-05   -0.47408E-08    96   0.520E-04    0.105E-04
DAV:  15    -0.104866293428E+03   -0.58972E-06   -0.72537E-09   108   0.285E-04
  11 F= -.10486629E+03 E0= -.10486629E+03  d E =-.262487E-10
       N       E                     dE             d eps       ncg     rms          rms(c)
DAV:   1    -0.104866467803E+03   -0.17497E-03   -0.17199E-01    96   0.134E+00    0.193E-01
DAV:   2    -0.104867682517E+03   -0.12147E-02   -0.12530E-02   132   0.415E-01    0.122E-01
DAV:   3    -0.104867613878E+03    0.68639E-04   -0.31647E-04   144   0.773E-02    0.639E-02
DAV:   4    -0.104867617627E+03   -0.37490E-05   -0.20217E-04   120   0.549E-02    0.125E-02
DAV:   5    -0.104867611252E+03    0.63748E-05   -0.40340E-05   132   0.242E-02    0.933E-03
DAV:   6    -0.104867612906E+03   -0.16542E-05   -0.84124E-06   132   0.866E-03    0.593E-03
DAV:   7    -0.104867622403E+03   -0.94963E-05   -0.86832E-07   108   0.358E-03    0.258E-03
DAV:   8    -0.104867635968E+03   -0.13565E-04   -0.14723E-06   120   0.368E-03    0.822E-04
DAV:   9    -0.104867647574E+03   -0.11607E-04   -0.93494E-07   108   0.274E-03    0.108E-03
DAV:  10    -0.104867659748E+03   -0.12174E-04   -0.11956E-06   120   0.234E-03    0.546E-04
DAV:  11    -0.104867663617E+03   -0.38686E-05   -0.13513E-07   108   0.108E-03    0.246E-04
DAV:  12    -0.104867666727E+03   -0.31097E-05   -0.10167E-07   108   0.750E-04    0.159E-04
DAV:  13    -0.104867668676E+03   -0.19493E-05   -0.54092E-08   108   0.509E-04    0.211E-04
DAV:  14    -0.104867669744E+03   -0.10677E-05   -0.10928E-08   108   0.305E-04    0.745E-05
DAV:  15    -0.104867670334E+03   -0.59073E-06   -0.53673E-09    96   0.238E-04
  12 F= -.10486767E+03 E0= -.10486767E+03  d E =-.335900E-10
       N       E                     dE             d eps       ncg     rms          rms(c)
DAV:   1    -0.104866046715E+03    0.16230E-02   -0.33871E-01    96   0.178E+00    0.268E-01
DAV:   2    -0.104867774574E+03   -0.17279E-02   -0.18310E-02   144   0.485E-01    0.134E-01
DAV:   3    -0.104867713740E+03    0.60834E-04   -0.57081E-04   132   0.927E-02    0.713E-02
DAV:   4    -0.104867724746E+03   -0.11006E-04   -0.20200E-04   120   0.565E-02    0.163E-02
DAV:   5    -0.104867717408E+03    0.73387E-05   -0.44117E-05   144   0.257E-02    0.113E-02
DAV:   6    -0.104867717518E+03   -0.11088E-06   -0.67660E-06   144   0.887E-03
  13 F= -.10486772E+03 E0= -.10486772E+03  d E =-.423222E-10
       N       E                     dE             d eps       ncg     rms          rms(c)
DAV:   1    -0.104865278979E+03    0.24384E-02   -0.16956E-01    96   0.130E+00    0.195E-01
DAV:   2    -0.104866568127E+03   -0.12891E-02   -0.13342E-02   132   0.403E-01    0.116E-01
DAV:   3    -0.104866516893E+03    0.51233E-04   -0.37888E-04   156   0.792E-02    0.665E-02
DAV:   4    -0.104866536385E+03   -0.19492E-04   -0.18895E-04   132   0.545E-02    0.134E-02
DAV:   5    -0.104866535663E+03    0.72230E-06   -0.48859E-05   144   0.258E-02    0.107E-02
DAV:   6    -0.104866534309E+03    0.13544E-05   -0.54531E-06   132   0.800E-03    0.745E-03
DAV:   7    -0.104866537708E+03   -0.33989E-05   -0.17915E-06   120   0.512E-03    0.277E-03
DAV:   8    -0.104866542902E+03   -0.51945E-05   -0.52516E-07   108   0.333E-03    0.764E-04
DAV:   9    -0.104866549112E+03   -0.62098E-05   -0.47583E-07   108   0.228E-03    0.973E-04
DAV:  10    -0.104866557974E+03   -0.88621E-05   -0.51359E-07   108   0.184E-03    0.357E-04
DAV:  11    -0.104866559945E+03   -0.19705E-05   -0.94680E-08   120   0.892E-04    0.301E-04
DAV:  12    -0.104866562828E+03   -0.28833E-05   -0.65441E-08   108   0.660E-04    0.164E-04
DAV:  13    -0.104866565398E+03   -0.25700E-05   -0.82915E-08   108   0.606E-04    0.132E-04
DAV:  14    -0.104866566717E+03   -0.13193E-05   -0.22522E-08    96   0.348E-04    0.968E-05
DAV:  15    -0.104866567489E+03   -0.77202E-06   -0.64867E-09   108   0.243E-04
  14 F= -.10486657E+03 E0= -.10486657E+03  d E =-.371253E-10
       N       E                     dE             d eps       ncg     rms          rms(c)
DAV:   1    -0.104864159817E+03    0.24069E-02   -0.34547E-01    96   0.168E+00    0.263E-01
DAV:   2    -0.104866706764E+03   -0.25469E-02   -0.26131E-02   132   0.521E-01    0.177E-01
DAV:   3    -0.104866573808E+03    0.13296E-03   -0.64472E-04   156   0.102E-01    0.964E-02
DAV:   4    -0.104866575382E+03   -0.15740E-05   -0.40834E-04   120   0.735E-02    0.179E-02
DAV:   5    -0.104866565993E+03    0.93897E-05   -0.92215E-05   132   0.333E-02    0.131E-02
DAV:   6    -0.104866569183E+03   -0.31907E-05   -0.16458E-05   132   0.112E-02    0.869E-03
DAV:   7    -0.104866589576E+03   -0.20392E-04   -0.26826E-06   132   0.534E-03    0.350E-03
DAV:   8    -0.104866614567E+03   -0.24991E-04   -0.24222E-06   120   0.423E-03    0.112E-03
DAV:   9    -0.104866637229E+03   -0.22663E-04   -0.22009E-06   132   0.342E-03    0.165E-03
DAV:  10    -0.104866657982E+03   -0.20753E-04   -0.18122E-06   120   0.292E-03    0.666E-04
DAV:  11    -0.104866664484E+03   -0.65023E-05   -0.25926E-07   108   0.126E-03    0.324E-04
DAV:  12    -0.104866670545E+03   -0.60606E-05   -0.27726E-07   108   0.105E-03    0.188E-04
DAV:  13    -0.104866672635E+03   -0.20906E-05   -0.61858E-08   108   0.511E-04    0.224E-04
DAV:  14    -0.104866674430E+03   -0.17947E-05   -0.32282E-08   108   0.425E-04    0.859E-05
DAV:  15    -0.104866674963E+03   -0.53332E-06   -0.37558E-09   108   0.226E-04
  15 F= -.10486667E+03 E0= -.10486667E+03  d E =-.337912E-10
       N       E                     dE             d eps       ncg     rms          rms(c)
DAV:   1    -0.104865842989E+03    0.83144E-03   -0.17094E-01    96   0.115E+00    0.178E-01
DAV:   2    -0.104867306279E+03   -0.14633E-02   -0.14856E-02   132   0.381E-01    0.134E-01
DAV:   3    -0.104867217716E+03    0.88563E-04   -0.30452E-04   144   0.709E-02    0.768E-02
DAV:   4    -0.104867215431E+03    0.22850E-05   -0.26341E-04   120   0.597E-02    0.132E-02
DAV:   5    -0.104867208702E+03    0.67285E-05   -0.75213E-05   132   0.295E-02    0.993E-03
DAV:   6    -0.104867208007E+03    0.69544E-06   -0.10404E-05   132   0.832E-03    0.671E-03
DAV:   7    -0.104867218472E+03   -0.10465E-04   -0.98015E-07   120   0.325E-03    0.314E-03
DAV:   8    -0.104867235282E+03   -0.16810E-04   -0.23883E-06   120   0.435E-03    0.115E-03
DAV:   9    -0.104867246023E+03   -0.10741E-04   -0.10019E-06   132   0.247E-03    0.150E-03
DAV:  10    -0.104867259355E+03   -0.13333E-04   -0.91595E-07   108   0.212E-03    0.486E-04
DAV:  11    -0.104867262566E+03   -0.32102E-05   -0.12750E-07   108   0.945E-04    0.326E-04
DAV:  12    -0.104867266748E+03   -0.41824E-05   -0.10972E-07    96   0.718E-04    0.113E-04
DAV:  13    -0.104867269123E+03   -0.23746E-05   -0.76173E-08   108   0.533E-04    0.144E-04
DAV:  14    -0.104867270540E+03   -0.14172E-05   -0.19344E-08   108   0.356E-04    0.102E-04
DAV:  15    -0.104867271122E+03   -0.58195E-06   -0.25867E-09   108   0.203E-04
  16 F= -.10486727E+03 E0= -.10486727E+03  d E =-.360681E-10
       N       E                     dE             d eps       ncg     rms          rms(c)
DAV:   1    -0.104865078939E+03    0.21916E-02   -0.33827E-01    96   0.169E+00    0.259E-01
DAV:   2    -0.104867067227E+03   -0.19883E-02   -0.20851E-02   132   0.488E-01    0.156E-01
DAV:   3    -0.104866972280E+03    0.94947E-04   -0.55650E-04   132   0.951E-02    0.812E-02
DAV:   4    -0.104866979294E+03   -0.70137E-05   -0.29826E-04   132   0.647E-02    0.170E-02
DAV:   5    -0.104866968555E+03    0.10738E-04   -0.60773E-05   132   0.291E-02    0.122E-02
DAV:   6    -0.104866967661E+03    0.89423E-06   -0.12579E-05   132   0.109E-02    0.760E-03
DAV:   7    -0.104866976726E+03   -0.90649E-05   -0.17453E-06   120   0.522E-03    0.312E-03
DAV:   8    -0.104866991124E+03   -0.14398E-04   -0.17235E-06   132   0.455E-03    0.120E-03
DAV:   9    -0.104867004486E+03   -0.13361E-04   -0.78935E-07   108   0.286E-03    0.131E-03
DAV:  10    -0.104867022977E+03   -0.18491E-04   -0.12497E-06   132   0.256E-03    0.629E-04
DAV:  11    -0.104867029336E+03   -0.63590E-05   -0.17423E-07   108   0.122E-03    0.370E-04
DAV:  12    -0.104867035469E+03   -0.61330E-05   -0.14540E-07   108   0.865E-04    0.197E-04
DAV:  13    -0.104867039484E+03   -0.40150E-05   -0.88481E-08   108   0.618E-04    0.216E-04
DAV:  14    -0.104867041734E+03   -0.22501E-05   -0.26262E-08   108   0.389E-04    0.911E-05
DAV:  15    -0.104867042876E+03   -0.11419E-05   -0.13089E-08   108   0.282E-04    0.408E-05
DAV:  16    -0.104867043526E+03   -0.65065E-06    0.15145E-10   108   0.182E-04
  17 F= -.10486704E+03 E0= -.10486704E+03  d E =-.343253E-10
       N       E                     dE             d eps       ncg     rms          rms(c)
DAV:   1    -0.104866346763E+03    0.69611E-03   -0.17131E-01    96   0.122E+00    0.184E-01
DAV:   2    -0.104867440181E+03   -0.10934E-02   -0.11325E-02   120   0.345E-01    0.118E-01
DAV:   3    -0.104867386211E+03    0.53969E-04   -0.28102E-04   132   0.647E-02    0.655E-02
DAV:   4    -0.104867370632E+03    0.15580E-04   -0.13365E-04   120   0.411E-02    0.112E-02
DAV:   5    -0.104867365809E+03    0.48222E-05   -0.21950E-05   132   0.166E-02    0.783E-03
DAV:   6    -0.104867370057E+03   -0.42478E-05   -0.53578E-06   132   0.731E-03    0.472E-03
DAV:   7    -0.104867387894E+03   -0.17836E-04   -0.22637E-06   120   0.534E-03    0.154E-03
DAV:   8    -0.104867405047E+03   -0.17154E-04   -0.14013E-06   108   0.380E-03    0.111E-03
DAV:   9    -0.104867420665E+03   -0.15618E-04   -0.11963E-06   120   0.269E-03    0.995E-04
DAV:  10    -0.104867434430E+03   -0.13765E-04   -0.12039E-06   120   0.214E-03    0.385E-04
DAV:  11    -0.104867436971E+03   -0.25408E-05   -0.66906E-08   120   0.807E-04    0.287E-04
DAV:  12    -0.104867442450E+03   -0.54787E-05   -0.33912E-07    96   0.114E-03    0.140E-04
DAV:  13    -0.104867443317E+03   -0.86693E-06   -0.38910E-08   120   0.465E-04
  18 F= -.10486744E+03 E0= -.10486744E+03  d E =-.366742E-10
       N       E                     dE             d eps       ncg     rms          rms(c)
DAV:   1    -0.104865586716E+03    0.18557E-02   -0.33512E-01    96   0.168E+00    0.261E-01
DAV:   2    -0.104867367558E+03   -0.17808E-02   -0.18824E-02   132   0.460E-01    0.145E-01
DAV:   3    -0.104867298994E+03    0.68564E-04   -0.54878E-04   132   0.891E-02    0.762E-02
DAV:   4    -0.104867294870E+03    0.41235E-05   -0.18854E-04   120   0.530E-02    0.161E-02
DAV:   5    -0.104867284306E+03    0.10564E-04   -0.39393E-05   132   0.241E-02    0.103E-02
DAV:   6    -0.104867286024E+03   -0.17181E-05   -0.69846E-06   144   0.871E-03    0.686E-03
DAV:   7    -0.104867299742E+03   -0.13718E-04   -0.16089E-06   132   0.592E-03    0.196E-03
DAV:   8    -0.104867312454E+03   -0.12712E-04   -0.17265E-06   132   0.521E-03    0.183E-03
DAV:   9    -0.104867323262E+03   -0.10808E-04   -0.62133E-07    96   0.296E-03    0.126E-03
DAV:  10    -0.104867339170E+03   -0.15908E-04   -0.71779E-07   120   0.211E-03    0.597E-04
DAV:  11    -0.104867350021E+03   -0.10850E-04   -0.52746E-07   108   0.180E-03    0.516E-04
DAV:  12    -0.104867357905E+03   -0.78847E-05   -0.28456E-07    96   0.133E-03    0.329E-04
DAV:  13    -0.104867362011E+03   -0.41060E-05   -0.10905E-07   108   0.808E-04    0.353E-04
DAV:  14    -0.104867363661E+03   -0.16501E-05   -0.18558E-08   120   0.455E-04    0.175E-04
DAV:  15    -0.104867365594E+03   -0.19329E-05   -0.31355E-08    96   0.435E-04    0.185E-04
DAV:  16    -0.104867366087E+03   -0.49279E-06    0.83819E-10   120   0.230E-04
  19 F= -.10486737E+03 E0= -.10486737E+03  d E =-.351698E-10
       N       E                     dE             d eps       ncg     rms          rms(c)
DAV:   1    -0.104865188135E+03    0.21775E-02   -0.17181E-01    96   0.134E+00    0.187E-01
DAV:   2    -0.104866561194E+03   -0.13731E-02   -0.13959E-02   132   0.429E-01    0.118E-01
DAV:   3    -0.104866502063E+03    0.59131E-04   -0.31309E-04   156   0.734E-02    0.698E-02
DAV:   4    -0.104866491807E+03    0.10256E-04   -0.18057E-04   132   0.547E-02    0.117E-02
DAV:   5    -0.104866487773E+03    0.40335E-05   -0.53050E-05   132   0.270E-02    0.964E-03
DAV:   6    -0.104866487864E+03   -0.91123E-07   -0.54384E-06   144   0.809E-03
  20 F= -.10486649E+03 E0= -.10486649E+03  d E =-.186646E-10
       N       E                     dE             d eps       ncg     rms          rms(c)
DAV:   1    -0.104864241291E+03    0.22465E-02   -0.36012E-01    96   0.184E+00    0.278E-01
DAV:   2    -0.104866449297E+03   -0.22080E-02   -0.22451E-02   132   0.562E-01    0.170E-01
DAV:   3    -0.104866368541E+03    0.80756E-04   -0.58164E-04   132   0.107E-01    0.868E-02
DAV:   4    -0.104866394065E+03   -0.25524E-04   -0.36220E-04   120   0.725E-02    0.185E-02
DAV:   5    -0.104866381230E+03    0.12835E-04   -0.60987E-05   132   0.297E-02    0.108E-02
DAV:   6    -0.104866385719E+03   -0.44888E-05   -0.13123E-05   132   0.106E-02    0.594E-03
DAV:   7    -0.104866401575E+03   -0.15856E-04   -0.98308E-07    96   0.361E-03    0.263E-03
DAV:   8    -0.104866422301E+03   -0.20726E-04   -0.23206E-06   108   0.421E-03    0.107E-03
DAV:   9    -0.104866437419E+03   -0.15118E-04   -0.14672E-06   120   0.318E-03    0.116E-03
DAV:  10    -0.104866452672E+03   -0.15253E-04   -0.11574E-06   108   0.252E-03    0.482E-04
DAV:  11    -0.104866457256E+03   -0.45842E-05   -0.18914E-07   108   0.113E-03    0.322E-04
DAV:  12    -0.104866462372E+03   -0.51154E-05   -0.19578E-07    96   0.968E-04    0.127E-04
DAV:  13    -0.104866464615E+03   -0.22435E-05   -0.86699E-08   108   0.628E-04    0.190E-04
DAV:  14    -0.104866466230E+03   -0.16147E-05   -0.28378E-08   108   0.437E-04    0.877E-05
DAV:  15    -0.104866466629E+03   -0.39918E-06   -0.28949E-09   120   0.231E-04
  21 F= -.10486647E+03 E0= -.10486647E+03  d E =-.733640E-10
       N       E                     dE             d eps       ncg     rms          rms(c)
DAV:   1    -0.104865845444E+03    0.62079E-03   -0.17283E-01    96   0.131E+00    0.183E-01
DAV:   2    -0.104866820809E+03   -0.97537E-03   -0.10135E-02   120   0.365E-01    0.106E-01
DAV:   3    -0.104866780781E+03    0.40028E-04   -0.24793E-04   144   0.642E-02    0.563E-02
DAV:   4    -0.104866777023E+03    0.37589E-05   -0.11376E-04   120   0.412E-02    0.111E-02
DAV:   5    -0.104866770528E+03    0.64945E-05   -0.21989E-05   144   0.179E-02    0.731E-03
DAV:   6    -0.104866770419E+03    0.10887E-06   -0.42589E-06   132   0.722E-03
  22 F= -.10486677E+03 E0= -.10486677E+03  d E =-.355983E-10
       N       E                     dE             d eps       ncg     rms          rms(c)
DAV:   1    -0.104864781853E+03    0.19887E-02   -0.34856E-01    96   0.184E+00    0.265E-01
DAV:   2    -0.104866957604E+03   -0.21758E-02   -0.22021E-02   132   0.538E-01    0.160E-01
DAV:   3    -0.104866895791E+03    0.61813E-04   -0.51109E-04   132   0.928E-02    0.909E-02
DAV:   4    -0.104866883981E+03    0.11810E-04   -0.25802E-04   132   0.627E-02    0.158E-02
DAV:   5    -0.104866876272E+03    0.77093E-05   -0.53198E-05   144   0.271E-02    0.116E-02
DAV:   6    -0.104866880036E+03   -0.37646E-05   -0.10032E-05   132   0.109E-02    0.715E-03
DAV:   7    -0.104866901585E+03   -0.21549E-04   -0.39458E-06   132   0.747E-03    0.257E-03
DAV:   8    -0.104866925514E+03   -0.23929E-04   -0.21812E-06   108   0.525E-03    0.128E-03
DAV:   9    -0.104866945432E+03   -0.19918E-04   -0.17430E-06   120   0.366E-03    0.141E-03
DAV:  10    -0.104866963307E+03   -0.17875E-04   -0.14151E-06   108   0.260E-03    0.488E-04
DAV:  11    -0.104866968721E+03   -0.54137E-05   -0.24990E-07   108   0.133E-03    0.410E-04
DAV:  12    -0.104866975709E+03   -0.69877E-05   -0.41004E-07   108   0.140E-03    0.165E-04
DAV:  13    -0.104866977524E+03   -0.18159E-05   -0.84548E-08   108   0.711E-04    0.189E-04
DAV:  14    -0.104866979021E+03   -0.14970E-05   -0.28172E-08   108   0.508E-04    0.101E-04
DAV:  15    -0.104866979667E+03   -0.64534E-06   -0.13363E-08   108   0.311E-04
  23 F= -.10486698E+03 E0= -.10486698E+03  d E =-.366505E-10
       N       E                     dE             d eps       ncg     rms          rms(c)
DAV:   1    -0.104867121415E+03   -0.14239E-03   -0.17190E-01    96   0.126E+00    0.174E-01
DAV:   2    -0.104867968306E+03   -0.84689E-03   -0.88316E-03   132   0.338E-01    0.946E-02
DAV:   3    -0.104867944183E+03    0.24123E-04   -0.25002E-04   132   0.636E-02    0.487E-02
DAV:   4    -0.104867952668E+03   -0.84845E-05   -0.10872E-04   132   0.417E-02    0.109E-02
DAV:   5    -0.104867949131E+03    0.35367E-05   -0.24444E-05   132   0.186E-02    0.815E-03
DAV:   6    -0.104867949106E+03    0.24594E-07   -0.40360E-06   132   0.646E-03
  24 F= -.10486795E+03 E0= -.10486795E+03  d E =-.294711E-10
       N       E                     dE             d eps       ncg     rms          rms(c)
DAV:   1    -0.104865975632E+03    0.19735E-02   -0.34244E-01    96   0.176E+00    0.214E-01
DAV:   2    -0.104867676288E+03   -0.17007E-02   -0.17351E-02   132   0.463E-01    0.127E-01
DAV:   3    -0.104867662886E+03    0.13402E-04   -0.47751E-04   132   0.863E-02    0.649E-02
DAV:   4    -0.104867682658E+03   -0.19772E-04   -0.16384E-04   120   0.515E-02    0.139E-02
DAV:   5    -0.104867678169E+03    0.44887E-05   -0.34605E-05   132   0.227E-02    0.993E-03
DAV:   6    -0.104867679953E+03   -0.17835E-05   -0.67064E-06   144   0.856E-03    0.624E-03
DAV:   7    -0.104867687741E+03   -0.77882E-05   -0.10479E-06   108   0.487E-03    0.224E-03
DAV:   8    -0.104867697192E+03   -0.94508E-05   -0.15343E-06   120   0.502E-03    0.146E-03
DAV:   9    -0.104867710670E+03   -0.13479E-04   -0.88618E-07   108   0.355E-03    0.820E-04
DAV:  10    -0.104867719322E+03   -0.86519E-05   -0.55012E-07   108   0.221E-03    0.733E-04
DAV:  11    -0.104867723655E+03   -0.43325E-05   -0.13259E-07   108   0.119E-03    0.506E-04
DAV:  12    -0.104867729742E+03   -0.60874E-05   -0.18849E-07   108   0.104E-03    0.246E-04
DAV:  13    -0.104867731367E+03   -0.16244E-05   -0.33633E-08   120   0.501E-04    0.227E-04
DAV:  14    -0.104867733630E+03   -0.22635E-05   -0.33686E-08    96   0.446E-04    0.639E-05
DAV:  15    -0.104867734747E+03   -0.11171E-05   -0.18216E-08   108   0.328E-04    0.567E-05
DAV:  16    -0.104867735363E+03   -0.61624E-06   -0.77890E-10    96   0.202E-04
  25 F= -.10486774E+03 E0= -.10486774E+03  d E =-.499923E-10
       N       E                     dE             d eps       ncg     rms          rms(c)
DAV:   1    -0.104865707366E+03    0.20274E-02   -0.16706E-01    96   0.126E+00    0.163E-01
DAV:   2    -0.104866910406E+03   -0.12030E-02   -0.12573E-02   132   0.389E-01    0.106E-01
DAV:   3    -0.104866858700E+03    0.51706E-04   -0.33763E-04   144   0.730E-02    0.596E-02
DAV:   4    -0.104866847984E+03    0.10716E-04   -0.14255E-04   132   0.456E-02    0.114E-02
DAV:   5    -0.104866841410E+03    0.65733E-05   -0.31488E-05   144   0.207E-02    0.834E-03
DAV:   6    -0.104866842057E+03   -0.64687E-06   -0.46541E-06   132   0.726E-03
  26 F= -.10486684E+03 E0= -.10486684E+03  d E =-.419460E-10
       N       E                     dE             d eps       ncg     rms          rms(c)
DAV:   1    -0.104864855955E+03    0.19855E-02   -0.34032E-01    96   0.167E+00    0.261E-01
DAV:   2    -0.104867090381E+03   -0.22344E-02   -0.23992E-02   132   0.487E-01    0.162E-01
DAV:   3    -0.104866955405E+03    0.13498E-03   -0.69434E-04   132   0.102E-01    0.829E-02
DAV:   4    -0.104866973650E+03   -0.18246E-04   -0.37884E-04   132   0.648E-02    0.164E-02
DAV:   5    -0.104866963572E+03    0.10078E-04   -0.50410E-05   144   0.251E-02    0.111E-02
DAV:   6    -0.104866963094E+03    0.47815E-06   -0.90554E-06   144   0.822E-03
  27 F= -.10486696E+03 E0= -.10486696E+03  d E =-.251143E-10
       N       E                     dE             d eps       ncg     rms          rms(c)
DAV:   1    -0.104867091747E+03   -0.12817E-03   -0.16935E-01    96   0.115E+00    0.163E-01
DAV:   2    -0.104868178682E+03   -0.10869E-02   -0.11387E-02   132   0.341E-01    0.107E-01
DAV:   3    -0.104868136834E+03    0.41849E-04   -0.31482E-04   132   0.688E-02    0.577E-02
DAV:   4    -0.104868158819E+03   -0.21985E-04   -0.15672E-04   132   0.429E-02    0.129E-02
DAV:   5    -0.104868156194E+03    0.26249E-05   -0.24419E-05   144   0.172E-02    0.787E-03
DAV:   6    -0.104868154850E+03    0.13432E-05   -0.40348E-06   144   0.599E-03    0.503E-03
DAV:   7    -0.104868156599E+03   -0.17487E-05   -0.40550E-07   108   0.251E-03    0.164E-03
DAV:   8    -0.104868158878E+03   -0.22787E-05   -0.32943E-07   108   0.216E-03    0.621E-04
DAV:   9    -0.104868162346E+03   -0.34676E-05   -0.28430E-07   108   0.162E-03    0.596E-04
DAV:  10    -0.104868166941E+03   -0.45957E-05   -0.28733E-07    96   0.137E-03    0.400E-04
DAV:  11    -0.104868167963E+03   -0.10217E-05   -0.51002E-08   120   0.706E-04    0.279E-04
DAV:  12    -0.104868169189E+03   -0.12256E-05   -0.26349E-08    96   0.461E-04    0.180E-04
DAV:  13    -0.104868170758E+03   -0.15697E-05   -0.59951E-08   108   0.496E-04    0.799E-05
DAV:  14    -0.104868171532E+03   -0.77400E-06   -0.15476E-08   108   0.287E-04
  28 F= -.10486817E+03 E0= -.10486817E+03  d E =-.173852E-10
       N       E                     dE             d eps       ncg     rms          rms(c)
DAV:   1    -0.104866683903E+03    0.14869E-02   -0.34026E-01    96   0.168E+00    0.242E-01
DAV:   2    -0.104868064182E+03   -0.13803E-02   -0.15324E-02   132   0.416E-01    0.110E-01
DAV:   3    -0.104868018493E+03    0.45689E-04   -0.54467E-04   144   0.875E-02    0.573E-02
DAV:   4    -0.104868030036E+03   -0.11543E-04   -0.13699E-04   132   0.436E-02    0.164E-02
DAV:   5    -0.104868026974E+03    0.30614E-05   -0.25587E-05   132   0.198E-02    0.939E-03
DAV:   6    -0.104868027879E+03   -0.90439E-06   -0.60234E-06   132   0.844E-03
  29 F= -.10486803E+03 E0= -.10486803E+03  d E =-.838874E-10
       N       E                     dE             d eps       ncg     rms          rms(c)
DAV:   1    -0.104867277338E+03    0.74964E-03   -0.16972E-01    96   0.116E+00    0.155E-01
DAV:   2    -0.104868002854E+03   -0.72552E-03   -0.78160E-03   132   0.295E-01    0.785E-02
DAV:   3    -0.104867988395E+03    0.14459E-04   -0.27018E-04   144   0.617E-02    0.394E-02
DAV:   4    -0.104868005241E+03   -0.16847E-04   -0.72772E-05   132   0.307E-02    0.117E-02
DAV:   5    -0.104868006338E+03   -0.10970E-05   -0.11107E-05   132   0.127E-02    0.622E-03
DAV:   6    -0.104868007845E+03   -0.15071E-05   -0.30426E-06   144   0.580E-03    0.326E-03
DAV:   7    -0.104868010305E+03   -0.24598E-05   -0.32646E-07   108   0.214E-03    0.103E-03
DAV:   8    -0.104868012729E+03   -0.24240E-05   -0.17728E-07   108   0.168E-03    0.497E-04
DAV:   9    -0.104868015680E+03   -0.29509E-05   -0.13946E-07   108   0.139E-03    0.331E-04
DAV:  10    -0.104868018556E+03   -0.28763E-05   -0.16504E-07   108   0.123E-03    0.220E-04
DAV:  11    -0.104868019505E+03   -0.94904E-06   -0.37200E-08   120   0.687E-04
  30 F= -.10486802E+03 E0= -.10486802E+03  d E =-.133443E-10
       N       E                     dE             d eps       ncg     rms          rms(c)
DAV:   1    -0.104866146885E+03    0.18717E-02   -0.34226E-01    96   0.169E+00    0.265E-01
DAV:   2    -0.104867675794E+03   -0.15289E-02   -0.17046E-02   132   0.449E-01    0.124E-01
DAV:   3    -0.104867608005E+03    0.67789E-04   -0.57614E-04   144   0.915E-02    0.699E-02
DAV:   4    -0.104867616887E+03   -0.88820E-05   -0.18179E-04   132   0.493E-02    0.198E-02
DAV:   5    -0.104867612733E+03    0.41541E-05   -0.30743E-05   132   0.213E-02    0.973E-03
DAV:   6    -0.104867614072E+03   -0.13392E-05   -0.60391E-06   132   0.844E-03    0.607E-03
DAV:   7    -0.104867620764E+03   -0.66913E-05   -0.69288E-07   108   0.307E-03    0.233E-03
DAV:   8    -0.104867627743E+03   -0.69798E-05   -0.50215E-07   108   0.264E-03    0.927E-04
DAV:   9    -0.104867635625E+03   -0.78818E-05   -0.49076E-07   108   0.246E-03    0.710E-04
DAV:  10    -0.104867646075E+03   -0.10450E-04   -0.90374E-07   120   0.259E-03    0.713E-04
DAV:  11    -0.104867647875E+03   -0.17999E-05   -0.10376E-07   120   0.126E-03    0.517E-04
DAV:  12    -0.104867649286E+03   -0.14108E-05   -0.25001E-08   108   0.566E-04    0.321E-04
DAV:  13    -0.104867651786E+03   -0.24998E-05   -0.61256E-08    96   0.569E-04    0.101E-04
DAV:  14    -0.104867653410E+03   -0.16245E-05   -0.46293E-08   108   0.489E-04    0.210E-04
DAV:  15    -0.104867654193E+03   -0.78269E-06   -0.83652E-09   108   0.287E-04
  31 F= -.10486765E+03 E0= -.10486765E+03  d E =-.452753E-11
       N       E                     dE             d eps       ncg     rms          rms(c)
DAV:   1    -0.104866692073E+03    0.96134E-03   -0.16787E-01    96   0.125E+00    0.189E-01
DAV:   2    -0.104867743310E+03   -0.10512E-02   -0.11572E-02   132   0.366E-01    0.946E-02
DAV:   3    -0.104867676266E+03    0.67044E-04   -0.39939E-04   144   0.770E-02    0.517E-02
DAV:   4    -0.104867676763E+03   -0.49664E-06   -0.13573E-04   132   0.430E-02    0.138E-02
DAV:   5    -0.104867674883E+03    0.18796E-05   -0.23911E-05   132   0.187E-02    0.862E-03
DAV:   6    -0.104867675338E+03   -0.45526E-06   -0.37735E-06   132   0.694E-03
  32 F= -.10486768E+03 E0= -.10486768E+03  d E =-.319665E-10
       N       E                     dE             d eps       ncg     rms          rms(c)
DAV:   1    -0.104865978160E+03    0.16967E-02   -0.34199E-01    96   0.173E+00    0.273E-01
DAV:   2    -0.104867686845E+03   -0.17087E-02   -0.19115E-02   132   0.481E-01    0.135E-01
DAV:   3    -0.104867592569E+03    0.94277E-04   -0.66424E-04   132   0.101E-01    0.723E-02
DAV:   4    -0.104867608461E+03   -0.15892E-04   -0.24427E-04   132   0.569E-02    0.197E-02
DAV:   5    -0.104867602650E+03    0.58109E-05   -0.35745E-05   132   0.228E-02    0.109E-02
DAV:   6    -0.104867603025E+03   -0.37530E-06   -0.66698E-06   144   0.882E-03
  33 F= -.10486760E+03 E0= -.10486760E+03  d E =-.307371E-10
       N       E                     dE             d eps       ncg     rms          rms(c)
DAV:   1    -0.104866408585E+03    0.11941E-02   -0.17005E-01    96   0.121E+00    0.195E-01
DAV:   2    -0.104867082475E+03   -0.67389E-03   -0.78946E-03   132   0.311E-01    0.833E-02
DAV:   3    -0.104867051342E+03    0.31133E-04   -0.31686E-04   144   0.658E-02    0.443E-02
DAV:   4    -0.104867064197E+03   -0.12855E-04   -0.78670E-05   144   0.321E-02    0.140E-02
DAV:   5    -0.104867066130E+03   -0.19330E-05   -0.12215E-05   144   0.138E-02    0.732E-03
DAV:   6    -0.104867068224E+03   -0.20943E-05   -0.30071E-06   132   0.613E-03    0.415E-03
DAV:   7    -0.104867071746E+03   -0.35222E-05   -0.37535E-07   108   0.221E-03    0.149E-03
DAV:   8    -0.104867075511E+03   -0.37646E-05   -0.27647E-07   108   0.192E-03    0.558E-04
DAV:   9    -0.104867079055E+03   -0.35442E-05   -0.18603E-07   108   0.153E-03    0.484E-04
DAV:  10    -0.104867083440E+03   -0.43845E-05   -0.30770E-07   108   0.157E-03    0.424E-04
DAV:  11    -0.104867084252E+03   -0.81196E-06   -0.53346E-08   120   0.813E-04
  34 F= -.10486708E+03 E0= -.10486708E+03  d E =-.350644E-10
       N       E                     dE             d eps       ncg     rms          rms(c)
DAV:   1    -0.104865035731E+03    0.20477E-02   -0.33369E-01    96   0.175E+00    0.271E-01
DAV:   2    -0.104867217204E+03   -0.21815E-02   -0.23777E-02   132   0.528E-01    0.160E-01
DAV:   3    -0.104867046285E+03    0.17092E-03   -0.69534E-04   132   0.111E-01    0.834E-02
DAV:   4    -0.104867051296E+03   -0.50111E-05   -0.40896E-04   132   0.736E-02    0.183E-02
DAV:   5    -0.104867042521E+03    0.87745E-05   -0.61563E-05   132   0.296E-02    0.129E-02
DAV:   6    -0.104867042938E+03   -0.41672E-06   -0.98534E-06   132   0.945E-03
  35 F= -.10486704E+03 E0= -.10486704E+03  d E =-.341231E-10
       N       E                     dE             d eps       ncg     rms          rms(c)
DAV:   1    -0.104867556418E+03   -0.51390E-03   -0.16760E-01    96   0.122E+00    0.190E-01
DAV:   2    -0.104868433651E+03   -0.87723E-03   -0.96333E-03   132   0.341E-01    0.969E-02
DAV:   3    -0.104868393773E+03    0.39879E-04   -0.33196E-04   132   0.718E-02    0.518E-02
DAV:   4    -0.104868421508E+03   -0.27735E-04   -0.13580E-04   132   0.425E-02    0.138E-02
DAV:   5    -0.104868425433E+03   -0.39248E-05   -0.19900E-05   132   0.170E-02    0.829E-03
DAV:   6    -0.104868427097E+03   -0.16648E-05   -0.34638E-06   132   0.632E-03    0.519E-03
DAV:   7    -0.104868429885E+03   -0.27876E-05   -0.40358E-07   108   0.262E-03    0.148E-03
DAV:   8    -0.104868431532E+03   -0.16467E-05   -0.21685E-07   108   0.198E-03    0.580E-04
DAV:   9    -0.104868433427E+03   -0.18950E-05   -0.13701E-07   108   0.147E-03    0.423E-04
DAV:  10    -0.104868435806E+03   -0.23797E-05   -0.14360E-07    96   0.132E-03    0.460E-04
DAV:  11    -0.104868436266E+03   -0.45974E-06   -0.37112E-08   108   0.723E-04
  36 F= -.10486844E+03 E0= -.10486844E+03  d E =-.310448E-10
       N       E                     dE             d eps       ncg     rms          rms(c)
DAV:   1    -0.104866488062E+03    0.19477E-02   -0.34228E-01    96   0.168E+00    0.269E-01
DAV:   2    -0.104867732741E+03   -0.12447E-02   -0.14846E-02   132   0.425E-01    0.114E-01
DAV:   3    -0.104867677664E+03    0.55077E-04   -0.59729E-04   144   0.897E-02    0.619E-02
DAV:   4    -0.104867693080E+03   -0.15416E-04   -0.13827E-04   144   0.431E-02    0.202E-02
DAV:   5    -0.104867691184E+03    0.18955E-05   -0.21925E-05   120   0.187E-02    0.959E-03
DAV:   6    -0.104867691891E+03   -0.70658E-06   -0.53519E-06   144   0.801E-03
  37 F= -.10486769E+03 E0= -.10486769E+03  d E =-.386368E-10
       N       E                     dE             d eps       ncg     rms          rms(c)
DAV:   1    -0.104865566327E+03    0.21249E-02   -0.15633E-01    96   0.127E+00    0.175E-01
DAV:   2    -0.104866667985E+03   -0.11017E-02   -0.11686E-02   120   0.381E-01    0.105E-01
DAV:   3    -0.104866628384E+03    0.39601E-04   -0.30376E-04   144   0.689E-02    0.601E-02
DAV:   4    -0.104866625058E+03    0.33261E-05   -0.12193E-04   120   0.431E-02    0.110E-02
DAV:   5    -0.104866620280E+03    0.47776E-05   -0.25135E-05   144   0.191E-02    0.795E-03
DAV:   6    -0.104866619543E+03    0.73664E-06   -0.36872E-06   132   0.695E-03
  38 F= -.10486662E+03 E0= -.10486662E+03  d E =-.274418E-10
       N       E                     dE             d eps       ncg     rms          rms(c)
DAV:   1    -0.104864665410E+03    0.19549E-02   -0.34969E-01    96   0.185E+00    0.241E-01
DAV:   2    -0.104866884970E+03   -0.22196E-02   -0.22373E-02   120   0.540E-01    0.164E-01
DAV:   3    -0.104866830637E+03    0.54332E-04   -0.49896E-04   132   0.927E-02    0.902E-02
DAV:   4    -0.104866807684E+03    0.22953E-04   -0.27918E-04   132   0.630E-02    0.155E-02
DAV:   5    -0.104866795779E+03    0.11905E-04   -0.48347E-05   144   0.257E-02    0.110E-02
DAV:   6    -0.104866797027E+03   -0.12475E-05   -0.12863E-05   132   0.118E-02    0.636E-03
DAV:   7    -0.104866816953E+03   -0.19926E-04   -0.37334E-06   120   0.709E-03    0.238E-03
DAV:   8    -0.104866840563E+03   -0.23611E-04   -0.22047E-06   108   0.503E-03    0.119E-03
DAV:   9    -0.104866863949E+03   -0.23386E-04   -0.25189E-06   108   0.412E-03    0.127E-03
DAV:  10    -0.104866882918E+03   -0.18969E-04   -0.17568E-06   120   0.298E-03    0.448E-04
DAV:  11    -0.104866888733E+03   -0.58155E-05   -0.22912E-07   108   0.120E-03    0.288E-04
DAV:  12    -0.104866894102E+03   -0.53681E-05   -0.27423E-07    96   0.111E-03    0.157E-04
DAV:  13    -0.104866895791E+03   -0.16892E-05   -0.49655E-08   108   0.554E-04    0.115E-04
DAV:  14    -0.104866896793E+03   -0.10019E-05   -0.14540E-08    96   0.354E-04    0.782E-05
DAV:  15    -0.104866897582E+03   -0.78918E-06   -0.82415E-09   108   0.272E-04
  39 F= -.10486690E+03 E0= -.10486690E+03  d E =-.497714E-10
       N       E                     dE             d eps       ncg     rms          rms(c)
DAV:   1    -0.104867297546E+03   -0.40075E-03   -0.17312E-01    96   0.129E+00    0.182E-01
DAV:   2    -0.104868259210E+03   -0.96166E-03   -0.99828E-03   132   0.362E-01    0.103E-01
DAV:   3    -0.104868223087E+03    0.36123E-04   -0.25266E-04   132   0.656E-02    0.539E-02
DAV:   4    -0.104868222995E+03    0.92552E-07   -0.12647E-04   132   0.440E-02    0.114E-02
DAV:   5    -0.104868217679E+03    0.53154E-05   -0.26754E-05   144   0.196E-02    0.760E-03
DAV:   6    -0.104868217912E+03   -0.23277E-06   -0.45347E-06   132   0.685E-03
  40 F= -.10486822E+03 E0= -.10486822E+03  d E =-.210146E-10
       N       E                     dE             d eps       ncg     rms          rms(c)
DAV:   1    -0.104866307492E+03    0.19102E-02   -0.34442E-01    96   0.171E+00    0.235E-01
DAV:   2    -0.104867846202E+03   -0.15387E-02   -0.15746E-02   132   0.427E-01    0.117E-01
DAV:   3    -0.104867846256E+03   -0.53161E-07   -0.48348E-04   132   0.852E-02    0.624E-02
DAV:   4    -0.104867875816E+03   -0.29560E-04   -0.14487E-04   132   0.513E-02    0.141E-02
DAV:   5    -0.104867875896E+03   -0.80418E-07   -0.41842E-05   132   0.245E-02    0.102E-02
DAV:   6    -0.104867876913E+03   -0.10174E-05   -0.58538E-06   156   0.778E-03    0.692E-03
DAV:   7    -0.104867880491E+03   -0.35780E-05   -0.62238E-07   108   0.325E-03    0.306E-03
DAV:   8    -0.104867885325E+03   -0.48333E-05   -0.88241E-07   108   0.371E-03    0.117E-03
DAV:   9    -0.104867893239E+03   -0.79138E-05   -0.56426E-07   108   0.315E-03    0.657E-04
DAV:  10    -0.104867898373E+03   -0.51343E-05   -0.39313E-07   108   0.222E-03    0.830E-04
DAV:  11    -0.104867900642E+03   -0.22687E-05   -0.10866E-07   108   0.122E-03    0.606E-04
DAV:  12    -0.104867903293E+03   -0.26511E-05   -0.61296E-08   108   0.693E-04    0.215E-04
DAV:  13    -0.104867905515E+03   -0.22227E-05   -0.56752E-08   108   0.541E-04    0.176E-04
DAV:  14    -0.104867906890E+03   -0.13742E-05   -0.22836E-08   108   0.344E-04    0.144E-04
DAV:  15    -0.104867907888E+03   -0.99795E-06   -0.16478E-08    96   0.317E-04
  41 F= -.10486791E+03 E0= -.10486791E+03  d E =-.694087E-10
       N       E                     dE             d eps       ncg     rms          rms(c)
DAV:   1    -0.104865367753E+03    0.25391E-02   -0.17281E-01    96   0.126E+00    0.177E-01
DAV:   2    -0.104866239485E+03   -0.87173E-03   -0.90897E-03   120   0.342E-01    0.972E-02
DAV:   3    -0.104866215881E+03    0.23604E-04   -0.28049E-04   144   0.675E-02    0.504E-02
DAV:   4    -0.104866223228E+03   -0.73469E-05   -0.11943E-04   132   0.437E-02    0.109E-02
DAV:   5    -0.104866220077E+03    0.31511E-05   -0.27059E-05   132   0.195E-02    0.876E-03
DAV:   6    -0.104866219516E+03    0.56100E-06   -0.46275E-06   132   0.699E-03
  42 F= -.10486622E+03 E0= -.10486622E+03  d E =-.535177E-10
       N       E                     dE             d eps       ncg     rms          rms(c)
DAV:   1    -0.104864287619E+03    0.19325E-02   -0.35819E-01    96   0.187E+00    0.270E-01
DAV:   2    -0.104866564457E+03   -0.22768E-02   -0.23226E-02   132   0.565E-01    0.174E-01
DAV:   3    -0.104866475609E+03    0.88848E-04   -0.59433E-04   132   0.107E-01    0.883E-02
DAV:   4    -0.104866486973E+03   -0.11364E-04   -0.36105E-04   132   0.722E-02    0.176E-02
DAV:   5    -0.104866472914E+03    0.14059E-04   -0.60007E-05   144   0.292E-02    0.113E-02
DAV:   6    -0.104866476724E+03   -0.38103E-05   -0.14192E-05   144   0.109E-02    0.617E-03
DAV:   7    -0.104866495026E+03   -0.18302E-04   -0.14602E-06   120   0.435E-03    0.267E-03
DAV:   8    -0.104866519951E+03   -0.24925E-04   -0.29498E-06   108   0.491E-03    0.116E-03
DAV:   9    -0.104866537395E+03   -0.17444E-04   -0.18386E-06   120   0.343E-03    0.143E-03
DAV:  10    -0.104866553414E+03   -0.16019E-04   -0.12283E-06   108   0.262E-03    0.477E-04
DAV:  11    -0.104866558897E+03   -0.54832E-05   -0.24891E-07   108   0.128E-03    0.278E-04
DAV:  12    -0.104866564355E+03   -0.54578E-05   -0.25080E-07    96   0.105E-03    0.160E-04
DAV:  13    -0.104866566188E+03   -0.18336E-05   -0.62107E-08   108   0.545E-04    0.172E-04
DAV:  14    -0.104866567795E+03   -0.16063E-05   -0.34040E-08    96   0.450E-04    0.591E-05
DAV:  15    -0.104866568196E+03   -0.40168E-06   -0.27508E-09   120   0.224E-04
  43 F= -.10486657E+03 E0= -.10486657E+03  d E =-.269309E-10
       N       E                     dE             d eps       ncg     rms          rms(c)
DAV:   1    -0.104866550743E+03    0.17052E-04   -0.16983E-01    96   0.132E+00    0.182E-01
DAV:   2    -0.104867836398E+03   -0.12857E-02   -0.13557E-02   144   0.424E-01    0.115E-01
DAV:   3    -0.104867773217E+03    0.63181E-04   -0.34875E-04   144   0.773E-02    0.662E-02
DAV:   4    -0.104867760209E+03    0.13008E-04   -0.18339E-04   120   0.554E-02    0.113E-02
DAV:   5    -0.104867754229E+03    0.59801E-05   -0.51670E-05   132   0.268E-02    0.991E-03
DAV:   6    -0.104867752684E+03    0.15453E-05   -0.54236E-06   144   0.787E-03    0.737E-03
DAV:   7    -0.104867759404E+03   -0.67199E-05   -0.12691E-06   108   0.539E-03    0.292E-03
DAV:   8    -0.104867771352E+03   -0.11948E-04   -0.26906E-06   120   0.610E-03    0.154E-03
DAV:   9    -0.104867785007E+03   -0.13655E-04   -0.10635E-06   108   0.377E-03    0.100E-03
DAV:  10    -0.104867793835E+03   -0.88280E-05   -0.51505E-07   108   0.194E-03    0.644E-04
DAV:  11    -0.104867799394E+03   -0.55588E-05   -0.18136E-07   108   0.112E-03    0.442E-04
DAV:  12    -0.104867805267E+03   -0.58733E-05   -0.22108E-07    96   0.101E-03    0.145E-04
DAV:  13    -0.104867806981E+03   -0.17138E-05   -0.34070E-08   108   0.482E-04    0.165E-04
DAV:  14    -0.104867809198E+03   -0.22173E-05   -0.54418E-08    96   0.505E-04    0.914E-05
DAV:  15    -0.104867809763E+03   -0.56455E-06   -0.55710E-09   120   0.240E-04
  44 F= -.10486781E+03 E0= -.10486781E+03  d E =-.473919E-10
       N       E                     dE             d eps       ncg     rms          rms(c)
DAV:   1    -0.104866015259E+03    0.17939E-02   -0.33803E-01    96   0.180E+00    0.272E-01
DAV:   2    -0.104867725897E+03   -0.17106E-02   -0.18062E-02   132   0.475E-01    0.133E-01
DAV:   3    -0.104867667259E+03    0.58638E-04   -0.58178E-04   132   0.948E-02    0.717E-02
DAV:   4    -0.104867679646E+03   -0.12387E-04   -0.21307E-04   132   0.587E-02    0.159E-02
DAV:   5    -0.104867673919E+03    0.57268E-05   -0.51851E-05   132   0.275E-02    0.117E-02
DAV:   6    -0.104867673440E+03    0.47865E-06   -0.76382E-06   144   0.932E-03
  45 F= -.10486767E+03 E0= -.10486767E+03  d E =-.270099E-10
       N       E                     dE             d eps       ncg     rms          rms(c)
DAV:   1    -0.104866016666E+03    0.16573E-02   -0.17279E-01    96   0.133E+00    0.181E-01
DAV:   2    -0.104867077748E+03   -0.10611E-02   -0.10757E-02   132   0.384E-01    0.114E-01
DAV:   3    -0.104867054454E+03    0.23294E-04   -0.25974E-04   132   0.684E-02    0.619E-02
DAV:   4    -0.104867058012E+03   -0.35580E-05   -0.14862E-04   120   0.464E-02    0.113E-02
DAV:   5    -0.104867051813E+03    0.61984E-05   -0.25459E-05   132   0.194E-02    0.825E-03
DAV:   6    -0.104867052252E+03   -0.43839E-06   -0.59489E-06   108   0.803E-03
  46 F= -.10486705E+03 E0= -.10486705E+03  d E =-.302885E-10
       N       E                     dE             d eps       ncg     rms          rms(c)
DAV:   1    -0.104864916377E+03    0.21354E-02   -0.34097E-01    96   0.186E+00    0.264E-01
DAV:   2    -0.104866995396E+03   -0.20790E-02   -0.21246E-02   132   0.535E-01    0.157E-01
DAV:   3    -0.104866921317E+03    0.74079E-04   -0.54968E-04   132   0.964E-02    0.814E-02
DAV:   4    -0.104866925836E+03   -0.45195E-05   -0.27424E-04   132   0.628E-02    0.156E-02
DAV:   5    -0.104866910635E+03    0.15201E-04   -0.45988E-05   144   0.263E-02    0.108E-02
DAV:   6    -0.104866906851E+03    0.37839E-05   -0.94509E-06   132   0.106E-02    0.674E-03
DAV:   7    -0.104866912628E+03   -0.57770E-05   -0.22048E-06   132   0.693E-03    0.217E-03
DAV:   8    -0.104866921375E+03   -0.87464E-05   -0.16168E-06   132   0.546E-03    0.145E-03
DAV:   9    -0.104866932153E+03   -0.10779E-04   -0.78424E-07   108   0.312E-03    0.133E-03
DAV:  10    -0.104866947502E+03   -0.15348E-04   -0.10637E-06   120   0.234E-03    0.529E-04
DAV:  11    -0.104866951613E+03   -0.41113E-05   -0.10618E-07   120   0.107E-03    0.387E-04
DAV:  12    -0.104866959243E+03   -0.76301E-05   -0.20724E-07    96   0.109E-03    0.284E-04
DAV:  13    -0.104866962530E+03   -0.32872E-05   -0.85274E-08   108   0.674E-04    0.220E-04
DAV:  14    -0.104866964705E+03   -0.21748E-05   -0.20070E-08   108   0.414E-04    0.110E-04
DAV:  15    -0.104866966175E+03   -0.14694E-05   -0.18300E-08   108   0.323E-04    0.706E-05
DAV:  16    -0.104866966963E+03   -0.78794E-06   -0.70864E-10   108   0.214E-04
  47 F= -.10486697E+03 E0= -.10486697E+03  d E =-.352654E-10
       N       E                     dE             d eps       ncg     rms          rms(c)
DAV:   1    -0.104865065080E+03    0.19011E-02   -0.17459E-01    96   0.131E+00    0.186E-01
DAV:   2    -0.104866357490E+03   -0.12924E-02   -0.13276E-02   132   0.418E-01    0.126E-01
DAV:   3    -0.104866284621E+03    0.72869E-04   -0.30246E-04   132   0.762E-02    0.687E-02
DAV:   4    -0.104866284699E+03   -0.78508E-07   -0.22643E-04   120   0.593E-02    0.121E-02
DAV:   5    -0.104866278260E+03    0.64394E-05   -0.53596E-05   132   0.274E-02    0.979E-03
DAV:   6    -0.104866279350E+03   -0.10895E-05   -0.88299E-06   132   0.865E-03    0.691E-03
DAV:   7    -0.104866288781E+03   -0.94314E-05   -0.82192E-07   108   0.341E-03    0.316E-03
DAV:   8    -0.104866302566E+03   -0.13785E-04   -0.17784E-06   132   0.416E-03    0.921E-04
DAV:   9    -0.104866314052E+03   -0.11486E-04   -0.95322E-07   108   0.290E-03    0.112E-03
DAV:  10    -0.104866326870E+03   -0.12818E-04   -0.12297E-06   108   0.241E-03    0.787E-04
DAV:  11    -0.104866330502E+03   -0.36314E-05   -0.11427E-07   108   0.111E-03    0.412E-04
DAV:  12    -0.104866333906E+03   -0.34043E-05   -0.11892E-07    96   0.869E-04    0.150E-04
DAV:  13    -0.104866335821E+03   -0.19152E-05   -0.48080E-08   108   0.543E-04    0.250E-04
DAV:  14    -0.104866336944E+03   -0.11227E-05   -0.10794E-08   108   0.324E-04    0.128E-04
DAV:  15    -0.104866337593E+03   -0.64892E-06   -0.62122E-09    96   0.266E-04
  48 F= -.10486634E+03 E0= -.10486634E+03  d E =-.449506E-10
       N       E                     dE             d eps       ncg     rms          rms(c)
DAV:   1    -0.104864166390E+03    0.21706E-02   -0.34890E-01    96   0.186E+00    0.265E-01
DAV:   2    -0.104866533694E+03   -0.23673E-02   -0.24487E-02   132   0.587E-01    0.177E-01
DAV:   3    -0.104866413465E+03    0.12023E-03   -0.63871E-04   144   0.112E-01    0.871E-02
DAV:   4    -0.104866425065E+03   -0.11600E-04   -0.38495E-04   120   0.739E-02    0.185E-02
DAV:   5    -0.104866413710E+03    0.11356E-04   -0.60220E-05   132   0.295E-02    0.116E-02
DAV:   6    -0.104866423180E+03   -0.94708E-05   -0.16447E-05   132   0.119E-02    0.621E-03
DAV:   7    -0.104866448455E+03   -0.25275E-04   -0.18776E-06   108   0.469E-03    0.255E-03
DAV:   8    -0.104866478248E+03   -0.29793E-04   -0.31012E-06   132   0.494E-03    0.121E-03
DAV:   9    -0.104866503064E+03   -0.24816E-04   -0.25502E-06    96   0.389E-03    0.141E-03
DAV:  10    -0.104866522260E+03   -0.19196E-04   -0.16925E-06   120   0.301E-03    0.447E-04
DAV:  11    -0.104866527889E+03   -0.56284E-05   -0.20693E-07   108   0.125E-03    0.275E-04
DAV:  12    -0.104866533924E+03   -0.60349E-05   -0.30003E-07   108   0.114E-03    0.228E-04
DAV:  13    -0.104866535342E+03   -0.14184E-05   -0.38946E-08   120   0.478E-04    0.211E-04
DAV:  14    -0.104866537047E+03   -0.17048E-05   -0.33285E-08   108   0.451E-04    0.586E-05
DAV:  15    -0.104866537473E+03   -0.42569E-06   -0.24169E-09   108   0.232E-04
  49 F= -.10486654E+03 E0= -.10486654E+03  d E =-.284807E-10
       N       E                     dE             d eps       ncg     rms          rms(c)
DAV:   1    -0.104866916996E+03   -0.37995E-03   -0.18659E-01    96   0.135E+00    0.160E-01
DAV:   2    -0.104868189779E+03   -0.12728E-02   -0.13595E-02   132   0.409E-01    0.105E-01
DAV:   3    -0.104868137147E+03    0.52632E-04   -0.30709E-04   144   0.715E-02    0.598E-02
DAV:   4    -0.104868129030E+03    0.81175E-05   -0.14757E-04   120   0.505E-02    0.104E-02
DAV:   5    -0.104868125428E+03    0.36018E-05   -0.39549E-05   144   0.236E-02    0.852E-03
DAV:   6    -0.104868124068E+03    0.13597E-05   -0.43139E-06   132   0.709E-03    0.602E-03
DAV:   7    -0.104868129086E+03   -0.50175E-05   -0.12929E-06   108   0.477E-03    0.221E-03
DAV:   8    -0.104868137745E+03   -0.86595E-05   -0.15894E-06   132   0.442E-03    0.119E-03
DAV:   9    -0.104868147069E+03   -0.93241E-05   -0.49068E-07   108   0.251E-03    0.810E-04
DAV:  10    -0.104868154680E+03   -0.76102E-05   -0.39336E-07   108   0.143E-03    0.472E-04
DAV:  11    -0.104868159066E+03   -0.43868E-05   -0.11232E-07   108   0.797E-04    0.261E-04
DAV:  12    -0.104868163721E+03   -0.46542E-05   -0.14690E-07   108   0.778E-04    0.119E-04
DAV:  13    -0.104868165000E+03   -0.12792E-05   -0.14228E-08   120   0.338E-04    0.108E-04
DAV:  14    -0.104868166842E+03   -0.18420E-05   -0.30835E-08    96   0.377E-04    0.595E-05
DAV:  15    -0.104868167469E+03   -0.62760E-06   -0.40271E-09   108   0.209E-04
  50 F= -.10486817E+03 E0= -.10486817E+03  d E =-.752087E-11
       N       E                     dE             d eps       ncg     rms          rms(c)
DAV:   1    -0.104866752152E+03    0.14147E-02   -0.41183E-01    96   0.165E+00    0.190E-01
DAV:   2    -0.104868174384E+03   -0.14222E-02   -0.16991E-02   120   0.358E-01    0.948E-02
DAV:   3    -0.104868110618E+03    0.63766E-04   -0.39329E-04   156   0.675E-02    0.495E-02
DAV:   4    -0.104868083108E+03    0.27510E-04   -0.85323E-05   144   0.379E-02    0.116E-02
DAV:   5    -0.104868078366E+03    0.47415E-05   -0.20921E-05   144   0.178E-02    0.731E-03
DAV:   6    -0.104868081870E+03   -0.35035E-05   -0.45029E-06   132   0.728E-03    0.421E-03
DAV:   7    -0.104868091238E+03   -0.93676E-05   -0.10147E-06   120   0.363E-03    0.156E-03
DAV:   8    -0.104868101743E+03   -0.10505E-04   -0.66892E-07   120   0.277E-03    0.910E-04
DAV:   9    -0.104868117161E+03   -0.15418E-04   -0.12050E-06   120   0.294E-03    0.514E-04
DAV:  10    -0.104868127067E+03   -0.99062E-05   -0.82454E-07   120   0.217E-03    0.394E-04
DAV:  11    -0.104868130353E+03   -0.32858E-05   -0.82273E-08   108   0.953E-04    0.235E-04
DAV:  12    -0.104868133904E+03   -0.35508E-05   -0.13908E-07    96   0.819E-04    0.148E-04
DAV:  13    -0.104868135270E+03   -0.13666E-05   -0.32243E-08   108   0.418E-04    0.109E-04
DAV:  14    -0.104868136253E+03   -0.98279E-06   -0.10908E-08    96   0.302E-04
  51 F= -.10486814E+03 E0= -.10486814E+03  d E =-.107916E-10
       N       E                     dE             d eps       ncg     rms          rms(c)
DAV:   1    -0.104866670171E+03    0.14651E-02   -0.20108E-01    96   0.114E+00    0.139E-01
DAV:   2    -0.104867440809E+03   -0.77064E-03   -0.94596E-03   120   0.261E-01    0.841E-02
DAV:   3    -0.104867379268E+03    0.61540E-04   -0.17716E-04   156   0.476E-02    0.421E-02
DAV:   4    -0.104867353969E+03    0.25300E-04   -0.60965E-05   132   0.294E-02    0.818E-03
DAV:   5    -0.104867347017E+03    0.69521E-05   -0.12016E-05   132   0.127E-02    0.511E-03
DAV:   6    -0.104867348834E+03   -0.18172E-05   -0.32660E-06   132   0.519E-03    0.282E-03
DAV:   7    -0.104867356655E+03   -0.78211E-05   -0.72014E-07   120   0.277E-03    0.114E-03
DAV:   8    -0.104867367377E+03   -0.10722E-04   -0.60859E-07   120   0.214E-03    0.842E-04
DAV:   9    -0.104867379701E+03   -0.12324E-04   -0.62308E-07   108   0.173E-03    0.437E-04
DAV:  10    -0.104867388883E+03   -0.91813E-05   -0.44758E-07   108   0.132E-03    0.301E-04
DAV:  11    -0.104867391879E+03   -0.29966E-05   -0.62808E-08   108   0.644E-04    0.169E-04
DAV:  12    -0.104867396369E+03   -0.44901E-05   -0.14289E-07    96   0.747E-04    0.890E-05
DAV:  13    -0.104867397592E+03   -0.12229E-05   -0.18414E-08   108   0.343E-04    0.660E-05
DAV:  14    -0.104867398847E+03   -0.12550E-05   -0.11467E-08    96   0.276E-04    0.307E-05
DAV:  15    -0.104867399228E+03   -0.38129E-06    0.22014E-09   108   0.148E-04
  52 F= -.10486740E+03 E0= -.10486740E+03  d E =-.385338E-10
       N       E                     dE             d eps       ncg     rms          rms(c)
DAV:   1    -0.104866269424E+03    0.11294E-02   -0.40368E-01    96   0.167E+00    0.223E-01
DAV:   2    -0.104867722850E+03   -0.14534E-02   -0.17857E-02   120   0.380E-01    0.112E-01
DAV:   3    -0.104867616984E+03    0.10587E-03   -0.37191E-04   156   0.684E-02    0.577E-02
DAV:   4    -0.104867572180E+03    0.44804E-04   -0.10784E-04   120   0.405E-02    0.121E-02
DAV:   5    -0.104867565063E+03    0.71163E-05   -0.24218E-05   132   0.186E-02    0.753E-03
DAV:   6    -0.104867571845E+03   -0.67814E-05   -0.54308E-06   132   0.717E-03    0.452E-03
DAV:   7    -0.104867590323E+03   -0.18478E-04   -0.17896E-06   132   0.398E-03    0.163E-03
DAV:   8    -0.104867608197E+03   -0.17874E-04   -0.13352E-06   120   0.299E-03    0.113E-03
DAV:   9    -0.104867628369E+03   -0.20172E-04   -0.16709E-06   120   0.281E-03    0.670E-04
DAV:  10    -0.104867642768E+03   -0.14398E-04   -0.12868E-06   120   0.219E-03    0.448E-04
DAV:  11    -0.104867646241E+03   -0.34736E-05   -0.80205E-08   108   0.843E-04    0.269E-04
DAV:  12    -0.104867651930E+03   -0.56882E-05   -0.26440E-07    96   0.104E-03    0.158E-04
DAV:  13    -0.104867653438E+03   -0.15089E-05   -0.46212E-08   108   0.465E-04    0.125E-04
DAV:  14    -0.104867654825E+03   -0.13866E-05   -0.16074E-08    96   0.349E-04    0.456E-05
DAV:  15    -0.104867655370E+03   -0.54525E-06   -0.43549E-09   108   0.223E-04
  53 F= -.10486766E+03 E0= -.10486766E+03  d E =-.426301E-10
       N       E                     dE             d eps       ncg     rms          rms(c)
DAV:   1    -0.104867273776E+03    0.38105E-03   -0.19941E-01    96   0.118E+00    0.154E-01
DAV:   2    -0.104868063168E+03   -0.78939E-03   -0.95684E-03   120   0.272E-01    0.838E-02
DAV:   3    -0.104868001601E+03    0.61567E-04   -0.17593E-04   144   0.481E-02    0.439E-02
DAV:   4    -0.104867976503E+03    0.25098E-04   -0.68284E-05   144   0.309E-02    0.883E-03
DAV:   5    -0.104867970356E+03    0.61469E-05   -0.12488E-05   132   0.132E-02    0.533E-03
DAV:   6    -0.104867971249E+03   -0.89343E-06   -0.29668E-06   132   0.506E-03
  54 F= -.10486797E+03 E0= -.10486797E+03  d E =-.161518E-10
       N       E                     dE             d eps       ncg     rms          rms(c)
DAV:   1    -0.104866796771E+03    0.11736E-02   -0.40991E-01    96   0.167E+00    0.217E-01
DAV:   2    -0.104868188722E+03   -0.13920E-02   -0.16552E-02   120   0.378E-01    0.955E-02
DAV:   3    -0.104868142655E+03    0.46067E-04   -0.40002E-04   144   0.695E-02    0.501E-02
DAV:   4    -0.104868137296E+03    0.53598E-05   -0.89521E-05   132   0.387E-02    0.122E-02
DAV:   5    -0.104868132266E+03    0.50293E-05   -0.21658E-05   132   0.181E-02    0.741E-03
DAV:   6    -0.104868131138E+03    0.11284E-05   -0.38790E-06   144   0.687E-03    0.442E-03
DAV:   7    -0.104868134188E+03   -0.30504E-05   -0.60970E-07    96   0.328E-03    0.134E-03
DAV:   8    -0.104868138165E+03   -0.39762E-05   -0.39223E-07   108   0.254E-03    0.828E-04
DAV:   9    -0.104868146620E+03   -0.84553E-05   -0.63831E-07   120   0.272E-03    0.425E-04
DAV:  10    -0.104868151030E+03   -0.44098E-05   -0.31958E-07   108   0.175E-03    0.449E-04
DAV:  11    -0.104868152579E+03   -0.15494E-05   -0.57304E-08   108   0.823E-04    0.317E-04
DAV:  12    -0.104868155471E+03   -0.28921E-05   -0.94880E-08    96   0.752E-04    0.127E-04
DAV:  13    -0.104868156746E+03   -0.12751E-05   -0.37593E-08   108   0.447E-04    0.163E-04
DAV:  14    -0.104868157694E+03   -0.94748E-06   -0.13518E-08    96   0.331E-04
  55 F= -.10486816E+03 E0= -.10486816E+03  d E =-.491355E-11
       N       E                     dE             d eps       ncg     rms          rms(c)
DAV:   1    -0.104866994051E+03    0.11627E-02   -0.22292E-01    96   0.128E+00    0.155E-01
DAV:   2    -0.104868053926E+03   -0.10599E-02   -0.12131E-02   120   0.296E-01    0.721E-02
DAV:   3    -0.104868032838E+03    0.21088E-04   -0.29845E-04   156   0.543E-02    0.381E-02
DAV:   4    -0.104868025436E+03    0.74018E-05   -0.61057E-05   132   0.275E-02    0.987E-03
DAV:   5    -0.104868021844E+03    0.35924E-05   -0.84002E-06   132   0.109E-02    0.542E-03
DAV:   6    -0.104868023373E+03   -0.15291E-05   -0.26711E-06   120   0.581E-03    0.214E-03
DAV:   7    -0.104868028379E+03   -0.50063E-05   -0.85809E-07   108   0.327E-03    0.999E-04
DAV:   8    -0.104868035791E+03   -0.74121E-05   -0.47989E-07   108   0.206E-03    0.576E-04
DAV:   9    -0.104868041319E+03   -0.55278E-05   -0.29145E-07   108   0.147E-03    0.363E-04
DAV:  10    -0.104868047378E+03   -0.60593E-05   -0.34837E-07    96   0.132E-03    0.223E-04
DAV:  11    -0.104868049848E+03   -0.24695E-05   -0.97046E-08   108   0.764E-04    0.167E-04
DAV:  12    -0.104868051639E+03   -0.17913E-05   -0.34963E-08    84   0.497E-04    0.116E-04
DAV:  13    -0.104868052710E+03   -0.10703E-05   -0.23797E-08   108   0.363E-04    0.667E-05
DAV:  14    -0.104868053236E+03   -0.52615E-06   -0.15192E-09   108   0.208E-04
  56 F= -.10486805E+03 E0= -.10486805E+03  d E =-.144297E-10
       N       E                     dE             d eps       ncg     rms          rms(c)
DAV:   1    -0.104866386718E+03    0.16660E-02   -0.40840E-01   108   0.158E+00    0.193E-01
DAV:   2    -0.104867984847E+03   -0.15981E-02   -0.19127E-02   120   0.376E-01    0.980E-02
DAV:   3    -0.104867944929E+03    0.39918E-04   -0.42477E-04   156   0.679E-02    0.528E-02
DAV:   4    -0.104867915696E+03    0.29234E-04   -0.76682E-05   132   0.413E-02    0.104E-02
DAV:   5    -0.104867908572E+03    0.71239E-05   -0.30899E-05   132   0.213E-02    0.830E-03
DAV:   6    -0.104867909663E+03   -0.10909E-05   -0.46446E-06   132   0.674E-03    0.609E-03
DAV:   7    -0.104867917086E+03   -0.74233E-05   -0.83803E-07   108   0.376E-03    0.249E-03
DAV:   8    -0.104867928766E+03   -0.11680E-04   -0.17439E-06   120   0.438E-03    0.173E-03
DAV:   9    -0.104867945657E+03   -0.16891E-04   -0.10767E-06   108   0.357E-03    0.893E-04
DAV:  10    -0.104867956002E+03   -0.10345E-04   -0.77176E-07   108   0.251E-03    0.113E-03
DAV:  11    -0.104867960316E+03   -0.43141E-05   -0.12763E-07   108   0.131E-03    0.607E-04
DAV:  12    -0.104867966252E+03   -0.59362E-05   -0.20099E-07    96   0.109E-03    0.272E-04
DAV:  13    -0.104867968493E+03   -0.22408E-05   -0.48003E-08   108   0.559E-04    0.308E-04
DAV:  14    -0.104867970944E+03   -0.24506E-05   -0.47736E-08    96   0.486E-04    0.160E-04
DAV:  15    -0.104867971778E+03   -0.83468E-06   -0.86447E-09   108   0.283E-04
  57 F= -.10486797E+03 E0= -.10486797E+03  d E =-.573869E-11
       N       E                     dE             d eps       ncg     rms          rms(c)
DAV:   1    -0.104866604422E+03    0.13665E-02   -0.20643E-01    96   0.114E+00    0.139E-01
DAV:   2    -0.104867301828E+03   -0.69741E-03   -0.83569E-03   120   0.236E-01    0.604E-02
DAV:   3    -0.104867291926E+03    0.99023E-05   -0.20863E-04   156   0.494E-02    0.316E-02
DAV:   4    -0.104867285473E+03    0.64533E-05   -0.33749E-05   144   0.293E-02    0.747E-03
DAV:   5    -0.104867284711E+03    0.76203E-06   -0.15285E-05   132   0.147E-02    0.611E-03
DAV:   6    -0.104867285040E+03   -0.32975E-06   -0.12511E-06   120   0.371E-03
  58 F= -.10486729E+03 E0= -.10486729E+03  d E =-.417506E-10
       N       E                     dE             d eps       ncg     rms          rms(c)
DAV:   1    -0.104865845573E+03    0.14391E-02   -0.40658E-01    96   0.166E+00    0.219E-01
DAV:   2    -0.104867404896E+03   -0.15593E-02   -0.18953E-02   132   0.401E-01    0.115E-01
DAV:   3    -0.104867327070E+03    0.77825E-04   -0.37429E-04   144   0.636E-02    0.604E-02
DAV:   4    -0.104867275901E+03    0.51169E-04   -0.92888E-05   144   0.387E-02    0.119E-02
DAV:   5    -0.104867268484E+03    0.74169E-05   -0.20841E-05   132   0.175E-02    0.752E-03
DAV:   6    -0.104867278340E+03   -0.98557E-05   -0.72225E-06   132   0.805E-03    0.418E-03
DAV:   7    -0.104867298297E+03   -0.19957E-04   -0.22768E-06   132   0.464E-03    0.196E-03
DAV:   8    -0.104867325566E+03   -0.27269E-04   -0.27464E-06   108   0.405E-03    0.119E-03
DAV:   9    -0.104867343451E+03   -0.17884E-04   -0.14994E-06   120   0.288E-03    0.921E-04
DAV:  10    -0.104867359801E+03   -0.16350E-04   -0.14466E-06   108   0.250E-03    0.351E-04
DAV:  11    -0.104867365742E+03   -0.59407E-05   -0.24506E-07   108   0.118E-03    0.340E-04
DAV:  12    -0.104867371089E+03   -0.53477E-05   -0.29630E-07    96   0.110E-03    0.132E-04
DAV:  13    -0.104867372336E+03   -0.12463E-05   -0.42099E-08   108   0.471E-04    0.972E-05
DAV:  14    -0.104867373393E+03   -0.10574E-05   -0.98032E-09    96   0.307E-04    0.455E-05
DAV:  15    -0.104867373918E+03   -0.52483E-06   -0.47705E-09   108   0.218E-04
  59 F= -.10486737E+03 E0= -.10486737E+03  d E =-.429137E-10
       N       E                     dE             d eps       ncg     rms          rms(c)
DAV:   1    -0.104866133233E+03    0.12402E-02   -0.20252E-01    96   0.121E+00    0.154E-01
DAV:   2    -0.104866887422E+03   -0.75419E-03   -0.93602E-03   120   0.286E-01    0.785E-02
DAV:   3    -0.104866845819E+03    0.41603E-04   -0.18487E-04   156   0.430E-02    0.407E-02
DAV:   4    -0.104866812794E+03    0.33025E-04   -0.33626E-05   132   0.221E-02    0.827E-03
DAV:   5    -0.104866804234E+03    0.85603E-05   -0.73517E-06   132   0.110E-02    0.438E-03
DAV:   6    -0.104866806730E+03   -0.24959E-05   -0.31265E-06   132   0.626E-03    0.237E-03
DAV:   7    -0.104866816717E+03   -0.99873E-05   -0.14480E-06   120   0.440E-03    0.129E-03
DAV:   8    -0.104866830037E+03   -0.13320E-04   -0.77833E-07   108   0.285E-03    0.835E-04
DAV:   9    -0.104866844427E+03   -0.14390E-04   -0.94282E-07   120   0.222E-03    0.485E-04
DAV:  10    -0.104866854626E+03   -0.10200E-04   -0.39609E-07   108   0.143E-03    0.292E-04
DAV:  11    -0.104866859750E+03   -0.51233E-05   -0.13904E-07   108   0.793E-04    0.191E-04
DAV:  12    -0.104866864266E+03   -0.45166E-05   -0.94518E-08   108   0.652E-04    0.886E-05
DAV:  13    -0.104866865746E+03   -0.14798E-05   -0.18883E-08   108   0.351E-04    0.586E-05
DAV:  14    -0.104866866942E+03   -0.11959E-05   -0.94046E-09    96   0.263E-04    0.308E-05
DAV:  15    -0.104866867334E+03   -0.39186E-06    0.25830E-09   108   0.146E-04
  60 F= -.10486687E+03 E0= -.10486687E+03  d E =-.708246E-10
       N       E                     dE             d eps       ncg     rms          rms(c)
DAV:   1    -0.104865720007E+03    0.11469E-02   -0.40572E-01    96   0.168E+00    0.209E-01
DAV:   2    -0.104867148744E+03   -0.14287E-02   -0.18113E-02   132   0.390E-01    0.122E-01
DAV:   3    -0.104867038363E+03    0.11038E-03   -0.33106E-04   144   0.594E-02    0.605E-02
DAV:   4    -0.104866965534E+03    0.72829E-04   -0.83321E-05   144   0.338E-02    0.120E-02
DAV:   5    -0.104866961169E+03    0.43650E-05   -0.13626E-05   132   0.147E-02    0.657E-03
DAV:   6    -0.104866987974E+03   -0.26805E-04   -0.11555E-05   108   0.102E-02    0.333E-03
DAV:   7    -0.104867021202E+03   -0.33228E-04   -0.42950E-06   120   0.607E-03    0.223E-03
DAV:   8    -0.104867060674E+03   -0.39472E-04   -0.34784E-06   108   0.406E-03    0.104E-03
DAV:   9    -0.104867088614E+03   -0.27941E-04   -0.27450E-06   120   0.344E-03    0.863E-04
DAV:  10    -0.104867111360E+03   -0.22746E-04   -0.23651E-06   120   0.295E-03    0.296E-04
DAV:  11    -0.104867117626E+03   -0.62657E-05   -0.27148E-07   108   0.123E-03    0.289E-04
DAV:  12    -0.104867121853E+03   -0.42272E-05   -0.15019E-07   108   0.822E-04    0.113E-04
DAV:  13    -0.104867123402E+03   -0.15490E-05   -0.45325E-08   108   0.456E-04    0.677E-05
DAV:  14    -0.104867124532E+03   -0.11300E-05   -0.11720E-08   108   0.324E-04    0.485E-05
DAV:  15    -0.104867124882E+03   -0.34981E-06    0.16255E-09   108   0.168E-04
  61 F= -.10486712E+03 E0= -.10486712E+03  d E =-.198135E-10
       N       E                     dE             d eps       ncg     rms          rms(c)
DAV:   1    -0.104870050541E+03   -0.29260E-02   -0.23799E-01    96   0.175E+00    0.153E-01
DAV:   2    -0.104870457639E+03   -0.40710E-03   -0.67574E-03   132   0.267E-01    0.878E-02
DAV:   3    -0.104870378286E+03    0.79354E-04   -0.20769E-04   144   0.526E-02    0.391E-02
DAV:   4    -0.104870360445E+03    0.17841E-04   -0.78556E-05   132   0.314E-02    0.955E-03
DAV:   5    -0.104870356320E+03    0.41248E-05   -0.92738E-06   132   0.119E-02    0.702E-03
DAV:   6    -0.104870357301E+03   -0.98131E-06   -0.35018E-06   132   0.646E-03
  62 F= -.10487036E+03 E0= -.10487036E+03  d E =-.361016E-10
       N       E                     dE             d eps       ncg     rms          rms(c)
DAV:   1    -0.104870582040E+03   -0.22572E-03   -0.54912E-01    96   0.282E+00    0.229E-01
DAV:   2    -0.104870246629E+03    0.33541E-03   -0.34123E-03   120   0.225E-01    0.121E-01
DAV:   3    -0.104870050517E+03    0.19611E-03   -0.47770E-04   132   0.729E-02    0.371E-02
DAV:   4    -0.104870057482E+03   -0.69650E-05   -0.12319E-04   144   0.362E-02    0.139E-02
DAV:   5    -0.104870061524E+03   -0.40420E-05   -0.64488E-06   132   0.103E-02    0.856E-03
DAV:   6    -0.104870068684E+03   -0.71602E-05   -0.33673E-06   120   0.688E-03    0.158E-03
DAV:   7    -0.104870072103E+03   -0.34185E-05   -0.72345E-07   108   0.342E-03    0.107E-03
DAV:   8    -0.104870076023E+03   -0.39204E-05   -0.13463E-07   108   0.136E-03    0.478E-04
DAV:   9    -0.104870080841E+03   -0.48179E-05   -0.16169E-07   108   0.120E-03    0.317E-04
DAV:  10    -0.104870083990E+03   -0.31492E-05   -0.10179E-07   108   0.925E-04    0.189E-04
DAV:  11    -0.104870086586E+03   -0.25952E-05   -0.10461E-07   108   0.798E-04    0.176E-04
DAV:  12    -0.104870087422E+03   -0.83686E-06   -0.17497E-08   108   0.448E-04
  63 F= -.10487009E+03 E0= -.10487009E+03  d E =-.381601E-10
       N       E                     dE             d eps       ncg     rms          rms(c)
DAV:   1    -0.104869510871E+03    0.57571E-03   -0.29057E-01    96   0.202E+00    0.215E-01
DAV:   2    -0.104869291533E+03    0.21934E-03   -0.26210E-03   132   0.193E-01    0.103E-01
DAV:   3    -0.104869138335E+03    0.15320E-03   -0.35498E-04   132   0.640E-02    0.391E-02
DAV:   4    -0.104869130548E+03    0.77876E-05   -0.13183E-04   132   0.365E-02    0.136E-02
DAV:   5    -0.104869129088E+03    0.14596E-05   -0.63803E-06   132   0.110E-02    0.658E-03
DAV:   6    -0.104869129989E+03   -0.90124E-06   -0.27990E-06   132   0.664E-03
  64 F= -.10486913E+03 E0= -.10486913E+03  d E =-.441708E-10
       N       E                     dE             d eps       ncg     rms          rms(c)
DAV:   1    -0.104869620173E+03   -0.49108E-03   -0.56839E-01    96   0.285E+00    0.279E-01
DAV:   2    -0.104869208331E+03    0.41184E-03   -0.46463E-03   132   0.256E-01    0.137E-01
DAV:   3    -0.104868933887E+03    0.27444E-03   -0.66954E-04   120   0.828E-02    0.497E-02
DAV:   4    -0.104868920458E+03    0.13429E-04   -0.20006E-04   120   0.452E-02    0.190E-02
DAV:   5    -0.104868919461E+03    0.99713E-06   -0.11108E-05   132   0.147E-02    0.771E-03
DAV:   6    -0.104868922870E+03   -0.34095E-05   -0.54737E-06   132   0.830E-03    0.277E-03
DAV:   7    -0.104868925916E+03   -0.30457E-05   -0.83557E-07   108   0.359E-03    0.125E-03
DAV:   8    -0.104868930685E+03   -0.47687E-05   -0.27663E-07   108   0.205E-03    0.507E-04
DAV:   9    -0.104868933413E+03   -0.27284E-05   -0.17921E-07   108   0.145E-03    0.566E-04
DAV:  10    -0.104868938174E+03   -0.47604E-05   -0.28845E-07    96   0.144E-03    0.242E-04
DAV:  11    -0.104868939618E+03   -0.14442E-05   -0.94111E-08   108   0.828E-04    0.195E-04
DAV:  12    -0.104868940491E+03   -0.87288E-06   -0.13281E-08    96   0.431E-04
  65 F= -.10486894E+03 E0= -.10486894E+03  d E =-.307130E-10
       N       E                     dE             d eps       ncg     rms          rms(c)
DAV:   1    -0.104870730271E+03   -0.17907E-02   -0.28964E-01    96   0.201E+00    0.207E-01
DAV:   2    -0.104870479378E+03    0.25089E-03   -0.25294E-03   132   0.199E-01    0.101E-01
DAV:   3    -0.104870322906E+03    0.15647E-03   -0.41073E-04   132   0.707E-02    0.359E-02
DAV:   4    -0.104870321194E+03    0.17119E-05   -0.13607E-04   132   0.387E-02    0.148E-02
DAV:   5    -0.104870320358E+03    0.83643E-06   -0.58523E-06   132   0.102E-02
  66 F= -.10487032E+03 E0= -.10487032E+03  d E =-.356387E-10
       N       E                     dE             d eps       ncg     rms          rms(c)
DAV:   1    -0.104870744504E+03   -0.42331E-03   -0.55696E-01    96   0.280E+00    0.223E-01
DAV:   2    -0.104870378693E+03    0.36581E-03   -0.36612E-03   132   0.225E-01    0.121E-01
DAV:   3    -0.104870154512E+03    0.22418E-03   -0.63828E-04   132   0.875E-02    0.326E-02
DAV:   4    -0.104870163145E+03   -0.86338E-05   -0.15033E-04   132   0.426E-02    0.163E-02
DAV:   5    -0.104870162414E+03    0.73133E-06   -0.46239E-06   132   0.861E-03
  67 F= -.10487016E+03 E0= -.10487016E+03  d E =-.398387E-10
       N       E                     dE             d eps       ncg     rms          rms(c)
DAV:   1    -0.104870921955E+03   -0.75881E-03   -0.27458E-01    96   0.202E+00    0.149E-01
DAV:   2    -0.104870856131E+03    0.65824E-04   -0.18677E-03   132   0.159E-01    0.850E-02
DAV:   3    -0.104870772201E+03    0.83930E-04   -0.17935E-04   132   0.460E-02    0.199E-02
DAV:   4    -0.104870773762E+03   -0.15613E-05   -0.38785E-05   132   0.202E-02    0.680E-03
DAV:   5    -0.104870773870E+03   -0.10814E-06   -0.12533E-06   120   0.459E-03
  68 F= -.10487077E+03 E0= -.10487077E+03  d E =-.358982E-10
       N       E                     dE             d eps       ncg     rms          rms(c)
DAV:   1    -0.104871231764E+03   -0.45800E-03   -0.54261E-01    96   0.277E+00    0.200E-01
DAV:   2    -0.104870964758E+03    0.26701E-03   -0.29578E-03   132   0.203E-01    0.113E-01
DAV:   3    -0.104870798105E+03    0.16665E-03   -0.46057E-04   144   0.731E-02    0.245E-02
DAV:   4    -0.104870806796E+03   -0.86914E-05   -0.90647E-05   132   0.316E-02    0.109E-02
DAV:   5    -0.104870807022E+03   -0.22582E-06   -0.31310E-06   132   0.664E-03
  69 F= -.10487081E+03 E0= -.10487081E+03  d E =-.381782E-10
       N       E                     dE             d eps       ncg     rms          rms(c)
DAV:   1    -0.104870871743E+03   -0.64947E-04   -0.27525E-01    96   0.196E+00    0.142E-01
DAV:   2    -0.104870734111E+03    0.13763E-03   -0.14691E-03   132   0.136E-01    0.798E-02
DAV:   3    -0.104870645324E+03    0.88787E-04   -0.23500E-04   132   0.480E-02    0.182E-02
DAV:   4    -0.104870647409E+03   -0.20847E-05   -0.39791E-05   132   0.212E-02    0.675E-03
DAV:   5    -0.104870647030E+03    0.37868E-06   -0.15454E-06   120   0.475E-03
  70 F= -.10487065E+03 E0= -.10487065E+03  d E =-.402352E-10
       N       E                     dE             d eps       ncg     rms          rms(c)
DAV:   1    -0.104871153028E+03   -0.50562E-03   -0.54914E-01    96   0.272E+00    0.206E-01
DAV:   2    -0.104870881806E+03    0.27122E-03   -0.29657E-03   132   0.200E-01    0.113E-01
[...]
DAV:   5    -0.104870283470E+03   -0.68452E-06   -0.18309E-06   132   0.472E-03
 132 F= -.10487028E+03 E0= -.10487028E+03  d E =-.475399E-10
       N       E                     dE             d eps       ncg     rms          rms(c)
DAV:   1    -0.104870859253E+03   -0.57647E-03   -0.55159E-01    96   0.187E+00    0.225E-01
DAV:   2    -0.104870565817E+03    0.29344E-03   -0.32288E-03   120   0.163E-01    0.118E-01
DAV:   3    -0.104870384713E+03    0.18110E-03   -0.49218E-04   132   0.630E-02    0.361E-02
DAV:   4    -0.104870385600E+03   -0.88758E-06   -0.10070E-04   132   0.295E-02    0.114E-02
DAV:   5    -0.104870384851E+03    0.74966E-06   -0.54736E-06   132   0.866E-03
 133 F= -.10487038E+03 E0= -.10487038E+03  d E =-.274319E-10
       N       E                     dE             d eps       ncg     rms          rms(c)
DAV:   1    -0.104870476608E+03   -0.91008E-04   -0.27676E-01    96   0.198E+00    0.161E-01
DAV:   2    -0.104870389923E+03    0.86685E-04   -0.21239E-03   132   0.167E-01    0.857E-02
DAV:   3    -0.104870298107E+03    0.91815E-04   -0.21249E-04   132   0.469E-02    0.297E-02
DAV:   4    -0.104870297034E+03    0.10737E-05   -0.61290E-05   132   0.242E-02    0.762E-03
DAV:   5    -0.104870296313E+03    0.72082E-06   -0.40078E-06   144   0.766E-03
 134 F= -.10487030E+03 E0= -.10487030E+03  d E =-.383791E-10
       N       E                     dE             d eps       ncg     rms          rms(c)
DAV:   1    -0.104870559551E+03   -0.26252E-03   -0.55378E-01    96   0.281E+00    0.233E-01
DAV:   2    -0.104870237537E+03    0.32201E-03   -0.33481E-03   120   0.214E-01    0.120E-01
DAV:   3    -0.104870030417E+03    0.20712E-03   -0.43859E-04   132   0.653E-02    0.400E-02
DAV:   4    -0.104870022690E+03    0.77272E-05   -0.11510E-04   132   0.335E-02    0.122E-02
DAV:   5    -0.104870023242E+03   -0.55253E-06   -0.74940E-06   132   0.113E-02
 135 F= -.10487002E+03 E0= -.10487002E+03  d E =-.303754E-10
       N       E                     dE             d eps       ncg     rms          rms(c)
DAV:   1    -0.104869648271E+03    0.37442E-03   -0.28992E-01    96   0.201E+00    0.212E-01
DAV:   2    -0.104869422901E+03    0.22537E-03   -0.25504E-03   132   0.195E-01    0.103E-01
DAV:   3    -0.104869278103E+03    0.14480E-03   -0.37651E-04   132   0.674E-02    0.380E-02
DAV:   4    -0.104869277688E+03    0.41488E-06   -0.13698E-04   120   0.381E-02    0.144E-02
DAV:   5    -0.104869276446E+03    0.12425E-05   -0.64689E-06   132   0.107E-02    0.672E-03
DAV:   6    -0.104869276589E+03   -0.14254E-06   -0.29662E-06   132   0.660E-03
 136 F= -.10486928E+03 E0= -.10486928E+03  d E =-.339069E-10
       N       E                     dE             d eps       ncg     rms          rms(c)
DAV:   1    -0.104869789388E+03   -0.51294E-03   -0.57244E-01    96   0.284E+00    0.274E-01
DAV:   2    -0.104869282029E+03    0.50736E-03   -0.47738E-03   132   0.266E-01    0.137E-01
DAV:   3    -0.104868986304E+03    0.29572E-03   -0.78775E-04   132   0.965E-02    0.476E-02
DAV:   4    -0.104868985674E+03    0.63037E-06   -0.22374E-04   132   0.513E-02    0.203E-02
DAV:   5    -0.104868985274E+03    0.39945E-06   -0.10042E-05   132   0.127E-02    0.902E-03
DAV:   6    -0.104868987132E+03   -0.18578E-05   -0.48425E-06   132   0.821E-03    0.189E-03
DAV:   7    -0.104868989043E+03   -0.19110E-05   -0.11182E-06   120   0.405E-03    0.995E-04
DAV:   8    -0.104868991290E+03   -0.22467E-05   -0.11971E-07   108   0.111E-03    0.391E-04
DAV:   9    -0.104868993138E+03   -0.18484E-05   -0.79176E-08   108   0.855E-04    0.260E-04
DAV:  10    -0.104868995567E+03   -0.24290E-05   -0.12225E-07   108   0.839E-04    0.198E-04
DAV:  11    -0.104868996992E+03   -0.14248E-05   -0.70402E-08   108   0.608E-04    0.958E-05
DAV:  12    -0.104868997629E+03   -0.63698E-06   -0.89106E-09   108   0.328E-04
 137 F= -.10486900E+03 E0= -.10486900E+03  d E =-.381506E-10
       N       E                     dE             d eps       ncg     rms          rms(c)
DAV:   1    -0.104870671974E+03   -0.16750E-02   -0.28941E-01    96   0.203E+00    0.207E-01
DAV:   2    -0.104870421179E+03    0.25079E-03   -0.25321E-03   132   0.199E-01    0.101E-01
DAV:   3    -0.104870267090E+03    0.15409E-03   -0.40430E-04   132   0.700E-02    0.359E-02
DAV:   4    -0.104870266709E+03    0.38091E-06   -0.13301E-04   132   0.383E-02    0.148E-02
DAV:   5    -0.104870266018E+03    0.69064E-06   -0.59438E-06   132   0.103E-02
 138 F= -.10487027E+03 E0= -.10487027E+03  d E =-.435080E-10
       N       E                     dE             d eps       ncg     rms          rms(c)
DAV:   1    -0.104870659930E+03   -0.39322E-03   -0.54801E-01    96   0.282E+00    0.228E-01
DAV:   2    -0.104870373903E+03    0.28603E-03   -0.35722E-03   132   0.225E-01    0.121E-01
DAV:   3    -0.104870173793E+03    0.20011E-03   -0.46471E-04   144   0.701E-02    0.386E-02
DAV:   4    -0.104870176642E+03   -0.28488E-05   -0.11730E-04   132   0.346E-02    0.133E-02
DAV:   5    -0.104870176916E+03   -0.27360E-06   -0.70518E-06   132   0.106E-02
 139 F= -.10487018E+03 E0= -.10487018E+03  d E =-.285746E-10
       N       E                     dE             d eps       ncg     rms          rms(c)
DAV:   1    -0.104870070813E+03    0.10583E-03   -0.27680E-01    96   0.204E+00    0.169E-01
DAV:   2    -0.104869969781E+03    0.10103E-03   -0.19597E-03   132   0.162E-01    0.878E-02
DAV:   3    -0.104869877308E+03    0.92473E-04   -0.25371E-04   132   0.483E-02    0.290E-02
DAV:   4    -0.104869874072E+03    0.32361E-05   -0.51893E-05   144   0.217E-02    0.106E-02
DAV:   5    -0.104869872445E+03    0.16266E-05   -0.27457E-06   132   0.786E-03    0.542E-03
DAV:   6    -0.104869872397E+03    0.48333E-07   -0.24970E-06   132   0.640E-03
 140 F= -.10486987E+03 E0= -.10486987E+03  d E =-.389263E-10
       N       E                     dE             d eps       ncg     rms          rms(c)
DAV:   1    -0.104870468740E+03   -0.59629E-03   -0.55723E-01    96   0.274E+00    0.246E-01
DAV:   2    -0.104870122688E+03    0.34605E-03   -0.36256E-03   120   0.225E-01    0.124E-01
DAV:   3    -0.104869899310E+03    0.22338E-03   -0.49632E-04   132   0.695E-02    0.415E-02
DAV:   4    -0.104869890196E+03    0.91141E-05   -0.12356E-04   132   0.345E-02    0.130E-02
DAV:   5    -0.104869890566E+03   -0.37079E-06   -0.80301E-06   132   0.122E-02
 141 F= -.10486989E+03 E0= -.10486989E+03  d E =-.289334E-10
       N       E                     dE             d eps       ncg     rms          rms(c)
DAV:   1    -0.104869027462E+03    0.86273E-03   -0.27305E-01    96   0.193E+00    0.138E-01
DAV:   2    -0.104868903226E+03    0.12424E-03   -0.15533E-03   132   0.144E-01    0.786E-02
DAV:   3    -0.104868817945E+03    0.85281E-04   -0.25874E-04   132   0.538E-02    0.167E-02
DAV:   4    -0.104868823169E+03   -0.52248E-05   -0.51271E-05   132   0.246E-02    0.839E-03
DAV:   5    -0.104868823688E+03   -0.51884E-06   -0.12473E-06   120   0.444E-03
 142 F= -.10486882E+03 E0= -.10486882E+03  d E =-.302176E-10
       N       E                     dE             d eps       ncg     rms          rms(c)
DAV:   1    -0.104869623782E+03   -0.80061E-03   -0.58141E-01    96   0.284E+00    0.291E-01
DAV:   2    -0.104869112817E+03    0.51097E-03   -0.50965E-03   132   0.274E-01    0.142E-01
DAV:   3    -0.104868801502E+03    0.31131E-03   -0.84011E-04   132   0.998E-02    0.496E-02
DAV:   4    -0.104868802940E+03   -0.14381E-05   -0.25956E-04   132   0.532E-02    0.192E-02
DAV:   5    -0.104868801185E+03    0.17555E-05   -0.10996E-05   120   0.138E-02    0.884E-03
DAV:   6    -0.104868801457E+03   -0.27180E-06   -0.54610E-06   120   0.923E-03
 143 F= -.10486880E+03 E0= -.10486880E+03  d E =-.422826E-10
       N       E                     dE             d eps       ncg     rms          rms(c)
DAV:   1    -0.104871097733E+03   -0.22965E-02   -0.28164E-01    96   0.195E+00    0.168E-01
DAV:   2    -0.104870891571E+03    0.20616E-03   -0.19882E-03   132   0.170E-01    0.896E-02
DAV:   3    -0.104870777131E+03    0.11444E-03   -0.32902E-04   132   0.632E-02    0.261E-02
DAV:   4    -0.104870782991E+03   -0.58608E-05   -0.89689E-05   132   0.321E-02    0.123E-02
DAV:   5    -0.104870782972E+03    0.19063E-07   -0.30731E-06   132   0.713E-03
 144 F= -.10487078E+03 E0= -.10487078E+03  d E =-.406538E-10
       N       E                     dE             d eps       ncg     rms          rms(c)
DAV:   1    -0.104871243711E+03   -0.46072E-03   -0.54175E-01    96   0.275E+00    0.199E-01
DAV:   2    -0.104870985850E+03    0.25786E-03   -0.29106E-03   132   0.200E-01    0.112E-01
DAV:   3    -0.104870818292E+03    0.16756E-03   -0.42825E-04   144   0.682E-02    0.251E-02
DAV:   4    -0.104870823451E+03   -0.51582E-05   -0.72257E-05   132   0.281E-02    0.984E-03
DAV:   5    -0.104870823933E+03   -0.48285E-06   -0.32594E-06   132   0.665E-03
 145 F= -.10487082E+03 E0= -.10487082E+03  d E =-.307123E-10
       N       E                     dE             d eps       ncg     rms          rms(c)
DAV:   1    -0.104870168675E+03    0.65478E-03   -0.27721E-01    96   0.203E+00    0.157E-01
DAV:   2    -0.104870035181E+03    0.13349E-03   -0.20376E-03   132   0.170E-01    0.857E-02
DAV:   3    -0.104869937101E+03    0.98079E-04   -0.27496E-04   144   0.583E-02    0.256E-02
DAV:   4    -0.104869941983E+03   -0.48814E-05   -0.80028E-05   132   0.295E-02    0.105E-02
DAV:   5    -0.104869941630E+03    0.35233E-06   -0.25915E-06   120   0.681E-03
 146 F= -.10486994E+03 E0= -.10486994E+03  d E =-.389486E-10
       N       E                     dE             d eps       ncg     rms          rms(c)
DAV:   1    -0.104870502531E+03   -0.56055E-03   -0.56213E-01    96   0.279E+00    0.240E-01
DAV:   2    -0.104870092816E+03    0.40971E-03   -0.40398E-03   132   0.240E-01    0.127E-01
DAV:   3    -0.104869846046E+03    0.24677E-03   -0.67307E-04   132   0.879E-02    0.378E-02
DAV:   4    -0.104869850521E+03   -0.44749E-05   -0.16558E-04   132   0.438E-02    0.170E-02
DAV:   5    -0.104869849664E+03    0.85677E-06   -0.67068E-06   132   0.103E-02
 147 F= -.10486985E+03 E0= -.10486985E+03  d E =-.324716E-10
       N       E                     dE             d eps       ncg     rms          rms(c)
DAV:   1    -0.104869091993E+03    0.75853E-03   -0.27267E-01    96   0.192E+00    0.142E-01
DAV:   2    -0.104868959188E+03    0.13280E-03   -0.13973E-03   132   0.132E-01    0.781E-02
DAV:   3    -0.104868869810E+03    0.89378E-04   -0.21023E-04   132   0.455E-02    0.200E-02
DAV:   4    -0.104868871793E+03   -0.19830E-05   -0.39199E-05   132   0.202E-02    0.674E-03
DAV:   5    -0.104868873067E+03   -0.12741E-05   -0.20755E-06   120   0.556E-03    0.426E-03
DAV:   6    -0.104868875403E+03   -0.23352E-05   -0.98668E-07    96   0.358E-03    0.988E-04
DAV:   7    -0.104868876990E+03   -0.15869E-05   -0.28939E-07   108   0.198E-03    0.597E-04
DAV:   8    -0.104868879251E+03   -0.22617E-05   -0.12679E-07   108   0.136E-03    0.284E-04
DAV:   9    -0.104868881384E+03   -0.21326E-05   -0.13888E-07   108   0.117E-03    0.206E-04
DAV:  10    -0.104868883433E+03   -0.20490E-05   -0.11052E-07   108   0.870E-04    0.110E-04
DAV:  11    -0.104868884059E+03   -0.62587E-06   -0.22051E-08   108   0.435E-04
 148 F= -.10486888E+03 E0= -.10486888E+03  d E =-.337706E-10
       N       E                     dE             d eps       ncg     rms          rms(c)
DAV:   1    -0.104869407700E+03   -0.52427E-03   -0.57686E-01    96   0.280E+00    0.297E-01
DAV:   2    -0.104868964926E+03    0.44277E-03   -0.46889E-03   132   0.249E-01    0.141E-01
DAV:   3    -0.104868673258E+03    0.29167E-03   -0.69143E-04   144   0.839E-02    0.526E-02
DAV:   4    -0.104868657045E+03    0.16213E-04   -0.21485E-04   132   0.454E-02    0.181E-02
DAV:   5    -0.104868654152E+03    0.28932E-05   -0.11539E-05   132   0.147E-02    0.789E-03
DAV:   6    -0.104868655762E+03   -0.16106E-05   -0.54041E-06   132   0.854E-03    0.309E-03
DAV:   7    -0.104868658392E+03   -0.26297E-05   -0.11712E-06   132   0.398E-03    0.131E-03
DAV:   8    -0.104868662349E+03   -0.39566E-05   -0.22549E-07   108   0.181E-03    0.554E-04
DAV:   9    -0.104868666170E+03   -0.38209E-05   -0.23956E-07   108   0.155E-03    0.534E-04
DAV:  10    -0.104868672171E+03   -0.60012E-05   -0.37773E-07    96   0.160E-03    0.299E-04
DAV:  11    -0.104868674040E+03   -0.18694E-05   -0.85329E-08   108   0.854E-04    0.260E-04
DAV:  12    -0.104868675032E+03   -0.99129E-06   -0.74624E-09   108   0.381E-04
 149 F= -.10486868E+03 E0= -.10486868E+03  d E =-.375950E-10
       N       E                     dE             d eps       ncg     rms          rms(c)
DAV:   1    -0.104870976130E+03   -0.23021E-02   -0.27819E-01    96   0.195E+00    0.171E-01
DAV:   2    -0.104870780812E+03    0.19532E-03   -0.18847E-03   132   0.163E-01    0.893E-02
DAV:   3    -0.104870667093E+03    0.11372E-03   -0.28185E-04   132   0.551E-02    0.277E-02
DAV:   4    -0.104870669063E+03   -0.19693E-05   -0.71110E-05   132   0.270E-02    0.108E-02
DAV:   5    -0.104870669779E+03   -0.71620E-06   -0.37874E-06   132   0.795E-03
 150 F= -.10487067E+03 E0= -.10487067E+03  d E =-.342295E-10
       N       E                     dE             d eps       ncg     rms          rms(c)
DAV:   1    -0.104871366563E+03   -0.69750E-03   -0.54302E-01    96   0.271E+00    0.200E-01
DAV:   2    -0.104871091057E+03    0.27551E-03   -0.28976E-03   132   0.197E-01    0.112E-01
DAV:   3    -0.104870916446E+03    0.17461E-03   -0.45213E-04   132   0.683E-02    0.239E-02
DAV:   4    -0.104870923656E+03   -0.72104E-05   -0.76984E-05   132   0.288E-02    0.892E-03
DAV:   5    -0.104870924827E+03   -0.11711E-05   -0.33592E-06   132   0.659E-03    0.650E-03
DAV:   6    -0.104870928191E+03   -0.33634E-05   -0.15350E-06   108   0.417E-03    0.126E-03
DAV:   7    -0.104870930425E+03   -0.22349E-05   -0.43993E-07   108   0.234E-03    0.100E-03
DAV:   8    -0.104870933838E+03   -0.34125E-05   -0.17505E-07   108   0.195E-03    0.346E-04
DAV:   9    -0.104870937142E+03   -0.33043E-05   -0.24233E-07   108   0.178E-03    0.536E-04
DAV:  10    -0.104870938691E+03   -0.15487E-05   -0.76221E-08   108   0.988E-04    0.239E-04
DAV:  11    -0.104870939879E+03   -0.11879E-05   -0.34747E-08   108   0.498E-04    0.175E-04
DAV:  12    -0.104870940868E+03   -0.98908E-06   -0.26735E-08   108   0.411E-04
 151 F= -.10487094E+03 E0= -.10487094E+03  d E =-.324134E-10
       N       E                     dE             d eps       ncg     rms          rms(c)
DAV:   1    -0.104868684440E+03    0.22554E-02   -0.28059E-01    96   0.203E+00    0.183E-01
DAV:   2    -0.104868475674E+03    0.20877E-03   -0.23777E-03   132   0.186E-01    0.902E-02
DAV:   3    -0.104868341569E+03    0.13410E-03   -0.33225E-04   132   0.628E-02    0.326E-02
DAV:   4    -0.104868344471E+03   -0.29012E-05   -0.11270E-04   132   0.346E-02    0.108E-02
DAV:   5    -0.104868345679E+03   -0.12084E-05   -0.68436E-06   132   0.965E-03    0.671E-03
DAV:   6    -0.104868347311E+03   -0.16322E-05   -0.17942E-06   132   0.478E-03    0.164E-03
DAV:   7    -0.104868348534E+03   -0.12225E-05   -0.34663E-07   120   0.229E-03    0.671E-04
DAV:   8    -0.104868350179E+03   -0.16453E-05   -0.73227E-08   108   0.103E-03    0.289E-04
DAV:   9    -0.104868351564E+03   -0.13855E-05   -0.46083E-08   108   0.744E-04    0.179E-04
DAV:  10    -0.104868353251E+03   -0.16865E-05   -0.67370E-08   108   0.688E-04    0.105E-04
DAV:  11    -0.104868353956E+03   -0.70473E-06   -0.20189E-08   108   0.422E-04
 152 F= -.10486835E+03 E0= -.10486835E+03  d E =-.403674E-10
       N       E                     dE             d eps       ncg     rms          rms(c)
DAV:   1    -0.104869534976E+03   -0.11817E-02   -0.58362E-01    96   0.276E+00    0.299E-01
DAV:   2    -0.104869009243E+03    0.52573E-03   -0.51509E-03   132   0.265E-01    0.146E-01
DAV:   3    -0.104868674741E+03    0.33450E-03   -0.89992E-04   132   0.990E-02    0.510E-02
DAV:   4    -0.104868672595E+03    0.21458E-05   -0.26374E-04   132   0.524E-02    0.210E-02
DAV:   5    -0.104868671213E+03    0.13825E-05   -0.11055E-05   132   0.132E-02    0.915E-03
DAV:   6    -0.104868672498E+03   -0.12855E-05   -0.57824E-06   132   0.946E-03    0.209E-03
DAV:   7    -0.104868675231E+03   -0.27321E-05   -0.19353E-06   132   0.487E-03    0.156E-03
DAV:   8    -0.104868678035E+03   -0.28046E-05   -0.10407E-07   108   0.104E-03    0.592E-04
DAV:   9    -0.104868681996E+03   -0.39605E-05   -0.19648E-07   108   0.122E-03    0.540E-04
DAV:  10    -0.104868685623E+03   -0.36274E-05   -0.18599E-07   108   0.134E-03    0.673E-04
DAV:  11    -0.104868688278E+03   -0.26547E-05   -0.12291E-07   108   0.871E-04    0.323E-04
DAV:  12    -0.104868689035E+03   -0.75721E-06   -0.86026E-09   120   0.438E-04
 153 F= -.10486869E+03 E0= -.10486869E+03  d E =-.301256E-10
       N       E                     dE             d eps       ncg     rms          rms(c)
DAV:   1    -0.104871107650E+03   -0.24194E-02   -0.28482E-01    96   0.190E+00    0.197E-01
DAV:   2    -0.104870889134E+03    0.21852E-03   -0.22419E-03   120   0.169E-01    0.964E-02
DAV:   3    -0.104870748294E+03    0.14084E-03   -0.31184E-04   132   0.551E-02    0.365E-02
DAV:   4    -0.104870742178E+03    0.61158E-05   -0.97126E-05   120   0.303E-02    0.118E-02
DAV:   5    -0.104870743957E+03   -0.17792E-05   -0.62777E-06   132   0.106E-02    0.549E-03
DAV:   6    -0.104870747572E+03   -0.36144E-05   -0.27262E-06   132   0.568E-03    0.198E-03
DAV:   7    -0.104870750295E+03   -0.27230E-05   -0.39613E-07   108   0.245E-03    0.909E-04
DAV:   8    -0.104870754945E+03   -0.46501E-05   -0.24002E-07   108   0.162E-03    0.435E-04
DAV:   9    -0.104870757010E+03   -0.20651E-05   -0.11664E-07   108   0.112E-03    0.477E-04
DAV:  10    -0.104870760964E+03   -0.39544E-05   -0.22136E-07   108   0.121E-03    0.260E-04
DAV:  11    -0.104870762181E+03   -0.12166E-05   -0.78469E-08   108   0.711E-04    0.178E-04
DAV:  12    -0.104870762699E+03   -0.51842E-06   -0.65946E-09    96   0.350E-04
 154 F= -.10487076E+03 E0= -.10487076E+03  d E =-.339917E-10
       N       E                     dE             d eps       ncg     rms          rms(c)
DAV:   1    -0.104871151182E+03   -0.38900E-03   -0.55031E-01    96   0.267E+00    0.204E-01
DAV:   2    -0.104870884026E+03    0.26716E-03   -0.27990E-03   120   0.184E-01    0.113E-01
DAV:   3    -0.104870690565E+03    0.19346E-03   -0.43658E-04   132   0.648E-02    0.294E-02
DAV:   4    -0.104870692048E+03   -0.14835E-05   -0.86115E-05   132   0.298E-02    0.929E-03
DAV:   5    -0.104870691356E+03    0.69249E-06   -0.42128E-06   132   0.768E-03
 155 F= -.10487069E+03 E0= -.10487069E+03  d E =-.413630E-10
       N       E                     dE             d eps       ncg     rms          rms(c)
DAV:   1    -0.104870414742E+03    0.27731E-03   -0.27395E-01    96   0.191E+00    0.147E-01
DAV:   2    -0.104870264405E+03    0.15034E-03   -0.15235E-03   132   0.141E-01    0.818E-02
DAV:   3    -0.104870179688E+03    0.84717E-04   -0.25420E-04   144   0.523E-02    0.178E-02
DAV:   4    -0.104870186340E+03   -0.66520E-05   -0.46776E-05   132   0.225E-02    0.784E-03
DAV:   5    -0.104870187171E+03   -0.83114E-06   -0.15946E-06   120   0.493E-03
 156 F= -.10487019E+03 E0= -.10487019E+03  d E =-.514653E-10
       N       E                     dE             d eps       ncg     rms          rms(c)
DAV:   1    -0.104870807907E+03   -0.62157E-03   -0.54809E-01    96   0.267E+00    0.229E-01
DAV:   2    -0.104870522618E+03    0.28529E-03   -0.35333E-03   132   0.217E-01    0.121E-01
DAV:   3    -0.104870313227E+03    0.20939E-03   -0.46537E-04   132   0.682E-02    0.383E-02
DAV:   4    -0.104870313818E+03   -0.59042E-06   -0.10999E-04   144   0.331E-02    0.116E-02
DAV:   5    -0.104870314233E+03   -0.41560E-06   -0.77109E-06   132   0.109E-02
 157 F= -.10487031E+03 E0= -.10487031E+03  d E =-.252002E-10
