       N       E                     dE             d eps       ncg     rms          rms(c)
DAV:   1     0.198158692163E+03    0.19816E+03   -0.10498E+04   116   0.546E+02
DAV:   2    -0.281125813770E+02   -0.22627E+03   -0.21211E+03   128   0.102E+02
DAV:   3    -0.103845698656E+03   -0.75733E+02   -0.75552E+02   112   0.559E+01
DAV:   4    -0.108117442595E+03   -0.42717E+01   -0.42555E+01   112   0.187E+01
DAV:   5    -0.108202577455E+03   -0.85135E-01   -0.85086E-01   136   0.283E+00    0.152E+01
DAV:   6    -0.104964784607E+03    0.32378E+01   -0.15837E+00   104   0.457E+00    0.887E+00
DAV:   7    -0.103256335806E+03    0.17084E+01   -0.41265E+00   110   0.674E+00    0.122E+00
DAV:   8    -0.103206323131E+03    0.50013E-01   -0.25514E-01   104   0.215E+00    0.624E-01
DAV:   9    -0.103170438858E+03    0.35884E-01   -0.78570E-02   128   0.801E-01    0.349E-01
DAV:  10    -0.103171035062E+03   -0.59620E-03   -0.30617E-03   112   0.222E-01    0.165E-01
DAV:  11    -0.103170701266E+03    0.33380E-03   -0.74377E-03   104   0.251E-01    0.790E-02
DAV:  12    -0.103174417599E+03   -0.37163E-02   -0.77421E-04    96   0.871E-02    0.577E-02
DAV:  13    -0.103179688860E+03   -0.52713E-02   -0.21006E-03   104   0.115E-01    0.329E-02
DAV:  14    -0.103183237346E+03   -0.35485E-02   -0.27929E-04   112   0.480E-02    0.163E-02
DAV:  15    -0.103188416760E+03   -0.51794E-02   -0.73905E-04   112   0.693E-02    0.171E-02
DAV:  16    -0.103189027055E+03   -0.61029E-03   -0.23470E-05   112   0.163E-02    0.857E-03
DAV:  17    -0.103190125155E+03   -0.10981E-02   -0.96426E-05   102   0.244E-02    0.311E-03
DAV:  18    -0.103190360056E+03   -0.23490E-03   -0.84060E-06   112   0.891E-03    0.263E-03
DAV:  19    -0.103190544950E+03   -0.18489E-03   -0.60945E-06    96   0.599E-03    0.187E-03
DAV:  20    -0.103190588556E+03   -0.43606E-04   -0.79579E-07    88   0.306E-03    0.796E-04
DAV:  21    -0.103190621997E+03   -0.33441E-04   -0.10043E-06    78   0.273E-03    0.642E-04
DAV:  22    -0.103190630391E+03   -0.83944E-05   -0.24331E-07    80   0.160E-03    0.368E-04
DAV:  23    -0.103190632583E+03   -0.21917E-05   -0.44473E-08    88   0.616E-04    0.185E-04
DAV:  24    -0.103190636560E+03   -0.39773E-05   -0.74490E-08    78   0.641E-04    0.109E-04
DAV:  25    -0.103190636966E+03   -0.40548E-06   -0.10259E-08    80   0.285E-04
   1 F= -.10319064E+03 E0= -.10319064E+03  d E =-.103191E+03
       N       E                     dE             d eps       ncg     rms          rms(c)
DAV:   1    -0.103337623819E+03   -0.14699E+00   -0.66680E+00    84   0.109E+01    0.111E+00
DAV:   2    -0.103359574920E+03   -0.21951E-01   -0.29305E-01   120   0.219E+00    0.589E-01
DAV:   3    -0.103354780877E+03    0.47940E-02   -0.11861E-02   120   0.453E-01    0.287E-01
DAV:   4    -0.103353730609E+03    0.10503E-02   -0.63632E-03   112   0.279E-01    0.652E-02
DAV:   5    -0.103353601567E+03    0.12904E-03   -0.48822E-04   112   0.101E-01    0.415E-02
DAV:   6    -0.103353647723E+03   -0.46157E-04   -0.14315E-04   120   0.511E-02    0.198E-02
DAV:   7    -0.103353813918E+03   -0.16619E-03   -0.73393E-05   102   0.353E-02    0.856E-03
DAV:   8    -0.103353918240E+03   -0.10432E-03   -0.14778E-05   112   0.159E-02    0.773E-03
DAV:   9    -0.103354030579E+03   -0.11234E-03   -0.41677E-06    96   0.598E-03    0.343E-03
DAV:  10    -0.103354178543E+03   -0.14796E-03   -0.10835E-05   112   0.799E-03    0.259E-03
DAV:  11    -0.103354243312E+03   -0.64769E-04   -0.26689E-06    96   0.621E-03    0.212E-03
DAV:  12    -0.103354309210E+03   -0.65898E-04   -0.40729E-06   104   0.493E-03    0.780E-04
DAV:  13    -0.103354327484E+03   -0.18274E-04   -0.24102E-07    88   0.202E-03    0.559E-04
DAV:  14    -0.103354355087E+03   -0.27603E-04   -0.91048E-07    88   0.215E-03    0.421E-04
DAV:  15    -0.103354361221E+03   -0.61342E-05   -0.10639E-07    88   0.893E-04    0.199E-04
DAV:  16    -0.103354366844E+03   -0.56234E-05   -0.10761E-07    88   0.834E-04    0.167E-04
DAV:  17    -0.103354367956E+03   -0.11117E-05   -0.18259E-08    88   0.389E-04    0.768E-05
DAV:  18    -0.103354369366E+03   -0.14096E-05   -0.25137E-08    80   0.419E-04    0.615E-05
DAV:  19    -0.103354369570E+03   -0.20424E-06   -0.28412E-09    72   0.190E-04
   2 F= -.10335437E+03 E0= -.10335437E+03  d E =-.163733E+00
       N       E                     dE             d eps       ncg     rms          rms(c)
DAV:   1    -0.103358304076E+03   -0.39347E-02   -0.11917E-01    84   0.149E+00    0.146E-01
DAV:   2    -0.103358696605E+03   -0.39253E-03   -0.54946E-03   120   0.301E-01    0.820E-02
DAV:   3    -0.103358596163E+03    0.10044E-03   -0.22645E-04   120   0.625E-02    0.407E-02
DAV:   4    -0.103358565452E+03    0.30711E-04   -0.11961E-04   112   0.384E-02    0.954E-03
DAV:   5    -0.103358562945E+03    0.25072E-05   -0.95267E-06   112   0.142E-02    0.569E-03
DAV:   6    -0.103358567870E+03   -0.49247E-05   -0.28055E-06    96   0.708E-03    0.250E-03
DAV:   7    -0.103358577042E+03   -0.91727E-05   -0.14702E-06    78   0.497E-03    0.101E-03
DAV:   8    -0.103358582344E+03   -0.53020E-05   -0.44732E-07    88   0.266E-03    0.101E-03
DAV:   9    -0.103358588795E+03   -0.64509E-05   -0.31243E-07    80   0.162E-03    0.328E-04
DAV:  10    -0.103358594730E+03   -0.59346E-05   -0.41972E-07    80   0.150E-03    0.307E-04
DAV:  11    -0.103358596898E+03   -0.21683E-05   -0.89857E-08    88   0.974E-04    0.231E-04
DAV:  12    -0.103358599247E+03   -0.23490E-05   -0.11571E-07    80   0.878E-04    0.872E-05
DAV:  13    -0.103358600241E+03   -0.99416E-06   -0.36343E-08    88   0.450E-04
   3 F= -.10335860E+03 E0= -.10335860E+03  d E =-.167963E+00
       N       E                     dE             d eps       ncg     rms          rms(c)
DAV:   1    -0.103405424568E+03   -0.46825E-01   -0.10770E+00    84   0.444E+00    0.454E-01
DAV:   2    -0.103409447781E+03   -0.40232E-02   -0.52797E-02   120   0.909E-01    0.221E-01
DAV:   3    -0.103408910081E+03    0.53770E-03   -0.26590E-03   128   0.212E-01    0.114E-01
DAV:   4    -0.103408935044E+03   -0.24963E-04   -0.92930E-04   112   0.113E-01    0.408E-02
DAV:   5    -0.103408928589E+03    0.64551E-05   -0.55709E-05   112   0.340E-02    0.209E-02
DAV:   6    -0.103408922688E+03    0.59006E-05   -0.23340E-05   120   0.215E-02    0.827E-03
DAV:   7    -0.103408930765E+03   -0.80765E-05   -0.13624E-05   104   0.148E-02    0.376E-03
DAV:   8    -0.103408935464E+03   -0.46989E-05   -0.20874E-06   104   0.604E-03    0.295E-03
DAV:   9    -0.103408939443E+03   -0.39787E-05   -0.20657E-07    88   0.163E-03    0.155E-03
DAV:  10    -0.103408951972E+03   -0.12529E-04   -0.11607E-06    86   0.303E-03    0.100E-03
DAV:  11    -0.103408954729E+03   -0.27574E-05   -0.12678E-07    88   0.122E-03    0.685E-04
DAV:  12    -0.103408962212E+03   -0.74829E-05   -0.50956E-07    86   0.203E-03    0.224E-04
DAV:  13    -0.103408964224E+03   -0.20120E-05   -0.15314E-07    88   0.107E-03    0.290E-04
DAV:  14    -0.103408965561E+03   -0.13365E-05   -0.27222E-08    88   0.630E-04    0.124E-04
DAV:  15    -0.103408967064E+03   -0.15037E-05   -0.63230E-08    86   0.561E-04    0.778E-05
DAV:  16    -0.103408967594E+03   -0.52978E-06   -0.13857E-08    88   0.281E-04
   4 F= -.10340897E+03 E0= -.10340897E+03  d E =-.503674E-01
       N       E                     dE             d eps       ncg     rms          rms(c)
DAV:   1    -0.103416499326E+03   -0.75323E-02   -0.41511E-01    84   0.276E+00    0.277E-01
DAV:   2    -0.103418023767E+03   -0.15244E-02   -0.20342E-02   120   0.566E-01    0.138E-01
DAV:   3    -0.103417819683E+03    0.20408E-03   -0.10827E-03   128   0.135E-01    0.689E-02
DAV:   4    -0.103417839476E+03   -0.19793E-04   -0.37290E-04   110   0.715E-02    0.265E-02
DAV:   5    -0.103417835543E+03    0.39336E-05   -0.20685E-05   112   0.208E-02    0.141E-02
DAV:   6    -0.103417831545E+03    0.39979E-05   -0.11472E-05   120   0.150E-02    0.463E-03
DAV:   7    -0.103417834242E+03   -0.26976E-05   -0.60459E-06   102   0.944E-03    0.253E-03
DAV:   8    -0.103417835944E+03   -0.17021E-05   -0.54140E-07    88   0.318E-03    0.175E-03
DAV:   9    -0.103417838268E+03   -0.23234E-05   -0.14577E-07    78   0.135E-03    0.764E-04
DAV:  10    -0.103417842772E+03   -0.45041E-05   -0.30940E-07    78   0.170E-03    0.515E-04
DAV:  11    -0.103417845490E+03   -0.27183E-05   -0.14190E-07    88   0.118E-03    0.229E-04
DAV:  12    -0.103417847847E+03   -0.23573E-05   -0.13827E-07    86   0.110E-03    0.151E-04
DAV:  13    -0.103417848843E+03   -0.99604E-06   -0.40173E-08    88   0.651E-04
   5 F= -.10341785E+03 E0= -.10341785E+03  d E =-.592486E-01
       N       E                     dE             d eps       ncg     rms          rms(c)
DAV:   1    -0.103431180148E+03   -0.13332E-01   -0.47308E-01    84   0.306E+00    0.274E-01
DAV:   2    -0.103432870091E+03   -0.16899E-02   -0.21618E-02   112   0.585E-01    0.149E-01
DAV:   3    -0.103432682644E+03    0.18745E-03   -0.79116E-04   120   0.115E-01    0.769E-02
DAV:   4    -0.103432664659E+03    0.17985E-04   -0.29248E-04   112   0.619E-02    0.193E-02
DAV:   5    -0.103432653676E+03    0.10983E-04   -0.26068E-05   112   0.210E-02    0.104E-02
DAV:   6    -0.103432656110E+03   -0.24344E-05   -0.79577E-06   112   0.103E-02    0.451E-03
DAV:   7    -0.103432669565E+03   -0.13455E-04   -0.25250E-06    94   0.681E-03    0.144E-03
DAV:   8    -0.103432680807E+03   -0.11242E-04   -0.10135E-06    86   0.381E-03    0.125E-03
DAV:   9    -0.103432694008E+03   -0.13201E-04   -0.61275E-07    80   0.227E-03    0.510E-04
DAV:  10    -0.103432706724E+03   -0.12716E-04   -0.11221E-06    96   0.237E-03    0.447E-04
DAV:  11    -0.103432710298E+03   -0.35736E-05   -0.12521E-07    88   0.115E-03    0.222E-04
DAV:  12    -0.103432715103E+03   -0.48052E-05   -0.21844E-07    80   0.109E-03    0.137E-04
DAV:  13    -0.103432717295E+03   -0.21917E-05   -0.70788E-08    88   0.666E-04    0.116E-04
DAV:  14    -0.103432718903E+03   -0.16082E-05   -0.45847E-08    88   0.531E-04    0.541E-05
DAV:  15    -0.103432719307E+03   -0.40440E-06   -0.11806E-08    88   0.270E-04
   6 F= -.10343272E+03 E0= -.10343272E+03  d E =-.148705E-01
       N       E                     dE             d eps       ncg     rms          rms(c)
DAV:   1    -0.103433130537E+03   -0.41163E-03   -0.21042E-02    84   0.645E-01    0.575E-02
DAV:   2    -0.103433208131E+03   -0.77594E-04   -0.96479E-04   112   0.124E-01    0.315E-02
DAV:   3    -0.103433201746E+03    0.63846E-05   -0.35624E-05   120   0.245E-02    0.162E-02
DAV:   4    -0.103433202374E+03   -0.62744E-06   -0.13007E-05   110   0.131E-02    0.418E-03
DAV:   5    -0.103433201426E+03    0.94767E-06   -0.10640E-06    88   0.445E-03
   7 F= -.10343320E+03 E0= -.10343320E+03  d E =-.153526E-01
       N       E                     dE             d eps       ncg     rms          rms(c)
DAV:   1    -0.103438497806E+03   -0.52954E-02   -0.20464E-01    84   0.207E+00    0.155E-01
DAV:   2    -0.103438837961E+03   -0.34016E-03   -0.70957E-03   120   0.330E-01    0.850E-02
DAV:   3    -0.103438748104E+03    0.89857E-04   -0.46228E-04   128   0.880E-02    0.436E-02
DAV:   4    -0.103438741897E+03    0.62071E-05   -0.12570E-04   128   0.472E-02    0.145E-02
DAV:   5    -0.103438742985E+03   -0.10875E-05   -0.21829E-05   112   0.187E-02    0.917E-03
DAV:   6    -0.103438742772E+03    0.21240E-06   -0.18684E-06   104   0.502E-03
   8 F= -.10343874E+03 E0= -.10343874E+03  d E =-.554135E-02
       N       E                     dE             d eps       ncg     rms          rms(c)
DAV:   1    -0.103438822225E+03   -0.79240E-04   -0.37904E-03    84   0.282E-01    0.212E-02
DAV:   2    -0.103438830506E+03   -0.82818E-05   -0.13315E-04   120   0.453E-02    0.117E-02
DAV:   3    -0.103438830883E+03   -0.37702E-06   -0.88561E-06   128   0.124E-02
   9 F= -.10343883E+03 E0= -.10343883E+03  d E =-.562946E-02
       N       E                     dE             d eps       ncg     rms          rms(c)
DAV:   1    -0.103441052942E+03   -0.22224E-02   -0.74663E-02    84   0.124E+00    0.940E-02
DAV:   2    -0.103441273089E+03   -0.22015E-03   -0.33991E-03   112   0.226E-01    0.537E-02
DAV:   3    -0.103441235987E+03    0.37102E-04   -0.15383E-04   128   0.486E-02    0.291E-02
DAV:   4    -0.103441223572E+03    0.12414E-04   -0.43430E-05   120   0.272E-02    0.706E-03
DAV:   5    -0.103441220379E+03    0.31932E-05   -0.94727E-06   120   0.129E-02    0.528E-03
DAV:   6    -0.103441220596E+03   -0.21744E-06   -0.13836E-06    88   0.567E-03
  10 F= -.10344122E+03 E0= -.10344122E+03  d E =-.238971E-02
       N       E                     dE             d eps       ncg     rms          rms(c)
DAV:   1    -0.103441566111E+03   -0.34573E-03   -0.34495E-02    84   0.839E-01    0.637E-02
DAV:   2    -0.103441672177E+03   -0.10607E-03   -0.15834E-03   120   0.154E-01    0.364E-02
DAV:   3    -0.103441655547E+03    0.16630E-04   -0.71197E-05   128   0.331E-02    0.197E-02
DAV:   4    -0.103441650413E+03    0.51337E-05   -0.19909E-05   120   0.186E-02    0.483E-03
DAV:   5    -0.103441650492E+03   -0.78839E-07   -0.45784E-06   120   0.909E-03
  11 F= -.10344165E+03 E0= -.10344165E+03  d E =-.281961E-02
       N       E                     dE             d eps       ncg     rms          rms(c)
DAV:   1    -0.103442754281E+03   -0.11039E-02   -0.10039E-01    84   0.144E+00    0.104E-01
DAV:   2    -0.103442889075E+03   -0.13479E-03   -0.26313E-03   120   0.205E-01    0.566E-02
DAV:   3    -0.103442843702E+03    0.45373E-04   -0.17617E-04   128   0.550E-02    0.281E-02
DAV:   4    -0.103442844027E+03   -0.32506E-06   -0.72330E-05   120   0.327E-02    0.822E-03
DAV:   5    -0.103442844994E+03   -0.96732E-06   -0.77538E-06   112   0.118E-02
  12 F= -.10344284E+03 E0= -.10344284E+03  d E =-.119450E-02
       N       E                     dE             d eps       ncg     rms          rms(c)
DAV:   1    -0.103442847154E+03   -0.31270E-05   -0.20692E-05   104   0.203E-02    0.248E-03
DAV:   2    -0.103442848695E+03   -0.15414E-05   -0.43495E-07    88   0.289E-03    0.167E-03
DAV:   3    -0.103442852412E+03   -0.37165E-05   -0.44368E-07    80   0.238E-03    0.487E-04
DAV:   4    -0.103442854448E+03   -0.20361E-05   -0.94931E-08    88   0.132E-03    0.380E-04
DAV:   5    -0.103442857741E+03   -0.32929E-05   -0.87069E-08    88   0.102E-03    0.223E-04
DAV:   6    -0.103442861676E+03   -0.39346E-05   -0.16421E-07    88   0.111E-03    0.158E-04
DAV:   7    -0.103442864042E+03   -0.23668E-05   -0.95989E-08    88   0.794E-04    0.103E-04
DAV:   8    -0.103442864665E+03   -0.62218E-06   -0.11075E-08    88   0.364E-04
  13 F= -.10344286E+03 E0= -.10344286E+03  d E =-.121417E-02
       N       E                     dE             d eps       ncg     rms          rms(c)
DAV:   1    -0.103444173685E+03   -0.13096E-02   -0.86586E-02    84   0.135E+00    0.978E-02
DAV:   2    -0.103444241147E+03   -0.67461E-04   -0.18107E-03   112   0.165E-01    0.491E-02
DAV:   3    -0.103444204703E+03    0.36444E-04   -0.12972E-04   128   0.431E-02    0.237E-02
DAV:   4    -0.103444202212E+03    0.24903E-05   -0.35780E-05   120   0.197E-02    0.730E-03
DAV:   5    -0.103444201603E+03    0.60958E-06   -0.17322E-06    96   0.574E-03
  14 F= -.10344420E+03 E0= -.10344420E+03  d E =-.133694E-02
       N       E                     dE             d eps       ncg     rms          rms(c)
DAV:   1    -0.103444522314E+03   -0.32010E-03   -0.63624E-02    84   0.116E+00    0.842E-02
DAV:   2    -0.103444572787E+03   -0.50473E-04   -0.13468E-03   112   0.142E-01    0.420E-02
DAV:   3    -0.103444544858E+03    0.27929E-04   -0.94295E-05   128   0.368E-02    0.204E-02
DAV:   4    -0.103444543051E+03    0.18077E-05   -0.26262E-05   120   0.168E-02    0.625E-03
DAV:   5    -0.103444543560E+03   -0.50961E-06   -0.12046E-06    80   0.499E-03
  15 F= -.10344454E+03 E0= -.10344454E+03  d E =-.167890E-02
       N       E                     dE             d eps       ncg     rms          rms(c)
DAV:   1    -0.103444559864E+03   -0.16813E-04   -0.23418E-02    84   0.648E-01    0.538E-02
DAV:   2    -0.103444672740E+03   -0.11288E-03   -0.12675E-03   120   0.139E-01    0.327E-02
DAV:   3    -0.103444663907E+03    0.88329E-05   -0.35433E-05   120   0.266E-02    0.187E-02
DAV:   4    -0.103444665355E+03   -0.14483E-05   -0.19127E-05   112   0.179E-02    0.331E-03
DAV:   5    -0.103444666242E+03   -0.88682E-06   -0.38626E-06   112   0.794E-03
  16 F= -.10344467E+03 E0= -.10344467E+03  d E =-.122682E-03
       N       E                     dE             d eps       ncg     rms          rms(c)
DAV:   1    -0.103444705735E+03   -0.40379E-04   -0.27877E-03    84   0.224E-01    0.177E-02
DAV:   2    -0.103444719342E+03   -0.13607E-04   -0.14732E-04   112   0.477E-02    0.114E-02
DAV:   3    -0.103444718659E+03    0.68333E-06   -0.42701E-06   120   0.934E-03
  17 F= -.10344472E+03 E0= -.10344472E+03  d E =-.175099E-03
