       N       E                     dE             d eps       ncg     rms          rms(c)
DAV:   1     0.240660541516E+03    0.24066E+03   -0.10263E+04   120   0.484E+02
DAV:   2    -0.263694705855E+02   -0.26703E+03   -0.25220E+03   156   0.917E+01
DAV:   3    -0.106382002422E+03   -0.80013E+02   -0.79785E+02   120   0.548E+01
DAV:   4    -0.110323298636E+03   -0.39413E+01   -0.39262E+01   120   0.177E+01
DAV:   5    -0.110418416010E+03   -0.95117E-01   -0.95021E-01   168   0.311E+00    0.164E+01
DAV:   6    -0.106718446244E+03    0.37000E+01   -0.16624E+00   108   0.438E+00    0.956E+00
DAV:   7    -0.104787947389E+03    0.19305E+01   -0.45325E+00   120   0.647E+00    0.135E+00
DAV:   8    -0.104735164220E+03    0.52783E-01   -0.33427E-01   132   0.219E+00    0.701E-01
DAV:   9    -0.104701364315E+03    0.33800E-01   -0.62200E-02   156   0.686E-01    0.411E-01
DAV:  10    -0.104700820672E+03    0.54364E-03   -0.34904E-03   120   0.207E-01    0.168E-01
DAV:  11    -0.104698048989E+03    0.27717E-02   -0.84520E-03   108   0.238E-01    0.107E-01
DAV:  12    -0.104703011285E+03   -0.49623E-02   -0.95903E-04   120   0.918E-02    0.593E-02
DAV:  13    -0.104707538715E+03   -0.45274E-02   -0.24229E-03   120   0.116E-01    0.436E-02
DAV:  14    -0.104710396131E+03   -0.28574E-02   -0.21354E-04   144   0.411E-02    0.258E-02
DAV:  15    -0.104716376369E+03   -0.59802E-02   -0.74553E-04   132   0.674E-02    0.198E-02
DAV:  16    -0.104717458039E+03   -0.10817E-02   -0.59881E-05   132   0.265E-02    0.983E-03
DAV:  17    -0.104719085514E+03   -0.16275E-02   -0.17788E-04   120   0.279E-02    0.771E-03
DAV:  18    -0.104719294195E+03   -0.20868E-03   -0.49278E-06   132   0.553E-03    0.238E-03
DAV:  19    -0.104719610353E+03   -0.31616E-03   -0.14360E-05   132   0.834E-03    0.289E-03
DAV:  20    -0.104719659975E+03   -0.49622E-04   -0.84860E-07   108   0.306E-03    0.130E-03
DAV:  21    -0.104719704712E+03   -0.44737E-04   -0.16746E-06   120   0.308E-03    0.710E-04
DAV:  22    -0.104719711293E+03   -0.65815E-05   -0.12577E-07   108   0.120E-03    0.511E-04
DAV:  23    -0.104719715947E+03   -0.46531E-05   -0.79415E-08   108   0.730E-04    0.194E-04
DAV:  24    -0.104719718871E+03   -0.29240E-05   -0.42229E-08   108   0.536E-04    0.183E-04
DAV:  25    -0.104719719803E+03   -0.93229E-06   -0.32633E-09   108   0.288E-04
   1 F= -.10471972E+03 E0= -.10471972E+03  d E =-.170561E-10
       N       E                     dE             d eps       ncg     rms          rms(c)
DAV:   1    -0.104716292632E+03    0.34262E-02   -0.85179E-02    96   0.869E-01    0.128E-01
DAV:   2    -0.104716620796E+03   -0.32816E-03   -0.37564E-03   132   0.216E-01    0.557E-02
DAV:   3    -0.104716608374E+03    0.12422E-04   -0.14151E-04   144   0.445E-02    0.291E-02
DAV:   4    -0.104716611577E+03   -0.32035E-05   -0.33792E-05   132   0.219E-02    0.837E-03
DAV:   5    -0.104716610906E+03    0.67124E-06   -0.63693E-06   144   0.991E-03
   2 F= -.10471661E+03 E0= -.10471661E+03  d E =-.150490E-10
       N       E                     dE             d eps       ncg     rms          rms(c)
DAV:   1    -0.104715331065E+03    0.12805E-02   -0.34229E-01    96   0.174E+00    0.265E-01
DAV:   2    -0.104716688929E+03   -0.13579E-02   -0.15374E-02   132   0.432E-01    0.112E-01
DAV:   3    -0.104716644423E+03    0.44506E-04   -0.58913E-04   144   0.901E-02    0.605E-02
DAV:   4    -0.104716659328E+03   -0.14905E-04   -0.13392E-04   132   0.438E-02    0.175E-02
DAV:   5    -0.104716656956E+03    0.23720E-05   -0.25757E-05   132   0.199E-02    0.967E-03
DAV:   6    -0.104716656441E+03    0.51481E-06   -0.51655E-06   144   0.808E-03
   3 F= -.10471666E+03 E0= -.10471666E+03  d E =-.247697E-10
       N       E                     dE             d eps       ncg     rms          rms(c)
DAV:   1    -0.104716056692E+03    0.60026E-03   -0.16987E-01    96   0.119E+00    0.161E-01
DAV:   2    -0.104716766571E+03   -0.70988E-03   -0.77023E-03   132   0.298E-01    0.759E-02
DAV:   3    -0.104716752861E+03    0.13710E-04   -0.26948E-04   132   0.617E-02    0.393E-02
DAV:   4    -0.104716765398E+03   -0.12538E-04   -0.63367E-05   120   0.298E-02    0.113E-02
DAV:   5    -0.104716765228E+03    0.17054E-06   -0.10600E-05   132   0.127E-02    0.620E-03
DAV:   6    -0.104716765699E+03   -0.47125E-06   -0.26747E-06   132   0.558E-03
   4 F= -.10471677E+03 E0= -.10471677E+03  d E =-.155053E-10
       N       E                     dE             d eps       ncg     rms          rms(c)
DAV:   1    -0.104715159696E+03    0.16055E-02   -0.34288E-01    96   0.169E+00    0.242E-01
DAV:   2    -0.104716621205E+03   -0.14615E-02   -0.15915E-02   132   0.427E-01    0.112E-01
DAV:   3    -0.104716586721E+03    0.34484E-04   -0.55293E-04   144   0.893E-02    0.594E-02
DAV:   4    -0.104716601395E+03   -0.14674E-04   -0.13465E-04   132   0.443E-02    0.163E-02
DAV:   5    -0.104716596939E+03    0.44558E-05   -0.27338E-05   144   0.202E-02    0.893E-03
DAV:   6    -0.104716596450E+03    0.48905E-06   -0.55090E-06   132   0.804E-03
   5 F= -.10471660E+03 E0= -.10471660E+03  d E =-.370491E-10
       N       E                     dE             d eps       ncg     rms          rms(c)
DAV:   1    -0.104714181693E+03    0.24152E-02   -0.16854E-01    96   0.121E+00    0.164E-01
DAV:   2    -0.104715124597E+03   -0.94290E-03   -0.99913E-03   132   0.336E-01    0.930E-02
DAV:   3    -0.104715085429E+03    0.39168E-04   -0.28783E-04   132   0.667E-02    0.510E-02
DAV:   4    -0.104715092188E+03   -0.67596E-05   -0.11715E-04   132   0.403E-02    0.121E-02
DAV:   5    -0.104715090851E+03    0.13380E-05   -0.22503E-05   144   0.176E-02    0.760E-03
DAV:   6    -0.104715092648E+03   -0.17978E-05   -0.35722E-06   132   0.608E-03    0.492E-03
DAV:   7    -0.104715098470E+03   -0.58220E-05   -0.52285E-07   108   0.267E-03    0.168E-03
DAV:   8    -0.104715103875E+03   -0.54044E-05   -0.44072E-07   108   0.229E-03    0.648E-04
DAV:   9    -0.104715109867E+03   -0.59919E-05   -0.37200E-07   108   0.181E-03    0.564E-04
DAV:  10    -0.104715117091E+03   -0.72243E-05   -0.59636E-07   120   0.169E-03    0.447E-04
DAV:  11    -0.104715118260E+03   -0.11688E-05   -0.34910E-08   120   0.711E-04    0.311E-04
DAV:  12    -0.104715120006E+03   -0.17462E-05   -0.40999E-08   108   0.550E-04    0.163E-04
DAV:  13    -0.104715121382E+03   -0.13759E-05   -0.37885E-08   108   0.436E-04    0.960E-05
DAV:  14    -0.104715122298E+03   -0.91631E-06   -0.13870E-08   108   0.287E-04
   6 F= -.10471512E+03 E0= -.10471512E+03  d E =-.199176E-10
       N       E                     dE             d eps       ncg     rms          rms(c)
DAV:   1    -0.104713310826E+03    0.18106E-02   -0.33967E-01    96   0.172E+00    0.261E-01
DAV:   2    -0.104715655651E+03   -0.23448E-02   -0.25290E-02   132   0.529E-01    0.170E-01
DAV:   3    -0.104715480378E+03    0.17527E-03   -0.66465E-04   132   0.108E-01    0.889E-02
DAV:   4    -0.104715480975E+03   -0.59699E-06   -0.44612E-04   120   0.759E-02    0.167E-02
DAV:   5    -0.104715471170E+03    0.98048E-05   -0.67714E-05   132   0.299E-02    0.125E-02
DAV:   6    -0.104715471579E+03   -0.40896E-06   -0.11576E-05   144   0.955E-03    0.842E-03
DAV:   7    -0.104715482909E+03   -0.11331E-04   -0.98219E-07   108   0.372E-03    0.364E-03
DAV:   8    -0.104715501623E+03   -0.18713E-04   -0.23676E-06   132   0.547E-03    0.159E-03
DAV:   9    -0.104715515289E+03   -0.13666E-04   -0.11419E-06   120   0.294E-03    0.167E-03
DAV:  10    -0.104715536426E+03   -0.21137E-04   -0.10423E-06   120   0.234E-03    0.988E-04
DAV:  11    -0.104715542631E+03   -0.62049E-05   -0.21518E-07   108   0.122E-03    0.670E-04
DAV:  12    -0.104715550659E+03   -0.80277E-05   -0.23629E-07   108   0.117E-03    0.327E-04
DAV:  13    -0.104715554230E+03   -0.35710E-05   -0.93804E-08   108   0.682E-04    0.270E-04
DAV:  14    -0.104715556361E+03   -0.21307E-05   -0.17583E-08   108   0.389E-04    0.167E-04
DAV:  15    -0.104715558020E+03   -0.16590E-05   -0.27138E-08   108   0.389E-04    0.116E-04
DAV:  16    -0.104715558504E+03   -0.48452E-06    0.24314E-09   108   0.188E-04
   7 F= -.10471556E+03 E0= -.10471556E+03  d E =-.178170E-10
       N       E                     dE             d eps       ncg     rms          rms(c)
DAV:   1    -0.104714518719E+03    0.10393E-02   -0.19477E-01    96   0.138E+00    0.194E-01
DAV:   2    -0.104715904993E+03   -0.13863E-02   -0.14407E-02   120   0.438E-01    0.120E-01
DAV:   3    -0.104715823264E+03    0.81729E-04   -0.40617E-04   144   0.892E-02    0.646E-02
DAV:   4    -0.104715823900E+03   -0.63513E-06   -0.22824E-04   132   0.598E-02    0.123E-02
DAV:   5    -0.104715818756E+03    0.51439E-05   -0.44246E-05   132   0.245E-02    0.984E-03
DAV:   6    -0.104715819462E+03   -0.70592E-06   -0.46013E-06   144   0.693E-03
   8 F= -.10471582E+03 E0= -.10471582E+03  d E =-.184056E-10
       N       E                     dE             d eps       ncg     rms          rms(c)
DAV:   1    -0.104713641640E+03    0.21771E-02   -0.33822E-01    96   0.184E+00    0.267E-01
DAV:   2    -0.104715676553E+03   -0.20349E-02   -0.20900E-02   132   0.516E-01    0.153E-01
DAV:   3    -0.104715596436E+03    0.80117E-04   -0.54917E-04   144   0.941E-02    0.823E-02
DAV:   4    -0.104715593344E+03    0.30920E-05   -0.23952E-04   120   0.594E-02    0.156E-02
DAV:   5    -0.104715584027E+03    0.93172E-05   -0.44427E-05   144   0.251E-02    0.112E-02
DAV:   6    -0.104715582509E+03    0.15181E-05   -0.76215E-06   120   0.104E-02    0.653E-03
DAV:   7    -0.104715593722E+03   -0.11213E-04   -0.41163E-06   144   0.869E-03    0.217E-03
DAV:   8    -0.104715609602E+03   -0.15880E-04   -0.22553E-06   132   0.576E-03    0.200E-03
DAV:   9    -0.104715617081E+03   -0.74794E-05   -0.35297E-07   120   0.216E-03    0.168E-03
DAV:  10    -0.104715633715E+03   -0.16634E-04   -0.70290E-07    96   0.186E-03    0.524E-04
DAV:  11    -0.104715644195E+03   -0.10480E-04   -0.64385E-07   108   0.174E-03    0.708E-04
DAV:  12    -0.104715650993E+03   -0.67981E-05   -0.19030E-07   120   0.144E-03    0.569E-04
DAV:  13    -0.104715656726E+03   -0.57326E-05   -0.22049E-07    96   0.113E-03    0.405E-04
DAV:  14    -0.104715658119E+03   -0.13933E-05   -0.23544E-08   120   0.496E-04    0.145E-04
DAV:  15    -0.104715660287E+03   -0.21673E-05   -0.38411E-08    96   0.497E-04    0.189E-04
DAV:  16    -0.104715660880E+03   -0.59380E-06   -0.21046E-09   120   0.250E-04
   9 F= -.10471566E+03 E0= -.10471566E+03  d E =-.158944E-10
       N       E                     dE             d eps       ncg     rms          rms(c)
DAV:   1    -0.104713797840E+03    0.18624E-02   -0.17432E-01    96   0.130E+00    0.188E-01
DAV:   2    -0.104714852715E+03   -0.10549E-02   -0.10908E-02   132   0.382E-01    0.115E-01
DAV:   3    -0.104714800531E+03    0.52184E-04   -0.28956E-04   144   0.718E-02    0.617E-02
DAV:   4    -0.104714796792E+03    0.37392E-05   -0.15446E-04   120   0.486E-02    0.114E-02
DAV:   5    -0.104714792357E+03    0.44355E-05   -0.32183E-05   132   0.211E-02    0.891E-03
DAV:   6    -0.104714794809E+03   -0.24527E-05   -0.71901E-06   132   0.851E-03    0.563E-03
DAV:   7    -0.104714805709E+03   -0.10899E-04   -0.14157E-06   120   0.444E-03    0.220E-03
DAV:   8    -0.104714819267E+03   -0.13558E-04   -0.11859E-06   120   0.352E-03    0.836E-04
DAV:   9    -0.104714833092E+03   -0.13825E-04   -0.13027E-06   120   0.301E-03    0.107E-03
DAV:  10    -0.104714845514E+03   -0.12422E-04   -0.11176E-06   108   0.246E-03    0.431E-04
DAV:  11    -0.104714849841E+03   -0.43265E-05   -0.17360E-07   120   0.110E-03    0.197E-04
DAV:  12    -0.104714853304E+03   -0.34639E-05   -0.15330E-07    96   0.827E-04    0.183E-04
DAV:  13    -0.104714854630E+03   -0.13253E-05   -0.30493E-08   120   0.420E-04    0.149E-04
DAV:  14    -0.104714855762E+03   -0.11317E-05   -0.19047E-08    96   0.353E-04    0.399E-05
DAV:  15    -0.104714856041E+03   -0.27934E-06    0.17133E-09   120   0.166E-04
  10 F= -.10471486E+03 E0= -.10471486E+03  d E =-.189082E-10
       N       E                     dE             d eps       ncg     rms          rms(c)
DAV:   1    -0.104712549937E+03    0.23058E-02   -0.35401E-01    96   0.188E+00    0.274E-01
DAV:   2    -0.104714935597E+03   -0.23857E-02   -0.24399E-02   132   0.579E-01    0.182E-01
DAV:   3    -0.104714781734E+03    0.15386E-03   -0.61980E-04   132   0.112E-01    0.887E-02
DAV:   4    -0.104714798317E+03   -0.16583E-04   -0.43742E-04   120   0.797E-02    0.179E-02
DAV:   5    -0.104714783520E+03    0.14797E-04   -0.78976E-05   132   0.333E-02    0.122E-02
DAV:   6    -0.104714789007E+03   -0.54869E-05   -0.16071E-05   144   0.116E-02    0.619E-03
DAV:   7    -0.104714807363E+03   -0.18356E-04   -0.11274E-06   108   0.349E-03    0.299E-03
DAV:   8    -0.104714835810E+03   -0.28447E-04   -0.44579E-06   132   0.578E-03    0.168E-03
DAV:   9    -0.104714858397E+03   -0.22587E-04   -0.16909E-06   120   0.360E-03    0.105E-03
DAV:  10    -0.104714875336E+03   -0.16939E-04   -0.12833E-06   108   0.246E-03    0.488E-04
DAV:  11    -0.104714881716E+03   -0.63798E-05   -0.16342E-07   108   0.107E-03    0.310E-04
DAV:  12    -0.104714889670E+03   -0.79546E-05   -0.33603E-07    96   0.119E-03    0.160E-04
DAV:  13    -0.104714891998E+03   -0.23277E-05   -0.51497E-08   120   0.539E-04    0.162E-04
DAV:  14    -0.104714894403E+03   -0.24045E-05   -0.40593E-08    96   0.476E-04    0.831E-05
DAV:  15    -0.104714894923E+03   -0.52016E-06   -0.26779E-09   120   0.227E-04
  11 F= -.10471489E+03 E0= -.10471489E+03  d E =-.187974E-10
       N       E                     dE             d eps       ncg     rms          rms(c)
DAV:   1    -0.104715221664E+03   -0.32726E-03   -0.17575E-01    96   0.134E+00    0.192E-01
DAV:   2    -0.104716364671E+03   -0.11430E-02   -0.11807E-02   132   0.399E-01    0.120E-01
DAV:   3    -0.104716300979E+03    0.63692E-04   -0.30859E-04   144   0.761E-02    0.614E-02
DAV:   4    -0.104716303696E+03   -0.27171E-05   -0.18137E-04   132   0.520E-02    0.121E-02
DAV:   5    -0.104716297449E+03    0.62469E-05   -0.37399E-05   132   0.227E-02    0.836E-03
DAV:   6    -0.104716300092E+03   -0.26427E-05   -0.67183E-06   132   0.761E-03    0.509E-03
DAV:   7    -0.104716310126E+03   -0.10034E-04   -0.69472E-07   108   0.307E-03    0.209E-03
DAV:   8    -0.104716322513E+03   -0.12387E-04   -0.16350E-06   120   0.386E-03    0.102E-03
DAV:   9    -0.104716334629E+03   -0.12115E-04   -0.87855E-07   108   0.269E-03    0.746E-04
DAV:  10    -0.104716345450E+03   -0.10822E-04   -0.10617E-06   120   0.221E-03    0.458E-04
DAV:  11    -0.104716348804E+03   -0.33534E-05   -0.93632E-08   108   0.943E-04    0.299E-04
DAV:  12    -0.104716352598E+03   -0.37939E-05   -0.14065E-07    96   0.836E-04    0.136E-04
DAV:  13    -0.104716354152E+03   -0.15543E-05   -0.37272E-08   108   0.450E-04    0.157E-04
DAV:  14    -0.104716355839E+03   -0.16875E-05   -0.38057E-08    96   0.432E-04    0.760E-05
DAV:  15    -0.104716356203E+03   -0.36353E-06   -0.33181E-10   120   0.201E-04
  12 F= -.10471636E+03 E0= -.10471636E+03  d E =-.208102E-10
       N       E                     dE             d eps       ncg     rms          rms(c)
DAV:   1    -0.104714618574E+03    0.17373E-02   -0.33860E-01    96   0.180E+00    0.273E-01
DAV:   2    -0.104716343413E+03   -0.17248E-02   -0.18163E-02   132   0.480E-01    0.133E-01
DAV:   3    -0.104716279671E+03    0.63742E-04   -0.56477E-04   132   0.929E-02    0.721E-02
DAV:   4    -0.104716288329E+03   -0.86580E-05   -0.20316E-04   132   0.577E-02    0.163E-02
DAV:   5    -0.104716282081E+03    0.62479E-05   -0.50819E-05   144   0.272E-02    0.114E-02
DAV:   6    -0.104716281931E+03    0.15021E-06   -0.69852E-06   144   0.916E-03
  13 F= -.10471628E+03 E0= -.10471628E+03  d E =-.189916E-10
       N       E                     dE             d eps       ncg     rms          rms(c)
DAV:   1    -0.104713856232E+03    0.24258E-02   -0.17159E-01    96   0.132E+00    0.195E-01
DAV:   2    -0.104715136623E+03   -0.12804E-02   -0.13225E-02   132   0.410E-01    0.114E-01
DAV:   3    -0.104715084516E+03    0.52107E-04   -0.37368E-04   144   0.797E-02    0.658E-02
DAV:   4    -0.104715104296E+03   -0.19780E-04   -0.19641E-04   132   0.571E-02    0.130E-02
DAV:   5    -0.104715103757E+03    0.53833E-06   -0.54799E-05   132   0.275E-02    0.105E-02
DAV:   6    -0.104715102733E+03    0.10246E-05   -0.57039E-06   132   0.807E-03    0.750E-03
DAV:   7    -0.104715105985E+03   -0.32517E-05   -0.14244E-06   108   0.488E-03    0.302E-03
DAV:   8    -0.104715110953E+03   -0.49686E-05   -0.12164E-06   120   0.415E-03    0.862E-04
DAV:   9    -0.104715117156E+03   -0.62030E-05   -0.42321E-07   108   0.238E-03    0.890E-04
DAV:  10    -0.104715123626E+03   -0.64703E-05   -0.30094E-07   108   0.147E-03    0.454E-04
DAV:  11    -0.104715127578E+03   -0.39518E-05   -0.16213E-07   108   0.102E-03    0.346E-04
DAV:  12    -0.104715131931E+03   -0.43527E-05   -0.15996E-07   108   0.902E-04    0.116E-04
DAV:  13    -0.104715133223E+03   -0.12918E-05   -0.27837E-08   120   0.443E-04    0.129E-04
DAV:  14    -0.104715134572E+03   -0.13495E-05   -0.18816E-08   108   0.366E-04    0.876E-05
DAV:  15    -0.104715135268E+03   -0.69549E-06   -0.90197E-09    96   0.256E-04
  14 F= -.10471514E+03 E0= -.10471514E+03  d E =-.192964E-10
       N       E                     dE             d eps       ncg     rms          rms(c)
DAV:   1    -0.104713010221E+03    0.21244E-02   -0.35225E-01    96   0.185E+00    0.268E-01
DAV:   2    -0.104715382104E+03   -0.23719E-02   -0.24323E-02   132   0.577E-01    0.173E-01
DAV:   3    -0.104715260204E+03    0.12190E-03   -0.60445E-04   144   0.107E-01    0.914E-02
DAV:   4    -0.104715261317E+03   -0.11121E-05   -0.36494E-04   120   0.748E-02    0.175E-02
DAV:   5    -0.104715251709E+03    0.96075E-05   -0.84412E-05   132   0.341E-02    0.121E-02
DAV:   6    -0.104715258022E+03   -0.63134E-05   -0.13905E-05   144   0.108E-02    0.761E-03
DAV:   7    -0.104715279156E+03   -0.21133E-04   -0.16620E-06   120   0.447E-03    0.317E-03
DAV:   8    -0.104715304375E+03   -0.25219E-04   -0.30257E-06   132   0.527E-03    0.134E-03
DAV:   9    -0.104715325524E+03   -0.21150E-04   -0.18520E-06   120   0.362E-03    0.128E-03
DAV:  10    -0.104715345574E+03   -0.20050E-04   -0.18830E-06   120   0.309E-03    0.611E-04
DAV:  11    -0.104715349893E+03   -0.43190E-05   -0.12842E-07   120   0.112E-03    0.419E-04
DAV:  12    -0.104715356955E+03   -0.70621E-05   -0.32066E-07    84   0.121E-03    0.182E-04
DAV:  13    -0.104715359032E+03   -0.20762E-05   -0.70442E-08   108   0.579E-04    0.219E-04
DAV:  14    -0.104715361471E+03   -0.24391E-05   -0.59180E-08    84   0.551E-04    0.107E-04
DAV:  15    -0.104715361975E+03   -0.50418E-06   -0.80410E-09   120   0.269E-04
  15 F= -.10471536E+03 E0= -.10471536E+03  d E =-.207627E-10
       N       E                     dE             d eps       ncg     rms          rms(c)
DAV:   1    -0.104714680142E+03    0.68133E-03   -0.17585E-01    96   0.131E+00    0.192E-01
DAV:   2    -0.104715825381E+03   -0.11452E-02   -0.11783E-02   132   0.401E-01    0.127E-01
DAV:   3    -0.104715754680E+03    0.70701E-04   -0.31519E-04   144   0.787E-02    0.599E-02
DAV:   4    -0.104715760334E+03   -0.56539E-05   -0.20443E-04   120   0.534E-02    0.125E-02
DAV:   5    -0.104715752521E+03    0.78128E-05   -0.32988E-05   132   0.213E-02    0.831E-03
DAV:   6    -0.104715755353E+03   -0.28325E-05   -0.77154E-06   144   0.788E-03    0.402E-03
DAV:   7    -0.104715765897E+03   -0.10544E-04   -0.66963E-07   108   0.283E-03    0.180E-03
DAV:   8    -0.104715782233E+03   -0.16336E-04   -0.22342E-06   132   0.393E-03    0.128E-03
DAV:   9    -0.104715796741E+03   -0.14507E-04   -0.91521E-07    96   0.266E-03    0.555E-04
DAV:  10    -0.104715805750E+03   -0.90089E-05   -0.74686E-07   108   0.183E-03    0.377E-04
DAV:  11    -0.104715810068E+03   -0.43189E-05   -0.13351E-07    84   0.894E-04    0.185E-04
DAV:  12    -0.104715813771E+03   -0.37024E-05   -0.12951E-07   108   0.794E-04    0.111E-04
DAV:  13    -0.104715815148E+03   -0.13775E-05   -0.28180E-08   108   0.418E-04    0.971E-05
DAV:  14    -0.104715816386E+03   -0.12380E-05   -0.17713E-08    96   0.340E-04    0.375E-05
DAV:  15    -0.104715816739E+03   -0.35307E-06    0.14733E-09   120   0.173E-04
  16 F= -.10471582E+03 E0= -.10471582E+03  d E =-.195466E-10
       N       E                     dE             d eps       ncg     rms          rms(c)
DAV:   1    -0.104713595612E+03    0.22208E-02   -0.34201E-01    96   0.183E+00    0.270E-01
DAV:   2    -0.104715659201E+03   -0.20636E-02   -0.21403E-02   132   0.526E-01    0.156E-01
DAV:   3    -0.104715556489E+03    0.10271E-03   -0.55938E-04   132   0.983E-02    0.826E-02
DAV:   4    -0.104715561215E+03   -0.47261E-05   -0.30706E-04   120   0.672E-02    0.166E-02
DAV:   5    -0.104715550918E+03    0.10297E-04   -0.63900E-05   144   0.300E-02    0.125E-02
DAV:   6    -0.104715549722E+03    0.11966E-05   -0.11321E-05   132   0.109E-02    0.791E-03
DAV:   7    -0.104715558636E+03   -0.89142E-05   -0.22463E-06   132   0.586E-03    0.296E-03
DAV:   8    -0.104715572905E+03   -0.14269E-04   -0.16000E-06   132   0.484E-03    0.132E-03
DAV:   9    -0.104715588239E+03   -0.15334E-04   -0.89334E-07   108   0.297E-03    0.124E-03
DAV:  10    -0.104715604618E+03   -0.16379E-04   -0.10369E-06   120   0.241E-03    0.574E-04
DAV:  11    -0.104715612212E+03   -0.75946E-05   -0.22467E-07   120   0.129E-03    0.305E-04
DAV:  12    -0.104715618608E+03   -0.63958E-05   -0.17322E-07    96   0.892E-04    0.205E-04
DAV:  13    -0.104715621804E+03   -0.31964E-05   -0.52468E-08   108   0.514E-04    0.182E-04
DAV:  14    -0.104715624238E+03   -0.24331E-05   -0.30765E-08    96   0.412E-04    0.712E-05
DAV:  15    -0.104715625180E+03   -0.94278E-06   -0.72483E-09   120   0.249E-04
  17 F= -.10471563E+03 E0= -.10471563E+03  d E =-.160893E-10
       N       E                     dE             d eps       ncg     rms          rms(c)
DAV:   1    -0.104715007637E+03    0.61660E-03   -0.17379E-01    96   0.132E+00    0.186E-01
DAV:   2    -0.104716051204E+03   -0.10436E-02   -0.10825E-02   120   0.381E-01    0.116E-01
DAV:   3    -0.104715999006E+03    0.52198E-04   -0.28440E-04   144   0.701E-02    0.611E-02
DAV:   4    -0.104715984301E+03    0.14706E-04   -0.13736E-04   120   0.441E-02    0.112E-02
DAV:   5    -0.104715980153E+03    0.41477E-05   -0.19535E-05   132   0.170E-02    0.808E-03
DAV:   6    -0.104715984709E+03   -0.45562E-05   -0.60625E-06   132   0.874E-03    0.442E-03
DAV:   7    -0.104716001401E+03   -0.16691E-04   -0.27860E-06   120   0.613E-03    0.161E-03
DAV:   8    -0.104716017678E+03   -0.16278E-04   -0.11697E-06   120   0.365E-03    0.108E-03
DAV:   9    -0.104716033950E+03   -0.16272E-04   -0.11687E-06   108   0.273E-03    0.789E-04
DAV:  10    -0.104716048095E+03   -0.14145E-04   -0.13074E-06   120   0.237E-03    0.425E-04
DAV:  11    -0.104716051716E+03   -0.36207E-05   -0.11553E-07   120   0.102E-03    0.290E-04
DAV:  12    -0.104716056771E+03   -0.50551E-05   -0.32495E-07    96   0.117E-03    0.149E-04
DAV:  13    -0.104716057769E+03   -0.99815E-06   -0.32685E-08   120   0.464E-04
  18 F= -.10471606E+03 E0= -.10471606E+03  d E =-.214511E-10
       N       E                     dE             d eps       ncg     rms          rms(c)
DAV:   1    -0.104714052160E+03    0.20046E-02   -0.33751E-01    96   0.182E+00    0.269E-01
DAV:   2    -0.104715960793E+03   -0.19086E-02   -0.19898E-02   132   0.504E-01    0.145E-01
DAV:   3    -0.104715877957E+03    0.82836E-04   -0.55170E-04   132   0.932E-02    0.786E-02
DAV:   4    -0.104715871951E+03    0.60064E-05   -0.21950E-04   132   0.583E-02    0.158E-02
DAV:   5    -0.104715862641E+03    0.93101E-05   -0.46976E-05   144   0.261E-02    0.113E-02
DAV:   6    -0.104715862729E+03   -0.88017E-07   -0.71275E-06   132   0.974E-03
  19 F= -.10471586E+03 E0= -.10471586E+03  d E =-.168008E-10
       N       E                     dE             d eps       ncg     rms          rms(c)
DAV:   1    -0.104714006568E+03    0.18561E-02   -0.16804E-01    96   0.131E+00    0.181E-01
DAV:   2    -0.104715320959E+03   -0.13144E-02   -0.13415E-02   132   0.409E-01    0.112E-01
DAV:   3    -0.104715280890E+03    0.40070E-04   -0.36204E-04   144   0.767E-02    0.645E-02
DAV:   4    -0.104715300213E+03   -0.19323E-04   -0.16494E-04   132   0.506E-02    0.116E-02
DAV:   5    -0.104715300804E+03   -0.59159E-06   -0.38282E-05   144   0.229E-02    0.923E-03
DAV:   6    -0.104715302493E+03   -0.16890E-05   -0.46042E-06   132   0.761E-03    0.642E-03
DAV:   7    -0.104715309871E+03   -0.73773E-05   -0.14197E-06   108   0.531E-03    0.195E-03
DAV:   8    -0.104715315738E+03   -0.58675E-05   -0.93228E-07   108   0.402E-03    0.957E-04
DAV:   9    -0.104715321734E+03   -0.59960E-05   -0.46336E-07   108   0.230E-03    0.818E-04
DAV:  10    -0.104715329621E+03   -0.78870E-05   -0.56441E-07   108   0.180E-03    0.323E-04
DAV:  11    -0.104715331471E+03   -0.18496E-05   -0.93263E-08   120   0.892E-04    0.289E-04
DAV:  12    -0.104715334209E+03   -0.27377E-05   -0.94906E-08   108   0.772E-04    0.201E-04
DAV:  13    -0.104715336197E+03   -0.19888E-05   -0.90905E-08   108   0.635E-04    0.102E-04
DAV:  14    -0.104715337305E+03   -0.11073E-05   -0.29176E-08   120   0.401E-04    0.946E-05
DAV:  15    -0.104715337773E+03   -0.46832E-06   -0.37248E-09   120   0.236E-04
  20 F= -.10471534E+03 E0= -.10471534E+03  d E =-.181650E-10
       N       E                     dE             d eps       ncg     rms          rms(c)
DAV:   1    -0.104713562012E+03    0.17753E-02   -0.33808E-01    96   0.173E+00    0.258E-01
DAV:   2    -0.104715890491E+03   -0.23285E-02   -0.24993E-02   132   0.528E-01    0.162E-01
DAV:   3    -0.104715723773E+03    0.16672E-03   -0.65805E-04   132   0.107E-01    0.850E-02
DAV:   4    -0.104715724351E+03   -0.57813E-06   -0.41091E-04   120   0.733E-02    0.168E-02
DAV:   5    -0.104715715351E+03    0.90006E-05   -0.65587E-05   132   0.298E-02    0.123E-02
DAV:   6    -0.104715715869E+03   -0.51862E-06   -0.10389E-05   132   0.943E-03    0.811E-03
DAV:   7    -0.104715726408E+03   -0.10539E-04   -0.89269E-07    96   0.381E-03    0.340E-03
DAV:   8    -0.104715742148E+03   -0.15740E-04   -0.20600E-06   132   0.521E-03    0.149E-03
DAV:   9    -0.104715755101E+03   -0.12953E-04   -0.10048E-06   120   0.293E-03    0.145E-03
DAV:  10    -0.104715773708E+03   -0.18607E-04   -0.94386E-07   108   0.221E-03    0.994E-04
DAV:  11    -0.104715779479E+03   -0.57703E-05   -0.19077E-07   108   0.117E-03    0.648E-04
DAV:  12    -0.104715786434E+03   -0.69556E-05   -0.19025E-07    96   0.108E-03    0.363E-04
DAV:  13    -0.104715790314E+03   -0.38803E-05   -0.99999E-08   108   0.705E-04    0.232E-04
DAV:  14    -0.104715792745E+03   -0.24305E-05   -0.27107E-08   108   0.442E-04    0.132E-04
DAV:  15    -0.104715794031E+03   -0.12860E-05   -0.18011E-08   108   0.328E-04    0.127E-04
DAV:  16    -0.104715794643E+03   -0.61196E-06    0.16976E-09   108   0.209E-04
  21 F= -.10471579E+03 E0= -.10471579E+03  d E =-.202467E-10
       N       E                     dE             d eps       ncg     rms          rms(c)
DAV:   1    -0.104715765433E+03    0.28598E-04   -0.17283E-01    96   0.124E+00    0.194E-01
DAV:   2    -0.104716734858E+03   -0.96943E-03   -0.10619E-02   120   0.362E-01    0.106E-01
DAV:   3    -0.104716672893E+03    0.61965E-04   -0.33093E-04   144   0.750E-02    0.588E-02
DAV:   4    -0.104716671627E+03    0.12664E-05   -0.15169E-04   132   0.463E-02    0.138E-02
DAV:   5    -0.104716667158E+03    0.44692E-05   -0.26093E-05   132   0.190E-02    0.846E-03
DAV:   6    -0.104716668122E+03   -0.96400E-06   -0.38412E-06   132   0.630E-03
  22 F= -.10471667E+03 E0= -.10471667E+03  d E =-.391031E-10
       N       E                     dE             d eps       ncg     rms          rms(c)
DAV:   1    -0.104715285224E+03    0.13819E-02   -0.33913E-01    96   0.168E+00    0.227E-01
DAV:   2    -0.104716758918E+03   -0.14737E-02   -0.15874E-02   132   0.426E-01    0.110E-01
DAV:   3    -0.104716725754E+03    0.33164E-04   -0.55596E-04   132   0.891E-02    0.561E-02
DAV:   4    -0.104716750501E+03   -0.24746E-04   -0.13642E-04   132   0.439E-02    0.160E-02
DAV:   5    -0.104716750006E+03    0.49454E-06   -0.22590E-05   132   0.186E-02    0.883E-03
DAV:   6    -0.104716750834E+03   -0.82747E-06   -0.55693E-06   144   0.810E-03
  23 F= -.10471675E+03 E0= -.10471675E+03  d E =-.151564E-10
       N       E                     dE             d eps       ncg     rms          rms(c)
DAV:   1    -0.104715836788E+03    0.91322E-03   -0.17243E-01    96   0.123E+00    0.185E-01
DAV:   2    -0.104716565242E+03   -0.72845E-03   -0.80657E-03   132   0.311E-01    0.808E-02
DAV:   3    -0.104716542757E+03    0.22485E-04   -0.29019E-04   132   0.644E-02    0.432E-02
DAV:   4    -0.104716555550E+03   -0.12793E-04   -0.75929E-05   132   0.331E-02    0.120E-02
DAV:   5    -0.104716555583E+03   -0.32949E-07   -0.14550E-05   132   0.149E-02    0.704E-03
DAV:   6    -0.104716555888E+03   -0.30480E-06   -0.25722E-06   132   0.583E-03
  24 F= -.10471656E+03 E0= -.10471656E+03  d E =-.155367E-10
       N       E                     dE             d eps       ncg     rms          rms(c)
DAV:   1    -0.104714734361E+03    0.18212E-02   -0.34567E-01    96   0.176E+00    0.278E-01
DAV:   2    -0.104716215863E+03   -0.14815E-02   -0.16752E-02   132   0.463E-01    0.127E-01
DAV:   3    -0.104716149140E+03    0.66723E-04   -0.58988E-04   144   0.944E-02    0.719E-02
DAV:   4    -0.104716160791E+03   -0.11651E-04   -0.18287E-04   132   0.519E-02    0.192E-02
DAV:   5    -0.104716156738E+03    0.40531E-05   -0.32324E-05   144   0.218E-02    0.104E-02
DAV:   6    -0.104716156186E+03    0.55149E-06   -0.48952E-06   132   0.795E-03
  25 F= -.10471616E+03 E0= -.10471616E+03  d E =-.206744E-10
       N       E                     dE             d eps       ncg     rms          rms(c)
DAV:   1    -0.104715439894E+03    0.71684E-03   -0.16806E-01    96   0.125E+00    0.178E-01
DAV:   2    -0.104716544381E+03   -0.11045E-02   -0.11843E-02   132   0.360E-01    0.943E-02
DAV:   3    -0.104716496729E+03    0.47653E-04   -0.38555E-04   144   0.755E-02    0.521E-02
DAV:   4    -0.104716507646E+03   -0.10918E-04   -0.12649E-04   132   0.423E-02    0.130E-02
DAV:   5    -0.104716507684E+03   -0.37486E-07   -0.24016E-05   132   0.186E-02    0.860E-03
DAV:   6    -0.104716507735E+03   -0.51549E-07   -0.35208E-06   132   0.676E-03
  26 F= -.10471651E+03 E0= -.10471651E+03  d E =-.308523E-10
       N       E                     dE             d eps       ncg     rms          rms(c)
DAV:   1    -0.104714306553E+03    0.22011E-02   -0.33739E-01    96   0.169E+00    0.229E-01
DAV:   2    -0.104716162577E+03   -0.18560E-02   -0.19618E-02   132   0.471E-01    0.133E-01
DAV:   3    -0.104716090581E+03    0.71997E-04   -0.57188E-04   132   0.945E-02    0.729E-02
DAV:   4    -0.104716101990E+03   -0.11409E-04   -0.22803E-04   132   0.567E-02    0.174E-02
DAV:   5    -0.104716094966E+03    0.70237E-05   -0.41920E-05   144   0.242E-02    0.104E-02
DAV:   6    -0.104716094713E+03    0.25299E-06   -0.70043E-06   144   0.873E-03
  27 F= -.10471609E+03 E0= -.10471609E+03  d E =-.147179E-10
       N       E                     dE             d eps       ncg     rms          rms(c)
DAV:   1    -0.104714729081E+03    0.13659E-02   -0.17069E-01    96   0.120E+00    0.175E-01
DAV:   2    -0.104715436547E+03   -0.70747E-03   -0.77855E-03   132   0.302E-01    0.784E-02
DAV:   3    -0.104715421134E+03    0.15413E-04   -0.27470E-04   144   0.630E-02    0.414E-02
DAV:   4    -0.104715434817E+03   -0.13682E-04   -0.67956E-05   132   0.311E-02    0.116E-02
DAV:   5    -0.104715436457E+03   -0.16401E-05   -0.13230E-05   132   0.141E-02    0.632E-03
DAV:   6    -0.104715438376E+03   -0.19194E-05   -0.25197E-06   120   0.551E-03    0.395E-03
DAV:   7    -0.104715442285E+03   -0.39085E-05   -0.39655E-07   108   0.233E-03    0.122E-03
DAV:   8    -0.104715445705E+03   -0.34200E-05   -0.27826E-07   108   0.191E-03    0.569E-04
DAV:   9    -0.104715450971E+03   -0.52668E-05   -0.34923E-07   108   0.199E-03    0.321E-04
DAV:  10    -0.104715453446E+03   -0.24744E-05   -0.20061E-07   120   0.127E-03    0.343E-04
DAV:  11    -0.104715454487E+03   -0.10409E-05   -0.28179E-08   120   0.633E-04    0.229E-04
DAV:  12    -0.104715455998E+03   -0.15112E-05   -0.42638E-08   108   0.516E-04    0.800E-05
DAV:  13    -0.104715456872E+03   -0.87379E-06   -0.17013E-08   108   0.336E-04
  28 F= -.10471546E+03 E0= -.10471546E+03  d E =-.285593E-10
       N       E                     dE             d eps       ncg     rms          rms(c)
DAV:   1    -0.104713924961E+03    0.15310E-02   -0.33979E-01    96   0.175E+00    0.266E-01
DAV:   2    -0.104716024747E+03   -0.20998E-02   -0.22717E-02   132   0.512E-01    0.157E-01
DAV:   3    -0.104715867909E+03    0.15684E-03   -0.62202E-04   132   0.103E-01    0.831E-02
DAV:   4    -0.104715868580E+03   -0.67115E-06   -0.37813E-04   132   0.700E-02    0.182E-02
DAV:   5    -0.104715861003E+03    0.75771E-05   -0.63336E-05   132   0.291E-02    0.124E-02
DAV:   6    -0.104715862114E+03   -0.11107E-05   -0.93024E-06   144   0.908E-03    0.783E-03
DAV:   7    -0.104715872638E+03   -0.10525E-04   -0.90788E-07    96   0.382E-03    0.277E-03
DAV:   8    -0.104715884704E+03   -0.12066E-04   -0.12313E-06   120   0.399E-03    0.119E-03
DAV:   9    -0.104715897197E+03   -0.12493E-04   -0.81819E-07   120   0.271E-03    0.114E-03
DAV:  10    -0.104715915286E+03   -0.18089E-04   -0.10771E-06   108   0.239E-03    0.914E-04
DAV:  11    -0.104715918957E+03   -0.36706E-05   -0.11198E-07   120   0.110E-03    0.577E-04
DAV:  12    -0.104715924318E+03   -0.53607E-05   -0.11879E-07    96   0.939E-04    0.396E-04
DAV:  13    -0.104715928871E+03   -0.45538E-05   -0.12935E-07   108   0.801E-04    0.192E-04
DAV:  14    -0.104715931209E+03   -0.23375E-05   -0.35878E-08   108   0.448E-04    0.158E-04
DAV:  15    -0.104715932357E+03   -0.11480E-05   -0.10007E-08    96   0.286E-04    0.101E-04
DAV:  16    -0.104715933008E+03   -0.65158E-06    0.48971E-10   108   0.209E-04
  29 F= -.10471593E+03 E0= -.10471593E+03  d E =-.138329E-10
       N       E                     dE             d eps       ncg     rms          rms(c)
DAV:   1    -0.104715932757E+03   -0.40028E-06   -0.17358E-01    96   0.124E+00    0.191E-01
DAV:   2    -0.104716761975E+03   -0.82922E-03   -0.92197E-03   132   0.343E-01    0.941E-02
DAV:   3    -0.104716713788E+03    0.48187E-04   -0.29848E-04   132   0.691E-02    0.507E-02
DAV:   4    -0.104716716072E+03   -0.22835E-05   -0.11959E-04   132   0.416E-02    0.126E-02
DAV:   5    -0.104716713074E+03    0.29977E-05   -0.20328E-05   132   0.173E-02    0.796E-03
DAV:   6    -0.104716713825E+03   -0.75124E-06   -0.34199E-06   144   0.634E-03
  30 F= -.10471671E+03 E0= -.10471671E+03  d E =-.137513E-10
       N       E                     dE             d eps       ncg     rms          rms(c)
DAV:   1    -0.104715271975E+03    0.14411E-02   -0.34437E-01    96   0.173E+00    0.270E-01
DAV:   2    -0.104716562414E+03   -0.12904E-02   -0.14774E-02   132   0.427E-01    0.111E-01
DAV:   3    -0.104716527027E+03    0.35387E-04   -0.56967E-04   144   0.884E-02    0.625E-02
DAV:   4    -0.104716546256E+03   -0.19229E-04   -0.11996E-04   132   0.417E-02    0.186E-02
DAV:   5    -0.104716546824E+03   -0.56831E-06   -0.23872E-05   132   0.193E-02    0.935E-03
DAV:   6    -0.104716547928E+03   -0.11041E-05   -0.49781E-06   132   0.793E-03    0.607E-03
DAV:   7    -0.104716551713E+03   -0.37845E-05   -0.45507E-07   108   0.257E-03    0.243E-03
DAV:   8    -0.104716556223E+03   -0.45106E-05   -0.45756E-07   108   0.276E-03    0.981E-04
DAV:   9    -0.104716560739E+03   -0.45154E-05   -0.29569E-07   108   0.222E-03    0.654E-04
DAV:  10    -0.104716567043E+03   -0.63040E-05   -0.42210E-07   108   0.233E-03    0.832E-04
DAV:  11    -0.104716568250E+03   -0.12073E-05   -0.12836E-07   120   0.129E-03    0.664E-04
DAV:  12    -0.104716568994E+03   -0.74413E-06   -0.18225E-08    96   0.535E-04
  31 F= -.10471657E+03 E0= -.10471657E+03  d E =-.255964E-10
       N       E                     dE             d eps       ncg     rms          rms(c)
DAV:   1    -0.104715537938E+03    0.10303E-02   -0.16808E-01    96   0.125E+00    0.195E-01
DAV:   2    -0.104716523114E+03   -0.98518E-03   -0.10364E-02   132   0.346E-01    0.878E-02
DAV:   3    -0.104716486044E+03    0.37070E-04   -0.33214E-04   144   0.678E-02    0.486E-02
DAV:   4    -0.104716491152E+03   -0.51077E-05   -0.97645E-05   120   0.355E-02    0.123E-02
DAV:   5    -0.104716489613E+03    0.15392E-05   -0.16716E-05   144   0.155E-02    0.804E-03
DAV:   6    -0.104716489708E+03   -0.95294E-07   -0.26598E-06   120   0.612E-03
  32 F= -.10471649E+03 E0= -.10471649E+03  d E =-.162818E-10
       N       E                     dE             d eps       ncg     rms          rms(c)
DAV:   1    -0.104714613866E+03    0.18757E-02   -0.34385E-01    96   0.177E+00    0.274E-01
DAV:   2    -0.104716184642E+03   -0.15708E-02   -0.17537E-02   132   0.471E-01    0.129E-01
DAV:   3    -0.104716110042E+03    0.74600E-04   -0.59752E-04   132   0.960E-02    0.704E-02
DAV:   4    -0.104716123205E+03   -0.13162E-04   -0.20734E-04   132   0.549E-02    0.183E-02
DAV:   5    -0.104716117401E+03    0.58039E-05   -0.35982E-05   144   0.231E-02    0.108E-02
DAV:   6    -0.104716117068E+03    0.33285E-06   -0.59608E-06   156   0.852E-03
  33 F= -.10471612E+03 E0= -.10471612E+03  d E =-.187425E-10
       N       E                     dE             d eps       ncg     rms          rms(c)
DAV:   1    -0.104715014600E+03    0.11028E-02   -0.17095E-01    96   0.126E+00    0.189E-01
DAV:   2    -0.104716106302E+03   -0.10917E-02   -0.11769E-02   132   0.368E-01    0.114E-01
DAV:   3    -0.104716034063E+03    0.72239E-04   -0.32148E-04   132   0.746E-02    0.602E-02
DAV:   4    -0.104716048794E+03   -0.14732E-04   -0.20941E-04   120   0.515E-02    0.131E-02
DAV:   5    -0.104716044425E+03    0.43697E-05   -0.33145E-05   132   0.210E-02    0.904E-03
DAV:   6    -0.104716043446E+03    0.97834E-06   -0.49587E-06   132   0.644E-03
  34 F= -.10471604E+03 E0= -.10471604E+03  d E =-.140582E-10
       N       E                     dE             d eps       ncg     rms          rms(c)
DAV:   1    -0.104713666059E+03    0.23784E-02   -0.34685E-01    96   0.175E+00    0.272E-01
DAV:   2    -0.104715656760E+03   -0.19907E-02   -0.21467E-02   120   0.505E-01    0.152E-01
DAV:   3    -0.104715553931E+03    0.10283E-03   -0.67060E-04   156   0.105E-01    0.852E-02
DAV:   4    -0.104715560047E+03   -0.61165E-05   -0.29332E-04   132   0.633E-02    0.194E-02
DAV:   5    -0.104715550787E+03    0.92600E-05   -0.51598E-05   132   0.262E-02    0.116E-02
DAV:   6    -0.104715549338E+03    0.14495E-05   -0.65370E-06   144   0.830E-03    0.781E-03
DAV:   7    -0.104715557048E+03   -0.77101E-05   -0.14075E-06   120   0.428E-03    0.206E-03
DAV:   8    -0.104715563383E+03   -0.63350E-05   -0.49631E-07   108   0.262E-03    0.101E-03
DAV:   9    -0.104715572033E+03   -0.86502E-05   -0.64246E-07   108   0.218E-03    0.794E-04
DAV:  10    -0.104715584131E+03   -0.12098E-04   -0.11129E-06   120   0.231E-03    0.537E-04
DAV:  11    -0.104715586763E+03   -0.26319E-05   -0.97527E-08   120   0.100E-03    0.430E-04
DAV:  12    -0.104715590113E+03   -0.33499E-05   -0.11078E-07    96   0.773E-04    0.237E-04
DAV:  13    -0.104715592866E+03   -0.27532E-05   -0.11110E-07   108   0.682E-04    0.155E-04
DAV:  14    -0.104715594309E+03   -0.14429E-05   -0.38201E-08   108   0.415E-04    0.114E-04
DAV:  15    -0.104715594799E+03   -0.48952E-06   -0.12238E-09   120   0.201E-04
  35 F= -.10471559E+03 E0= -.10471559E+03  d E =-.304375E-10
       N       E                     dE             d eps       ncg     rms          rms(c)
DAV:   1    -0.104715615933E+03   -0.21624E-04   -0.16876E-01    96   0.123E+00    0.182E-01
DAV:   2    -0.104716748821E+03   -0.11329E-02   -0.12199E-02   132   0.369E-01    0.112E-01
DAV:   3    -0.104716668506E+03    0.80314E-04   -0.32732E-04   132   0.755E-02    0.583E-02
DAV:   4    -0.104716669437E+03   -0.93081E-06   -0.19414E-04   120   0.507E-02    0.119E-02
DAV:   5    -0.104716664335E+03    0.51018E-05   -0.32597E-05   132   0.211E-02    0.872E-03
DAV:   6    -0.104716664205E+03    0.13004E-06   -0.49713E-06   132   0.661E-03
  36 F= -.10471666E+03 E0= -.10471666E+03  d E =-.365374E-10
       N       E                     dE             d eps       ncg     rms          rms(c)
DAV:   1    -0.104714640892E+03    0.20234E-02   -0.33749E-01    96   0.165E+00    0.222E-01
DAV:   2    -0.104716319062E+03   -0.16782E-02   -0.17767E-02   132   0.449E-01    0.125E-01
DAV:   3    -0.104716273841E+03    0.45222E-04   -0.52508E-04   132   0.891E-02    0.702E-02
DAV:   4    -0.104716303496E+03   -0.29655E-04   -0.17833E-04   120   0.514E-02    0.174E-02
DAV:   5    -0.104716300252E+03    0.32440E-05   -0.35312E-05   132   0.225E-02    0.930E-03
DAV:   6    -0.104716299353E+03    0.89921E-06   -0.61060E-06   144   0.829E-03
  37 F= -.10471630E+03 E0= -.10471630E+03  d E =-.161320E-10
       N       E                     dE             d eps       ncg     rms          rms(c)
DAV:   1    -0.104713975815E+03    0.23244E-02   -0.16557E-01    96   0.132E+00    0.166E-01
DAV:   2    -0.104715181783E+03   -0.12060E-02   -0.12521E-02   132   0.397E-01    0.107E-01
DAV:   3    -0.104715134933E+03    0.46849E-04   -0.31910E-04   132   0.740E-02    0.588E-02
DAV:   4    -0.104715141702E+03   -0.67681E-05   -0.15175E-04   132   0.492E-02    0.105E-02
DAV:   5    -0.104715137958E+03    0.37432E-05   -0.31038E-05   132   0.211E-02    0.825E-03
DAV:   6    -0.104715137375E+03    0.58349E-06   -0.42187E-06   144   0.704E-03
  38 F= -.10471514E+03 E0= -.10471514E+03  d E =-.167140E-10
       N       E                     dE             d eps       ncg     rms          rms(c)
DAV:   1    -0.104713505695E+03    0.16323E-02   -0.34990E-01    96   0.185E+00    0.266E-01
DAV:   2    -0.104715546358E+03   -0.20407E-02   -0.20847E-02   120   0.523E-01    0.164E-01
DAV:   3    -0.104715485833E+03    0.60526E-04   -0.56905E-04   132   0.985E-02    0.866E-02
DAV:   4    -0.104715469483E+03    0.16350E-04   -0.27058E-04   120   0.608E-02    0.159E-02
DAV:   5    -0.104715455795E+03    0.13688E-04   -0.38468E-05   144   0.235E-02    0.110E-02
DAV:   6    -0.104715457435E+03   -0.16406E-05   -0.11558E-05   120   0.115E-02    0.603E-03
DAV:   7    -0.104715477963E+03   -0.20528E-04   -0.39004E-06   108   0.718E-03    0.216E-03
DAV:   8    -0.104715498312E+03   -0.20349E-04   -0.16604E-06   108   0.437E-03    0.125E-03
DAV:   9    -0.104715520468E+03   -0.22155E-04   -0.20027E-06   108   0.361E-03    0.105E-03
DAV:  10    -0.104715538579E+03   -0.18112E-04   -0.16411E-06   120   0.280E-03    0.513E-04
DAV:  11    -0.104715546324E+03   -0.77444E-05   -0.35247E-07   108   0.144E-03    0.220E-04
DAV:  12    -0.104715551560E+03   -0.52368E-05   -0.33355E-07    96   0.117E-03    0.211E-04
DAV:  13    -0.104715553286E+03   -0.17255E-05   -0.42385E-08   108   0.534E-04    0.120E-04
DAV:  14    -0.104715554333E+03   -0.10471E-05   -0.15768E-08    96   0.357E-04    0.494E-05
DAV:  15    -0.104715554770E+03   -0.43679E-06   -0.91408E-10   108   0.207E-04
  39 F= -.10471555E+03 E0= -.10471555E+03  d E =-.202642E-10
       N       E                     dE             d eps       ncg     rms          rms(c)
DAV:   1    -0.104715583540E+03   -0.29207E-04   -0.16872E-01    96   0.129E+00    0.190E-01
DAV:   2    -0.104716573615E+03   -0.99007E-03   -0.10312E-02   132   0.374E-01    0.107E-01
DAV:   3    -0.104716528509E+03    0.45106E-04   -0.27308E-04   132   0.684E-02    0.575E-02
DAV:   4    -0.104716529391E+03   -0.88149E-06   -0.13742E-04   132   0.461E-02    0.112E-02
DAV:   5    -0.104716524028E+03    0.53629E-05   -0.29002E-05   144   0.206E-02    0.858E-03
DAV:   6    -0.104716523447E+03    0.58111E-06   -0.50516E-06   132   0.758E-03
  40 F= -.10471652E+03 E0= -.10471652E+03  d E =-.185774E-10
       N       E                     dE             d eps       ncg     rms          rms(c)
DAV:   1    -0.104715040473E+03    0.14836E-02   -0.34081E-01    96   0.178E+00    0.274E-01
DAV:   2    -0.104716522245E+03   -0.14818E-02   -0.15790E-02   144   0.452E-01    0.124E-01
DAV:   3    -0.104716495670E+03    0.26575E-04   -0.58058E-04   132   0.918E-02    0.668E-02
DAV:   4    -0.104716524546E+03   -0.28875E-04   -0.16338E-04   132   0.533E-02    0.161E-02
DAV:   5    -0.104716525366E+03   -0.82063E-06   -0.44690E-05   132   0.255E-02    0.116E-02
DAV:   6    -0.104716525999E+03   -0.63312E-06   -0.60544E-06   156   0.833E-03
  41 F= -.10471653E+03 E0= -.10471653E+03  d E =-.197138E-10
       N       E                     dE             d eps       ncg     rms          rms(c)
DAV:   1    -0.104713963754E+03    0.25616E-02   -0.17246E-01    96   0.130E+00    0.194E-01
DAV:   2    -0.104714881734E+03   -0.91798E-03   -0.96003E-03   132   0.354E-01    0.994E-02
DAV:   3    -0.104714848914E+03    0.32820E-04   -0.28906E-04   132   0.680E-02    0.532E-02
DAV:   4    -0.104714863724E+03   -0.14810E-04   -0.12745E-04   132   0.442E-02    0.117E-02
DAV:   5    -0.104714862908E+03    0.81559E-06   -0.28884E-05   132   0.202E-02    0.826E-03
DAV:   6    -0.104714864079E+03   -0.11712E-05   -0.43201E-06   132   0.678E-03    0.515E-03
DAV:   7    -0.104714868305E+03   -0.42254E-05   -0.61003E-07   108   0.326E-03    0.211E-03
DAV:   8    -0.104714874234E+03   -0.59296E-05   -0.80291E-07   108   0.342E-03    0.891E-04
DAV:   9    -0.104714880651E+03   -0.64164E-05   -0.45416E-07   108   0.232E-03    0.693E-04
DAV:  10    -0.104714887178E+03   -0.65274E-05   -0.33633E-07   108   0.166E-03    0.430E-04
DAV:  11    -0.104714889506E+03   -0.23275E-05   -0.92684E-08   120   0.941E-04    0.383E-04
DAV:  12    -0.104714892202E+03   -0.26967E-05   -0.48769E-08   108   0.628E-04    0.195E-04
DAV:  13    -0.104714894430E+03   -0.22276E-05   -0.57861E-08    96   0.538E-04    0.154E-04
DAV:  14    -0.104714895660E+03   -0.12302E-05   -0.15850E-08   108   0.315E-04    0.909E-05
DAV:  15    -0.104714896333E+03   -0.67292E-06   -0.33236E-09    96   0.212E-04
  42 F= -.10471490E+03 E0= -.10471490E+03  d E =-.178558E-10
       N       E                     dE             d eps       ncg     rms          rms(c)
DAV:   1    -0.104712839691E+03    0.20560E-02   -0.35318E-01    96   0.185E+00    0.263E-01
DAV:   2    -0.104715223325E+03   -0.23836E-02   -0.24523E-02   132   0.578E-01    0.178E-01
DAV:   3    -0.104715102547E+03    0.12078E-03   -0.60108E-04   144   0.107E-01    0.923E-02
DAV:   4    -0.104715102795E+03   -0.24796E-06   -0.37005E-04   120   0.740E-02    0.175E-02
DAV:   5    -0.104715093122E+03    0.96735E-05   -0.79302E-05   132   0.328E-02    0.119E-02
DAV:   6    -0.104715102367E+03   -0.92448E-05   -0.14220E-05   132   0.107E-02    0.685E-03
DAV:   7    -0.104715128412E+03   -0.26046E-04   -0.18215E-06   120   0.440E-03    0.288E-03
DAV:   8    -0.104715156826E+03   -0.28414E-04   -0.35400E-06   132   0.557E-03    0.150E-03
DAV:   9    -0.104715180888E+03   -0.24061E-04   -0.22812E-06   120   0.384E-03    0.132E-03
DAV:  10    -0.104715201790E+03   -0.20903E-04   -0.19166E-06   120   0.308E-03    0.619E-04
DAV:  11    -0.104715205836E+03   -0.40454E-05   -0.14905E-07   120   0.118E-03    0.380E-04
DAV:  12    -0.104715213200E+03   -0.73643E-05   -0.34487E-07    96   0.126E-03    0.195E-04
DAV:  13    -0.104715215335E+03   -0.21350E-05   -0.88633E-08   108   0.635E-04    0.190E-04
DAV:  14    -0.104715217413E+03   -0.20783E-05   -0.41018E-08    96   0.506E-04    0.105E-04
DAV:  15    -0.104715217973E+03   -0.56012E-06   -0.90187E-09   108   0.280E-04
  43 F= -.10471522E+03 E0= -.10471522E+03  d E =-.209815E-10
       N       E                     dE             d eps       ncg     rms          rms(c)
DAV:   1    -0.104714969244E+03    0.24817E-03   -0.17163E-01    96   0.133E+00    0.191E-01
DAV:   2    -0.104716262983E+03   -0.12937E-02   -0.13681E-02   132   0.422E-01    0.116E-01
DAV:   3    -0.104716191924E+03    0.71059E-04   -0.37274E-04   156   0.800E-02    0.667E-02
DAV:   4    -0.104716179169E+03    0.12755E-04   -0.19070E-04   132   0.558E-02    0.123E-02
DAV:   5    -0.104716172611E+03    0.65588E-05   -0.52572E-05   144   0.270E-02    0.992E-03
DAV:   6    -0.104716171129E+03    0.14821E-05   -0.56906E-06   132   0.801E-03    0.715E-03
DAV:   7    -0.104716178025E+03   -0.68965E-05   -0.14567E-06   120   0.532E-03    0.291E-03
DAV:   8    -0.104716190656E+03   -0.12631E-04   -0.24564E-06   132   0.570E-03    0.150E-03
DAV:   9    -0.104716203374E+03   -0.12719E-04   -0.84399E-07   108   0.337E-03    0.107E-03
DAV:  10    -0.104716213567E+03   -0.10193E-04   -0.55334E-07   108   0.198E-03    0.648E-04
DAV:  11    -0.104716220642E+03   -0.70747E-05   -0.27258E-07   108   0.126E-03    0.392E-04
DAV:  12    -0.104716226510E+03   -0.58682E-05   -0.21505E-07    96   0.983E-04    0.126E-04
DAV:  13    -0.104716229032E+03   -0.25221E-05   -0.62940E-08   108   0.561E-04    0.177E-04
DAV:  14    -0.104716230849E+03   -0.18165E-05   -0.30338E-08    96   0.409E-04    0.705E-05
DAV:  15    -0.104716231515E+03   -0.66602E-06   -0.62666E-09   108   0.245E-04
  44 F= -.10471623E+03 E0= -.10471623E+03  d E =-.210638E-10
       N       E                     dE             d eps       ncg     rms          rms(c)
DAV:   1    -0.104714368742E+03    0.18621E-02   -0.34053E-01    96   0.181E+00    0.274E-01
DAV:   2    -0.104716204490E+03   -0.18357E-02   -0.19186E-02   132   0.502E-01    0.139E-01
DAV:   3    -0.104716129168E+03    0.75323E-04   -0.57138E-04   132   0.963E-02    0.748E-02
DAV:   4    -0.104716139702E+03   -0.10534E-04   -0.24163E-04   132   0.624E-02    0.165E-02
DAV:   5    -0.104716132848E+03    0.68547E-05   -0.58371E-05   132   0.292E-02    0.116E-02
DAV:   6    -0.104716132399E+03    0.44915E-06   -0.84988E-06   144   0.973E-03
  45 F= -.10471613E+03 E0= -.10471613E+03  d E =-.187785E-10
       N       E                     dE             d eps       ncg     rms          rms(c)
DAV:   1    -0.104714655311E+03    0.14775E-02   -0.17078E-01    96   0.125E+00    0.191E-01
DAV:   2    -0.104715399242E+03   -0.74393E-03   -0.78878E-03   144   0.313E-01    0.865E-02
DAV:   3    -0.104715389591E+03    0.96513E-05   -0.28671E-04   132   0.636E-02    0.464E-02
DAV:   4    -0.104715411164E+03   -0.21574E-04   -0.80028E-05   132   0.363E-02    0.115E-02
DAV:   5    -0.104715415263E+03   -0.40989E-05   -0.20258E-05   132   0.171E-02    0.807E-03
DAV:   6    -0.104715417815E+03   -0.25515E-05   -0.27875E-06   132   0.573E-03    0.554E-03
DAV:   7    -0.104715423082E+03   -0.52676E-05   -0.53013E-07   108   0.276E-03    0.208E-03
DAV:   8    -0.104715428489E+03   -0.54067E-05   -0.56805E-07   108   0.281E-03    0.891E-04
DAV:   9    -0.104715435322E+03   -0.68332E-05   -0.36544E-07   108   0.242E-03    0.513E-04
DAV:  10    -0.104715439418E+03   -0.40963E-05   -0.26525E-07   108   0.164E-03    0.632E-04
DAV:  11    -0.104715441088E+03   -0.16693E-05   -0.57921E-08   120   0.903E-04    0.424E-04
DAV:  12    -0.104715443474E+03   -0.23860E-05   -0.58237E-08   108   0.632E-04    0.116E-04
DAV:  13    -0.104715444780E+03   -0.13063E-05   -0.20711E-08   108   0.376E-04    0.143E-04
DAV:  14    -0.104715446157E+03   -0.13774E-05   -0.19290E-08    96   0.319E-04    0.678E-05
DAV:  15    -0.104715446728E+03   -0.57027E-06   -0.30323E-09   120   0.207E-04
  46 F= -.10471545E+03 E0= -.10471545E+03  d E =-.162102E-10
       N       E                     dE             d eps       ncg     rms          rms(c)
DAV:   1    -0.104713521488E+03    0.19247E-02   -0.34650E-01    96   0.184E+00    0.271E-01
DAV:   2    -0.104715690683E+03   -0.21692E-02   -0.22370E-02   132   0.536E-01    0.162E-01
DAV:   3    -0.104715587283E+03    0.10340E-03   -0.58237E-04   132   0.101E-01    0.890E-02
DAV:   4    -0.104715583722E+03    0.35603E-05   -0.31916E-04   120   0.698E-02    0.166E-02
DAV:   5    -0.104715576707E+03    0.70153E-05   -0.72134E-05   144   0.314E-02    0.130E-02
DAV:   6    -0.104715581182E+03   -0.44755E-05   -0.13095E-05   132   0.115E-02    0.848E-03
DAV:   7    -0.104715600835E+03   -0.19652E-04   -0.29554E-06   132   0.611E-03    0.319E-03
DAV:   8    -0.104715623337E+03   -0.22502E-04   -0.19829E-06   120   0.441E-03    0.114E-03
DAV:   9    -0.104715645343E+03   -0.22006E-04   -0.20516E-06   108   0.365E-03    0.134E-03
DAV:  10    -0.104715665343E+03   -0.20000E-04   -0.20119E-06   120   0.320E-03    0.588E-04
DAV:  11    -0.104715671614E+03   -0.62702E-05   -0.27826E-07   108   0.145E-03    0.290E-04
DAV:  12    -0.104715676332E+03   -0.47187E-05   -0.21110E-07    96   0.997E-04    0.216E-04
DAV:  13    -0.104715678696E+03   -0.23638E-05   -0.67197E-08   108   0.592E-04    0.186E-04
DAV:  14    -0.104715680450E+03   -0.17538E-05   -0.48365E-08    96   0.498E-04    0.755E-05
DAV:  15    -0.104715680843E+03   -0.39273E-06   -0.80083E-10   120   0.211E-04
  47 F= -.10471568E+03 E0= -.10471568E+03  d E =-.199801E-10
       N       E                     dE             d eps       ncg     rms          rms(c)
DAV:   1    -0.104713997724E+03    0.16827E-02   -0.17078E-01    96   0.132E+00    0.189E-01
DAV:   2    -0.104715011855E+03   -0.10141E-02   -0.10560E-02   120   0.369E-01    0.110E-01
DAV:   3    -0.104714963338E+03    0.48516E-04   -0.27462E-04   144   0.668E-02    0.582E-02
DAV:   4    -0.104714953351E+03    0.99874E-05   -0.11877E-04   120   0.415E-02    0.109E-02
DAV:   5    -0.104714946913E+03    0.64377E-05   -0.20518E-05   144   0.172E-02    0.773E-03
DAV:   6    -0.104714946269E+03    0.64389E-06   -0.40823E-06   132   0.766E-03
  48 F= -.10471495E+03 E0= -.10471495E+03  d E =-.166215E-10
       N       E                     dE             d eps       ncg     rms          rms(c)
DAV:   1    -0.104713287290E+03    0.16596E-02   -0.35165E-01    96   0.184E+00    0.261E-01
DAV:   2    -0.104715389597E+03   -0.21023E-02   -0.21427E-02   132   0.534E-01    0.169E-01
DAV:   3    -0.104715329913E+03    0.59683E-04   -0.57445E-04   144   0.101E-01    0.866E-02
DAV:   4    -0.104715326714E+03    0.31996E-05   -0.30324E-04   120   0.642E-02    0.161E-02
DAV:   5    -0.104715314525E+03    0.12189E-04   -0.48123E-05   144   0.259E-02    0.113E-02
DAV:   6    -0.104715318801E+03   -0.42765E-05   -0.14551E-05   108   0.115E-02    0.647E-03
DAV:   7    -0.104715339606E+03   -0.20805E-04   -0.28082E-06   132   0.597E-03    0.247E-03
DAV:   8    -0.104715363151E+03   -0.23545E-04   -0.23270E-06   108   0.469E-03    0.116E-03
DAV:   9    -0.104715384918E+03   -0.21767E-04   -0.21789E-06   108   0.361E-03    0.123E-03
DAV:  10    -0.104715404245E+03   -0.19327E-04   -0.18333E-06   120   0.298E-03    0.390E-04
DAV:  11    -0.104715409138E+03   -0.48934E-05   -0.17664E-07   108   0.115E-03    0.269E-04
DAV:  12    -0.104715415121E+03   -0.59830E-05   -0.34097E-07    96   0.119E-03    0.184E-04
DAV:  13    -0.104715416404E+03   -0.12823E-05   -0.41467E-08   120   0.495E-04    0.148E-04
DAV:  14    -0.104715417791E+03   -0.13876E-05   -0.27042E-08    96   0.431E-04    0.691E-05
DAV:  15    -0.104715418368E+03   -0.57699E-06   -0.71359E-09   108   0.263E-04
  49 F= -.10471542E+03 E0= -.10471542E+03  d E =-.204343E-10
       N       E                     dE             d eps       ncg     rms          rms(c)
DAV:   1    -0.104714286484E+03    0.11313E-02   -0.18443E-01    96   0.135E+00    0.172E-01
DAV:   2    -0.104715542762E+03   -0.12563E-02   -0.14182E-02   132   0.412E-01    0.110E-01
DAV:   3    -0.104715481796E+03    0.60966E-04   -0.29348E-04   144   0.666E-02    0.646E-02
DAV:   4    -0.104715451532E+03    0.30263E-04   -0.12467E-04   132   0.442E-02    0.104E-02
DAV:   5    -0.104715441333E+03    0.10199E-04   -0.29103E-05   144   0.201E-02    0.755E-03
DAV:   6    -0.104715439718E+03    0.16150E-05   -0.57613E-06   132   0.809E-03    0.500E-03
DAV:   7    -0.104715450548E+03   -0.10830E-04   -0.22355E-06   132   0.556E-03    0.178E-03
DAV:   8    -0.104715467051E+03   -0.16503E-04   -0.13277E-06   120   0.419E-03    0.125E-03
DAV:   9    -0.104715482693E+03   -0.15642E-04   -0.82398E-07   108   0.279E-03    0.110E-03
DAV:  10    -0.104715497893E+03   -0.15200E-04   -0.73530E-07   108   0.199E-03    0.355E-04
DAV:  11    -0.104715504489E+03   -0.65961E-05   -0.19882E-07   108   0.100E-03    0.290E-04
DAV:  12    -0.104715511829E+03   -0.73402E-05   -0.19034E-07    96   0.959E-04    0.135E-04
DAV:  13    -0.104715513560E+03   -0.17307E-05   -0.36053E-08   120   0.464E-04    0.122E-04
DAV:  14    -0.104715515422E+03   -0.18617E-05   -0.16230E-08    96   0.369E-04    0.768E-05
DAV:  15    -0.104715516462E+03   -0.10399E-05   -0.11244E-08   108   0.275E-04    0.453E-05
DAV:  16    -0.104715516951E+03   -0.48949E-06    0.23323E-09   108   0.163E-04
  50 F= -.10471552E+03 E0= -.10471552E+03  d E =-.227143E-10
       N       E                     dE             d eps       ncg     rms          rms(c)
DAV:   1    -0.104713887404E+03    0.16291E-02   -0.40331E-01   108   0.161E+00    0.217E-01
DAV:   2    -0.104715592265E+03   -0.17049E-02   -0.20720E-02   120   0.408E-01    0.131E-01
DAV:   3    -0.104715472721E+03    0.11954E-03   -0.32313E-04   132   0.633E-02    0.722E-02
DAV:   4    -0.104715417496E+03    0.55225E-04   -0.14707E-04   132   0.462E-02    0.117E-02
DAV:   5    -0.104715410373E+03    0.71231E-05   -0.33175E-05   144   0.212E-02    0.849E-03
DAV:   6    -0.104715420643E+03   -0.10270E-04   -0.10282E-05   132   0.862E-03    0.529E-03
DAV:   7    -0.104715444634E+03   -0.23991E-04   -0.16885E-06   108   0.382E-03    0.248E-03
DAV:   8    -0.104715480834E+03   -0.36200E-04   -0.42239E-06   120   0.468E-03    0.148E-03
DAV:   9    -0.104715503262E+03   -0.22428E-04   -0.16778E-06   120   0.307E-03    0.112E-03
DAV:  10    -0.104715524986E+03   -0.21724E-04   -0.19054E-06   108   0.281E-03    0.444E-04
DAV:  11    -0.104715532070E+03   -0.70839E-05   -0.23863E-07   108   0.126E-03    0.367E-04
DAV:  12    -0.104715539286E+03   -0.72159E-05   -0.33938E-07    96   0.123E-03    0.214E-04
DAV:  13    -0.104715540956E+03   -0.16698E-05   -0.53393E-08   108   0.535E-04    0.194E-04
DAV:  14    -0.104715542780E+03   -0.18246E-05   -0.27294E-08    84   0.445E-04    0.534E-05
DAV:  15    -0.104715543312E+03   -0.53233E-06   -0.49847E-09   120   0.252E-04
  51 F= -.10471554E+03 E0= -.10471554E+03  d E =-.147142E-10
       N       E                     dE             d eps       ncg     rms          rms(c)
DAV:   1    -0.104715250271E+03    0.29251E-03   -0.20291E-01    96   0.117E+00    0.152E-01
DAV:   2    -0.104715999937E+03   -0.74967E-03   -0.91248E-03   120   0.269E-01    0.802E-02
DAV:   3    -0.104715955855E+03    0.44082E-04   -0.17924E-04   156   0.450E-02    0.418E-02
DAV:   4    -0.104715929241E+03    0.26614E-04   -0.41336E-05   132   0.256E-02    0.873E-03
DAV:   5    -0.104715921589E+03    0.76524E-05   -0.92766E-06   132   0.124E-02    0.520E-03
DAV:   6    -0.104715922749E+03   -0.11602E-05   -0.30366E-06   132   0.586E-03    0.298E-03
DAV:   7    -0.104715930178E+03   -0.74293E-05   -0.10321E-06   120   0.389E-03    0.124E-03
DAV:   8    -0.104715940650E+03   -0.10472E-04   -0.63865E-07   108   0.288E-03    0.927E-04
DAV:   9    -0.104715954505E+03   -0.13855E-04   -0.10020E-06   120   0.249E-03    0.525E-04
DAV:  10    -0.104715963738E+03   -0.92324E-05   -0.40375E-07   108   0.161E-03    0.363E-04
DAV:  11    -0.104715968023E+03   -0.42856E-05   -0.10546E-07   108   0.802E-04    0.245E-04
DAV:  12    -0.104715973263E+03   -0.52392E-05   -0.14716E-07    96   0.833E-04    0.135E-04
DAV:  13    -0.104715974016E+03   -0.75326E-06   -0.12000E-08   120   0.346E-04
  52 F= -.10471597E+03 E0= -.10471597E+03  d E =-.392937E-10
       N       E                     dE             d eps       ncg     rms          rms(c)
DAV:   1    -0.104714249646E+03    0.17236E-02   -0.40651E-01    96   0.162E+00    0.217E-01
DAV:   2    -0.104715815776E+03   -0.15661E-02   -0.19247E-02   120   0.389E-01    0.120E-01
DAV:   3    -0.104715713320E+03    0.10246E-03   -0.34681E-04   144   0.625E-02    0.640E-02
DAV:   4    -0.104715645569E+03    0.67752E-04   -0.94703E-05   132   0.372E-02    0.123E-02
DAV:   5    -0.104715639671E+03    0.58973E-05   -0.19563E-05   132   0.175E-02    0.744E-03
DAV:   6    -0.104715655866E+03   -0.16194E-04   -0.78199E-06   132   0.892E-03    0.410E-03
DAV:   7    -0.104715685961E+03   -0.30095E-04   -0.39169E-06   120   0.616E-03    0.199E-03
DAV:   8    -0.104715721653E+03   -0.35692E-04   -0.32784E-06   120   0.471E-03    0.128E-03
DAV:   9    -0.104715746760E+03   -0.25107E-04   -0.23196E-06   120   0.349E-03    0.875E-04
DAV:  10    -0.104715764430E+03   -0.17670E-04   -0.13164E-06   120   0.238E-03    0.468E-04
DAV:  11    -0.104715772582E+03   -0.81515E-05   -0.36685E-07   108   0.130E-03    0.326E-04
DAV:  12    -0.104715778706E+03   -0.61241E-05   -0.34434E-07   108   0.114E-03    0.177E-04
DAV:  13    -0.104715780523E+03   -0.18166E-05   -0.56538E-08   108   0.544E-04    0.929E-05
DAV:  14    -0.104715781516E+03   -0.99327E-06   -0.10414E-08   108   0.315E-04
  53 F= -.10471578E+03 E0= -.10471578E+03  d E =-.117234E-10
       N       E                     dE             d eps       ncg     rms          rms(c)
DAV:   1    -0.104715878873E+03   -0.98350E-04   -0.20530E-01    96   0.115E+00    0.155E-01
DAV:   2    -0.104716565228E+03   -0.68635E-03   -0.82997E-03   132   0.261E-01    0.727E-02
DAV:   3    -0.104716531991E+03    0.33236E-04   -0.18193E-04   144   0.471E-02    0.379E-02
DAV:   4    -0.104716518448E+03    0.13543E-04   -0.42021E-05   132   0.295E-02    0.905E-03
DAV:   5    -0.104716514733E+03    0.37148E-05   -0.14309E-05   144   0.146E-02    0.650E-03
DAV:   6    -0.104716515085E+03   -0.35136E-06   -0.21964E-06   144   0.479E-03
  54 F= -.10471652E+03 E0= -.10471652E+03  d E =-.155215E-10
       N       E                     dE             d eps       ncg     rms          rms(c)
DAV:   1    -0.104715451446E+03    0.10633E-02   -0.41082E-01    96   0.164E+00    0.215E-01
DAV:   2    -0.104716803905E+03   -0.13525E-02   -0.16276E-02   132   0.352E-01    0.996E-02
DAV:   3    -0.104716749489E+03    0.54416E-04   -0.36567E-04   156   0.659E-02    0.515E-02
DAV:   4    -0.104716732486E+03    0.17003E-04   -0.82119E-05   132   0.400E-02    0.133E-02
DAV:   5    -0.104716728874E+03    0.36126E-05   -0.24606E-05   144   0.195E-02    0.866E-03
DAV:   6    -0.104716730895E+03   -0.20214E-05   -0.40156E-06   132   0.690E-03    0.545E-03
DAV:   7    -0.104716738201E+03   -0.73055E-05   -0.86662E-07   108   0.413E-03    0.173E-03
DAV:   8    -0.104716746981E+03   -0.87804E-05   -0.97221E-07   120   0.359E-03    0.125E-03
DAV:   9    -0.104716762640E+03   -0.15659E-04   -0.10345E-06   120   0.357E-03    0.560E-04
DAV:  10    -0.104716769514E+03   -0.68741E-05   -0.45636E-07   108   0.214E-03    0.632E-04
DAV:  11    -0.104716771992E+03   -0.24779E-05   -0.74990E-08   120   0.971E-04    0.474E-04
DAV:  12    -0.104716778194E+03   -0.62018E-05   -0.19857E-07    96   0.106E-03    0.205E-04
DAV:  13    -0.104716780298E+03   -0.21037E-05   -0.57204E-08   108   0.565E-04    0.259E-04
DAV:  14    -0.104716782192E+03   -0.18943E-05   -0.28152E-08   108   0.441E-04    0.620E-05
DAV:  15    -0.104716783040E+03   -0.84759E-06   -0.10866E-08   108   0.290E-04
  55 F= -.10471678E+03 E0= -.10471678E+03  d E =-.317434E-10
       N       E                     dE             d eps       ncg     rms          rms(c)
DAV:   1    -0.104715652113E+03    0.11301E-02   -0.20385E-01    96   0.125E+00    0.159E-01
DAV:   2    -0.104716589784E+03   -0.93767E-03   -0.11101E-02   132   0.294E-01    0.728E-02
DAV:   3    -0.104716563578E+03    0.26206E-04   -0.27032E-04   144   0.530E-02    0.405E-02
DAV:   4    -0.104716547002E+03    0.16576E-04   -0.47375E-05   132   0.302E-02    0.106E-02
DAV:   5    -0.104716542554E+03    0.44480E-05   -0.16286E-05   156   0.160E-02    0.696E-03
DAV:   6    -0.104716544076E+03   -0.15218E-05   -0.22578E-06   132   0.547E-03    0.432E-03
DAV:   7    -0.104716549786E+03   -0.57106E-05   -0.56282E-07   108   0.291E-03    0.190E-03
DAV:   8    -0.104716558672E+03   -0.88854E-05   -0.87520E-07   120   0.308E-03    0.954E-04
DAV:   9    -0.104716570012E+03   -0.11341E-04   -0.90164E-07   120   0.280E-03    0.553E-04
DAV:  10    -0.104716573886E+03   -0.38734E-05   -0.23516E-07   108   0.151E-03    0.550E-04
DAV:  11    -0.104716576165E+03   -0.22798E-05   -0.64434E-08   108   0.756E-04    0.320E-04
DAV:  12    -0.104716579642E+03   -0.34768E-05   -0.15626E-07    96   0.837E-04    0.199E-04
DAV:  13    -0.104716580543E+03   -0.90093E-06   -0.23381E-08   120   0.381E-04
  56 F= -.10471658E+03 E0= -.10471658E+03  d E =-.159089E-10
       N       E                     dE             d eps       ncg     rms          rms(c)
DAV:   1    -0.104715380239E+03    0.11994E-02   -0.41108E-01    96   0.169E+00    0.217E-01
DAV:   2    -0.104716749582E+03   -0.13693E-02   -0.16483E-02   132   0.358E-01    0.101E-01
DAV:   3    -0.104716687288E+03    0.62294E-04   -0.36384E-04   144   0.664E-02    0.526E-02
DAV:   4    -0.104716663231E+03    0.24057E-04   -0.84369E-05   132   0.421E-02    0.129E-02
DAV:   5    -0.104716657527E+03    0.57038E-05   -0.30006E-05   144   0.212E-02    0.943E-03
DAV:   6    -0.104716658144E+03   -0.61695E-06   -0.39950E-06   132   0.656E-03
  57 F= -.10471666E+03 E0= -.10471666E+03  d E =-.276012E-10
       N       E                     dE             d eps       ncg     rms          rms(c)
DAV:   1    -0.104715050724E+03    0.16068E-02   -0.20256E-01    96   0.115E+00    0.151E-01
DAV:   2    -0.104715863457E+03   -0.81273E-03   -0.95770E-03   132   0.275E-01    0.858E-02
DAV:   3    -0.104715834390E+03    0.29067E-04   -0.16439E-04   132   0.430E-02    0.459E-02
DAV:   4    -0.104715811597E+03    0.22792E-04   -0.59281E-05   120   0.277E-02    0.854E-03
DAV:   5    -0.104715804432E+03    0.71651E-05   -0.95223E-06   132   0.120E-02    0.523E-03
DAV:   6    -0.104715807415E+03   -0.29826E-05   -0.37732E-06   120   0.608E-03    0.276E-03
DAV:   7    -0.104715816833E+03   -0.94183E-05   -0.12365E-06   120   0.377E-03    0.125E-03
DAV:   8    -0.104715828658E+03   -0.11825E-04   -0.87432E-07   108   0.264E-03    0.767E-04
DAV:   9    -0.104715839202E+03   -0.10543E-04   -0.81377E-07   120   0.206E-03    0.531E-04
DAV:  10    -0.104715847659E+03   -0.84576E-05   -0.61272E-07   120   0.155E-03    0.279E-04
DAV:  11    -0.104715850904E+03   -0.32445E-05   -0.11100E-07   108   0.763E-04    0.200E-04
DAV:  12    -0.104715854045E+03   -0.31409E-05   -0.17366E-07   108   0.812E-04    0.114E-04
DAV:  13    -0.104715854786E+03   -0.74104E-06   -0.20122E-08   108   0.361E-04
  58 F= -.10471585E+03 E0= -.10471585E+03  d E =-.115840E-10
       N       E                     dE             d eps       ncg     rms          rms(c)
DAV:   1    -0.104714645002E+03    0.12090E-02   -0.40390E-01    96   0.165E+00    0.215E-01
DAV:   2    -0.104716158793E+03   -0.15138E-02   -0.18397E-02   120   0.384E-01    0.117E-01
DAV:   3    -0.104716063247E+03    0.95546E-04   -0.34927E-04   156   0.624E-02    0.609E-02
DAV:   4    -0.104716006274E+03    0.56973E-04   -0.87736E-05   132   0.359E-02    0.123E-02
DAV:   5    -0.104715992256E+03    0.14017E-04   -0.17617E-05   132   0.170E-02    0.714E-03
DAV:   6    -0.104715995727E+03   -0.34703E-05   -0.64943E-06   132   0.858E-03    0.399E-03
DAV:   7    -0.104716011554E+03   -0.15827E-04   -0.24895E-06   132   0.572E-03    0.185E-03
DAV:   8    -0.104716033029E+03   -0.21475E-04   -0.13540E-06   120   0.387E-03    0.128E-03
DAV:   9    -0.104716055959E+03   -0.22930E-04   -0.13988E-06   120   0.301E-03    0.745E-04
DAV:  10    -0.104716072498E+03   -0.16538E-04   -0.74553E-07   120   0.194E-03    0.441E-04
DAV:  11    -0.104716081864E+03   -0.93657E-05   -0.19608E-07   108   0.106E-03    0.267E-04
DAV:  12    -0.104716089638E+03   -0.77745E-05   -0.22986E-07   108   0.964E-04    0.155E-04
DAV:  13    -0.104716092017E+03   -0.23791E-05   -0.29222E-08   108   0.442E-04    0.852E-05
DAV:  14    -0.104716093685E+03   -0.16674E-05   -0.11998E-08   108   0.315E-04    0.464E-05
DAV:  15    -0.104716094351E+03   -0.66634E-06   -0.12413E-09   108   0.190E-04
  59 F= -.10471609E+03 E0= -.10471609E+03  d E =-.378587E-10
       N       E                     dE             d eps       ncg     rms          rms(c)
DAV:   1    -0.104714611329E+03    0.14824E-02   -0.20261E-01   108   0.112E+00    0.154E-01
DAV:   2    -0.104715444515E+03   -0.83319E-03   -0.10149E-02   132   0.285E-01    0.913E-02
DAV:   3    -0.104715383992E+03    0.60523E-04   -0.16394E-04   132   0.451E-02    0.493E-02
DAV:   4    -0.104715353978E+03    0.30014E-04   -0.70775E-05   132   0.322E-02    0.833E-03
DAV:   5    -0.104715348958E+03    0.50204E-05   -0.15527E-05   132   0.147E-02    0.603E-03
DAV:   6    -0.104715353289E+03   -0.43312E-05   -0.49678E-06   144   0.609E-03    0.360E-03
DAV:   7    -0.104715364733E+03   -0.11444E-04   -0.72619E-07   108   0.269E-03    0.171E-03
DAV:   8    -0.104715383794E+03   -0.19062E-04   -0.21609E-06   108   0.326E-03    0.108E-03
DAV:   9    -0.104715397017E+03   -0.13223E-04   -0.84105E-07   120   0.221E-03    0.747E-04
DAV:  10    -0.104715409081E+03   -0.12064E-04   -0.87228E-07   108   0.190E-03    0.304E-04
DAV:  11    -0.104715413221E+03   -0.41399E-05   -0.10777E-07   108   0.861E-04    0.271E-04
DAV:  12    -0.104715417811E+03   -0.45898E-05   -0.18516E-07   108   0.899E-04    0.140E-04
DAV:  13    -0.104715418823E+03   -0.10121E-05   -0.23746E-08   120   0.380E-04    0.130E-04
DAV:  14    -0.104715419848E+03   -0.10253E-05   -0.88429E-09   108   0.301E-04    0.360E-05
DAV:  15    -0.104715420258E+03   -0.41002E-06   -0.10590E-09   108   0.194E-04
  60 F= -.10471542E+03 E0= -.10471542E+03  d E =-.255394E-10
       N       E                     dE             d eps       ncg     rms          rms(c)
DAV:   1    -0.104713818800E+03    0.16010E-02   -0.40283E-01   108   0.161E+00    0.214E-01
DAV:   2    -0.104715513595E+03   -0.16948E-02   -0.20731E-02   120   0.402E-01    0.134E-01
DAV:   3    -0.104715390842E+03    0.12275E-03   -0.31009E-04   132   0.617E-02    0.745E-02
DAV:   4    -0.104715328654E+03    0.62188E-04   -0.15459E-04   132   0.462E-02    0.118E-02
DAV:   5    -0.104715323216E+03    0.54381E-05   -0.33164E-05   144   0.210E-02    0.835E-03
DAV:   6    -0.104715336638E+03   -0.13422E-04   -0.11321E-05   132   0.872E-03    0.504E-03
DAV:   7    -0.104715364912E+03   -0.28273E-04   -0.22915E-06   120   0.435E-03    0.235E-03
DAV:   8    -0.104715405997E+03   -0.41085E-04   -0.50523E-06   108   0.499E-03    0.154E-03
DAV:   9    -0.104715428414E+03   -0.22417E-04   -0.17211E-06   120   0.298E-03    0.111E-03
DAV:  10    -0.104715450698E+03   -0.22284E-04   -0.20587E-06   108   0.282E-03    0.393E-04
DAV:  11    -0.104715458864E+03   -0.81660E-05   -0.33988E-07   108   0.134E-03    0.386E-04
DAV:  12    -0.104715465148E+03   -0.62841E-05   -0.31290E-07   108   0.112E-03    0.158E-04
DAV:  13    -0.104715466876E+03   -0.17281E-05   -0.50150E-08   108   0.502E-04    0.107E-04
DAV:  14    -0.104715468453E+03   -0.15764E-05   -0.21055E-08   108   0.373E-04    0.641E-05
DAV:  15    -0.104715468871E+03   -0.41788E-06   -0.12641E-09   120   0.193E-04
  61 F= -.10471547E+03 E0= -.10471547E+03  d E =-.133856E-10
       N       E                     dE             d eps       ncg     rms          rms(c)
DAV:   1    -0.104718692076E+03   -0.32236E-02   -0.21727E-01    96   0.140E+00    0.128E-01
DAV:   2    -0.104719047889E+03   -0.35581E-03   -0.55872E-03   132   0.226E-01    0.803E-02
DAV:   3    -0.104718982678E+03    0.65211E-04   -0.13601E-04   132   0.409E-02    0.364E-02
DAV:   4    -0.104718969372E+03    0.13306E-04   -0.62095E-05   132   0.271E-02    0.729E-03
DAV:   5    -0.104718966157E+03    0.32158E-05   -0.65715E-06   132   0.100E-02    0.541E-03
DAV:   6    -0.104718966800E+03   -0.64373E-06   -0.27706E-06   120   0.542E-03
  62 F= -.10471897E+03 E0= -.10471897E+03  d E =-.217274E-10
       N       E                     dE             d eps       ncg     rms          rms(c)
DAV:   1    -0.104718957361E+03    0.87954E-05   -0.52794E-01    96   0.229E+00    0.174E-01
DAV:   2    -0.104718832810E+03    0.12455E-03   -0.27387E-03   132   0.169E-01    0.978E-02
DAV:   3    -0.104718706018E+03    0.12679E-03   -0.39732E-04   132   0.608E-02    0.191E-02
DAV:   4    -0.104718711634E+03   -0.56155E-05   -0.62006E-05   120   0.253E-02    0.106E-02
DAV:   5    -0.104718713577E+03   -0.19426E-05   -0.26983E-06   144   0.581E-03    0.795E-03
DAV:   6    -0.104718720549E+03   -0.69724E-05   -0.19003E-06   120   0.499E-03    0.176E-03
DAV:   7    -0.104718725155E+03   -0.46059E-05   -0.10686E-06   132   0.316E-03    0.167E-03
DAV:   8    -0.104718727507E+03   -0.23520E-05   -0.10465E-07   108   0.132E-03    0.102E-03
DAV:   9    -0.104718735778E+03   -0.82708E-05   -0.45760E-07   108   0.216E-03    0.873E-04
DAV:  10    -0.104718737892E+03   -0.21145E-05   -0.15260E-07   120   0.105E-03    0.882E-04
DAV:  11    -0.104718739321E+03   -0.14289E-05   -0.27258E-08   108   0.662E-04    0.275E-04
DAV:  12    -0.104718742377E+03   -0.30562E-05   -0.13682E-07   108   0.838E-04    0.532E-04
DAV:  13    -0.104718743363E+03   -0.98572E-06   -0.26818E-08   108   0.498E-04
  63 F= -.10471874E+03 E0= -.10471874E+03  d E =-.164299E-10
       N       E                     dE             d eps       ncg     rms          rms(c)
DAV:   1    -0.104718108361E+03    0.63402E-03   -0.27237E-01    96   0.163E+00    0.147E-01
DAV:   2    -0.104718054157E+03    0.54204E-04   -0.21655E-03   132   0.137E-01    0.798E-02
DAV:   3    -0.104717954331E+03    0.99826E-04   -0.26746E-04   132   0.433E-02    0.219E-02
DAV:   4    -0.104717949762E+03    0.45694E-05   -0.51376E-05   144   0.197E-02    0.825E-03
DAV:   5    -0.104717948604E+03    0.11573E-05   -0.29099E-06   120   0.658E-03    0.406E-03
DAV:   6    -0.104717950119E+03   -0.15143E-05   -0.23821E-06   120   0.518E-03    0.134E-03
DAV:   7    -0.104717952924E+03   -0.28052E-05   -0.62147E-07   108   0.272E-03    0.846E-04
DAV:   8    -0.104717955980E+03   -0.30564E-05   -0.19213E-07   108   0.150E-03    0.493E-04
DAV:   9    -0.104717959438E+03   -0.34577E-05   -0.20168E-07   108   0.124E-03    0.249E-04
DAV:  10    -0.104717962598E+03   -0.31596E-05   -0.17485E-07   108   0.940E-04    0.169E-04
DAV:  11    -0.104717964060E+03   -0.14627E-05   -0.25494E-08   108   0.448E-04    0.105E-04
DAV:  12    -0.104717965355E+03   -0.12952E-05   -0.20948E-08   108   0.332E-04    0.763E-05
DAV:  13    -0.104717965915E+03   -0.55963E-06   -0.35960E-09   108   0.204E-04
  64 F= -.10471797E+03 E0= -.10471797E+03  d E =-.195375E-10
       N       E                     dE             d eps       ncg     rms          rms(c)
DAV:   1    -0.104717926168E+03    0.39187E-04   -0.53699E-01    96   0.220E+00    0.197E-01
DAV:   2    -0.104717775962E+03    0.15021E-03   -0.37460E-03   120   0.179E-01    0.108E-01
DAV:   3    -0.104717578913E+03    0.19705E-03   -0.48953E-04   132   0.569E-02    0.287E-02
DAV:   4    -0.104717570007E+03    0.89062E-05   -0.75574E-05   132   0.249E-02    0.114E-02
DAV:   5    -0.104717573051E+03   -0.30438E-05   -0.58442E-06   132   0.884E-03    0.542E-03
DAV:   6    -0.104717581706E+03   -0.86549E-05   -0.36020E-06   132   0.610E-03    0.164E-03
DAV:   7    -0.104717590544E+03   -0.88389E-05   -0.94553E-07   108   0.329E-03    0.111E-03
DAV:   8    -0.104717599764E+03   -0.92195E-05   -0.60857E-07   108   0.216E-03    0.619E-04
DAV:   9    -0.104717608475E+03   -0.87106E-05   -0.61106E-07   120   0.189E-03    0.320E-04
DAV:  10    -0.104717613707E+03   -0.52324E-05   -0.31370E-07   108   0.130E-03    0.213E-04
DAV:  11    -0.104717615839E+03   -0.21317E-05   -0.96946E-08   108   0.664E-04    0.147E-04
DAV:  12    -0.104717617603E+03   -0.17648E-05   -0.55663E-08   108   0.500E-04    0.826E-05
DAV:  13    -0.104717618287E+03   -0.68394E-06   -0.16579E-08   108   0.301E-04
  65 F= -.10471762E+03 E0= -.10471762E+03  d E =-.152822E-10
       N       E                     dE             d eps       ncg     rms          rms(c)
DAV:   1    -0.104719197419E+03   -0.15798E-02   -0.27181E-01    96   0.157E+00    0.144E-01
DAV:   2    -0.104719142628E+03    0.54791E-04   -0.21999E-03   132   0.141E-01    0.786E-02
DAV:   3    -0.104719041643E+03    0.10098E-03   -0.26584E-04   132   0.461E-02    0.219E-02
DAV:   4    -0.104719039737E+03    0.19056E-05   -0.62509E-05   132   0.220E-02    0.806E-03
DAV:   5    -0.104719039037E+03    0.70009E-06   -0.26607E-06   132   0.603E-03
  66 F= -.10471904E+03 E0= -.10471904E+03  d E =-.206926E-10
       N       E                     dE             d eps       ncg     rms          rms(c)
DAV:   1    -0.104719045514E+03   -0.57767E-05   -0.53524E-01    96   0.219E+00    0.170E-01
DAV:   2    -0.104718909059E+03    0.13645E-03   -0.28327E-03   132   0.156E-01    0.973E-02
DAV:   3    -0.104718775585E+03    0.13347E-03   -0.46033E-04   132   0.606E-02    0.167E-02
DAV:   4    -0.104718781864E+03   -0.62789E-05   -0.79840E-05   132   0.262E-02    0.937E-03
DAV:   5    -0.104718781361E+03    0.50285E-06   -0.21629E-06   132   0.492E-03
  67 F= -.10471878E+03 E0= -.10471878E+03  d E =-.186684E-10
       N       E                     dE             d eps       ncg     rms          rms(c)
DAV:   1    -0.104719444846E+03   -0.66298E-03   -0.26567E-01    96   0.156E+00    0.118E-01
DAV:   2    -0.104719424993E+03    0.19854E-04   -0.14029E-03   132   0.119E-01    0.684E-02
DAV:   3    -0.104719370056E+03    0.54937E-04   -0.14114E-04   132   0.350E-02    0.110E-02
DAV:   4    -0.104719371594E+03   -0.15383E-05   -0.21058E-05   132   0.144E-02    0.488E-03
DAV:   5    -0.104719371810E+03   -0.21574E-06   -0.54577E-07   108   0.288E-03
  68 F= -.10471937E+03 E0= -.10471937E+03  d E =-.191568E-10
       N       E                     dE             d eps       ncg     rms          rms(c)
DAV:   1    -0.104719669251E+03   -0.29766E-03   -0.52619E-01    96   0.233E+00    0.159E-01
DAV:   2    -0.104719556981E+03    0.11227E-03   -0.22209E-03   132   0.163E-01    0.921E-02
DAV:   3    -0.104719460035E+03    0.96946E-04   -0.35748E-04   144   0.632E-02    0.124E-02
DAV:   4    -0.104719466816E+03   -0.67805E-05   -0.62891E-05   120   0.264E-02    0.939E-03
DAV:   5    -0.104719467069E+03   -0.25373E-06   -0.15846E-06   132   0.456E-03
  69 F= -.10471947E+03 E0= -.10471947E+03  d E =-.189231E-10
       N       E                     dE             d eps       ncg     rms          rms(c)
DAV:   1    -0.104719471651E+03   -0.48354E-05   -0.26626E-01    96   0.162E+00    0.113E-01
DAV:   2    -0.104719412064E+03    0.59588E-04   -0.10838E-03   132   0.991E-02    0.651E-02
DAV:   3    -0.104719359805E+03    0.52259E-04   -0.17989E-04   132   0.376E-02    0.917E-03
DAV:   4    -0.104719361303E+03   -0.14987E-05   -0.25238E-05   132   0.156E-02    0.545E-03
DAV:   5    -0.104719361046E+03    0.25683E-06   -0.70167E-07   120   0.311E-03
  70 F= -.10471936E+03 E0= -.10471936E+03  d E =-.199429E-10
       N       E                     dE             d eps       ncg     rms          rms(c)
DAV:   1    -0.104719472880E+03   -0.11158E-03   -0.53042E-01    96   0.218E+00    0.162E-01
DAV:   2    -0.104719358352E+03    0.11453E-03   -0.22425E-03   120   0.142E-01    0.925E-02
DAV:   3    -0.104719245513E+03    0.11284E-03   -0.34322E-04   132   0.528E-02    0.156E-02
DAV:   4    -0.104719247757E+03   -0.22438E-05   -0.48519E-05   132   0.220E-02    0.819E-03
[...]
DAV:   2    -0.104719361702E+03    0.21334E-03   -0.30201E-03   132   0.180E-01    0.111E-01
DAV:   3    -0.104719205024E+03    0.15668E-03   -0.43540E-04   132   0.637E-02    0.247E-02
DAV:   4    -0.104719212589E+03   -0.75651E-05   -0.67344E-05   132   0.263E-02    0.977E-03
DAV:   5    -0.104719213357E+03   -0.76761E-06   -0.30194E-06   132   0.628E-03
 131 F= -.10471921E+03 E0= -.10471921E+03  d E =-.237810E-10
       N       E                     dE             d eps       ncg     rms          rms(c)
DAV:   1    -0.104719066893E+03    0.14570E-03   -0.26995E-01    96   0.155E+00    0.140E-01
DAV:   2    -0.104718953784E+03    0.11311E-03   -0.14644E-03   120   0.124E-01    0.782E-02
DAV:   3    -0.104718877927E+03    0.75857E-04   -0.20829E-04   132   0.461E-02    0.185E-02
DAV:   4    -0.104718881219E+03   -0.32923E-05   -0.36185E-05   132   0.196E-02    0.748E-03
DAV:   5    -0.104718881519E+03   -0.29951E-06   -0.15620E-06   120   0.468E-03
 132 F= -.10471888E+03 E0= -.10471888E+03  d E =-.171528E-10
       N       E                     dE             d eps       ncg     rms          rms(c)
DAV:   1    -0.104719399960E+03   -0.51874E-03   -0.55108E-01    96   0.228E+00    0.226E-01
DAV:   2    -0.104719102093E+03    0.29787E-03   -0.31802E-03   120   0.185E-01    0.118E-01
DAV:   3    -0.104718917685E+03    0.18441E-03   -0.47164E-04   132   0.680E-02    0.374E-02
DAV:   4    -0.104718919687E+03   -0.20023E-05   -0.10916E-04   132   0.324E-02    0.126E-02
DAV:   5    -0.104718918965E+03    0.72253E-06   -0.55252E-06   132   0.927E-03
 133 F= -.10471892E+03 E0= -.10471892E+03  d E =-.185571E-10
       N       E                     dE             d eps       ncg     rms          rms(c)
DAV:   1    -0.104718811058E+03    0.10863E-03   -0.27626E-01    96   0.207E+00    0.162E-01
DAV:   2    -0.104718718607E+03    0.92451E-04   -0.21416E-03   120   0.175E-01    0.858E-02
DAV:   3    -0.104718629389E+03    0.89218E-04   -0.21817E-04   132   0.499E-02    0.289E-02
DAV:   4    -0.104718628703E+03    0.68592E-06   -0.61246E-05   132   0.253E-02    0.840E-03
DAV:   5    -0.104718627973E+03    0.72992E-06   -0.41461E-06   120   0.787E-03
 134 F= -.10471863E+03 E0= -.10471863E+03  d E =-.194011E-10
       N       E                     dE             d eps       ncg     rms          rms(c)
DAV:   1    -0.104719363788E+03   -0.73508E-03   -0.55355E-01    96   0.257E+00    0.236E-01
DAV:   2    -0.104719025486E+03    0.33830E-03   -0.31860E-03   132   0.193E-01    0.121E-01
DAV:   3    -0.104718812516E+03    0.21297E-03   -0.45911E-04   132   0.625E-02    0.400E-02
DAV:   4    -0.104718805359E+03    0.71574E-05   -0.11494E-04   132   0.318E-02    0.124E-02
DAV:   5    -0.104718805601E+03   -0.24270E-06   -0.78322E-06   132   0.112E-02
 135 F= -.10471881E+03 E0= -.10471881E+03  d E =-.155090E-10
       N       E                     dE             d eps       ncg     rms          rms(c)
DAV:   1    -0.104718004244E+03    0.80111E-03   -0.29031E-01    96   0.185E+00    0.212E-01
DAV:   2    -0.104717759757E+03    0.24449E-03   -0.24537E-03   132   0.166E-01    0.104E-01
DAV:   3    -0.104717615123E+03    0.14463E-03   -0.41310E-04   132   0.637E-02    0.369E-02
DAV:   4    -0.104717615179E+03   -0.55810E-07   -0.12325E-04   132   0.346E-02    0.144E-02
DAV:   5    -0.104717613727E+03    0.14527E-05   -0.56264E-06   132   0.970E-03    0.643E-03
DAV:   6    -0.104717613795E+03   -0.68346E-07   -0.29325E-06   132   0.637E-03
 136 F= -.10471761E+03 E0= -.10471761E+03  d E =-.175265E-10
       N       E                     dE             d eps       ncg     rms          rms(c)
DAV:   1    -0.104718553406E+03   -0.93968E-03   -0.57406E-01    96   0.265E+00    0.275E-01
DAV:   2    -0.104718032749E+03    0.52066E-03   -0.47032E-03   132   0.237E-01    0.138E-01
DAV:   3    -0.104717730683E+03    0.30207E-03   -0.82650E-04   132   0.908E-02    0.462E-02
DAV:   4    -0.104717731440E+03   -0.75615E-06   -0.22665E-04   144   0.481E-02    0.192E-02
DAV:   5    -0.104717730722E+03    0.71715E-06   -0.86941E-06   132   0.117E-02
 137 F= -.10471773E+03 E0= -.10471773E+03  d E =-.172305E-10
       N       E                     dE             d eps       ncg     rms          rms(c)
DAV:   1    -0.104719338438E+03   -0.16070E-02   -0.28891E-01    96   0.188E+00    0.207E-01
DAV:   2    -0.104719078276E+03    0.26016E-03   -0.22761E-03   132   0.166E-01    0.101E-01
DAV:   3    -0.104718936756E+03    0.14152E-03   -0.40523E-04   132   0.642E-02    0.351E-02
DAV:   4    -0.104718937621E+03   -0.86546E-06   -0.11926E-04   132   0.344E-02    0.136E-02
DAV:   5    -0.104718936801E+03    0.82078E-06   -0.49985E-06   144   0.930E-03
 138 F= -.10471894E+03 E0= -.10471894E+03  d E =-.185953E-10
       N       E                     dE             d eps       ncg     rms          rms(c)
DAV:   1    -0.104719338295E+03   -0.40067E-03   -0.54800E-01    96   0.263E+00    0.229E-01
DAV:   2    -0.104719018143E+03    0.32015E-03   -0.32508E-03   132   0.199E-01    0.119E-01
DAV:   3    -0.104718820997E+03    0.19715E-03   -0.45455E-04   144   0.662E-02    0.377E-02
DAV:   4    -0.104718819723E+03    0.12738E-05   -0.10262E-04   132   0.319E-02    0.123E-02
DAV:   5    -0.104718820200E+03   -0.47707E-06   -0.63890E-06   132   0.100E-02
 139 F= -.10471882E+03 E0= -.10471882E+03  d E =-.167159E-10
       N       E                     dE             d eps       ncg     rms          rms(c)
DAV:   1    -0.104718695543E+03    0.12418E-03   -0.27702E-01    96   0.194E+00    0.166E-01
DAV:   2    -0.104718580392E+03    0.11515E-03   -0.18032E-03   120   0.145E-01    0.873E-02
DAV:   3    -0.104718491595E+03    0.88797E-04   -0.26097E-04   132   0.460E-02    0.269E-02
DAV:   4    -0.104718488567E+03    0.30284E-05   -0.42811E-05   144   0.196E-02    0.106E-02
DAV:   5    -0.104718486979E+03    0.15874E-05   -0.25598E-06   132   0.725E-03    0.532E-03
DAV:   6    -0.104718486921E+03    0.58092E-07   -0.22982E-06   132   0.598E-03
 140 F= -.10471849E+03 E0= -.10471849E+03  d E =-.192359E-10
       N       E                     dE             d eps       ncg     rms          rms(c)
DAV:   1    -0.104719104596E+03   -0.61762E-03   -0.55770E-01    96   0.264E+00    0.247E-01
DAV:   2    -0.104718729250E+03    0.37535E-03   -0.34096E-03   132   0.200E-01    0.124E-01
DAV:   3    -0.104718509802E+03    0.21945E-03   -0.50264E-04   144   0.653E-02    0.421E-02
DAV:   4    -0.104718500167E+03    0.96357E-05   -0.12269E-04   144   0.331E-02    0.131E-02
DAV:   5    -0.104718500322E+03   -0.15556E-06   -0.75444E-06   132   0.114E-02
 141 F= -.10471850E+03 E0= -.10471850E+03  d E =-.152649E-10
       N       E                     dE             d eps       ncg     rms          rms(c)
DAV:   1    -0.104717686858E+03    0.81331E-03   -0.27348E-01    96   0.185E+00    0.139E-01
DAV:   2    -0.104717556473E+03    0.13038E-03   -0.15083E-03   132   0.132E-01    0.786E-02
DAV:   3    -0.104717469900E+03    0.86574E-04   -0.26906E-04   132   0.520E-02    0.162E-02
DAV:   4    -0.104717475123E+03   -0.52229E-05   -0.51212E-05   144   0.237E-02    0.872E-03
DAV:   5    -0.104717475696E+03   -0.57324E-06   -0.11966E-06   132   0.432E-03
 142 F= -.10471748E+03 E0= -.10471748E+03  d E =-.171474E-10
       N       E                     dE             d eps       ncg     rms          rms(c)
DAV:   1    -0.104718148501E+03   -0.67338E-03   -0.58139E-01    96   0.263E+00    0.292E-01
DAV:   2    -0.104717626202E+03    0.52230E-03   -0.49449E-03   132   0.243E-01    0.143E-01
DAV:   3    -0.104717313221E+03    0.31298E-03   -0.85795E-04   132   0.931E-02    0.499E-02
DAV:   4    -0.104717313081E+03    0.13996E-06   -0.25033E-04   132   0.495E-02    0.182E-02
DAV:   5    -0.104717311259E+03    0.18223E-05   -0.11057E-05   132   0.129E-02    0.913E-03
DAV:   6    -0.104717311299E+03   -0.40308E-07   -0.52891E-06   120   0.868E-03
 143 F= -.10471731E+03 E0= -.10471731E+03  d E =-.181946E-10
       N       E                     dE             d eps       ncg     rms          rms(c)
DAV:   1    -0.104719612438E+03   -0.23012E-02   -0.28150E-01    96   0.184E+00    0.168E-01
DAV:   2    -0.104719399538E+03    0.21290E-03   -0.18744E-03   132   0.153E-01    0.893E-02
DAV:   3    -0.104719285220E+03    0.11432E-03   -0.33625E-04   132   0.595E-02    0.260E-02
DAV:   4    -0.104719290613E+03   -0.53926E-05   -0.84155E-05   132   0.301E-02    0.118E-02
DAV:   5    -0.104719290786E+03   -0.17341E-06   -0.29355E-06   132   0.683E-03
 144 F= -.10471929E+03 E0= -.10471929E+03  d E =-.183717E-10
       N       E                     dE             d eps       ncg     rms          rms(c)
DAV:   1    -0.104719906635E+03   -0.61602E-03   -0.54180E-01    96   0.265E+00    0.201E-01
DAV:   2    -0.104719646118E+03    0.26052E-03   -0.28806E-03   132   0.191E-01    0.112E-01
DAV:   3    -0.104719476448E+03    0.16967E-03   -0.43141E-04   132   0.663E-02    0.258E-02
DAV:   4    -0.104719481019E+03   -0.45713E-05   -0.71325E-05   120   0.280E-02    0.986E-03
DAV:   5    -0.104719481539E+03   -0.52063E-06   -0.34653E-06   144   0.691E-03
 145 F= -.10471948E+03 E0= -.10471948E+03  d E =-.166218E-10
       N       E                     dE             d eps       ncg     rms          rms(c)
DAV:   1    -0.104718911415E+03    0.56960E-03   -0.27046E-01    96   0.201E+00    0.135E-01
DAV:   2    -0.104718848671E+03    0.62744E-04   -0.18510E-03   132   0.159E-01    0.760E-02
DAV:   3    -0.104718775434E+03    0.73238E-04   -0.22014E-04   132   0.492E-02    0.190E-02
DAV:   4    -0.104718778224E+03   -0.27908E-05   -0.45147E-05   132   0.218E-02    0.724E-03
DAV:   5    -0.104718778114E+03    0.11040E-06   -0.16074E-06   108   0.513E-03
 146 F= -.10471878E+03 E0= -.10471878E+03  d E =-.193712E-10
       N       E                     dE             d eps       ncg     rms          rms(c)
DAV:   1    -0.104718753045E+03    0.25179E-04   -0.53619E-01    96   0.228E+00    0.178E-01
DAV:   2    -0.104718600410E+03    0.15263E-03   -0.31063E-03   132   0.169E-01    0.100E-01
DAV:   3    -0.104718448028E+03    0.15238E-03   -0.48442E-04   132   0.612E-02    0.201E-02
DAV:   4    -0.104718451000E+03   -0.29714E-05   -0.84045E-05   132   0.274E-02    0.101E-02
DAV:   5    -0.104718450201E+03    0.79869E-06   -0.27383E-06   132   0.572E-03
 147 F= -.10471845E+03 E0= -.10471845E+03  d E =-.158162E-10
       N       E                     dE             d eps       ncg     rms          rms(c)
DAV:   1    -0.104717450192E+03    0.10008E-02   -0.26379E-01    96   0.161E+00    0.111E-01
DAV:   2    -0.104717395304E+03    0.54887E-04   -0.10950E-03   132   0.100E-01    0.638E-02
DAV:   3    -0.104717338789E+03    0.56516E-04   -0.16606E-04   132   0.374E-02    0.105E-02
DAV:   4    -0.104717341525E+03   -0.27367E-05   -0.23358E-05   132   0.154E-02    0.581E-03
DAV:   5    -0.104717342904E+03   -0.13785E-05   -0.91163E-07   108   0.350E-03    0.383E-03
DAV:   6    -0.104717346245E+03   -0.33408E-05   -0.90965E-07   108   0.325E-03    0.716E-04
DAV:   7    -0.104717348038E+03   -0.17935E-05   -0.23559E-07   108   0.164E-03    0.644E-04
DAV:   8    -0.104717351454E+03   -0.34158E-05   -0.20216E-07    96   0.152E-03    0.270E-04
DAV:   9    -0.104717353386E+03   -0.19318E-05   -0.12583E-07   108   0.101E-03    0.235E-04
DAV:  10    -0.104717355446E+03   -0.20602E-05   -0.72789E-08   108   0.671E-04    0.117E-04
DAV:  11    -0.104717356384E+03   -0.93796E-06   -0.27651E-08   108   0.380E-04
 148 F= -.10471736E+03 E0= -.10471736E+03  d E =-.146302E-10
       N       E                     dE             d eps       ncg     rms          rms(c)
DAV:   1    -0.104717937266E+03   -0.58182E-03   -0.54214E-01    96   0.221E+00    0.205E-01
DAV:   2    -0.104717886781E+03    0.50485E-04   -0.44336E-03   132   0.189E-01    0.110E-01
DAV:   3    -0.104717693604E+03    0.19318E-03   -0.44592E-04   132   0.565E-02    0.338E-02
DAV:   4    -0.104717682274E+03    0.11330E-04   -0.10845E-04   132   0.276E-02    0.107E-02
DAV:   5    -0.104717679903E+03    0.23707E-05   -0.63209E-06   132   0.955E-03    0.553E-03
DAV:   6    -0.104717682280E+03   -0.23772E-05   -0.41471E-06   132   0.677E-03    0.179E-03
DAV:   7    -0.104717686378E+03   -0.40979E-05   -0.11815E-06   132   0.351E-03    0.134E-03
DAV:   8    -0.104717691893E+03   -0.55154E-05   -0.29069E-07   108   0.176E-03    0.562E-04
DAV:   9    -0.104717696899E+03   -0.50060E-05   -0.29812E-07   108   0.144E-03    0.385E-04
DAV:  10    -0.104717703362E+03   -0.64630E-05   -0.36424E-07    96   0.131E-03    0.206E-04
DAV:  11    -0.104717706108E+03   -0.27457E-05   -0.74786E-08   108   0.692E-04    0.163E-04
DAV:  12    -0.104717708181E+03   -0.20724E-05   -0.26872E-08   108   0.399E-04    0.104E-04
DAV:  13    -0.104717709496E+03   -0.13156E-05   -0.19022E-08   108   0.318E-04    0.461E-05
DAV:  14    -0.104717710254E+03   -0.75826E-06   -0.33666E-09   108   0.197E-04
 149 F= -.10471771E+03 E0= -.10471771E+03  d E =-.193652E-10
       N       E                     dE             d eps       ncg     rms          rms(c)
DAV:   1    -0.104719596203E+03   -0.18867E-02   -0.26613E-01    96   0.155E+00    0.127E-01
DAV:   2    -0.104719516700E+03    0.79502E-04   -0.14391E-03   120   0.126E-01    0.713E-02
DAV:   3    -0.104719445787E+03    0.70913E-04   -0.22588E-04   144   0.448E-02    0.142E-02
DAV:   4    -0.104719446537E+03   -0.74934E-06   -0.33842E-05   120   0.186E-02    0.773E-03
DAV:   5    -0.104719446835E+03   -0.29859E-06   -0.14089E-06   108   0.447E-03
 150 F= -.10471945E+03 E0= -.10471945E+03  d E =-.157506E-10
       N       E                     dE             d eps       ncg     rms          rms(c)
DAV:   1    -0.104719597318E+03   -0.15078E-03   -0.52552E-01    96   0.226E+00    0.159E-01
DAV:   2    -0.104719490467E+03    0.10685E-03   -0.22423E-03   120   0.155E-01    0.917E-02
DAV:   3    -0.104719387255E+03    0.10321E-03   -0.34644E-04   144   0.598E-02    0.133E-02
DAV:   4    -0.104719393754E+03   -0.64995E-05   -0.54658E-05   120   0.247E-02    0.918E-03
DAV:   5    -0.104719394746E+03   -0.99211E-06   -0.17529E-06   132   0.471E-03
 151 F= -.10471939E+03 E0= -.10471939E+03  d E =-.143650E-10
       N       E                     dE             d eps       ncg     rms          rms(c)
DAV:   1    -0.104717187469E+03    0.22063E-02   -0.26654E-01    96   0.161E+00    0.130E-01
DAV:   2    -0.104717146097E+03    0.41372E-04   -0.19969E-03   132   0.136E-01    0.711E-02
DAV:   3    -0.104717070535E+03    0.75562E-04   -0.21476E-04   144   0.457E-02    0.193E-02
DAV:   4    -0.104717072844E+03   -0.23096E-05   -0.54020E-05   132   0.220E-02    0.749E-03
DAV:   5    -0.104717073997E+03   -0.11532E-05   -0.21667E-06   132   0.531E-03    0.539E-03
DAV:   6    -0.104717077666E+03   -0.36683E-05   -0.15807E-06   108   0.421E-03    0.106E-03
DAV:   7    -0.104717079904E+03   -0.22388E-05   -0.56428E-07   120   0.235E-03    0.884E-04
DAV:   8    -0.104717082460E+03   -0.25558E-05   -0.11736E-07   108   0.121E-03    0.380E-04
DAV:   9    -0.104717085964E+03   -0.35033E-05   -0.21750E-07   108   0.128E-03    0.439E-04
DAV:  10    -0.104717087313E+03   -0.13497E-05   -0.67034E-08   108   0.775E-04    0.160E-04
DAV:  11    -0.104717088743E+03   -0.14294E-05   -0.65655E-08   108   0.583E-04    0.210E-04
DAV:  12    -0.104717089445E+03   -0.70190E-06   -0.21475E-08   108   0.365E-04
 152 F= -.10471709E+03 E0= -.10471709E+03  d E =-.147129E-10
       N       E                     dE             d eps       ncg     rms          rms(c)
DAV:   1    -0.104717777480E+03   -0.68874E-03   -0.54589E-01    96   0.224E+00    0.208E-01
DAV:   2    -0.104717658140E+03    0.11934E-03   -0.46417E-03   132   0.201E-01    0.113E-01
DAV:   3    -0.104717447917E+03    0.21022E-03   -0.56367E-04   132   0.655E-02    0.310E-02
DAV:   4    -0.104717444564E+03    0.33532E-05   -0.13235E-04   132   0.317E-02    0.118E-02
DAV:   5    -0.104717442665E+03    0.18988E-05   -0.54663E-06   132   0.866E-03    0.643E-03
DAV:   6    -0.104717444999E+03   -0.23341E-05   -0.45760E-06   132   0.709E-03    0.172E-03
DAV:   7    -0.104717448769E+03   -0.37696E-05   -0.13455E-06   132   0.364E-03    0.132E-03
DAV:   8    -0.104717454858E+03   -0.60899E-05   -0.33686E-07   108   0.162E-03    0.440E-04
DAV:   9    -0.104717458965E+03   -0.41068E-05   -0.20998E-07   108   0.113E-03    0.396E-04
DAV:  10    -0.104717464713E+03   -0.57478E-05   -0.28339E-07   108   0.116E-03    0.173E-04
DAV:  11    -0.104717467135E+03   -0.24218E-05   -0.75113E-08   108   0.656E-04    0.181E-04
DAV:  12    -0.104717468772E+03   -0.16369E-05   -0.19588E-08   108   0.381E-04    0.888E-05
DAV:  13    -0.104717470063E+03   -0.12914E-05   -0.15942E-08    96   0.312E-04    0.636E-05
DAV:  14    -0.104717471026E+03   -0.96255E-06   -0.10281E-08    96   0.245E-04
 153 F= -.10471747E+03 E0= -.10471747E+03  d E =-.195745E-10
       N       E                     dE             d eps       ncg     rms          rms(c)
DAV:   1    -0.104719490627E+03   -0.20206E-02   -0.26932E-01    96   0.157E+00    0.139E-01
DAV:   2    -0.104719405850E+03    0.84777E-04   -0.18040E-03   120   0.126E-01    0.759E-02
DAV:   3    -0.104719311745E+03    0.94104E-04   -0.23898E-04   132   0.408E-02    0.197E-02
DAV:   4    -0.104719307127E+03    0.46181E-05   -0.37655E-05   120   0.179E-02    0.796E-03
DAV:   5    -0.104719308570E+03   -0.14425E-05   -0.26939E-06   132   0.612E-03    0.412E-03
DAV:   6    -0.104719313248E+03   -0.46787E-05   -0.17509E-06   132   0.440E-03    0.111E-03
DAV:   7    -0.104719317646E+03   -0.43977E-05   -0.47004E-07   108   0.235E-03    0.850E-04
DAV:   8    -0.104719322950E+03   -0.53041E-05   -0.26783E-07   108   0.146E-03    0.396E-04
DAV:   9    -0.104719327444E+03   -0.44941E-05   -0.26430E-07   108   0.127E-03    0.235E-04
DAV:  10    -0.104719331062E+03   -0.36174E-05   -0.25787E-07   108   0.107E-03    0.126E-04
DAV:  11    -0.104719332263E+03   -0.12013E-05   -0.46965E-08   108   0.524E-04    0.112E-04
DAV:  12    -0.104719333074E+03   -0.81135E-06   -0.16317E-08   108   0.325E-04
 154 F= -.10471933E+03 E0= -.10471933E+03  d E =-.158064E-10
       N       E                     dE             d eps       ncg     rms          rms(c)
DAV:   1    -0.104719613695E+03   -0.28143E-03   -0.53165E-01    96   0.217E+00    0.160E-01
DAV:   2    -0.104719507925E+03    0.10577E-03   -0.21832E-03   108   0.140E-01    0.918E-02
DAV:   3    -0.104719393038E+03    0.11489E-03   -0.34294E-04   132   0.518E-02    0.151E-02
DAV:   4    -0.104719395226E+03   -0.21878E-05   -0.49472E-05   132   0.217E-02    0.768E-03
DAV:   5    -0.104719394813E+03    0.41237E-06   -0.19546E-06   132   0.493E-03
 155 F= -.10471939E+03 E0= -.10471939E+03  d E =-.216462E-10
       N       E                     dE             d eps       ncg     rms          rms(c)
DAV:   1    -0.104719163013E+03    0.23221E-03   -0.26458E-01    96   0.155E+00    0.115E-01
DAV:   2    -0.104719100516E+03    0.62498E-04   -0.11245E-03   132   0.109E-01    0.664E-02
DAV:   3    -0.104719054004E+03    0.46512E-04   -0.19134E-04   144   0.446E-02    0.889E-03
DAV:   4    -0.104719058348E+03   -0.43436E-05   -0.32089E-05   120   0.187E-02    0.671E-03
DAV:   5    -0.104719058902E+03   -0.55395E-06   -0.75710E-07   120   0.334E-03
 156 F= -.10471906E+03 E0= -.10471906E+03  d E =-.216099E-10
       N       E                     dE             d eps       ncg     rms          rms(c)
DAV:   1    -0.104719043487E+03    0.14861E-04   -0.52708E-01    96   0.226E+00    0.171E-01
DAV:   2    -0.104718929150E+03    0.11434E-03   -0.26545E-03   132   0.164E-01    0.968E-02
DAV:   3    -0.104718802682E+03    0.12647E-03   -0.37701E-04   132   0.586E-02    0.191E-02
DAV:   4    -0.104718804508E+03   -0.18255E-05   -0.56742E-05   132   0.243E-02    0.104E-02
DAV:   5    -0.104718804648E+03   -0.13980E-06   -0.26702E-06   132   0.578E-03
 157 F= -.10471880E+03 E0= -.10471880E+03  d E =-.143339E-10
