       N       E                     dE             d eps       ncg     rms          rms(c)
DAV:   1     0.241937910191E+03    0.24194E+03   -0.10248E+04   120   0.484E+02
DAV:   2    -0.262036329441E+02   -0.26814E+03   -0.25302E+03   156   0.920E+01
DAV:   3    -0.106386755465E+03   -0.80183E+02   -0.79969E+02   120   0.550E+01
DAV:   4    -0.110319494348E+03   -0.39327E+01   -0.39168E+01   120   0.177E+01
DAV:   5    -0.110415447162E+03   -0.95953E-01   -0.95843E-01   156   0.314E+00    0.164E+01
DAV:   6    -0.106717398548E+03    0.36980E+01   -0.16592E+00   108   0.439E+00    0.956E+00
DAV:   7    -0.104786909728E+03    0.19305E+01   -0.45336E+00   120   0.650E+00    0.135E+00
DAV:   8    -0.104735079873E+03    0.51830E-01   -0.33203E-01   132   0.219E+00    0.706E-01
DAV:   9    -0.104701196482E+03    0.33883E-01   -0.63286E-02   144   0.690E-01    0.401E-01
DAV:  10    -0.104700364239E+03    0.83224E-03   -0.34271E-03   132   0.206E-01    0.163E-01
DAV:  11    -0.104697695759E+03    0.26685E-02   -0.79565E-03   120   0.228E-01    0.103E-01
DAV:  12    -0.104703030864E+03   -0.53351E-02   -0.10548E-03    96   0.954E-02    0.546E-02
DAV:  13    -0.104707069829E+03   -0.40390E-02   -0.24286E-03   120   0.116E-01    0.423E-02
DAV:  14    -0.104709954658E+03   -0.28848E-02   -0.16811E-04   144   0.391E-02    0.248E-02
DAV:  15    -0.104715897439E+03   -0.59428E-02   -0.72020E-04   120   0.645E-02    0.169E-02
DAV:  16    -0.104717068692E+03   -0.11713E-02   -0.58449E-05   132   0.245E-02    0.971E-03
DAV:  17    -0.104718694777E+03   -0.16261E-02   -0.17368E-04   120   0.277E-02    0.797E-03
DAV:  18    -0.104718858537E+03   -0.16376E-03   -0.36619E-06   132   0.495E-03    0.258E-03
DAV:  19    -0.104719171765E+03   -0.31323E-03   -0.13631E-05   132   0.797E-03    0.227E-03
DAV:  20    -0.104719218795E+03   -0.47029E-04   -0.71016E-07   120   0.267E-03    0.125E-03
DAV:  21    -0.104719269679E+03   -0.50884E-04   -0.15570E-06   120   0.287E-03    0.606E-04
DAV:  22    -0.104719277543E+03   -0.78646E-05   -0.11930E-07   108   0.111E-03    0.336E-04
DAV:  23    -0.104719282041E+03   -0.44982E-05   -0.80631E-08   108   0.681E-04    0.253E-04
DAV:  24    -0.104719286038E+03   -0.39966E-05   -0.51158E-08   108   0.544E-04    0.100E-04
DAV:  25    -0.104719287028E+03   -0.99004E-06   -0.93016E-09   108   0.316E-04
   1 F= -.10471929E+03 E0= -.10471929E+03  d E =-.240070E-10
       N       E                     dE             d eps       ncg     rms          rms(c)
DAV:   1    -0.104715566114E+03    0.37199E-02   -0.82370E-02    96   0.797E-01    0.132E-01
DAV:   2    -0.104715915524E+03   -0.34941E-03   -0.40328E-03   132   0.208E-01    0.578E-02
DAV:   3    -0.104715898820E+03    0.16704E-04   -0.15909E-04   132   0.462E-02    0.304E-02
DAV:   4    -0.104715902034E+03   -0.32135E-05   -0.39216E-05   132   0.223E-02    0.907E-03
DAV:   5    -0.104715901318E+03    0.71565E-06   -0.63600E-06   132   0.969E-03
   2 F= -.10471590E+03 E0= -.10471590E+03  d E =-.242908E-10
       N       E                     dE             d eps       ncg     rms          rms(c)
DAV:   1    -0.104715203872E+03    0.69816E-03   -0.32868E-01    96   0.160E+00    0.269E-01
DAV:   2    -0.104716575685E+03   -0.13718E-02   -0.15906E-02   132   0.414E-01    0.116E-01
DAV:   3    -0.104716512631E+03    0.63054E-04   -0.63230E-04   132   0.910E-02    0.625E-02
DAV:   4    -0.104716529036E+03   -0.16404E-04   -0.15636E-04   132   0.442E-02    0.188E-02
DAV:   5    -0.104716526997E+03    0.20381E-05   -0.25413E-05   132   0.192E-02    0.106E-02
DAV:   6    -0.104716526440E+03    0.55759E-06   -0.48710E-06   132   0.759E-03
   3 F= -.10471653E+03 E0= -.10471653E+03  d E =-.231950E-10
       N       E                     dE             d eps       ncg     rms          rms(c)
DAV:   1    -0.104715534982E+03    0.99202E-03   -0.16777E-01    96   0.117E+00    0.192E-01
DAV:   2    -0.104716178599E+03   -0.64362E-03   -0.75787E-03   132   0.297E-01    0.806E-02
DAV:   3    -0.104716151939E+03    0.26659E-04   -0.30929E-04   120   0.648E-02    0.428E-02
DAV:   4    -0.104716162622E+03   -0.10682E-04   -0.71232E-05   132   0.307E-02    0.135E-02
DAV:   5    -0.104716162555E+03    0.66543E-07   -0.11490E-05   132   0.135E-02    0.716E-03
DAV:   6    -0.104716162869E+03   -0.31397E-06   -0.26516E-06   120   0.568E-03
   4 F= -.10471616E+03 E0= -.10471616E+03  d E =-.240746E-10
       N       E                     dE             d eps       ncg     rms          rms(c)
DAV:   1    -0.104714956430E+03    0.12061E-02   -0.33455E-01    96   0.166E+00    0.273E-01
DAV:   2    -0.104716233443E+03   -0.12770E-02   -0.15024E-02   132   0.421E-01    0.116E-01
DAV:   3    -0.104716176826E+03    0.56617E-04   -0.60237E-04   132   0.913E-02    0.623E-02
DAV:   4    -0.104716190553E+03   -0.13728E-04   -0.14932E-04   132   0.450E-02    0.183E-02
DAV:   5    -0.104716186984E+03    0.35693E-05   -0.26266E-05   132   0.201E-02    0.105E-02
DAV:   6    -0.104716186459E+03    0.52539E-06   -0.55482E-06   132   0.817E-03
   5 F= -.10471619E+03 E0= -.10471619E+03  d E =-.216836E-10
       N       E                     dE             d eps       ncg     rms          rms(c)
DAV:   1    -0.104714241478E+03    0.19455E-02   -0.16645E-01    96   0.119E+00    0.191E-01
DAV:   2    -0.104715066635E+03   -0.82516E-03   -0.92838E-03   120   0.326E-01    0.945E-02
DAV:   3    -0.104715022209E+03    0.44426E-04   -0.32026E-04   132   0.688E-02    0.512E-02
DAV:   4    -0.104715028134E+03   -0.59249E-05   -0.11282E-04   132   0.383E-02    0.135E-02
DAV:   5    -0.104715026647E+03    0.14867E-05   -0.18248E-05   132   0.160E-02    0.792E-03
DAV:   6    -0.104715028333E+03   -0.16854E-05   -0.32586E-06   132   0.601E-03    0.491E-03
DAV:   7    -0.104715033862E+03   -0.55292E-05   -0.49674E-07   108   0.256E-03    0.149E-03
DAV:   8    -0.104715038384E+03   -0.45218E-05   -0.34727E-07   108   0.202E-03    0.665E-04
DAV:   9    -0.104715043889E+03   -0.55048E-05   -0.29981E-07   108   0.167E-03    0.495E-04
DAV:  10    -0.104715050876E+03   -0.69869E-05   -0.63341E-07   120   0.172E-03    0.538E-04
DAV:  11    -0.104715051685E+03   -0.80973E-06   -0.30011E-08   108   0.739E-04
   6 F= -.10471505E+03 E0= -.10471505E+03  d E =-.239821E-10
       N       E                     dE             d eps       ncg     rms          rms(c)
DAV:   1    -0.104712672545E+03    0.23783E-02   -0.33477E-01    96   0.164E+00    0.275E-01
DAV:   2    -0.104714903977E+03   -0.22314E-02   -0.24447E-02   120   0.498E-01    0.169E-01
DAV:   3    -0.104714729932E+03    0.17405E-03   -0.72589E-04   132   0.108E-01    0.873E-02
DAV:   4    -0.104714735084E+03   -0.51527E-05   -0.43253E-04   120   0.693E-02    0.172E-02
DAV:   5    -0.104714724253E+03    0.10831E-04   -0.55206E-05   132   0.263E-02    0.122E-02
DAV:   6    -0.104714724208E+03    0.45373E-07   -0.10736E-05   132   0.895E-03    0.774E-03
DAV:   7    -0.104714735058E+03   -0.10850E-04   -0.10343E-06   120   0.367E-03    0.309E-03
DAV:   8    -0.104714751303E+03   -0.16245E-04   -0.18332E-06   132   0.467E-03    0.142E-03
DAV:   9    -0.104714763235E+03   -0.11932E-04   -0.89945E-07   120   0.248E-03    0.155E-03
DAV:  10    -0.104714784031E+03   -0.20796E-04   -0.11405E-06   120   0.230E-03    0.868E-04
DAV:  11    -0.104714788363E+03   -0.43322E-05   -0.13469E-07   108   0.106E-03    0.551E-04
DAV:  12    -0.104714796122E+03   -0.77590E-05   -0.22409E-07   108   0.111E-03    0.302E-04
DAV:  13    -0.104714799110E+03   -0.29878E-05   -0.82530E-08   108   0.628E-04    0.255E-04
DAV:  14    -0.104714801263E+03   -0.21528E-05   -0.19098E-08   108   0.405E-04    0.107E-04
DAV:  15    -0.104714802569E+03   -0.13059E-05   -0.18162E-08   108   0.338E-04    0.988E-05
DAV:  16    -0.104714803100E+03   -0.53118E-06    0.26960E-09   108   0.190E-04
   7 F= -.10471480E+03 E0= -.10471480E+03  d E =-.237200E-10
       N       E                     dE             d eps       ncg     rms          rms(c)
DAV:   1    -0.104714118487E+03    0.68408E-03   -0.19158E-01    96   0.131E+00    0.200E-01
DAV:   2    -0.104715435168E+03   -0.13167E-02   -0.13846E-02   132   0.405E-01    0.119E-01
DAV:   3    -0.104715358483E+03    0.76685E-04   -0.41576E-04   132   0.829E-02    0.637E-02
DAV:   4    -0.104715361010E+03   -0.25270E-05   -0.20411E-04   132   0.518E-02    0.131E-02
DAV:   5    -0.104715355893E+03    0.51175E-05   -0.33233E-05   120   0.201E-02    0.946E-03
DAV:   6    -0.104715356721E+03   -0.82837E-06   -0.37948E-06   144   0.631E-03
   8 F= -.10471536E+03 E0= -.10471536E+03  d E =-.224448E-10
       N       E                     dE             d eps       ncg     rms          rms(c)
DAV:   1    -0.104713446603E+03    0.19093E-02   -0.33963E-01    96   0.168E+00    0.258E-01
DAV:   2    -0.104715349104E+03   -0.19025E-02   -0.19669E-02   132   0.463E-01    0.153E-01
DAV:   3    -0.104715287738E+03    0.61366E-04   -0.56003E-04   132   0.873E-02    0.844E-02
DAV:   4    -0.104715284677E+03    0.30608E-05   -0.20053E-04   120   0.519E-02    0.170E-02
DAV:   5    -0.104715274179E+03    0.10498E-04   -0.36126E-05   144   0.222E-02    0.102E-02
DAV:   6    -0.104715273985E+03    0.19434E-06   -0.74879E-06   132   0.961E-03
   9 F= -.10471527E+03 E0= -.10471527E+03  d E =-.183389E-10
       N       E                     dE             d eps       ncg     rms          rms(c)
DAV:   1    -0.104713311461E+03    0.19627E-02   -0.17221E-01    96   0.118E+00    0.184E-01
DAV:   2    -0.104714430374E+03   -0.11189E-02   -0.11264E-02   132   0.358E-01    0.116E-01
DAV:   3    -0.104714407599E+03    0.22775E-04   -0.28377E-04   144   0.670E-02    0.648E-02
DAV:   4    -0.104714426303E+03   -0.18705E-04   -0.16085E-04   120   0.467E-02    0.120E-02
DAV:   5    -0.104714422229E+03    0.40742E-05   -0.35927E-05   132   0.213E-02    0.880E-03
DAV:   6    -0.104714422544E+03   -0.31475E-06   -0.65972E-06   132   0.764E-03
  10 F= -.10471442E+03 E0= -.10471442E+03  d E =-.245019E-10
       N       E                     dE             d eps       ncg     rms          rms(c)
DAV:   1    -0.104712420652E+03    0.20016E-02   -0.35566E-01    96   0.170E+00    0.288E-01
DAV:   2    -0.104714476957E+03   -0.20563E-02   -0.21208E-02   132   0.503E-01    0.174E-01
DAV:   3    -0.104714376752E+03    0.10021E-03   -0.62401E-04   132   0.106E-01    0.809E-02
DAV:   4    -0.104714406591E+03   -0.29839E-04   -0.39676E-04   120   0.697E-02    0.175E-02
DAV:   5    -0.104714391497E+03    0.15094E-04   -0.53654E-05   132   0.269E-02    0.113E-02
DAV:   6    -0.104714393320E+03   -0.18226E-05   -0.15028E-05   132   0.105E-02    0.493E-03
DAV:   7    -0.104714405076E+03   -0.11757E-04   -0.10751E-06   120   0.345E-03    0.228E-03
DAV:   8    -0.104714424399E+03   -0.19323E-04   -0.23934E-06   108   0.398E-03    0.119E-03
DAV:   9    -0.104714439446E+03   -0.15047E-04   -0.11663E-06   120   0.265E-03    0.989E-04
DAV:  10    -0.104714453726E+03   -0.14280E-04   -0.11374E-06    96   0.231E-03    0.367E-04
DAV:  11    -0.104714459070E+03   -0.53438E-05   -0.14562E-07   108   0.102E-03    0.260E-04
DAV:  12    -0.104714464562E+03   -0.54920E-05   -0.23242E-07    96   0.102E-03    0.123E-04
DAV:  13    -0.104714466349E+03   -0.17870E-05   -0.44238E-08   108   0.507E-04    0.105E-04
DAV:  14    -0.104714467961E+03   -0.16123E-05   -0.19284E-08    96   0.374E-04    0.451E-05
DAV:  15    -0.104714468484E+03   -0.52223E-06   -0.18854E-09   108   0.211E-04
  11 F= -.10471447E+03 E0= -.10471447E+03  d E =-.252056E-10
       N       E                     dE             d eps       ncg     rms          rms(c)
DAV:   1    -0.104714687312E+03   -0.21935E-03   -0.17441E-01    96   0.121E+00    0.193E-01
DAV:   2    -0.104715769132E+03   -0.10818E-02   -0.11256E-02   132   0.364E-01    0.119E-01
DAV:   3    -0.104715708462E+03    0.60670E-04   -0.30694E-04   144   0.725E-02    0.588E-02
DAV:   4    -0.104715712799E+03   -0.43365E-05   -0.18264E-04   120   0.484E-02    0.122E-02
DAV:   5    -0.104715706560E+03    0.62384E-05   -0.32861E-05   132   0.206E-02    0.859E-03
DAV:   6    -0.104715709072E+03   -0.25119E-05   -0.70318E-06   132   0.742E-03    0.471E-03
DAV:   7    -0.104715718755E+03   -0.96822E-05   -0.72429E-07   108   0.311E-03    0.196E-03
DAV:   8    -0.104715732621E+03   -0.13866E-04   -0.18503E-06   120   0.380E-03    0.112E-03
DAV:   9    -0.104715744687E+03   -0.12066E-04   -0.91462E-07   120   0.257E-03    0.814E-04
DAV:  10    -0.104715754678E+03   -0.99911E-05   -0.72494E-07    96   0.194E-03    0.337E-04
DAV:  11    -0.104715757948E+03   -0.32699E-05   -0.15057E-07   108   0.933E-04    0.257E-04
DAV:  12    -0.104715761946E+03   -0.39975E-05   -0.14452E-07    84   0.844E-04    0.123E-04
DAV:  13    -0.104715763862E+03   -0.19167E-05   -0.74177E-08   108   0.566E-04    0.110E-04
DAV:  14    -0.104715765227E+03   -0.13650E-05   -0.26679E-08    96   0.379E-04    0.667E-05
DAV:  15    -0.104715765672E+03   -0.44485E-06   -0.71578E-10   108   0.205E-04
  12 F= -.10471577E+03 E0= -.10471577E+03  d E =-.206288E-10
       N       E                     dE             d eps       ncg     rms          rms(c)
DAV:   1    -0.104714298428E+03    0.14668E-02   -0.33464E-01    96   0.166E+00    0.266E-01
DAV:   2    -0.104715962688E+03   -0.16643E-02   -0.17692E-02   144   0.441E-01    0.134E-01
DAV:   3    -0.104715907450E+03    0.55238E-04   -0.56559E-04   132   0.883E-02    0.705E-02
DAV:   4    -0.104715918895E+03   -0.11445E-04   -0.19099E-04   120   0.536E-02    0.164E-02
DAV:   5    -0.104715911672E+03    0.72229E-05   -0.43698E-05   144   0.250E-02    0.110E-02
DAV:   6    -0.104715912098E+03   -0.42601E-06   -0.66950E-06   132   0.845E-03
  13 F= -.10471591E+03 E0= -.10471591E+03  d E =-.321805E-10
       N       E                     dE             d eps       ncg     rms          rms(c)
DAV:   1    -0.104713468558E+03    0.24431E-02   -0.16948E-01    96   0.132E+00    0.192E-01
DAV:   2    -0.104714738343E+03   -0.12698E-02   -0.13097E-02   132   0.410E-01    0.115E-01
DAV:   3    -0.104714685836E+03    0.52507E-04   -0.37203E-04   144   0.793E-02    0.653E-02
DAV:   4    -0.104714706192E+03   -0.20356E-04   -0.19475E-04   132   0.564E-02    0.133E-02
DAV:   5    -0.104714704679E+03    0.15134E-05   -0.51422E-05   132   0.267E-02    0.104E-02
DAV:   6    -0.104714703687E+03    0.99168E-06   -0.58473E-06   132   0.800E-03
  14 F= -.10471470E+03 E0= -.10471470E+03  d E =-.219734E-10
       N       E                     dE             d eps       ncg     rms          rms(c)
DAV:   1    -0.104712553328E+03    0.21514E-02   -0.34817E-01    96   0.184E+00    0.262E-01
DAV:   2    -0.104714906446E+03   -0.23531E-02   -0.24065E-02   132   0.571E-01    0.174E-01
DAV:   3    -0.104714813711E+03    0.92735E-04   -0.58236E-04   132   0.105E-01    0.931E-02
DAV:   4    -0.104714827468E+03   -0.13757E-04   -0.38330E-04   120   0.766E-02    0.178E-02
DAV:   5    -0.104714813938E+03    0.13530E-04   -0.79679E-05   132   0.332E-02    0.128E-02
DAV:   6    -0.104714812525E+03    0.14126E-05   -0.17050E-05   132   0.125E-02    0.805E-03
DAV:   7    -0.104714824709E+03   -0.12184E-04   -0.21988E-06   132   0.545E-03    0.325E-03
DAV:   8    -0.104714839889E+03   -0.15180E-04   -0.13052E-06    96   0.344E-03    0.107E-03
DAV:   9    -0.104714856200E+03   -0.16311E-04   -0.17893E-06   132   0.339E-03    0.127E-03
DAV:  10    -0.104714873459E+03   -0.17260E-04   -0.17039E-06    96   0.300E-03    0.475E-04
DAV:  11    -0.104714877226E+03   -0.37664E-05   -0.15152E-07   108   0.111E-03    0.340E-04
DAV:  12    -0.104714881284E+03   -0.40583E-05   -0.14147E-07    96   0.843E-04    0.150E-04
DAV:  13    -0.104714883897E+03   -0.26129E-05   -0.10565E-07   108   0.667E-04    0.169E-04
DAV:  14    -0.104714885307E+03   -0.14095E-05   -0.32107E-08   108   0.412E-04    0.958E-05
DAV:  15    -0.104714885894E+03   -0.58777E-06   -0.37748E-09   108   0.228E-04
  15 F= -.10471489E+03 E0= -.10471489E+03  d E =-.297383E-10
       N       E                     dE             d eps       ncg     rms          rms(c)
DAV:   1    -0.104713994946E+03    0.89036E-03   -0.17305E-01    96   0.131E+00    0.188E-01
DAV:   2    -0.104715367533E+03   -0.13726E-02   -0.13976E-02   132   0.427E-01    0.130E-01
DAV:   3    -0.104715283580E+03    0.83953E-04   -0.31495E-04   144   0.788E-02    0.684E-02
DAV:   4    -0.104715287124E+03   -0.35444E-05   -0.24246E-04   120   0.602E-02    0.130E-02
DAV:   5    -0.104715279173E+03    0.79509E-05   -0.54175E-05   132   0.272E-02    0.942E-03
DAV:   6    -0.104715280417E+03   -0.12436E-05   -0.90898E-06   132   0.831E-03    0.535E-03
DAV:   7    -0.104715290982E+03   -0.10565E-04   -0.61562E-07   108   0.269E-03    0.253E-03
DAV:   8    -0.104715307800E+03   -0.16818E-04   -0.23903E-06   120   0.435E-03    0.121E-03
DAV:   9    -0.104715319813E+03   -0.12013E-04   -0.80821E-07   108   0.255E-03    0.102E-03
DAV:  10    -0.104715331716E+03   -0.11903E-04   -0.10063E-06    96   0.211E-03    0.458E-04
DAV:  11    -0.104715335479E+03   -0.37625E-05   -0.10195E-07   108   0.893E-04    0.247E-04
DAV:  12    -0.104715339568E+03   -0.40888E-05   -0.14263E-07    84   0.788E-04    0.152E-04
DAV:  13    -0.104715340993E+03   -0.14250E-05   -0.25750E-08   108   0.387E-04    0.167E-04
DAV:  14    -0.104715342469E+03   -0.14769E-05   -0.22657E-08    96   0.365E-04    0.780E-05
DAV:  15    -0.104715342825E+03   -0.35558E-06    0.98700E-10   108   0.192E-04
  16 F= -.10471534E+03 E0= -.10471534E+03  d E =-.241762E-10
       N       E                     dE             d eps       ncg     rms          rms(c)
DAV:   1    -0.104713213159E+03    0.21293E-02   -0.33966E-01    96   0.182E+00    0.263E-01
DAV:   2    -0.104715317009E+03   -0.21039E-02   -0.21839E-02   132   0.525E-01    0.157E-01
DAV:   3    -0.104715213069E+03    0.10394E-03   -0.56275E-04   132   0.977E-02    0.833E-02
DAV:   4    -0.104715217985E+03   -0.49155E-05   -0.30595E-04   132   0.678E-02    0.167E-02
DAV:   5    -0.104715208030E+03    0.99545E-05   -0.65030E-05   132   0.303E-02    0.124E-02
DAV:   6    -0.104715206823E+03    0.12074E-05   -0.12114E-05   132   0.112E-02    0.780E-03
DAV:   7    -0.104715215714E+03   -0.88906E-05   -0.21997E-06   132   0.580E-03    0.306E-03
DAV:   8    -0.104715229399E+03   -0.13685E-04   -0.13725E-06   132   0.447E-03    0.117E-03
DAV:   9    -0.104715244173E+03   -0.14774E-04   -0.98847E-07   120   0.301E-03    0.138E-03
DAV:  10    -0.104715261485E+03   -0.17312E-04   -0.87220E-07    96   0.237E-03    0.585E-04
DAV:  11    -0.104715268447E+03   -0.69620E-05   -0.29828E-07   108   0.134E-03    0.330E-04
DAV:  12    -0.104715275499E+03   -0.70519E-05   -0.18511E-07    96   0.950E-04    0.176E-04
DAV:  13    -0.104715278547E+03   -0.30487E-05   -0.67807E-08   108   0.569E-04    0.196E-04
DAV:  14    -0.104715281161E+03   -0.26136E-05   -0.39410E-08    96   0.448E-04    0.938E-05
DAV:  15    -0.104715282054E+03   -0.89302E-06   -0.68212E-09   120   0.268E-04
  17 F= -.10471528E+03 E0= -.10471528E+03  d E =-.237947E-10
       N       E                     dE             d eps       ncg     rms          rms(c)
DAV:   1    -0.104714433083E+03    0.84808E-03   -0.17303E-01    96   0.130E+00    0.186E-01
DAV:   2    -0.104715529909E+03   -0.10968E-02   -0.11374E-02   120   0.382E-01    0.117E-01
DAV:   3    -0.104715474803E+03    0.55106E-04   -0.27412E-04   144   0.686E-02    0.644E-02
DAV:   4    -0.104715459874E+03    0.14929E-04   -0.14343E-04   120   0.452E-02    0.117E-02
DAV:   5    -0.104715455463E+03    0.44104E-05   -0.23688E-05   132   0.182E-02    0.846E-03
DAV:   6    -0.104715459584E+03   -0.41212E-05   -0.61968E-06   132   0.879E-03    0.499E-03
DAV:   7    -0.104715476420E+03   -0.16836E-04   -0.26872E-06   108   0.618E-03    0.165E-03
DAV:   8    -0.104715492428E+03   -0.16008E-04   -0.11167E-06   108   0.371E-03    0.110E-03
DAV:   9    -0.104715507806E+03   -0.15378E-04   -0.10052E-06   120   0.261E-03    0.849E-04
DAV:  10    -0.104715523310E+03   -0.15504E-04   -0.15277E-06   108   0.254E-03    0.468E-04
DAV:  11    -0.104715526267E+03   -0.29572E-05   -0.94740E-08   120   0.998E-04    0.365E-04
DAV:  12    -0.104715531707E+03   -0.54397E-05   -0.32148E-07    84   0.118E-03    0.147E-04
DAV:  13    -0.104715533005E+03   -0.12974E-05   -0.50616E-08   120   0.520E-04    0.162E-04
DAV:  14    -0.104715534407E+03   -0.14028E-05   -0.28346E-08    96   0.453E-04    0.817E-05
DAV:  15    -0.104715534869E+03   -0.46152E-06   -0.87325E-09   108   0.258E-04
  18 F= -.10471553E+03 E0= -.10471553E+03  d E =-.227517E-10
       N       E                     dE             d eps       ncg     rms          rms(c)
DAV:   1    -0.104713680413E+03    0.18540E-02   -0.33683E-01    96   0.182E+00    0.263E-01
DAV:   2    -0.104715548061E+03   -0.18676E-02   -0.19622E-02   132   0.491E-01    0.145E-01
DAV:   3    -0.104715475021E+03    0.73041E-04   -0.55460E-04   132   0.930E-02    0.754E-02
DAV:   4    -0.104715471241E+03    0.37794E-05   -0.20702E-04   120   0.559E-02    0.157E-02
DAV:   5    -0.104715460510E+03    0.10731E-04   -0.40395E-05   144   0.247E-02    0.108E-02
DAV:   6    -0.104715461585E+03   -0.10745E-05   -0.70863E-06   120   0.916E-03    0.706E-03
DAV:   7    -0.104715474152E+03   -0.12568E-04   -0.16736E-06   132   0.680E-03    0.204E-03
DAV:   8    -0.104715487801E+03   -0.13649E-04   -0.22319E-06   132   0.610E-03    0.192E-03
DAV:   9    -0.104715498514E+03   -0.10713E-04   -0.67043E-07   108   0.321E-03    0.145E-03
DAV:  10    -0.104715513157E+03   -0.14643E-04   -0.54285E-07   108   0.189E-03    0.631E-04
DAV:  11    -0.104715525755E+03   -0.12598E-04   -0.70035E-07   108   0.193E-03    0.508E-04
DAV:  12    -0.104715532715E+03   -0.69593E-05   -0.22640E-07   108   0.124E-03    0.338E-04
DAV:  13    -0.104715537911E+03   -0.51963E-05   -0.14006E-07    96   0.909E-04    0.427E-04
DAV:  14    -0.104715539623E+03   -0.17121E-05   -0.24900E-08   120   0.519E-04    0.195E-04
DAV:  15    -0.104715541449E+03   -0.18262E-05   -0.25265E-08    96   0.514E-04    0.275E-04
DAV:  16    -0.104715542146E+03   -0.69708E-06   -0.43364E-09   108   0.322E-04
  19 F= -.10471554E+03 E0= -.10471554E+03  d E =-.262236E-10
       N       E                     dE             d eps       ncg     rms          rms(c)
DAV:   1    -0.104713274745E+03    0.22667E-02   -0.16827E-01    96   0.131E+00    0.186E-01
DAV:   2    -0.104714634940E+03   -0.13602E-02   -0.13852E-02   132   0.417E-01    0.119E-01
DAV:   3    -0.104714574310E+03    0.60630E-04   -0.31807E-04   156   0.733E-02    0.701E-02
DAV:   4    -0.104714564309E+03    0.10000E-04   -0.18424E-04   132   0.539E-02    0.122E-02
DAV:   5    -0.104714560181E+03    0.41287E-05   -0.51612E-05   132   0.264E-02    0.980E-03
DAV:   6    -0.104714559828E+03    0.35227E-06   -0.56728E-06   144   0.838E-03
  20 F= -.10471456E+03 E0= -.10471456E+03  d E =-.180641E-10
       N       E                     dE             d eps       ncg     rms          rms(c)
DAV:   1    -0.104712326107E+03    0.22341E-02   -0.34849E-01    96   0.184E+00    0.262E-01
DAV:   2    -0.104714769739E+03   -0.24436E-02   -0.24844E-02   132   0.579E-01    0.178E-01
DAV:   3    -0.104714667762E+03    0.10198E-03   -0.58524E-04   144   0.106E-01    0.946E-02
DAV:   4    -0.104714692428E+03   -0.24666E-04   -0.41199E-04   120   0.788E-02    0.180E-02
DAV:   5    -0.104714680386E+03    0.12043E-04   -0.86056E-05   132   0.344E-02    0.129E-02
DAV:   6    -0.104714681131E+03   -0.74497E-06   -0.18266E-05   144   0.125E-02    0.809E-03
DAV:   7    -0.104714695140E+03   -0.14009E-04   -0.19332E-06   132   0.507E-03    0.341E-03
DAV:   8    -0.104714713207E+03   -0.18067E-04   -0.17322E-06   108   0.386E-03    0.985E-04
DAV:   9    -0.104714729585E+03   -0.16378E-04   -0.17155E-06   120   0.329E-03    0.134E-03
DAV:  10    -0.104714748201E+03   -0.18616E-04   -0.17736E-06   120   0.299E-03    0.489E-04
DAV:  11    -0.104714752110E+03   -0.39090E-05   -0.12837E-07   108   0.102E-03    0.359E-04
DAV:  12    -0.104714757227E+03   -0.51169E-05   -0.21014E-07    96   0.957E-04    0.145E-04
DAV:  13    -0.104714759372E+03   -0.21453E-05   -0.78097E-08   108   0.570E-04    0.195E-04
DAV:  14    -0.104714761095E+03   -0.17231E-05   -0.36553E-08   108   0.439E-04    0.937E-05
DAV:  15    -0.104714761580E+03   -0.48446E-06   -0.20269E-09   108   0.212E-04
  21 F= -.10471476E+03 E0= -.10471476E+03  d E =-.299512E-10
       N       E                     dE             d eps       ncg     rms          rms(c)
DAV:   1    -0.104714064323E+03    0.69677E-03   -0.17020E-01    96   0.130E+00    0.182E-01
DAV:   2    -0.104715029748E+03   -0.96543E-03   -0.10124E-02   120   0.362E-01    0.108E-01
DAV:   3    -0.104714988727E+03    0.41021E-04   -0.26411E-04   132   0.659E-02    0.561E-02
DAV:   4    -0.104714985233E+03    0.34938E-05   -0.11347E-04   120   0.407E-02    0.112E-02
DAV:   5    -0.104714978540E+03    0.66938E-05   -0.20704E-05   132   0.176E-02    0.733E-03
DAV:   6    -0.104714978199E+03    0.34105E-06   -0.45060E-06   132   0.750E-03
  22 F= -.10471498E+03 E0= -.10471498E+03  d E =-.244094E-10
       N       E                     dE             d eps       ncg     rms          rms(c)
DAV:   1    -0.104712970276E+03    0.20083E-02   -0.34485E-01    96   0.181E+00    0.264E-01
DAV:   2    -0.104715149476E+03   -0.21792E-02   -0.22177E-02   132   0.530E-01    0.162E-01
DAV:   3    -0.104715078142E+03    0.71333E-04   -0.54961E-04   132   0.964E-02    0.900E-02
DAV:   4    -0.104715072839E+03    0.53036E-05   -0.27871E-04   132   0.641E-02    0.168E-02
DAV:   5    -0.104715062945E+03    0.98941E-05   -0.50152E-05   144   0.268E-02    0.120E-02
DAV:   6    -0.104715066435E+03   -0.34903E-05   -0.11001E-05   132   0.113E-02    0.748E-03
DAV:   7    -0.104715088045E+03   -0.21610E-04   -0.36150E-06   132   0.741E-03    0.234E-03
DAV:   8    -0.104715106201E+03   -0.18156E-04   -0.14828E-06    96   0.437E-03    0.139E-03
DAV:   9    -0.104715124592E+03   -0.18391E-04   -0.12222E-06   108   0.298E-03    0.104E-03
DAV:  10    -0.104715145867E+03   -0.21275E-04   -0.23081E-06   120   0.319E-03    0.733E-04
DAV:  11    -0.104715149584E+03   -0.37172E-05   -0.12760E-07   120   0.124E-03    0.573E-04
DAV:  12    -0.104715157417E+03   -0.78328E-05   -0.46653E-07    96   0.145E-03    0.213E-04
DAV:  13    -0.104715159623E+03   -0.22057E-05   -0.93847E-08   108   0.672E-04    0.247E-04
DAV:  14    -0.104715161786E+03   -0.21630E-05   -0.54866E-08    96   0.603E-04    0.112E-04
DAV:  15    -0.104715162369E+03   -0.58313E-06   -0.13832E-08   120   0.309E-04
  23 F= -.10471516E+03 E0= -.10471516E+03  d E =-.235356E-10
       N       E                     dE             d eps       ncg     rms          rms(c)
DAV:   1    -0.104715017875E+03    0.14391E-03   -0.16816E-01    96   0.125E+00    0.186E-01
DAV:   2    -0.104715867124E+03   -0.84925E-03   -0.90772E-03   132   0.350E-01    0.981E-02
DAV:   3    -0.104715836373E+03    0.30751E-04   -0.28871E-04   132   0.683E-02    0.514E-02
DAV:   4    -0.104715844574E+03   -0.82017E-05   -0.11105E-04   132   0.428E-02    0.114E-02
DAV:   5    -0.104715840780E+03    0.37944E-05   -0.24937E-05   132   0.193E-02    0.850E-03
DAV:   6    -0.104715840358E+03    0.42175E-06   -0.44580E-06   132   0.701E-03
  24 F= -.10471584E+03 E0= -.10471584E+03  d E =-.216543E-10
       N       E                     dE             d eps       ncg     rms          rms(c)
DAV:   1    -0.104714190014E+03    0.16508E-02   -0.33623E-01    96   0.180E+00    0.268E-01
DAV:   2    -0.104715878636E+03   -0.16886E-02   -0.17919E-02   132   0.473E-01    0.132E-01
DAV:   3    -0.104715833408E+03    0.45228E-04   -0.57580E-04   132   0.936E-02    0.700E-02
DAV:   4    -0.104715854194E+03   -0.20786E-04   -0.18881E-04   132   0.550E-02    0.161E-02
DAV:   5    -0.104715850165E+03    0.40291E-05   -0.41146E-05   132   0.249E-02    0.113E-02
DAV:   6    -0.104715851494E+03   -0.13295E-05   -0.66053E-06   132   0.879E-03    0.746E-03
DAV:   7    -0.104715858503E+03   -0.70086E-05   -0.86560E-07   108   0.456E-03    0.285E-03
DAV:   8    -0.104715867418E+03   -0.89150E-05   -0.13672E-06   120   0.491E-03    0.146E-03
DAV:   9    -0.104715878654E+03   -0.11236E-04   -0.76536E-07   108   0.332E-03    0.872E-04
DAV:  10    -0.104715888501E+03   -0.98470E-05   -0.59502E-07   108   0.233E-03    0.841E-04
DAV:  11    -0.104715892038E+03   -0.35373E-05   -0.16690E-07   120   0.135E-03    0.709E-04
DAV:  12    -0.104715896122E+03   -0.40840E-05   -0.82986E-08   108   0.869E-04    0.300E-04
DAV:  13    -0.104715899856E+03   -0.37345E-05   -0.11100E-07    96   0.742E-04    0.267E-04
DAV:  14    -0.104715901798E+03   -0.19411E-05   -0.28480E-08   108   0.429E-04    0.123E-04
DAV:  15    -0.104715903118E+03   -0.13201E-05   -0.22335E-08    96   0.341E-04    0.671E-05
DAV:  16    -0.104715903584E+03   -0.46601E-06    0.11828E-09   120   0.172E-04
  25 F= -.10471590E+03 E0= -.10471590E+03  d E =-.268910E-10
       N       E                     dE             d eps       ncg     rms          rms(c)
DAV:   1    -0.104714004396E+03    0.18987E-02   -0.16734E-01    96   0.128E+00    0.177E-01
DAV:   2    -0.104715219880E+03   -0.12155E-02   -0.12718E-02   132   0.394E-01    0.107E-01
DAV:   3    -0.104715160711E+03    0.59169E-04   -0.34691E-04   144   0.749E-02    0.607E-02
DAV:   4    -0.104715151006E+03    0.97050E-05   -0.14798E-04   132   0.486E-02    0.117E-02
DAV:   5    -0.104715145124E+03    0.58816E-05   -0.37382E-05   132   0.227E-02    0.921E-03
DAV:   6    -0.104715145192E+03   -0.67655E-07   -0.45773E-06   132   0.731E-03
  26 F= -.10471515E+03 E0= -.10471515E+03  d E =-.160107E-10
       N       E                     dE             d eps       ncg     rms          rms(c)
DAV:   1    -0.104712818109E+03    0.23270E-02   -0.34275E-01    96   0.164E+00    0.240E-01
DAV:   2    -0.104715095511E+03   -0.22774E-02   -0.24072E-02   132   0.483E-01    0.159E-01
DAV:   3    -0.104714972093E+03    0.12342E-03   -0.64447E-04   132   0.101E-01    0.799E-02
DAV:   4    -0.104714991475E+03   -0.19382E-04   -0.37140E-04   132   0.663E-02    0.164E-02
DAV:   5    -0.104714981565E+03    0.99098E-05   -0.59558E-05   132   0.272E-02    0.113E-02
DAV:   6    -0.104714980080E+03    0.14853E-05   -0.10973E-05   144   0.900E-03    0.660E-03
DAV:   7    -0.104714986043E+03   -0.59629E-05   -0.81083E-07   108   0.337E-03    0.287E-03
DAV:   8    -0.104714997558E+03   -0.11515E-04   -0.16161E-06   108   0.421E-03    0.114E-03
DAV:   9    -0.104715007957E+03   -0.10400E-04   -0.86152E-07   120   0.245E-03    0.125E-03
DAV:  10    -0.104715020601E+03   -0.12644E-04   -0.63916E-07   120   0.179E-03    0.507E-04
DAV:  11    -0.104715024760E+03   -0.41587E-05   -0.11607E-07   108   0.891E-04    0.343E-04
DAV:  12    -0.104715031028E+03   -0.62685E-05   -0.20387E-07   108   0.957E-04    0.155E-04
DAV:  13    -0.104715032977E+03   -0.19487E-05   -0.40247E-08   108   0.464E-04    0.159E-04
DAV:  14    -0.104715034875E+03   -0.18983E-05   -0.21277E-08   108   0.376E-04    0.769E-05
DAV:  15    -0.104715035580E+03   -0.70493E-06   -0.60009E-09   108   0.240E-04
  27 F= -.10471504E+03 E0= -.10471504E+03  d E =-.414529E-10
       N       E                     dE             d eps       ncg     rms          rms(c)
DAV:   1    -0.104715300742E+03   -0.26587E-03   -0.17135E-01    96   0.115E+00    0.158E-01
DAV:   2    -0.104716334998E+03   -0.10343E-02   -0.10933E-02   120   0.341E-01    0.103E-01
DAV:   3    -0.104716284749E+03    0.50248E-04   -0.30680E-04   132   0.703E-02    0.559E-02
DAV:   4    -0.104716284821E+03   -0.71791E-07   -0.14751E-04   132   0.441E-02    0.123E-02
DAV:   5    -0.104716280548E+03    0.42728E-05   -0.25686E-05   132   0.185E-02    0.836E-03
DAV:   6    -0.104716281901E+03   -0.13526E-05   -0.48835E-06   144   0.668E-03    0.499E-03
DAV:   7    -0.104716289409E+03   -0.75082E-05   -0.64545E-07   108   0.296E-03    0.171E-03
DAV:   8    -0.104716297443E+03   -0.80336E-05   -0.62575E-07   120   0.244E-03    0.697E-04
DAV:   9    -0.104716305590E+03   -0.81469E-05   -0.57861E-07   120   0.203E-03    0.804E-04
DAV:  10    -0.104716315014E+03   -0.94240E-05   -0.69968E-07   120   0.184E-03    0.360E-04
DAV:  11    -0.104716317247E+03   -0.22337E-05   -0.75308E-08   120   0.798E-04    0.263E-04
DAV:  12    -0.104716319832E+03   -0.25847E-05   -0.75300E-08   108   0.633E-04    0.114E-04
DAV:  13    -0.104716321384E+03   -0.15523E-05   -0.49614E-08   108   0.469E-04    0.127E-04
DAV:  14    -0.104716322282E+03   -0.89747E-06   -0.11165E-08   108   0.284E-04
  28 F= -.10471632E+03 E0= -.10471632E+03  d E =-.634444E-10
       N       E                     dE             d eps       ncg     rms          rms(c)
DAV:   1    -0.104714895239E+03    0.14261E-02   -0.33956E-01    96   0.160E+00    0.192E-01
DAV:   2    -0.104716367835E+03   -0.14726E-02   -0.15481E-02   132   0.400E-01    0.105E-01
DAV:   3    -0.104716348273E+03    0.19563E-04   -0.47578E-04   144   0.831E-02    0.510E-02
DAV:   4    -0.104716361493E+03   -0.13220E-04   -0.11883E-04   132   0.422E-02    0.143E-02
DAV:   5    -0.104716358121E+03    0.33717E-05   -0.20879E-05   132   0.182E-02    0.810E-03
DAV:   6    -0.104716359492E+03   -0.13710E-05   -0.66752E-06   132   0.859E-03    0.419E-03
DAV:   7    -0.104716363578E+03   -0.40857E-05   -0.65215E-07   108   0.316E-03    0.160E-03
DAV:   8    -0.104716368926E+03   -0.53477E-05   -0.41606E-07   108   0.264E-03    0.793E-04
DAV:   9    -0.104716376377E+03   -0.74515E-05   -0.45765E-07   108   0.247E-03    0.409E-04
DAV:  10    -0.104716382260E+03   -0.58834E-05   -0.45895E-07   108   0.206E-03    0.275E-04
DAV:  11    -0.104716385375E+03   -0.31146E-05   -0.12998E-07   108   0.121E-03    0.235E-04
DAV:  12    -0.104716387307E+03   -0.19324E-05   -0.46669E-08   108   0.588E-04    0.156E-04
DAV:  13    -0.104716388832E+03   -0.15246E-05   -0.29397E-08   108   0.406E-04    0.808E-05
DAV:  14    -0.104716389950E+03   -0.11184E-05   -0.21026E-08    96   0.323E-04    0.611E-05
DAV:  15    -0.104716390545E+03   -0.59474E-06   -0.22859E-09   108   0.207E-04
  29 F= -.10471639E+03 E0= -.10471639E+03  d E =-.493697E-10
       N       E                     dE             d eps       ncg     rms          rms(c)
DAV:   1    -0.104715405968E+03    0.98398E-03   -0.17069E-01    96   0.114E+00    0.146E-01
DAV:   2    -0.104716159428E+03   -0.75346E-03   -0.80058E-03   132   0.284E-01    0.767E-02
DAV:   3    -0.104716144209E+03    0.15219E-04   -0.24498E-04   132   0.591E-02    0.391E-02
DAV:   4    -0.104716151833E+03   -0.76240E-05   -0.68898E-05   120   0.315E-02    0.106E-02
DAV:   5    -0.104716150093E+03    0.17397E-05   -0.12910E-05   132   0.142E-02    0.626E-03
DAV:   6    -0.104716150672E+03   -0.57895E-06   -0.33466E-06   132   0.610E-03
  30 F= -.10471615E+03 E0= -.10471615E+03  d E =-.124410E-10
       N       E                     dE             d eps       ncg     rms          rms(c)
DAV:   1    -0.104714175916E+03    0.19742E-02   -0.34707E-01    96   0.160E+00    0.269E-01
DAV:   2    -0.104715719571E+03   -0.15437E-02   -0.16858E-02   132   0.429E-01    0.124E-01
DAV:   3    -0.104715666143E+03    0.53428E-04   -0.53129E-04   144   0.863E-02    0.729E-02
DAV:   4    -0.104715679814E+03   -0.13671E-04   -0.18166E-04   132   0.491E-02    0.188E-02
DAV:   5    -0.104715676295E+03    0.35193E-05   -0.34185E-05   144   0.214E-02    0.979E-03
DAV:   6    -0.104715676173E+03    0.12138E-06   -0.48841E-06   144   0.746E-03
  31 F= -.10471568E+03 E0= -.10471568E+03  d E =-.517261E-10
       N       E                     dE             d eps       ncg     rms          rms(c)
DAV:   1    -0.104714851936E+03    0.82436E-03   -0.16986E-01    96   0.125E+00    0.172E-01
DAV:   2    -0.104715935436E+03   -0.10835E-02   -0.11530E-02   132   0.366E-01    0.931E-02
DAV:   3    -0.104715892506E+03    0.42930E-04   -0.36146E-04   144   0.742E-02    0.512E-02
DAV:   4    -0.104715904278E+03   -0.11772E-04   -0.12673E-04   132   0.425E-02    0.130E-02
DAV:   5    -0.104715904417E+03   -0.13842E-06   -0.23524E-05   132   0.184E-02    0.832E-03
DAV:   6    -0.104715904631E+03   -0.21406E-06   -0.36992E-06   144   0.671E-03
  32 F= -.10471590E+03 E0= -.10471590E+03  d E =-.376634E-10
       N       E                     dE             d eps       ncg     rms          rms(c)
DAV:   1    -0.104714064020E+03    0.18404E-02   -0.34037E-01    96   0.171E+00    0.226E-01
DAV:   2    -0.104715911793E+03   -0.18478E-02   -0.19549E-02   120   0.478E-01    0.133E-01
DAV:   3    -0.104715847220E+03    0.64573E-04   -0.60981E-04   144   0.985E-02    0.742E-02
DAV:   4    -0.104715858098E+03   -0.10878E-04   -0.23582E-04   132   0.584E-02    0.169E-02
DAV:   5    -0.104715851667E+03    0.64310E-05   -0.45860E-05   132   0.251E-02    0.111E-02
DAV:   6    -0.104715851064E+03    0.60369E-06   -0.72849E-06   156   0.877E-03
  33 F= -.10471585E+03 E0= -.10471585E+03  d E =-.195199E-10
       N       E                     dE             d eps       ncg     rms          rms(c)
DAV:   1    -0.104714538144E+03    0.13135E-02   -0.17182E-01    96   0.118E+00    0.174E-01
DAV:   2    -0.104715268406E+03   -0.73026E-03   -0.80026E-03   132   0.304E-01    0.787E-02
DAV:   3    -0.104715249898E+03    0.18508E-04   -0.27207E-04   144   0.620E-02    0.418E-02
DAV:   4    -0.104715263772E+03   -0.13874E-04   -0.72628E-05   132   0.314E-02    0.116E-02
DAV:   5    -0.104715265366E+03   -0.15937E-05   -0.13398E-05   132   0.139E-02    0.660E-03
DAV:   6    -0.104715267362E+03   -0.19964E-05   -0.26982E-06   132   0.552E-03    0.399E-03
DAV:   7    -0.104715271238E+03   -0.38758E-05   -0.34181E-07   108   0.221E-03    0.131E-03
DAV:   8    -0.104715274842E+03   -0.36041E-05   -0.29527E-07   108   0.196E-03    0.589E-04
DAV:   9    -0.104715279685E+03   -0.48429E-05   -0.28466E-07   108   0.183E-03    0.335E-04
DAV:  10    -0.104715282650E+03   -0.29652E-05   -0.21564E-07   108   0.129E-03    0.355E-04
DAV:  11    -0.104715283840E+03   -0.11900E-05   -0.33822E-08   120   0.686E-04    0.227E-04
DAV:  12    -0.104715285261E+03   -0.14204E-05   -0.37743E-08   108   0.504E-04    0.917E-05
DAV:  13    -0.104715286095E+03   -0.83432E-06   -0.14557E-08   108   0.313E-04
  34 F= -.10471529E+03 E0= -.10471529E+03  d E =-.442218E-10
       N       E                     dE             d eps       ncg     rms          rms(c)
DAV:   1    -0.104713187176E+03    0.20981E-02   -0.34047E-01    96   0.174E+00    0.265E-01
DAV:   2    -0.104715305303E+03   -0.21181E-02   -0.22980E-02   132   0.517E-01    0.157E-01
DAV:   3    -0.104715148351E+03    0.15695E-03   -0.64014E-04   132   0.105E-01    0.817E-02
DAV:   4    -0.104715151428E+03   -0.30768E-05   -0.39019E-04   120   0.714E-02    0.182E-02
DAV:   5    -0.104715143258E+03    0.81700E-05   -0.57788E-05   144   0.282E-02    0.121E-02
DAV:   6    -0.104715144202E+03   -0.94398E-06   -0.98094E-06   132   0.933E-03
  35 F= -.10471514E+03 E0= -.10471514E+03  d E =-.149652E-10
       N       E                     dE             d eps       ncg     rms          rms(c)
DAV:   1    -0.104715676544E+03   -0.53329E-03   -0.17071E-01    96   0.123E+00    0.191E-01
DAV:   2    -0.104716550687E+03   -0.87414E-03   -0.94497E-03   132   0.338E-01    0.951E-02
DAV:   3    -0.104716518963E+03    0.31725E-04   -0.29591E-04   132   0.677E-02    0.530E-02
DAV:   4    -0.104716545517E+03   -0.26555E-04   -0.12161E-04   132   0.415E-02    0.126E-02
DAV:   5    -0.104716549631E+03   -0.41132E-05   -0.22694E-05   132   0.178E-02    0.808E-03
DAV:   6    -0.104716551322E+03   -0.16910E-05   -0.30240E-06   132   0.595E-03    0.533E-03
DAV:   7    -0.104716554406E+03   -0.30843E-05   -0.41109E-07    96   0.275E-03    0.167E-03
DAV:   8    -0.104716556401E+03   -0.19952E-05   -0.27857E-07   108   0.225E-03    0.614E-04
DAV:   9    -0.104716558479E+03   -0.20782E-05   -0.16525E-07   108   0.160E-03    0.469E-04
DAV:  10    -0.104716561024E+03   -0.25444E-05   -0.13634E-07    96   0.124E-03    0.446E-04
DAV:  11    -0.104716561620E+03   -0.59608E-06   -0.38818E-08   120   0.709E-04
  36 F= -.10471656E+03 E0= -.10471656E+03  d E =-.162048E-10
       N       E                     dE             d eps       ncg     rms          rms(c)
DAV:   1    -0.104714640034E+03    0.19210E-02   -0.34337E-01    96   0.170E+00    0.264E-01
DAV:   2    -0.104715890131E+03   -0.12501E-02   -0.14495E-02   132   0.421E-01    0.110E-01
DAV:   3    -0.104715850684E+03    0.39447E-04   -0.55092E-04   132   0.867E-02    0.608E-02
DAV:   4    -0.104715865164E+03   -0.14480E-04   -0.12378E-04   120   0.420E-02    0.189E-02
DAV:   5    -0.104715862964E+03    0.22001E-05   -0.22823E-05   132   0.191E-02    0.923E-03
DAV:   6    -0.104715863818E+03   -0.85454E-06   -0.52620E-06   108   0.803E-03
  37 F= -.10471586E+03 E0= -.10471586E+03  d E =-.387435E-10
       N       E                     dE             d eps       ncg     rms          rms(c)
DAV:   1    -0.104715019012E+03    0.84395E-03   -0.16792E-01    96   0.122E+00    0.175E-01
DAV:   2    -0.104716062078E+03   -0.10431E-02   -0.10802E-02   132   0.344E-01    0.865E-02
DAV:   3    -0.104716035811E+03    0.26267E-04   -0.31475E-04   132   0.668E-02    0.471E-02
DAV:   4    -0.104716049420E+03   -0.13609E-04   -0.99132E-05   132   0.353E-02    0.122E-02
DAV:   5    -0.104716048903E+03    0.51721E-06   -0.15435E-05   132   0.149E-02    0.773E-03
DAV:   6    -0.104716049112E+03   -0.20934E-06   -0.28654E-06   132   0.588E-03
  38 F= -.10471605E+03 E0= -.10471605E+03  d E =-.412134E-10
       N       E                     dE             d eps       ncg     rms          rms(c)
DAV:   1    -0.104714304672E+03    0.17442E-02   -0.34039E-01    96   0.170E+00    0.226E-01
DAV:   2    -0.104716022779E+03   -0.17181E-02   -0.18276E-02   120   0.463E-01    0.127E-01
DAV:   3    -0.104715968411E+03    0.54368E-04   -0.60424E-04   144   0.968E-02    0.697E-02
DAV:   4    -0.104715980540E+03   -0.12129E-04   -0.20481E-04   132   0.547E-02    0.169E-02
DAV:   5    -0.104715974403E+03    0.61366E-05   -0.39932E-05   132   0.237E-02    0.106E-02
DAV:   6    -0.104715974067E+03    0.33641E-06   -0.69826E-06   156   0.869E-03
  39 F= -.10471597E+03 E0= -.10471597E+03  d E =-.197190E-10
       N       E                     dE             d eps       ncg     rms          rms(c)
DAV:   1    -0.104714119858E+03    0.18545E-02   -0.16950E-01    96   0.122E+00    0.174E-01
DAV:   2    -0.104715290270E+03   -0.11704E-02   -0.12418E-02   120   0.375E-01    0.114E-01
DAV:   3    -0.104715227681E+03    0.62588E-04   -0.33542E-04   144   0.773E-02    0.603E-02
DAV:   4    -0.104715240948E+03   -0.13267E-04   -0.20385E-04   120   0.525E-02    0.124E-02
DAV:   5    -0.104715236765E+03    0.41831E-05   -0.36007E-05   144   0.220E-02    0.929E-03
DAV:   6    -0.104715235143E+03    0.16220E-05   -0.55101E-06   132   0.689E-03    0.582E-03
DAV:   7    -0.104715236623E+03   -0.14805E-05   -0.44830E-07    96   0.270E-03    0.234E-03
DAV:   8    -0.104715240245E+03   -0.36216E-05   -0.61177E-07   108   0.316E-03    0.720E-04
DAV:   9    -0.104715244409E+03   -0.41645E-05   -0.47699E-07   108   0.195E-03    0.911E-04
DAV:  10    -0.104715250994E+03   -0.65841E-05   -0.31624E-07    96   0.142E-03    0.421E-04
DAV:  11    -0.104715252837E+03   -0.18432E-05   -0.76211E-08   108   0.733E-04    0.286E-04
DAV:  12    -0.104715255822E+03   -0.29850E-05   -0.76748E-08    96   0.649E-04    0.117E-04
DAV:  13    -0.104715257375E+03   -0.15532E-05   -0.37534E-08   108   0.422E-04    0.121E-04
DAV:  14    -0.104715258608E+03   -0.12332E-05   -0.12839E-08    96   0.304E-04    0.590E-05
DAV:  15    -0.104715259162E+03   -0.55393E-06   -0.30211E-09   108   0.205E-04
  40 F= -.10471526E+03 E0= -.10471526E+03  d E =-.203833E-10
       N       E                     dE             d eps       ncg     rms          rms(c)
DAV:   1    -0.104713480258E+03    0.17784E-02   -0.34017E-01    96   0.175E+00    0.273E-01
DAV:   2    -0.104715597135E+03   -0.21169E-02   -0.22784E-02   132   0.512E-01    0.154E-01
DAV:   3    -0.104715457104E+03    0.14003E-03   -0.62628E-04   132   0.101E-01    0.878E-02
DAV:   4    -0.104715451102E+03    0.60015E-05   -0.32296E-04   120   0.669E-02    0.187E-02
DAV:   5    -0.104715444482E+03    0.66198E-05   -0.60071E-05   144   0.281E-02    0.123E-02
DAV:   6    -0.104715446829E+03   -0.23470E-05   -0.76948E-06   132   0.870E-03    0.850E-03
DAV:   7    -0.104715462018E+03   -0.15189E-04   -0.15975E-06   132   0.446E-03    0.255E-03
DAV:   8    -0.104715473557E+03   -0.11538E-04   -0.92838E-07   120   0.334E-03    0.120E-03
DAV:   9    -0.104715485951E+03   -0.12395E-04   -0.82309E-07   108   0.251E-03    0.997E-04
DAV:  10    -0.104715503814E+03   -0.17863E-04   -0.16672E-06   132   0.270E-03    0.805E-04
DAV:  11    -0.104715507738E+03   -0.39237E-05   -0.13265E-07   120   0.109E-03    0.564E-04
DAV:  12    -0.104715512744E+03   -0.50055E-05   -0.20014E-07    96   0.959E-04    0.278E-04
DAV:  13    -0.104715515724E+03   -0.29807E-05   -0.10868E-07   108   0.688E-04    0.194E-04
DAV:  14    -0.104715517742E+03   -0.20173E-05   -0.51757E-08    96   0.485E-04    0.120E-04
DAV:  15    -0.104715518190E+03   -0.44821E-06   -0.17651E-09   120   0.205E-04
  41 F= -.10471552E+03 E0= -.10471552E+03  d E =-.340676E-10
       N       E                     dE             d eps       ncg     rms          rms(c)
DAV:   1    -0.104715217614E+03    0.30013E-03   -0.17059E-01    96   0.125E+00    0.185E-01
DAV:   2    -0.104716304368E+03   -0.10868E-02   -0.11757E-02   120   0.369E-01    0.112E-01
DAV:   3    -0.104716227937E+03    0.76431E-04   -0.34460E-04   132   0.777E-02    0.576E-02
DAV:   4    -0.104716229821E+03   -0.18836E-05   -0.19815E-04   120   0.511E-02    0.127E-02
DAV:   5    -0.104716225155E+03    0.46658E-05   -0.29946E-05   144   0.202E-02    0.904E-03
DAV:   6    -0.104716225079E+03    0.75848E-07   -0.51673E-06   144   0.677E-03
  42 F= -.10471623E+03 E0= -.10471623E+03  d E =-.135319E-10
       N       E                     dE             d eps       ncg     rms          rms(c)
DAV:   1    -0.104714118634E+03    0.21065E-02   -0.34440E-01    96   0.171E+00    0.266E-01
DAV:   2    -0.104715655201E+03   -0.15366E-02   -0.17056E-02   132   0.461E-01    0.126E-01
DAV:   3    -0.104715599472E+03    0.55728E-04   -0.55681E-04   132   0.924E-02    0.712E-02
DAV:   4    -0.104715628554E+03   -0.29081E-04   -0.19857E-04   132   0.534E-02    0.193E-02
DAV:   5    -0.104715626197E+03    0.23565E-05   -0.34991E-05   120   0.227E-02    0.106E-02
DAV:   6    -0.104715625017E+03    0.11802E-05   -0.60278E-06   156   0.847E-03    0.647E-03
DAV:   7    -0.104715627981E+03   -0.29645E-05   -0.66478E-07   108   0.332E-03    0.205E-03
DAV:   8    -0.104715630952E+03   -0.29710E-05   -0.32527E-07   108   0.243E-03    0.807E-04
DAV:   9    -0.104715636146E+03   -0.51935E-05   -0.34470E-07   108   0.223E-03    0.537E-04
DAV:  10    -0.104715641914E+03   -0.57676E-05   -0.44064E-07   108   0.200E-03    0.518E-04
DAV:  11    -0.104715643291E+03   -0.13779E-05   -0.88703E-08   120   0.106E-03    0.396E-04
DAV:  12    -0.104715644307E+03   -0.10151E-05   -0.20882E-08   108   0.474E-04    0.288E-04
DAV:  13    -0.104715646493E+03   -0.21865E-05   -0.66400E-08    96   0.555E-04    0.880E-05
DAV:  14    -0.104715647733E+03   -0.12395E-05   -0.34237E-08   108   0.410E-04    0.154E-04
DAV:  15    -0.104715648337E+03   -0.60485E-06   -0.36767E-09    96   0.231E-04
  43 F= -.10471565E+03 E0= -.10471565E+03  d E =-.468760E-10
       N       E                     dE             d eps       ncg     rms          rms(c)
DAV:   1    -0.104713693111E+03    0.19546E-02   -0.16764E-01    96   0.127E+00    0.181E-01
DAV:   2    -0.104714869430E+03   -0.11763E-02   -0.12361E-02   132   0.385E-01    0.109E-01
DAV:   3    -0.104714808162E+03    0.61268E-04   -0.33765E-04   144   0.738E-02    0.596E-02
DAV:   4    -0.104714804868E+03    0.32933E-05   -0.15797E-04   132   0.478E-02    0.116E-02
DAV:   5    -0.104714799832E+03    0.50361E-05   -0.29423E-05   144   0.202E-02    0.867E-03
DAV:   6    -0.104714799446E+03    0.38648E-06   -0.41918E-06   132   0.704E-03
  44 F= -.10471480E+03 E0= -.10471480E+03  d E =-.195241E-10
       N       E                     dE             d eps       ncg     rms          rms(c)
DAV:   1    -0.104712810679E+03    0.19892E-02   -0.34996E-01    96   0.167E+00    0.254E-01
DAV:   2    -0.104715034358E+03   -0.22237E-02   -0.22509E-02   132   0.487E-01    0.167E-01
DAV:   3    -0.104714966724E+03    0.67634E-04   -0.56461E-04   132   0.901E-02    0.897E-02
DAV:   4    -0.104714952168E+03    0.14557E-04   -0.29372E-04   120   0.572E-02    0.158E-02
DAV:   5    -0.104714938249E+03    0.13919E-04   -0.43629E-05   132   0.223E-02    0.112E-02
DAV:   6    -0.104714939935E+03   -0.16861E-05   -0.11967E-05   132   0.103E-02    0.665E-03
DAV:   7    -0.104714962056E+03   -0.22121E-04   -0.41035E-06   108   0.670E-03    0.214E-03
DAV:   8    -0.104714983122E+03   -0.21066E-04   -0.18231E-06   108   0.424E-03    0.130E-03
DAV:   9    -0.104715005466E+03   -0.22344E-04   -0.19149E-06   120   0.325E-03    0.115E-03
DAV:  10    -0.104715024391E+03   -0.18925E-04   -0.17147E-06   108   0.260E-03    0.477E-04
DAV:  11    -0.104715029428E+03   -0.50366E-05   -0.15602E-07   120   0.112E-03    0.331E-04
DAV:  12    -0.104715036333E+03   -0.69045E-05   -0.44104E-07    96   0.129E-03    0.189E-04
DAV:  13    -0.104715037621E+03   -0.12885E-05   -0.43027E-08   120   0.505E-04    0.177E-04
DAV:  14    -0.104715039362E+03   -0.17413E-05   -0.40398E-08    96   0.479E-04    0.676E-05
DAV:  15    -0.104715039806E+03   -0.44379E-06   -0.56450E-09   120   0.242E-04
  45 F= -.10471504E+03 E0= -.10471504E+03  d E =-.304922E-10
       N       E                     dE             d eps       ncg     rms          rms(c)
DAV:   1    -0.104715167186E+03   -0.12782E-03   -0.17082E-01    96   0.118E+00    0.183E-01
DAV:   2    -0.104716136670E+03   -0.96948E-03   -0.10170E-02   144   0.335E-01    0.107E-01
DAV:   3    -0.104716095100E+03    0.41571E-04   -0.27532E-04   132   0.650E-02    0.558E-02
DAV:   4    -0.104716096916E+03   -0.18163E-05   -0.13531E-04   132   0.428E-02    0.116E-02
DAV:   5    -0.104716090877E+03    0.60391E-05   -0.27575E-05   132   0.194E-02    0.791E-03
DAV:   6    -0.104716090981E+03   -0.10428E-06   -0.50740E-06   132   0.668E-03
  46 F= -.10471609E+03 E0= -.10471609E+03  d E =-.246704E-10
       N       E                     dE             d eps       ncg     rms          rms(c)
DAV:   1    -0.104714762393E+03    0.13285E-02   -0.34354E-01    96   0.164E+00    0.275E-01
DAV:   2    -0.104716124822E+03   -0.13624E-02   -0.14680E-02   144   0.410E-01    0.122E-01
DAV:   3    -0.104716105478E+03    0.19344E-04   -0.54876E-04   132   0.869E-02    0.654E-02
DAV:   4    -0.104716134240E+03   -0.28762E-04   -0.15231E-04   132   0.514E-02    0.157E-02
DAV:   5    -0.104716135075E+03   -0.83488E-06   -0.43415E-05   132   0.250E-02    0.111E-02
DAV:   6    -0.104716135799E+03   -0.72396E-06   -0.59125E-06   132   0.803E-03
  47 F= -.10471614E+03 E0= -.10471614E+03  d E =-.297435E-10
       N       E                     dE             d eps       ncg     rms          rms(c)
DAV:   1    -0.104713646402E+03    0.24887E-02   -0.17259E-01    96   0.118E+00    0.192E-01
DAV:   2    -0.104714538186E+03   -0.89178E-03   -0.93947E-03   144   0.323E-01    0.100E-01
DAV:   3    -0.104714508412E+03    0.29774E-04   -0.28998E-04   132   0.652E-02    0.531E-02
DAV:   4    -0.104714523518E+03   -0.15106E-04   -0.12251E-04   132   0.425E-02    0.115E-02
DAV:   5    -0.104714522667E+03    0.85142E-06   -0.27467E-05   132   0.194E-02    0.825E-03
DAV:   6    -0.104714523896E+03   -0.12291E-05   -0.44778E-06   132   0.651E-03    0.534E-03
DAV:   7    -0.104714528224E+03   -0.43282E-05   -0.52603E-07   108   0.285E-03    0.230E-03
DAV:   8    -0.104714534217E+03   -0.59933E-05   -0.74615E-07   108   0.309E-03    0.871E-04
DAV:   9    -0.104714539919E+03   -0.57021E-05   -0.42881E-07   108   0.214E-03    0.769E-04
DAV:  10    -0.104714547224E+03   -0.73045E-05   -0.36453E-07    96   0.175E-03    0.503E-04
DAV:  11    -0.104714549509E+03   -0.22851E-05   -0.10580E-07   108   0.987E-04    0.470E-04
DAV:  12    -0.104714551445E+03   -0.19361E-05   -0.26674E-08    96   0.549E-04    0.272E-04
DAV:  13    -0.104714554262E+03   -0.28166E-05   -0.75420E-08    96   0.625E-04    0.146E-04
DAV:  14    -0.104714555528E+03   -0.12666E-05   -0.21135E-08   108   0.351E-04    0.162E-04
DAV:  15    -0.104714556336E+03   -0.80821E-06   -0.47601E-09    96   0.239E-04
  48 F= -.10471456E+03 E0= -.10471456E+03  d E =-.301275E-10
       N       E                     dE             d eps       ncg     rms          rms(c)
DAV:   1    -0.104712153624E+03    0.24019E-02   -0.35022E-01    96   0.166E+00    0.259E-01
DAV:   2    -0.104714702933E+03   -0.25493E-02   -0.26110E-02   132   0.521E-01    0.179E-01
DAV:   3    -0.104714569666E+03    0.13327E-03   -0.62406E-04   132   0.101E-01    0.935E-02
DAV:   4    -0.104714571899E+03   -0.22331E-05   -0.41316E-04   120   0.721E-02    0.176E-02
DAV:   5    -0.104714561429E+03    0.10471E-04   -0.86286E-05   132   0.315E-02    0.127E-02
DAV:   6    -0.104714568231E+03   -0.68023E-05   -0.16774E-05   132   0.106E-02    0.769E-03
DAV:   7    -0.104714593855E+03   -0.25624E-04   -0.22194E-06   120   0.463E-03    0.307E-03
DAV:   8    -0.104714621574E+03   -0.27720E-04   -0.31536E-06   132   0.485E-03    0.134E-03
DAV:   9    -0.104714647760E+03   -0.26185E-04   -0.26689E-06   108   0.365E-03    0.147E-03
DAV:  10    -0.104714667163E+03   -0.19403E-04   -0.16068E-06   120   0.267E-03    0.584E-04
DAV:  11    -0.104714673439E+03   -0.62765E-05   -0.23881E-07   108   0.120E-03    0.369E-04
DAV:  12    -0.104714680814E+03   -0.73741E-05   -0.43839E-07    96   0.127E-03    0.236E-04
DAV:  13    -0.104714682204E+03   -0.13907E-05   -0.47078E-08   120   0.486E-04    0.264E-04
DAV:  14    -0.104714684163E+03   -0.19585E-05   -0.49627E-08    96   0.505E-04    0.814E-05
DAV:  15    -0.104714684596E+03   -0.43331E-06   -0.54909E-09   120   0.246E-04
  49 F= -.10471468E+03 E0= -.10471468E+03  d E =-.198060E-10
       N       E                     dE             d eps       ncg     rms          rms(c)
DAV:   1    -0.104714947797E+03   -0.26363E-03   -0.18807E-01    96   0.134E+00    0.168E-01
DAV:   2    -0.104716199214E+03   -0.12514E-02   -0.13730E-02   132   0.386E-01    0.105E-01
DAV:   3    -0.104716137345E+03    0.61869E-04   -0.31616E-04   144   0.691E-02    0.600E-02
DAV:   4    -0.104716117352E+03    0.19994E-04   -0.15719E-04   120   0.488E-02    0.105E-02
DAV:   5    -0.104716111956E+03    0.53955E-05   -0.43783E-05   132   0.237E-02    0.896E-03
DAV:   6    -0.104716110689E+03    0.12674E-05   -0.55831E-06   132   0.749E-03    0.643E-03
DAV:   7    -0.104716117528E+03   -0.68397E-05   -0.14793E-06   132   0.467E-03    0.258E-03
DAV:   8    -0.104716129733E+03   -0.12205E-04   -0.11134E-06   108   0.404E-03    0.101E-03
DAV:   9    -0.104716143369E+03   -0.13635E-04   -0.12880E-06   120   0.316E-03    0.143E-03
DAV:  10    -0.104716155087E+03   -0.11718E-04   -0.58298E-07   108   0.223E-03    0.504E-04
DAV:  11    -0.104716159353E+03   -0.42660E-05   -0.20153E-07   108   0.114E-03    0.293E-04
DAV:  12    -0.104716164411E+03   -0.50580E-05   -0.14481E-07    96   0.860E-04    0.140E-04
DAV:  13    -0.104716166375E+03   -0.19643E-05   -0.61244E-08   108   0.524E-04    0.188E-04
DAV:  14    -0.104716167954E+03   -0.15789E-05   -0.21901E-08    96   0.357E-04    0.930E-05
DAV:  15    -0.104716168680E+03   -0.72571E-06   -0.61168E-09   108   0.250E-04
  50 F= -.10471617E+03 E0= -.10471617E+03  d E =-.473957E-10
       N       E                     dE             d eps       ncg     rms          rms(c)
DAV:   1    -0.104714806486E+03    0.13615E-02   -0.41151E-01   108   0.184E+00    0.217E-01
DAV:   2    -0.104716323320E+03   -0.15168E-02   -0.18074E-02   120   0.400E-01    0.999E-02
DAV:   3    -0.104716272863E+03    0.50458E-04   -0.45337E-04   156   0.722E-02    0.528E-02
DAV:   4    -0.104716249160E+03    0.23702E-04   -0.89777E-05   120   0.418E-02    0.124E-02
DAV:   5    -0.104716243382E+03    0.57785E-05   -0.30533E-05   132   0.212E-02    0.833E-03
DAV:   6    -0.104716244256E+03   -0.87393E-06   -0.46832E-06   132   0.726E-03
  51 F= -.10471624E+03 E0= -.10471624E+03  d E =-.241571E-10
       N       E                     dE             d eps       ncg     rms          rms(c)
DAV:   1    -0.104714888130E+03    0.13553E-02   -0.20267E-01    96   0.131E+00    0.150E-01
DAV:   2    -0.104715710402E+03   -0.82227E-03   -0.96924E-03   120   0.312E-01    0.847E-02
DAV:   3    -0.104715686287E+03    0.24115E-04   -0.18579E-04   144   0.465E-02    0.439E-02
DAV:   4    -0.104715661793E+03    0.24493E-04   -0.52682E-05   120   0.260E-02    0.848E-03
DAV:   5    -0.104715654469E+03    0.73248E-05   -0.79864E-06   132   0.112E-02    0.488E-03
DAV:   6    -0.104715657547E+03   -0.30781E-05   -0.36085E-06    96   0.686E-03    0.235E-03
DAV:   7    -0.104715667122E+03   -0.95753E-05   -0.20011E-06   132   0.460E-03    0.139E-03
DAV:   8    -0.104715678608E+03   -0.11486E-04   -0.64368E-07    96   0.234E-03    0.704E-04
DAV:   9    -0.104715689816E+03   -0.11208E-04   -0.10107E-06   108   0.222E-03    0.508E-04
DAV:  10    -0.104715698791E+03   -0.89742E-05   -0.66955E-07   108   0.177E-03    0.251E-04
DAV:  11    -0.104715702528E+03   -0.37376E-05   -0.26656E-07    96   0.103E-03    0.179E-04
DAV:  12    -0.104715705309E+03   -0.27810E-05   -0.12437E-07   108   0.724E-04    0.928E-05
DAV:  13    -0.104715705894E+03   -0.58519E-06   -0.12032E-08   108   0.300E-04
  52 F= -.10471571E+03 E0= -.10471571E+03  d E =-.192089E-10
       N       E                     dE             d eps       ncg     rms          rms(c)
DAV:   1    -0.104713803312E+03    0.19020E-02   -0.40515E-01    96   0.186E+00    0.217E-01
DAV:   2    -0.104715413656E+03   -0.16103E-02   -0.19490E-02   120   0.441E-01    0.117E-01
DAV:   3    -0.104715320050E+03    0.93606E-04   -0.37513E-04   132   0.668E-02    0.618E-02
DAV:   4    -0.104715262647E+03    0.57403E-04   -0.10952E-04   132   0.385E-02    0.121E-02
DAV:   5    -0.104715249347E+03    0.13300E-04   -0.17117E-05   132   0.169E-02    0.743E-03
DAV:   6    -0.104715251736E+03   -0.23896E-05   -0.74602E-06   132   0.103E-02    0.364E-03
DAV:   7    -0.104715266699E+03   -0.14963E-04   -0.38171E-06   132   0.700E-03    0.204E-03
DAV:   8    -0.104715288929E+03   -0.22230E-04   -0.12954E-06   120   0.399E-03    0.120E-03
DAV:   9    -0.104715309915E+03   -0.20986E-04   -0.12056E-06   120   0.295E-03    0.807E-04
DAV:  10    -0.104715329884E+03   -0.19969E-04   -0.10106E-06   108   0.220E-03    0.400E-04
DAV:  11    -0.104715338533E+03   -0.86496E-05   -0.20401E-07   108   0.116E-03    0.255E-04
DAV:  12    -0.104715346252E+03   -0.77189E-05   -0.21809E-07   108   0.962E-04    0.166E-04
DAV:  13    -0.104715348787E+03   -0.25344E-05   -0.33622E-08   108   0.467E-04    0.828E-05
DAV:  14    -0.104715350433E+03   -0.16465E-05   -0.13232E-08   108   0.339E-04    0.591E-05
DAV:  15    -0.104715351076E+03   -0.64284E-06   -0.73641E-10   108   0.200E-04
  53 F= -.10471535E+03 E0= -.10471535E+03  d E =-.484792E-10
       N       E                     dE             d eps       ncg     rms          rms(c)
DAV:   1    -0.104714050538E+03    0.12999E-02   -0.20280E-01    96   0.126E+00    0.156E-01
DAV:   2    -0.104714912054E+03   -0.86152E-03   -0.10465E-02   132   0.329E-01    0.914E-02
DAV:   3    -0.104714853102E+03    0.58952E-04   -0.18048E-04   132   0.477E-02    0.486E-02
DAV:   4    -0.104714822430E+03    0.30673E-04   -0.74333E-05   132   0.328E-02    0.838E-03
DAV:   5    -0.104714816405E+03    0.60246E-05   -0.15488E-05   132   0.147E-02    0.558E-03
DAV:   6    -0.104714821285E+03   -0.48799E-05   -0.53165E-06   132   0.654E-03    0.336E-03
DAV:   7    -0.104714833683E+03   -0.12398E-04   -0.74900E-07    96   0.280E-03    0.160E-03
DAV:   8    -0.104714852586E+03   -0.18903E-04   -0.20612E-06   108   0.332E-03    0.101E-03
DAV:   9    -0.104714866014E+03   -0.13428E-04   -0.81293E-07   108   0.228E-03    0.672E-04
DAV:  10    -0.104714878225E+03   -0.12211E-04   -0.11058E-06   108   0.206E-03    0.347E-04
DAV:  11    -0.104714883085E+03   -0.48598E-05   -0.15539E-07   108   0.107E-03    0.247E-04
DAV:  12    -0.104714886098E+03   -0.30132E-05   -0.99507E-08   108   0.724E-04    0.207E-04
DAV:  13    -0.104714887600E+03   -0.15022E-05   -0.31765E-08   108   0.436E-04    0.113E-04
DAV:  14    -0.104714888425E+03   -0.82456E-06   -0.48867E-09   108   0.279E-04
  54 F= -.10471489E+03 E0= -.10471489E+03  d E =-.361765E-10
       N       E                     dE             d eps       ncg     rms          rms(c)
DAV:   1    -0.104713602129E+03    0.12855E-02   -0.40464E-01   108   0.185E+00    0.216E-01
DAV:   2    -0.104715157646E+03   -0.15555E-02   -0.19281E-02   120   0.443E-01    0.130E-01
DAV:   3    -0.104715040826E+03    0.11682E-03   -0.33647E-04   132   0.656E-02    0.670E-02
DAV:   4    -0.104714981141E+03    0.59686E-04   -0.13575E-04   120   0.438E-02    0.119E-02
DAV:   5    -0.104714975828E+03    0.53129E-05   -0.24249E-05   132   0.185E-02    0.769E-03
DAV:   6    -0.104714993380E+03   -0.17552E-04   -0.11760E-05   132   0.952E-03    0.405E-03
DAV:   7    -0.104715021435E+03   -0.28054E-04   -0.22848E-06    96   0.469E-03    0.208E-03
DAV:   8    -0.104715061830E+03   -0.40396E-04   -0.45143E-06   108   0.469E-03    0.129E-03
DAV:   9    -0.104715085075E+03   -0.23245E-04   -0.17904E-06   120   0.301E-03    0.839E-04
DAV:  10    -0.104715106133E+03   -0.21058E-04   -0.19042E-06   108   0.269E-03    0.416E-04
DAV:  11    -0.104715113923E+03   -0.77898E-05   -0.30835E-07   108   0.126E-03    0.320E-04
DAV:  12    -0.104715119713E+03   -0.57895E-05   -0.32091E-07    96   0.112E-03    0.154E-04
DAV:  13    -0.104715121014E+03   -0.13014E-05   -0.30471E-08   108   0.464E-04    0.958E-05
DAV:  14    -0.104715122273E+03   -0.12589E-05   -0.15509E-08    96   0.348E-04    0.525E-05
DAV:  15    -0.104715122686E+03   -0.41259E-06   -0.98339E-11   108   0.189E-04
  55 F= -.10471512E+03 E0= -.10471512E+03  d E =-.173433E-10
       N       E                     dE             d eps       ncg     rms          rms(c)
DAV:   1    -0.104714872165E+03    0.25011E-03   -0.19958E-01    96   0.131E+00    0.160E-01
DAV:   2    -0.104716062220E+03   -0.11901E-02   -0.14104E-02   132   0.342E-01    0.853E-02
DAV:   3    -0.104716029290E+03    0.32930E-04   -0.27067E-04   144   0.509E-02    0.488E-02
DAV:   4    -0.104716003972E+03    0.25318E-04   -0.63718E-05   132   0.297E-02    0.965E-03
DAV:   5    -0.104715996126E+03    0.78456E-05   -0.12759E-05   144   0.130E-02    0.571E-03
DAV:   6    -0.104715998485E+03   -0.23590E-05   -0.34409E-06   108   0.625E-03    0.305E-03
DAV:   7    -0.104716008817E+03   -0.10332E-04   -0.17292E-06   120   0.420E-03    0.132E-03
DAV:   8    -0.104716024447E+03   -0.15630E-04   -0.87514E-07   108   0.262E-03    0.813E-04
DAV:   9    -0.104716036412E+03   -0.11965E-04   -0.72743E-07    96   0.195E-03    0.606E-04
DAV:  10    -0.104716048917E+03   -0.12505E-04   -0.81054E-07    96   0.181E-03    0.283E-04
DAV:  11    -0.104716052258E+03   -0.33415E-05   -0.11408E-07   108   0.819E-04    0.246E-04
DAV:  12    -0.104716056113E+03   -0.38544E-05   -0.10280E-07    96   0.749E-04    0.103E-04
DAV:  13    -0.104716057669E+03   -0.15566E-05   -0.40453E-08   108   0.461E-04    0.928E-05
DAV:  14    -0.104716058656E+03   -0.98682E-06   -0.90315E-09    96   0.295E-04
  56 F= -.10471606E+03 E0= -.10471606E+03  d E =-.442550E-10
       N       E                     dE             d eps       ncg     rms          rms(c)
DAV:   1    -0.104714619868E+03    0.14378E-02   -0.41033E-01   108   0.184E+00    0.217E-01
DAV:   2    -0.104716181555E+03   -0.15617E-02   -0.18620E-02   120   0.411E-01    0.104E-01
DAV:   3    -0.104716124187E+03    0.57368E-04   -0.44386E-04   156   0.715E-02    0.548E-02
DAV:   4    -0.104716095856E+03    0.28331E-04   -0.93831E-05   132   0.417E-02    0.123E-02
DAV:   5    -0.104716088382E+03    0.74736E-05   -0.29985E-05   132   0.210E-02    0.813E-03
DAV:   6    -0.104716089511E+03   -0.11282E-05   -0.52472E-06   132   0.759E-03    0.519E-03
DAV:   7    -0.104716096930E+03   -0.74196E-05   -0.84295E-07   108   0.377E-03    0.214E-03
DAV:   8    -0.104716108785E+03   -0.11855E-04   -0.13632E-06   120   0.398E-03    0.135E-03
DAV:   9    -0.104716124122E+03   -0.15337E-04   -0.93414E-07   108   0.327E-03    0.701E-04
DAV:  10    -0.104716133319E+03   -0.91971E-05   -0.64539E-07   108   0.223E-03    0.669E-04
DAV:  11    -0.104716138104E+03   -0.47850E-05   -0.11855E-07   108   0.116E-03    0.312E-04
DAV:  12    -0.104716143082E+03   -0.49783E-05   -0.15989E-07    96   0.930E-04    0.264E-04
DAV:  13    -0.104716144833E+03   -0.17510E-05   -0.30117E-08   108   0.453E-04    0.198E-04
DAV:  14    -0.104716146858E+03   -0.20245E-05   -0.38706E-08    96   0.454E-04    0.500E-05
DAV:  15    -0.104716147443E+03   -0.58552E-06   -0.32036E-09   108   0.236E-04
  57 F= -.10471615E+03 E0= -.10471615E+03  d E =-.258930E-10
       N       E                     dE             d eps       ncg     rms          rms(c)
DAV:   1    -0.104714629612E+03    0.15172E-02   -0.20735E-01    96   0.126E+00    0.154E-01
DAV:   2    -0.104715331360E+03   -0.70175E-03   -0.84245E-03   120   0.261E-01    0.645E-02
DAV:   3    -0.104715315167E+03    0.16193E-04   -0.23077E-04   156   0.514E-02    0.338E-02
DAV:   4    -0.104715308030E+03    0.71373E-05   -0.37263E-05   132   0.287E-02    0.873E-03
DAV:   5    -0.104715306621E+03    0.14087E-05   -0.14363E-05   132   0.147E-02    0.604E-03
DAV:   6    -0.104715306787E+03   -0.16579E-06   -0.17265E-06   120   0.459E-03
  58 F= -.10471531E+03 E0= -.10471531E+03  d E =-.401712E-10
       N       E                     dE             d eps       ncg     rms          rms(c)
DAV:   1    -0.104714043621E+03    0.12630E-02   -0.40631E-01   108   0.180E+00    0.219E-01
DAV:   2    -0.104715723315E+03   -0.16797E-02   -0.20092E-02   132   0.447E-01    0.120E-01
DAV:   3    -0.104715633141E+03    0.90174E-04   -0.38373E-04   144   0.670E-02    0.640E-02
DAV:   4    -0.104715583762E+03    0.49379E-04   -0.11162E-04   132   0.414E-02    0.125E-02
DAV:   5    -0.104715574531E+03    0.92306E-05   -0.23648E-05   132   0.188E-02    0.789E-03
DAV:   6    -0.104715583023E+03   -0.84915E-05   -0.76724E-06   132   0.873E-03    0.452E-03
DAV:   7    -0.104715603359E+03   -0.20336E-04   -0.26477E-06   120   0.525E-03    0.194E-03
DAV:   8    -0.104715628316E+03   -0.24957E-04   -0.23694E-06   108   0.415E-03    0.121E-03
DAV:   9    -0.104715647660E+03   -0.19343E-04   -0.17342E-06   120   0.318E-03    0.921E-04
DAV:  10    -0.104715663266E+03   -0.15607E-04   -0.13585E-06   108   0.251E-03    0.383E-04
DAV:  11    -0.104715669421E+03   -0.61546E-05   -0.26432E-07   108   0.121E-03    0.326E-04
DAV:  12    -0.104715674361E+03   -0.49403E-05   -0.27672E-07    96   0.106E-03    0.136E-04
DAV:  13    -0.104715675831E+03   -0.14694E-05   -0.43372E-08   108   0.484E-04    0.927E-05
DAV:  14    -0.104715676920E+03   -0.10897E-05   -0.12420E-08    96   0.313E-04    0.445E-05
DAV:  15    -0.104715677391E+03   -0.47066E-06   -0.34904E-09   108   0.205E-04
  59 F= -.10471568E+03 E0= -.10471568E+03  d E =-.214236E-10
       N       E                     dE             d eps       ncg     rms          rms(c)
DAV:   1    -0.104714219021E+03    0.14579E-02   -0.20269E-01    96   0.132E+00    0.155E-01
DAV:   2    -0.104714999688E+03   -0.78067E-03   -0.95417E-03   108   0.312E-01    0.808E-02
DAV:   3    -0.104714954069E+03    0.45619E-04   -0.18308E-04   132   0.461E-02    0.424E-02
DAV:   4    -0.104714922428E+03    0.31642E-04   -0.46329E-05   144   0.250E-02    0.869E-03
DAV:   5    -0.104714914480E+03    0.79470E-05   -0.70101E-06   132   0.111E-02    0.482E-03
DAV:   6    -0.104714915845E+03   -0.13643E-05   -0.29877E-06   120   0.721E-03    0.231E-03
DAV:   7    -0.104714924523E+03   -0.86784E-05   -0.18131E-06   120   0.522E-03    0.138E-03
DAV:   8    -0.104714939190E+03   -0.14667E-04   -0.85515E-07    96   0.327E-03    0.743E-04
DAV:   9    -0.104714950527E+03   -0.11337E-04   -0.70480E-07   108   0.223E-03    0.532E-04
DAV:  10    -0.104714961184E+03   -0.10656E-04   -0.43228E-07    96   0.152E-03    0.264E-04
DAV:  11    -0.104714967096E+03   -0.59126E-05   -0.17959E-07   108   0.933E-04    0.188E-04
DAV:  12    -0.104714971457E+03   -0.43603E-05   -0.80161E-08   108   0.636E-04    0.847E-05
DAV:  13    -0.104714973060E+03   -0.16033E-05   -0.25202E-08   108   0.410E-04    0.550E-05
DAV:  14    -0.104714974058E+03   -0.99863E-06   -0.59583E-09   108   0.264E-04
  60 F= -.10471497E+03 E0= -.10471497E+03  d E =-.434567E-10
       N       E                     dE             d eps       ncg     rms          rms(c)
DAV:   1    -0.104713904719E+03    0.10683E-02   -0.40508E-01    96   0.186E+00    0.215E-01
DAV:   2    -0.104715372402E+03   -0.14677E-02   -0.18351E-02   132   0.424E-01    0.124E-01
DAV:   3    -0.104715258631E+03    0.11377E-03   -0.34060E-04   144   0.639E-02    0.628E-02
DAV:   4    -0.104715190538E+03    0.68093E-04   -0.96289E-05   132   0.372E-02    0.121E-02
DAV:   5    -0.104715186049E+03    0.44893E-05   -0.16519E-05   132   0.163E-02    0.700E-03
DAV:   6    -0.104715208753E+03   -0.22704E-04   -0.10728E-05   132   0.101E-02    0.359E-03
DAV:   7    -0.104715240910E+03   -0.32157E-04   -0.40590E-06   108   0.623E-03    0.213E-03
DAV:   8    -0.104715279664E+03   -0.38754E-04   -0.35924E-06   108   0.436E-03    0.107E-03
DAV:   9    -0.104715306169E+03   -0.26505E-04   -0.24975E-06   120   0.341E-03    0.828E-04
DAV:  10    -0.104715327702E+03   -0.21533E-04   -0.20654E-06   120   0.278E-03    0.368E-04
DAV:  11    -0.104715334040E+03   -0.63381E-05   -0.25232E-07   108   0.116E-03    0.258E-04
DAV:  12    -0.104715339087E+03   -0.50468E-05   -0.23948E-07   108   0.974E-04    0.145E-04
DAV:  13    -0.104715340575E+03   -0.14880E-05   -0.37780E-08   108   0.462E-04    0.721E-05
DAV:  14    -0.104715341728E+03   -0.11528E-05   -0.14408E-08   108   0.339E-04    0.597E-05
DAV:  15    -0.104715342021E+03   -0.29270E-06    0.24260E-09   108   0.157E-04
  61 F= -.10471534E+03 E0= -.10471534E+03  d E =-.153633E-10
       N       E                     dE             d eps       ncg     rms          rms(c)
DAV:   1    -0.104718247074E+03   -0.29053E-02   -0.23347E-01    96   0.164E+00    0.137E-01
DAV:   2    -0.104718661310E+03   -0.41424E-03   -0.60774E-03   132   0.248E-01    0.795E-02
DAV:   3    -0.104718601632E+03    0.59678E-04   -0.17716E-04   132   0.457E-02    0.351E-02
DAV:   4    -0.104718585394E+03    0.16238E-04   -0.59716E-05   132   0.269E-02    0.812E-03
DAV:   5    -0.104718581536E+03    0.38579E-05   -0.76317E-06   132   0.105E-02    0.546E-03
DAV:   6    -0.104718582875E+03   -0.13384E-05   -0.33841E-06   132   0.600E-03    0.207E-03
DAV:   7    -0.104718587427E+03   -0.45526E-05   -0.62266E-07   108   0.322E-03    0.121E-03
DAV:   8    -0.104718595489E+03   -0.80619E-05   -0.46933E-07   108   0.213E-03    0.692E-04
DAV:   9    -0.104718604436E+03   -0.89472E-05   -0.52359E-07   108   0.189E-03    0.395E-04
DAV:  10    -0.104718612407E+03   -0.79708E-05   -0.44434E-07   108   0.147E-03    0.291E-04
DAV:  11    -0.104718616196E+03   -0.37885E-05   -0.93086E-08   108   0.790E-04    0.157E-04
DAV:  12    -0.104718618702E+03   -0.25066E-05   -0.54976E-08   108   0.544E-04    0.112E-04
DAV:  13    -0.104718619303E+03   -0.60088E-06   -0.47365E-09   108   0.247E-04
  62 F= -.10471862E+03 E0= -.10471862E+03  d E =-.216535E-10
       N       E                     dE             d eps       ncg     rms          rms(c)
DAV:   1    -0.104718553940E+03    0.64763E-04   -0.52831E-01    96   0.253E+00    0.174E-01
DAV:   2    -0.104718429591E+03    0.12435E-03   -0.26858E-03   132   0.181E-01    0.974E-02
DAV:   3    -0.104718291674E+03    0.13792E-03   -0.38977E-04   132   0.617E-02    0.205E-02
DAV:   4    -0.104718294443E+03   -0.27690E-05   -0.74005E-05   120   0.270E-02    0.107E-02
DAV:   5    -0.104718295144E+03   -0.70074E-06   -0.28638E-06   132   0.624E-03
  63 F= -.10471830E+03 E0= -.10471830E+03  d E =-.273182E-10
       N       E                     dE             d eps       ncg     rms          rms(c)
DAV:   1    -0.104717369748E+03    0.92470E-03   -0.27213E-01    96   0.185E+00    0.150E-01
DAV:   2    -0.104717359877E+03    0.98710E-05   -0.23973E-03   132   0.161E-01    0.796E-02
DAV:   3    -0.104717271584E+03    0.88293E-04   -0.25463E-04   132   0.464E-02    0.248E-02
DAV:   4    -0.104717268842E+03    0.27420E-05   -0.64731E-05   132   0.225E-02    0.892E-03
DAV:   5    -0.104717267279E+03    0.15629E-05   -0.27119E-06   120   0.690E-03    0.473E-03
DAV:   6    -0.104717267363E+03   -0.83855E-07   -0.27645E-06   120   0.606E-03
  64 F= -.10471727E+03 E0= -.10471727E+03  d E =-.292100E-10
       N       E                     dE             d eps       ncg     rms          rms(c)
DAV:   1    -0.104717653652E+03   -0.38637E-03   -0.53700E-01   108   0.257E+00    0.201E-01
DAV:   2    -0.104717546203E+03    0.10745E-03   -0.40635E-03   108   0.220E-01    0.107E-01
DAV:   3    -0.104717367599E+03    0.17860E-03   -0.49022E-04   132   0.607E-02    0.308E-02
DAV:   4    -0.104717353944E+03    0.13655E-04   -0.80830E-05   144   0.266E-02    0.118E-02
DAV:   5    -0.104717353218E+03    0.72591E-06   -0.61364E-06   132   0.984E-03
  65 F= -.10471735E+03 E0= -.10471735E+03  d E =-.176074E-10
       N       E                     dE             d eps       ncg     rms          rms(c)
DAV:   1    -0.104718648846E+03   -0.12949E-02   -0.27148E-01    96   0.185E+00    0.144E-01
DAV:   2    -0.104718637573E+03    0.11273E-04   -0.23827E-03   132   0.168E-01    0.789E-02
DAV:   3    -0.104718553185E+03    0.84388E-04   -0.26046E-04   132   0.508E-02    0.227E-02
DAV:   4    -0.104718556515E+03   -0.33303E-05   -0.74106E-05   132   0.257E-02    0.827E-03
DAV:   5    -0.104718555939E+03    0.57545E-06   -0.28368E-06   132   0.662E-03
  66 F= -.10471856E+03 E0= -.10471856E+03  d E =-.229104E-10
       N       E                     dE             d eps       ncg     rms          rms(c)
DAV:   1    -0.104718696990E+03   -0.14048E-03   -0.53587E-01    96   0.258E+00    0.170E-01
DAV:   2    -0.104718563486E+03    0.13350E-03   -0.27655E-03   132   0.182E-01    0.977E-02
DAV:   3    -0.104718420727E+03    0.14276E-03   -0.46241E-04   132   0.693E-02    0.176E-02
DAV:   4    -0.104718427903E+03   -0.71756E-05   -0.10306E-04   132   0.324E-02    0.104E-02
DAV:   5    -0.104718426782E+03    0.11212E-05   -0.21364E-06   120   0.554E-03    0.703E-03
DAV:   6    -0.104718426564E+03    0.21815E-06   -0.32299E-06   120   0.626E-03
  67 F= -.10471843E+03 E0= -.10471843E+03  d E =-.268086E-10
       N       E                     dE             d eps       ncg     rms          rms(c)
DAV:   1    -0.104719018184E+03   -0.59140E-03   -0.26594E-01    96   0.190E+00    0.118E-01
DAV:   2    -0.104719002283E+03    0.15901E-04   -0.14282E-03   132   0.135E-01    0.686E-02
DAV:   3    -0.104718946888E+03    0.55395E-04   -0.14366E-04   132   0.375E-02    0.107E-02
DAV:   4    -0.104718948610E+03   -0.17224E-05   -0.23791E-05   132   0.155E-02    0.496E-03
DAV:   5    -0.104718948722E+03   -0.11130E-06   -0.53996E-07   108   0.291E-03
  68 F= -.10471895E+03 E0= -.10471895E+03  d E =-.228361E-10
       N       E                     dE             d eps       ncg     rms          rms(c)
DAV:   1    -0.104719252440E+03   -0.30383E-03   -0.52659E-01    96   0.249E+00    0.159E-01
DAV:   2    -0.104719118479E+03    0.13396E-03   -0.19628E-03   132   0.155E-01    0.924E-02
DAV:   3    -0.104719019662E+03    0.98817E-04   -0.37841E-04   144   0.651E-02    0.113E-02
DAV:   4    -0.104719026354E+03   -0.66917E-05   -0.65458E-05   120   0.274E-02    0.912E-03
DAV:   5    -0.104719026590E+03   -0.23658E-06   -0.18158E-06   120   0.469E-03
  69 F= -.10471903E+03 E0= -.10471903E+03  d E =-.267123E-10
       N       E                     dE             d eps       ncg     rms          rms(c)
DAV:   1    -0.104718941327E+03    0.85027E-04   -0.26659E-01    96   0.178E+00    0.113E-01
DAV:   2    -0.104718873389E+03    0.67937E-04   -0.10147E-03   132   0.106E-01    0.651E-02
DAV:   3    -0.104718821505E+03    0.51884E-04   -0.18504E-04   132   0.418E-02    0.926E-03
DAV:   4    -0.104718823337E+03   -0.18312E-05   -0.27759E-05   132   0.174E-02    0.568E-03
DAV:   5    -0.104718823071E+03    0.26527E-06   -0.72423E-07   108   0.326E-03
  70 F= -.10471882E+03 E0= -.10471882E+03  d E =-.273710E-10
       N       E                     dE             d eps       ncg     rms          rms(c)
DAV:   1    -0.104719171862E+03   -0.34853E-03   -0.53108E-01    96   0.251E+00    0.162E-01
DAV:   2    -0.104719044938E+03    0.12692E-03   -0.21318E-03   132   0.156E-01    0.926E-02
DAV:   3    -0.104718931870E+03    0.11307E-03   -0.33619E-04   132   0.561E-02    0.154E-02
DAV:   4    -0.104718934185E+03   -0.23151E-05   -0.49168E-05   132   0.233E-02    0.792E-03
DAV:   5    -0.104718934277E+03   -0.92527E-07   -0.21777E-06   132   0.519E-03
  71 F= -.10471893E+03 E0= -.10471893E+03  d E =-.202430E-10
       N       E                     dE             d eps       ncg     rms          rms(c)
DAV:   1    -0.104716531480E+03    0.24027E-02   -0.26714E-01    96   0.177E+00    0.123E-01
DAV:   2    -0.104716474322E+03    0.57158E-04   -0.16352E-03   132   0.141E-01    0.696E-02
DAV:   3    -0.104716399452E+03    0.74870E-04   -0.21728E-04   132   0.475E-02    0.154E-02
DAV:   4    -0.104716402501E+03   -0.30493E-05   -0.52513E-05   132   0.230E-02    0.765E-03
DAV:   5    -0.104716403500E+03   -0.99867E-06   -0.12640E-06   108   0.449E-03
  72 F= -.10471640E+03 E0= -.10471640E+03  d E =-.181859E-10
       N       E                     dE             d eps       ncg     rms          rms(c)
DAV:   1    -0.104716618004E+03   -0.21550E-03   -0.54819E-01   108   0.254E+00    0.216E-01
DAV:   2    -0.104716617076E+03    0.92842E-06   -0.56016E-03   120   0.247E-01    0.118E-01
DAV:   3    -0.104716385162E+03    0.23191E-03   -0.55659E-04   132   0.757E-02    0.349E-02
DAV:   4    -0.104716382028E+03    0.31340E-05   -0.19090E-04   132   0.388E-02    0.135E-02
DAV:   5    -0.104716379085E+03    0.29424E-05   -0.57168E-06   132   0.971E-03    0.852E-03
DAV:   6    -0.104716378959E+03    0.12579E-06   -0.61523E-06   120   0.977E-03
  73 F= -.10471638E+03 E0= -.10471638E+03  d E =-.294483E-10
       N       E                     dE             d eps       ncg     rms          rms(c)
DAV:   1    -0.104718502605E+03   -0.21235E-02   -0.27521E-01    96   0.205E+00    0.162E-01
DAV:   2    -0.104718486090E+03    0.16515E-04   -0.31315E-03   132   0.203E-01    0.859E-02
DAV:   3    -0.104718376102E+03    0.10999E-03   -0.31911E-04   132   0.596E-02    0.299E-02
DAV:   4    -0.104718377680E+03   -0.15786E-05   -0.10246E-04   120   0.311E-02    0.119E-02
DAV:   5    -0.104718377856E+03   -0.17602E-06   -0.37791E-06   144   0.840E-03
  74 F= -.10471838E+03 E0= -.10471838E+03  d E =-.183709E-10
       N       E                     dE             d eps       ncg     rms          rms(c)
DAV:   1    -0.104718390222E+03   -0.12541E-04   -0.55708E-01    96   0.243E+00    0.243E-01
DAV:   2    -0.104718067144E+03    0.32308E-03   -0.37005E-03   120   0.213E-01    0.124E-01
DAV:   3    -0.104717862359E+03    0.20478E-03   -0.52899E-04   132   0.695E-02    0.415E-02
DAV:   4    -0.104717863276E+03   -0.91640E-06   -0.13461E-04   132   0.343E-02    0.127E-02
[...]
DAV:   7    -0.104716862314E+03   -0.34863E-05   -0.88746E-07   120   0.321E-03    0.123E-03
DAV:   8    -0.104716867361E+03   -0.50468E-05   -0.29270E-07   108   0.169E-03    0.459E-04
DAV:   9    -0.104716871381E+03   -0.40196E-05   -0.24700E-07   108   0.138E-03    0.620E-04
DAV:  10    -0.104716876946E+03   -0.55651E-05   -0.50060E-07   108   0.156E-03    0.301E-04
DAV:  11    -0.104716877801E+03   -0.85539E-06   -0.39563E-08   108   0.690E-04
 129 F= -.10471688E+03 E0= -.10471688E+03  d E =-.204464E-10
       N       E                     dE             d eps       ncg     rms          rms(c)
DAV:   1    -0.104719309571E+03   -0.24326E-02   -0.28329E-01    96   0.147E+00    0.188E-01
DAV:   2    -0.104719105842E+03    0.20373E-03   -0.20451E-03   132   0.137E-01    0.931E-02
DAV:   3    -0.104718987455E+03    0.11839E-03   -0.34537E-04   132   0.505E-02    0.320E-02
DAV:   4    -0.104718983754E+03    0.37005E-05   -0.71641E-05   132   0.244E-02    0.105E-02
DAV:   5    -0.104718982751E+03    0.10031E-05   -0.38773E-06   120   0.780E-03    0.467E-03
DAV:   6    -0.104718983579E+03   -0.82760E-06   -0.22053E-06   132   0.493E-03
 130 F= -.10471898E+03 E0= -.10471898E+03  d E =-.278341E-10
       N       E                     dE             d eps       ncg     rms          rms(c)
DAV:   1    -0.104719294404E+03   -0.31165E-03   -0.54294E-01    96   0.214E+00    0.198E-01
DAV:   2    -0.104719078241E+03    0.21616E-03   -0.30566E-03   120   0.166E-01    0.111E-01
DAV:   3    -0.104718920865E+03    0.15738E-03   -0.44299E-04   132   0.639E-02    0.253E-02
DAV:   4    -0.104718927756E+03   -0.68907E-05   -0.71862E-05   132   0.272E-02    0.870E-03
DAV:   5    -0.104718928528E+03   -0.77213E-06   -0.36198E-06   132   0.684E-03
 131 F= -.10471893E+03 E0= -.10471893E+03  d E =-.284830E-10
       N       E                     dE             d eps       ncg     rms          rms(c)
DAV:   1    -0.104718514759E+03    0.41300E-03   -0.27115E-01    96   0.153E+00    0.140E-01
DAV:   2    -0.104718402877E+03    0.11188E-03   -0.15707E-03   120   0.119E-01    0.784E-02
DAV:   3    -0.104718326321E+03    0.76556E-04   -0.21562E-04   132   0.443E-02    0.188E-02
DAV:   4    -0.104718329574E+03   -0.32528E-05   -0.36701E-05   132   0.191E-02    0.659E-03
DAV:   5    -0.104718330100E+03   -0.52654E-06   -0.18917E-06   132   0.496E-03
 132 F= -.10471833E+03 E0= -.10471833E+03  d E =-.281073E-10
       N       E                     dE             d eps       ncg     rms          rms(c)
DAV:   1    -0.104719056100E+03   -0.72653E-03   -0.55102E-01    96   0.210E+00    0.226E-01
DAV:   2    -0.104718778674E+03    0.27743E-03   -0.35050E-03   120   0.170E-01    0.119E-01
DAV:   3    -0.104718595692E+03    0.18298E-03   -0.47789E-04   132   0.616E-02    0.379E-02
DAV:   4    -0.104718595913E+03   -0.22012E-06   -0.10484E-04   120   0.293E-02    0.113E-02
DAV:   5    -0.104718595056E+03    0.85668E-06   -0.65133E-06   132   0.920E-03
 133 F= -.10471860E+03 E0= -.10471860E+03  d E =-.233046E-10
       N       E                     dE             d eps       ncg     rms          rms(c)
DAV:   1    -0.104718634829E+03   -0.38917E-04   -0.27659E-01    96   0.185E+00    0.160E-01
DAV:   2    -0.104718531046E+03    0.10378E-03   -0.20141E-03   120   0.149E-01    0.857E-02
DAV:   3    -0.104718439928E+03    0.91118E-04   -0.21895E-04   132   0.453E-02    0.281E-02
DAV:   4    -0.104718439686E+03    0.24163E-06   -0.60860E-05   132   0.231E-02    0.835E-03
DAV:   5    -0.104718438992E+03    0.69446E-06   -0.42272E-06   132   0.748E-03
 134 F= -.10471844E+03 E0= -.10471844E+03  d E =-.250041E-10
       N       E                     dE             d eps       ncg     rms          rms(c)
DAV:   1    -0.104718776620E+03   -0.33693E-03   -0.55398E-01    96   0.243E+00    0.233E-01
DAV:   2    -0.104718421830E+03    0.35479E-03   -0.31027E-03   120   0.179E-01    0.120E-01
DAV:   3    -0.104718213826E+03    0.20800E-03   -0.44952E-04   132   0.587E-02    0.398E-02
DAV:   4    -0.104718207512E+03    0.63145E-05   -0.11638E-04   132   0.305E-02    0.122E-02
DAV:   5    -0.104718208162E+03   -0.64999E-06   -0.80841E-06   132   0.108E-02
 135 F= -.10471821E+03 E0= -.10471821E+03  d E =-.213620E-10
       N       E                     dE             d eps       ncg     rms          rms(c)
DAV:   1    -0.104717806942E+03    0.40057E-03   -0.29055E-01    96   0.176E+00    0.209E-01
DAV:   2    -0.104717529661E+03    0.27728E-03   -0.22056E-03   132   0.155E-01    0.103E-01
DAV:   3    -0.104717388773E+03    0.14089E-03   -0.40494E-04   132   0.589E-02    0.356E-02
DAV:   4    -0.104717389462E+03   -0.68948E-06   -0.11458E-04   120   0.311E-02    0.141E-02
DAV:   5    -0.104717387996E+03    0.14660E-05   -0.47962E-06   132   0.885E-03    0.578E-03
DAV:   6    -0.104717388184E+03   -0.18782E-06   -0.28250E-06   132   0.563E-03
 136 F= -.10471739E+03 E0= -.10471739E+03  d E =-.248012E-10
       N       E                     dE             d eps       ncg     rms          rms(c)
DAV:   1    -0.104718029519E+03   -0.64152E-03   -0.57423E-01    96   0.247E+00    0.271E-01
DAV:   2    -0.104717458900E+03    0.57062E-03   -0.41718E-03   132   0.218E-01    0.137E-01
DAV:   3    -0.104717162013E+03    0.29689E-03   -0.82625E-04   132   0.832E-02    0.443E-02
DAV:   4    -0.104717162017E+03   -0.42651E-08   -0.18559E-04   132   0.408E-02    0.186E-02
DAV:   5    -0.104717161415E+03    0.60185E-06   -0.73296E-06   132   0.989E-03
 137 F= -.10471716E+03 E0= -.10471716E+03  d E =-.236098E-10
       N       E                     dE             d eps       ncg     rms          rms(c)
DAV:   1    -0.104718755505E+03   -0.15935E-02   -0.28887E-01    96   0.175E+00    0.208E-01
DAV:   2    -0.104718498811E+03    0.25669E-03   -0.23217E-03   132   0.159E-01    0.101E-01
DAV:   3    -0.104718354002E+03    0.14481E-03   -0.39944E-04   132   0.597E-02    0.353E-02
DAV:   4    -0.104718355430E+03   -0.14281E-05   -0.11955E-04   132   0.318E-02    0.132E-02
DAV:   5    -0.104718354553E+03    0.87763E-06   -0.51148E-06   132   0.872E-03
 138 F= -.10471835E+03 E0= -.10471835E+03  d E =-.290602E-10
       N       E                     dE             d eps       ncg     rms          rms(c)
DAV:   1    -0.104718958399E+03   -0.60297E-03   -0.54769E-01    96   0.243E+00    0.229E-01
DAV:   2    -0.104718631500E+03    0.32690E-03   -0.31476E-03   132   0.183E-01    0.120E-01
DAV:   3    -0.104718428590E+03    0.20291E-03   -0.48677E-04   144   0.642E-02    0.366E-02
DAV:   4    -0.104718430059E+03   -0.14689E-05   -0.10261E-04   132   0.305E-02    0.127E-02
DAV:   5    -0.104718430153E+03   -0.93945E-07   -0.61674E-06   132   0.942E-03
 139 F= -.10471843E+03 E0= -.10471843E+03  d E =-.204526E-10
       N       E                     dE             d eps       ncg     rms          rms(c)
DAV:   1    -0.104718402045E+03    0.28014E-04   -0.27683E-01    96   0.174E+00    0.167E-01
DAV:   2    -0.104718274660E+03    0.12739E-03   -0.16892E-03   132   0.130E-01    0.874E-02
DAV:   3    -0.104718182889E+03    0.91771E-04   -0.27256E-04   132   0.431E-02    0.262E-02
DAV:   4    -0.104718180199E+03    0.26903E-05   -0.37931E-05   132   0.176E-02    0.109E-02
DAV:   5    -0.104718178589E+03    0.16093E-05   -0.27204E-06   144   0.678E-03    0.531E-03
DAV:   6    -0.104718178560E+03    0.29203E-07   -0.21210E-06   132   0.526E-03
 140 F= -.10471818E+03 E0= -.10471818E+03  d E =-.252481E-10
       N       E                     dE             d eps       ncg     rms          rms(c)
DAV:   1    -0.104718551310E+03   -0.37272E-03   -0.55750E-01    96   0.244E+00    0.246E-01
DAV:   2    -0.104718166540E+03    0.38477E-03   -0.33427E-03   120   0.186E-01    0.124E-01
DAV:   3    -0.104717945199E+03    0.22134E-03   -0.48651E-04   120   0.612E-02    0.433E-02
DAV:   4    -0.104717936145E+03    0.90537E-05   -0.13782E-04   132   0.331E-02    0.136E-02
DAV:   5    -0.104717936603E+03   -0.45816E-06   -0.95512E-06   132   0.120E-02
 141 F= -.10471794E+03 E0= -.10471794E+03  d E =-.212078E-10
       N       E                     dE             d eps       ncg     rms          rms(c)
DAV:   1    -0.104717125907E+03    0.81024E-03   -0.27310E-01    96   0.172E+00    0.138E-01
DAV:   2    -0.104717001047E+03    0.12486E-03   -0.14991E-03   132   0.124E-01    0.788E-02
DAV:   3    -0.104716913611E+03    0.87436E-04   -0.27243E-04   132   0.491E-02    0.160E-02
DAV:   4    -0.104716918736E+03   -0.51245E-05   -0.48741E-05   132   0.217E-02    0.825E-03
DAV:   5    -0.104716919377E+03   -0.64099E-06   -0.13435E-06   120   0.426E-03
 142 F= -.10471692E+03 E0= -.10471692E+03  d E =-.225574E-10
       N       E                     dE             d eps       ncg     rms          rms(c)
DAV:   1    -0.104717886062E+03   -0.96733E-03   -0.58124E-01    96   0.247E+00    0.290E-01
DAV:   2    -0.104717338390E+03    0.54767E-03   -0.45904E-03   132   0.225E-01    0.142E-01
DAV:   3    -0.104717024761E+03    0.31363E-03   -0.83718E-04   132   0.863E-02    0.490E-02
DAV:   4    -0.104717024700E+03    0.61712E-07   -0.23904E-04   132   0.454E-02    0.181E-02
DAV:   5    -0.104717022788E+03    0.19114E-05   -0.10140E-05   132   0.118E-02    0.902E-03
DAV:   6    -0.104717022886E+03   -0.97592E-07   -0.48419E-06   120   0.771E-03
 143 F= -.10471702E+03 E0= -.10471702E+03  d E =-.263022E-10
       N       E                     dE             d eps       ncg     rms          rms(c)
DAV:   1    -0.104719204674E+03   -0.21819E-02   -0.28173E-01    96   0.173E+00    0.166E-01
DAV:   2    -0.104718975914E+03    0.22876E-03   -0.17354E-03   132   0.139E-01    0.894E-02
DAV:   3    -0.104718862279E+03    0.11364E-03   -0.34367E-04   132   0.555E-02    0.245E-02
DAV:   4    -0.104718867166E+03   -0.48864E-05   -0.70798E-05   132   0.257E-02    0.111E-02
DAV:   5    -0.104718867400E+03   -0.23433E-06   -0.25388E-06   132   0.602E-03
 144 F= -.10471887E+03 E0= -.10471887E+03  d E =-.284954E-10
       N       E                     dE             d eps       ncg     rms          rms(c)
DAV:   1    -0.104719485446E+03   -0.61828E-03   -0.54193E-01    96   0.242E+00    0.200E-01
DAV:   2    -0.104719202374E+03    0.28307E-03   -0.27003E-03   132   0.167E-01    0.112E-01
DAV:   3    -0.104719034211E+03    0.16816E-03   -0.44808E-04   144   0.633E-02    0.235E-02
DAV:   4    -0.104719039326E+03   -0.51142E-05   -0.68648E-05   120   0.260E-02    0.955E-03
DAV:   5    -0.104719039779E+03   -0.45367E-06   -0.32110E-06   132   0.644E-03
 145 F= -.10471904E+03 E0= -.10471904E+03  d E =-.209745E-10
       N       E                     dE             d eps       ncg     rms          rms(c)
DAV:   1    -0.104718263316E+03    0.77601E-03   -0.27701E-01    96   0.201E+00    0.156E-01
DAV:   2    -0.104718130722E+03    0.13259E-03   -0.20048E-03   132   0.166E-01    0.857E-02
DAV:   3    -0.104718032469E+03    0.98253E-04   -0.27999E-04   132   0.582E-02    0.243E-02
DAV:   4    -0.104718037659E+03   -0.51903E-05   -0.77524E-05   132   0.292E-02    0.110E-02
DAV:   5    -0.104718037359E+03    0.29998E-06   -0.22078E-06   120   0.637E-03
 146 F= -.10471804E+03 E0= -.10471804E+03  d E =-.251855E-10
       N       E                     dE             d eps       ncg     rms          rms(c)
DAV:   1    -0.104718745876E+03   -0.70822E-03   -0.56123E-01    96   0.265E+00    0.238E-01
DAV:   2    -0.104718335864E+03    0.41001E-03   -0.39822E-03   132   0.225E-01    0.126E-01
DAV:   3    -0.104718090457E+03    0.24541E-03   -0.66522E-04   132   0.847E-02    0.370E-02
DAV:   4    -0.104718095485E+03   -0.50285E-05   -0.16259E-04   132   0.417E-02    0.171E-02
DAV:   5    -0.104718094696E+03    0.78943E-06   -0.57297E-06   132   0.959E-03
 147 F= -.10471809E+03 E0= -.10471809E+03  d E =-.230262E-10
       N       E                     dE             d eps       ncg     rms          rms(c)
DAV:   1    -0.104717221615E+03    0.87387E-03   -0.27241E-01    96   0.182E+00    0.141E-01
DAV:   2    -0.104717096147E+03    0.12547E-03   -0.14590E-03   120   0.134E-01    0.778E-02
DAV:   3    -0.104717007611E+03    0.88536E-04   -0.21150E-04   132   0.446E-02    0.194E-02
DAV:   4    -0.104717009726E+03   -0.21154E-05   -0.35765E-05   132   0.195E-02    0.650E-03
DAV:   5    -0.104717010887E+03   -0.11611E-05   -0.17480E-06   120   0.513E-03    0.430E-03
DAV:   6    -0.104717013256E+03   -0.23683E-05   -0.98828E-07    96   0.357E-03    0.901E-04
DAV:   7    -0.104717014708E+03   -0.14524E-05   -0.28946E-07   108   0.199E-03    0.585E-04
DAV:   8    -0.104717016857E+03   -0.21488E-05   -0.11397E-07    96   0.136E-03    0.273E-04
DAV:   9    -0.104717018966E+03   -0.21092E-05   -0.13706E-07   108   0.116E-03    0.203E-04
DAV:  10    -0.104717020955E+03   -0.19890E-05   -0.10303E-07   108   0.851E-04    0.126E-04
DAV:  11    -0.104717021611E+03   -0.65581E-06   -0.23417E-08   108   0.452E-04
 148 F= -.10471702E+03 E0= -.10471702E+03  d E =-.221695E-10
       N       E                     dE             d eps       ncg     rms          rms(c)
DAV:   1    -0.104717614089E+03   -0.59313E-03   -0.57741E-01    96   0.270E+00    0.297E-01
DAV:   2    -0.104717155079E+03    0.45901E-03   -0.46665E-03   120   0.243E-01    0.140E-01
DAV:   3    -0.104716867841E+03    0.28724E-03   -0.70165E-04   132   0.810E-02    0.515E-02
DAV:   4    -0.104716853531E+03    0.14310E-04   -0.20333E-04   132   0.426E-02    0.172E-02
DAV:   5    -0.104716850332E+03    0.31991E-05   -0.96305E-06   132   0.138E-02    0.708E-03
DAV:   6    -0.104716852176E+03   -0.18442E-05   -0.56398E-06   132   0.842E-03    0.265E-03
DAV:   7    -0.104716854787E+03   -0.26107E-05   -0.11640E-06   132   0.397E-03    0.133E-03
DAV:   8    -0.104716858912E+03   -0.41253E-05   -0.24600E-07   108   0.182E-03    0.516E-04
DAV:   9    -0.104716862094E+03   -0.31814E-05   -0.19052E-07   108   0.144E-03    0.543E-04
DAV:  10    -0.104716868164E+03   -0.60702E-05   -0.35782E-07    96   0.167E-03    0.463E-04
DAV:  11    -0.104716869771E+03   -0.16072E-05   -0.91674E-08   120   0.888E-04    0.351E-04
DAV:  12    -0.104716870588E+03   -0.81709E-06   -0.74728E-09    96   0.402E-04
 149 F= -.10471687E+03 E0= -.10471687E+03  d E =-.236962E-10
       N       E                     dE             d eps       ncg     rms          rms(c)
DAV:   1    -0.104719257636E+03   -0.23879E-02   -0.27812E-01    96   0.184E+00    0.171E-01
DAV:   2    -0.104719061472E+03    0.19616E-03   -0.18436E-03   132   0.156E-01    0.891E-02
DAV:   3    -0.104718951148E+03    0.11032E-03   -0.28179E-04   132   0.531E-02    0.266E-02
DAV:   4    -0.104718952344E+03   -0.11963E-05   -0.61077E-05   132   0.248E-02    0.102E-02
DAV:   5    -0.104718952996E+03   -0.65181E-06   -0.30662E-06   132   0.712E-03
 150 F= -.10471895E+03 E0= -.10471895E+03  d E =-.238462E-10
       N       E                     dE             d eps       ncg     rms          rms(c)
DAV:   1    -0.104719396707E+03   -0.44436E-03   -0.54223E-01    96   0.259E+00    0.199E-01
DAV:   2    -0.104719132643E+03    0.26406E-03   -0.28899E-03   132   0.191E-01    0.112E-01
DAV:   3    -0.104718964126E+03    0.16852E-03   -0.44105E-04   132   0.675E-02    0.237E-02
DAV:   4    -0.104718970317E+03   -0.61906E-05   -0.68140E-05   132   0.272E-02    0.103E-02
DAV:   5    -0.104718971506E+03   -0.11894E-05   -0.30126E-06   132   0.637E-03    0.763E-03
DAV:   6    -0.104718974858E+03   -0.33521E-05   -0.15069E-06   120   0.426E-03    0.141E-03
DAV:   7    -0.104718976939E+03   -0.20811E-05   -0.40036E-07   108   0.229E-03    0.116E-03
DAV:   8    -0.104718979719E+03   -0.27795E-05   -0.14047E-07   108   0.171E-03    0.400E-04
DAV:   9    -0.104718983166E+03   -0.34473E-05   -0.21498E-07   108   0.181E-03    0.661E-04
DAV:  10    -0.104718984547E+03   -0.13810E-05   -0.78084E-08   108   0.998E-04    0.264E-04
DAV:  11    -0.104718985733E+03   -0.11857E-05   -0.35483E-08   108   0.509E-04    0.233E-04
DAV:  12    -0.104718986738E+03   -0.10055E-05   -0.28094E-08   108   0.443E-04    0.109E-04
DAV:  13    -0.104718987350E+03   -0.61200E-06   -0.11798E-08   108   0.299E-04
 151 F= -.10471899E+03 E0= -.10471899E+03  d E =-.218483E-10
       N       E                     dE             d eps       ncg     rms          rms(c)
DAV:   1    -0.104717006967E+03    0.19798E-02   -0.28027E-01    96   0.199E+00    0.180E-01
DAV:   2    -0.104716802560E+03    0.20441E-03   -0.23789E-03   132   0.185E-01    0.901E-02
DAV:   3    -0.104716670218E+03    0.13234E-03   -0.32361E-04   132   0.625E-02    0.318E-02
DAV:   4    -0.104716673430E+03   -0.32122E-05   -0.10724E-04   120   0.336E-02    0.107E-02
DAV:   5    -0.104716674381E+03   -0.95009E-06   -0.57668E-06   132   0.908E-03
 152 F= -.10471667E+03 E0= -.10471667E+03  d E =-.228606E-10
       N       E                     dE             d eps       ncg     rms          rms(c)
DAV:   1    -0.104717563919E+03   -0.89049E-03   -0.58311E-01    96   0.284E+00    0.296E-01
DAV:   2    -0.104717018989E+03    0.54493E-03   -0.48791E-03   132   0.260E-01    0.146E-01
DAV:   3    -0.104716689679E+03    0.32931E-03   -0.87588E-04   132   0.984E-02    0.496E-02
DAV:   4    -0.104716690190E+03   -0.51056E-06   -0.25545E-04   132   0.516E-02    0.212E-02
DAV:   5    -0.104716688129E+03    0.20608E-05   -0.10542E-05   132   0.133E-02    0.923E-03
DAV:   6    -0.104716688559E+03   -0.43061E-06   -0.56176E-06   132   0.929E-03
 153 F= -.10471669E+03 E0= -.10471669E+03  d E =-.267386E-10
       N       E                     dE             d eps       ncg     rms          rms(c)
DAV:   1    -0.104719156233E+03   -0.24681E-02   -0.28485E-01    96   0.197E+00    0.194E-01
DAV:   2    -0.104718947951E+03    0.20828E-03   -0.22050E-03   132   0.173E-01    0.963E-02
DAV:   3    -0.104718817698E+03    0.13025E-03   -0.31315E-04   132   0.562E-02    0.346E-02
DAV:   4    -0.104718816834E+03    0.86457E-06   -0.92382E-05   132   0.300E-02    0.124E-02
DAV:   5    -0.104718816581E+03    0.25292E-06   -0.53198E-06   132   0.999E-03
 154 F= -.10471882E+03 E0= -.10471882E+03  d E =-.209714E-10
       N       E                     dE             d eps       ncg     rms          rms(c)
DAV:   1    -0.104719378988E+03   -0.56215E-03   -0.54969E-01    96   0.275E+00    0.203E-01
DAV:   2    -0.104719133201E+03    0.24579E-03   -0.28458E-03   120   0.184E-01    0.113E-01
DAV:   3    -0.104718951376E+03    0.18183E-03   -0.44466E-04   132   0.636E-02    0.282E-02
DAV:   4    -0.104718954170E+03   -0.27947E-05   -0.77335E-05   132   0.279E-02    0.913E-03
DAV:   5    -0.104718953117E+03    0.10536E-05   -0.34688E-06   132   0.726E-03    0.587E-03
DAV:   6    -0.104718953035E+03    0.81470E-07   -0.18510E-06   132   0.486E-03
 155 F= -.10471895E+03 E0= -.10471895E+03  d E =-.263551E-10
       N       E                     dE             d eps       ncg     rms          rms(c)
DAV:   1    -0.104718561479E+03    0.39164E-03   -0.27348E-01    96   0.193E+00    0.147E-01
DAV:   2    -0.104718426119E+03    0.13536E-03   -0.15929E-03   132   0.142E-01    0.818E-02
DAV:   3    -0.104718338535E+03    0.87584E-04   -0.24110E-04   132   0.518E-02    0.194E-02
DAV:   4    -0.104718344633E+03   -0.60977E-05   -0.51660E-05   132   0.234E-02    0.807E-03
DAV:   5    -0.104718344995E+03   -0.36179E-06   -0.16676E-06   120   0.513E-03
 156 F= -.10471834E+03 E0= -.10471834E+03  d E =-.269088E-10
       N       E                     dE             d eps       ncg     rms          rms(c)
DAV:   1    -0.104718964444E+03   -0.61981E-03   -0.54756E-01    96   0.275E+00    0.228E-01
DAV:   2    -0.104718675817E+03    0.28863E-03   -0.35639E-03   132   0.217E-01    0.121E-01
DAV:   3    -0.104718467391E+03    0.20843E-03   -0.46970E-04   132   0.692E-02    0.377E-02
DAV:   4    -0.104718466994E+03    0.39670E-06   -0.10748E-04   144   0.328E-02    0.127E-02
DAV:   5    -0.104718467944E+03   -0.94987E-06   -0.62005E-06   132   0.989E-03
 157 F= -.10471847E+03 E0= -.10471847E+03  d E =-.199313E-10
