       N       E                     dE             d eps       ncg     rms          rms(c)
DAV:   1     0.242650026442E+03    0.24265E+03   -0.10233E+04   120   0.484E+02
DAV:   2    -0.252240550181E+02   -0.26787E+03   -0.25339E+03   156   0.917E+01
DAV:   3    -0.104988744956E+03   -0.79765E+02   -0.79550E+02   120   0.551E+01
DAV:   4    -0.108869345687E+03   -0.38806E+01   -0.38654E+01   120   0.177E+01
DAV:   5    -0.108957516287E+03   -0.88171E-01   -0.88073E-01   156   0.301E+00    0.160E+01
DAV:   6    -0.105374554962E+03    0.35830E+01   -0.16241E+00   120   0.436E+00    0.929E+00
DAV:   7    -0.103513110782E+03    0.18614E+01   -0.43824E+00   120   0.640E+00    0.132E+00
DAV:   8    -0.103461105265E+03    0.52006E-01   -0.32174E-01   132   0.216E+00    0.695E-01
DAV:   9    -0.103426658238E+03    0.34447E-01   -0.64390E-02   132   0.682E-01    0.371E-01
DAV:  10    -0.103425720670E+03    0.93757E-03   -0.32604E-03   132   0.196E-01    0.174E-01
DAV:  11    -0.103424929976E+03    0.79069E-03   -0.58056E-03   120   0.203E-01    0.103E-01
DAV:  12    -0.103427731172E+03   -0.28012E-02   -0.12805E-03   120   0.919E-02    0.698E-02
DAV:  13    -0.103433596379E+03   -0.58652E-02   -0.20445E-03   120   0.106E-01    0.389E-02
DAV:  14    -0.103436351073E+03   -0.27547E-02   -0.22132E-04   144   0.383E-02    0.257E-02
DAV:  15    -0.103442446882E+03   -0.60958E-02   -0.79565E-04   108   0.691E-02    0.223E-02
DAV:  16    -0.103443159593E+03   -0.71271E-03   -0.36003E-05   132   0.223E-02    0.108E-02
DAV:  17    -0.103444790228E+03   -0.16306E-02   -0.19930E-04   108   0.304E-02    0.635E-03
DAV:  18    -0.103444881443E+03   -0.91215E-04   -0.49609E-06   144   0.766E-03    0.329E-03
DAV:  19    -0.103445147399E+03   -0.26596E-03   -0.88715E-06   132   0.663E-03    0.247E-03
DAV:  20    -0.103445224091E+03   -0.76692E-04   -0.19441E-06   120   0.370E-03    0.136E-03
DAV:  21    -0.103445254750E+03   -0.30659E-04   -0.45076E-07   108   0.209E-03    0.946E-04
DAV:  22    -0.103445270916E+03   -0.16167E-04   -0.38766E-07   108   0.151E-03    0.910E-04
DAV:  23    -0.103445274803E+03   -0.38867E-05   -0.69419E-08   108   0.783E-04    0.301E-04
DAV:  24    -0.103445279022E+03   -0.42185E-05   -0.60843E-08   108   0.615E-04    0.278E-04
DAV:  25    -0.103445280265E+03   -0.12429E-05   -0.11406E-08   108   0.333E-04    0.168E-04
DAV:  26    -0.103445281525E+03   -0.12605E-05   -0.90422E-09   108   0.305E-04    0.747E-05
DAV:  27    -0.103445281614E+03   -0.88975E-07    0.38011E-09   108   0.141E-04
   1 F= -.10344528E+03 E0= -.10344528E+03  d E =-.654110E-10
       N       E                     dE             d eps       ncg     rms          rms(c)
DAV:   1    -0.103441639479E+03    0.36420E-02   -0.84017E-02    96   0.862E-01    0.129E-01
DAV:   2    -0.103441993706E+03   -0.35423E-03   -0.39946E-03   132   0.215E-01    0.561E-02
DAV:   3    -0.103441979588E+03    0.14118E-04   -0.14677E-04   132   0.454E-02    0.295E-02
DAV:   4    -0.103441982663E+03   -0.30752E-05   -0.35554E-05   132   0.221E-02    0.861E-03
DAV:   5    -0.103441982008E+03    0.65476E-06   -0.61709E-06   132   0.988E-03
   2 F= -.10344198E+03 E0= -.10344198E+03  d E =-.622271E-10
       N       E                     dE             d eps       ncg     rms          rms(c)
DAV:   1    -0.103441022458E+03    0.96020E-03   -0.33883E-01    96   0.172E+00    0.267E-01
DAV:   2    -0.103442446690E+03   -0.14242E-02   -0.15986E-02   132   0.428E-01    0.113E-01
DAV:   3    -0.103442397402E+03    0.49288E-04   -0.59504E-04   132   0.900E-02    0.613E-02
DAV:   4    -0.103442412055E+03   -0.14653E-04   -0.14036E-04   132   0.444E-02    0.178E-02
DAV:   5    -0.103442409933E+03    0.21223E-05   -0.26293E-05   132   0.201E-02    0.999E-03
DAV:   6    -0.103442409341E+03    0.59107E-06   -0.51215E-06   132   0.808E-03
   3 F= -.10344241E+03 E0= -.10344241E+03  d E =-.808039E-10
       N       E                     dE             d eps       ncg     rms          rms(c)
DAV:   1    -0.103441652304E+03    0.75763E-03   -0.16903E-01    96   0.118E+00    0.158E-01
DAV:   2    -0.103442343724E+03   -0.69142E-03   -0.75462E-03   132   0.292E-01    0.766E-02
DAV:   3    -0.103442332310E+03    0.11414E-04   -0.26790E-04   132   0.617E-02    0.395E-02
DAV:   4    -0.103442344871E+03   -0.12562E-04   -0.60790E-05   132   0.296E-02    0.114E-02
DAV:   5    -0.103442344658E+03    0.21356E-06   -0.10246E-05   132   0.128E-02    0.616E-03
DAV:   6    -0.103442345130E+03   -0.47229E-06   -0.27328E-06   120   0.570E-03
   4 F= -.10344235E+03 E0= -.10344235E+03  d E =-.630550E-10
       N       E                     dE             d eps       ncg     rms          rms(c)
DAV:   1    -0.103440691622E+03    0.16530E-02   -0.33677E-01    96   0.167E+00    0.244E-01
DAV:   2    -0.103442163843E+03   -0.14722E-02   -0.16004E-02   132   0.425E-01    0.111E-01
DAV:   3    -0.103442125273E+03    0.38569E-04   -0.52618E-04   132   0.875E-02    0.594E-02
DAV:   4    -0.103442140040E+03   -0.14767E-04   -0.14173E-04   132   0.450E-02    0.163E-02
DAV:   5    -0.103442135746E+03    0.42949E-05   -0.26729E-05   132   0.201E-02    0.927E-03
DAV:   6    -0.103442135193E+03    0.55254E-06   -0.55036E-06   144   0.812E-03
   5 F= -.10344214E+03 E0= -.10344214E+03  d E =-.504545E-11
       N       E                     dE             d eps       ncg     rms          rms(c)
DAV:   1    -0.103440035317E+03    0.21004E-02   -0.16677E-01    96   0.120E+00    0.162E-01
DAV:   2    -0.103440970805E+03   -0.93549E-03   -0.99276E-03   132   0.336E-01    0.933E-02
DAV:   3    -0.103440932836E+03    0.37969E-04   -0.28498E-04   132   0.666E-02    0.511E-02
DAV:   4    -0.103440939674E+03   -0.68382E-05   -0.11243E-04   132   0.403E-02    0.118E-02
DAV:   5    -0.103440938274E+03    0.14001E-05   -0.22118E-05   132   0.177E-02    0.763E-03
DAV:   6    -0.103440939891E+03   -0.16172E-05   -0.34891E-06   132   0.615E-03    0.506E-03
DAV:   7    -0.103440945637E+03   -0.57455E-05   -0.54110E-07   108   0.274E-03    0.169E-03
DAV:   8    -0.103440950857E+03   -0.52200E-05   -0.44490E-07   108   0.232E-03    0.693E-04
DAV:   9    -0.103440957029E+03   -0.61719E-05   -0.37497E-07   108   0.186E-03    0.516E-04
DAV:  10    -0.103440963859E+03   -0.68300E-05   -0.57453E-07   120   0.169E-03    0.484E-04
DAV:  11    -0.103440965079E+03   -0.12201E-05   -0.36521E-08   108   0.738E-04    0.339E-04
DAV:  12    -0.103440966921E+03   -0.18424E-05   -0.46154E-08   108   0.594E-04    0.172E-04
DAV:  13    -0.103440968201E+03   -0.12801E-05   -0.34320E-08   108   0.426E-04    0.996E-05
DAV:  14    -0.103440969160E+03   -0.95903E-06   -0.15243E-08   108   0.294E-04
   6 F= -.10344097E+03 E0= -.10344097E+03  d E =-.804053E-10
       N       E                     dE             d eps       ncg     rms          rms(c)
DAV:   1    -0.103438585169E+03    0.23830E-02   -0.33730E-01    96   0.174E+00    0.265E-01
DAV:   2    -0.103440948840E+03   -0.23637E-02   -0.25529E-02   120   0.555E-01    0.169E-01
DAV:   3    -0.103440777726E+03    0.17111E-03   -0.69121E-04   144   0.115E-01    0.886E-02
DAV:   4    -0.103440777975E+03   -0.24847E-06   -0.45531E-04   120   0.801E-02    0.176E-02
DAV:   5    -0.103440768902E+03    0.90733E-05   -0.71743E-05   132   0.321E-02    0.133E-02
DAV:   6    -0.103440768724E+03    0.17744E-06   -0.12445E-05   132   0.103E-02    0.854E-03
DAV:   7    -0.103440779470E+03   -0.10746E-04   -0.10351E-06   108   0.392E-03    0.363E-03
DAV:   8    -0.103440798053E+03   -0.18582E-04   -0.22492E-06   132   0.562E-03    0.146E-03
DAV:   9    -0.103440812298E+03   -0.14245E-04   -0.12625E-06   132   0.308E-03    0.181E-03
DAV:  10    -0.103440831016E+03   -0.18718E-04   -0.70302E-07   108   0.210E-03    0.874E-04
DAV:  11    -0.103440838716E+03   -0.77001E-05   -0.42120E-07   108   0.140E-03    0.604E-04
DAV:  12    -0.103440845767E+03   -0.70505E-05   -0.17160E-07   108   0.980E-04    0.244E-04
DAV:  13    -0.103440850556E+03   -0.47894E-05   -0.14896E-07   108   0.756E-04    0.261E-04
DAV:  14    -0.103440852933E+03   -0.23770E-05   -0.28071E-08   108   0.410E-04    0.139E-04
DAV:  15    -0.103440854287E+03   -0.13544E-05   -0.14579E-08   108   0.320E-04    0.724E-05
DAV:  16    -0.103440854907E+03   -0.62001E-06    0.10214E-09   108   0.176E-04
   7 F= -.10344085E+03 E0= -.10344085E+03  d E =-.624377E-10
       N       E                     dE             d eps       ncg     rms          rms(c)
DAV:   1    -0.103440011410E+03    0.84288E-03   -0.19160E-01    96   0.139E+00    0.193E-01
DAV:   2    -0.103441445840E+03   -0.14344E-02   -0.14871E-02   132   0.443E-01    0.121E-01
DAV:   3    -0.103441359360E+03    0.86480E-04   -0.39279E-04   132   0.874E-02    0.662E-02
DAV:   4    -0.103441358634E+03    0.72543E-06   -0.24041E-04   132   0.623E-02    0.121E-02
DAV:   5    -0.103441353979E+03    0.46555E-05   -0.49767E-05   132   0.262E-02    0.103E-02
DAV:   6    -0.103441354581E+03   -0.60222E-06   -0.46588E-06   144   0.699E-03
   8 F= -.10344135E+03 E0= -.10344135E+03  d E =-.700555E-10
       N       E                     dE             d eps       ncg     rms          rms(c)
DAV:   1    -0.103439288926E+03    0.20651E-02   -0.33684E-01    96   0.180E+00    0.265E-01
DAV:   2    -0.103441312253E+03   -0.20233E-02   -0.20802E-02   132   0.507E-01    0.153E-01
DAV:   3    -0.103441236408E+03    0.75845E-04   -0.55906E-04   132   0.947E-02    0.811E-02
DAV:   4    -0.103441235052E+03    0.13554E-05   -0.22982E-04   132   0.573E-02    0.158E-02
DAV:   5    -0.103441225379E+03    0.96736E-05   -0.40157E-05   144   0.239E-02    0.107E-02
DAV:   6    -0.103441224446E+03    0.93263E-06   -0.74190E-06   132   0.102E-02
   9 F= -.10344122E+03 E0= -.10344122E+03  d E =-.599352E-10
       N       E                     dE             d eps       ncg     rms          rms(c)
DAV:   1    -0.103439289165E+03    0.19362E-02   -0.17178E-01    96   0.128E+00    0.184E-01
DAV:   2    -0.103440434577E+03   -0.11454E-02   -0.11473E-02   132   0.379E-01    0.116E-01
DAV:   3    -0.103440408562E+03    0.26015E-04   -0.28478E-04   132   0.708E-02    0.631E-02
DAV:   4    -0.103440428358E+03   -0.19797E-04   -0.17018E-04   120   0.494E-02    0.115E-02
DAV:   5    -0.103440423895E+03    0.44632E-05   -0.37543E-05   132   0.223E-02    0.891E-03
DAV:   6    -0.103440424155E+03   -0.26022E-06   -0.71287E-06   132   0.809E-03
  10 F= -.10344042E+03 E0= -.10344042E+03  d E =-.741312E-10
       N       E                     dE             d eps       ncg     rms          rms(c)
DAV:   1    -0.103438095361E+03    0.23285E-02   -0.35220E-01    96   0.181E+00    0.278E-01
DAV:   2    -0.103440475413E+03   -0.23801E-02   -0.24075E-02   132   0.547E-01    0.180E-01
DAV:   3    -0.103440349268E+03    0.12615E-03   -0.65504E-04   144   0.110E-01    0.870E-02
DAV:   4    -0.103440376581E+03   -0.27313E-04   -0.41919E-04   120   0.749E-02    0.170E-02
DAV:   5    -0.103440361191E+03    0.15390E-04   -0.70965E-05   132   0.304E-02    0.117E-02
DAV:   6    -0.103440361305E+03   -0.11320E-06   -0.15518E-05   132   0.108E-02    0.619E-03
DAV:   7    -0.103440373548E+03   -0.12243E-04   -0.14681E-06   120   0.399E-03    0.253E-03
DAV:   8    -0.103440391075E+03   -0.17527E-04   -0.24896E-06   132   0.441E-03    0.137E-03
DAV:   9    -0.103440408295E+03   -0.17220E-04   -0.14653E-06   120   0.300E-03    0.106E-03
DAV:  10    -0.103440421295E+03   -0.13000E-04   -0.10037E-06   108   0.224E-03    0.385E-04
DAV:  11    -0.103440427351E+03   -0.60564E-05   -0.17917E-07   108   0.109E-03    0.220E-04
DAV:  12    -0.103440432926E+03   -0.55749E-05   -0.26456E-07    96   0.101E-03    0.176E-04
DAV:  13    -0.103440434750E+03   -0.18240E-05   -0.35136E-08   108   0.444E-04    0.127E-04
DAV:  14    -0.103440436561E+03   -0.18113E-05   -0.33933E-08    96   0.416E-04    0.486E-05
DAV:  15    -0.103440437140E+03   -0.57893E-06   -0.25180E-09    96   0.216E-04
  11 F= -.10344044E+03 E0= -.10344044E+03  d E =-.672682E-10
       N       E                     dE             d eps       ncg     rms          rms(c)
DAV:   1    -0.103440763999E+03   -0.32744E-03   -0.17351E-01    96   0.127E+00    0.195E-01
DAV:   2    -0.103441869649E+03   -0.11056E-02   -0.11459E-02   132   0.386E-01    0.120E-01
DAV:   3    -0.103441808440E+03    0.61209E-04   -0.31369E-04   156   0.751E-02    0.606E-02
DAV:   4    -0.103441811327E+03   -0.28871E-05   -0.17931E-04   132   0.504E-02    0.122E-02
DAV:   5    -0.103441805633E+03    0.56936E-05   -0.36143E-05   132   0.217E-02    0.868E-03
DAV:   6    -0.103441807103E+03   -0.14698E-05   -0.77022E-06   132   0.826E-03    0.499E-03
DAV:   7    -0.103441816377E+03   -0.92741E-05   -0.11899E-06   120   0.386E-03    0.203E-03
DAV:   8    -0.103441829937E+03   -0.13560E-04   -0.16037E-06   120   0.358E-03    0.966E-04
DAV:   9    -0.103441840607E+03   -0.10671E-04   -0.69416E-07   108   0.227E-03    0.873E-04
DAV:  10    -0.103441852956E+03   -0.12349E-04   -0.11642E-06   120   0.221E-03    0.320E-04
DAV:  11    -0.103441857230E+03   -0.42733E-05   -0.15663E-07   108   0.993E-04    0.210E-04
DAV:  12    -0.103441860840E+03   -0.36099E-05   -0.13578E-07   108   0.773E-04    0.116E-04
DAV:  13    -0.103441862412E+03   -0.15722E-05   -0.39385E-08   108   0.435E-04    0.984E-05
DAV:  14    -0.103441863601E+03   -0.11892E-05   -0.15534E-08    96   0.308E-04    0.366E-05
DAV:  15    -0.103441864050E+03   -0.44897E-06   -0.70710E-10   108   0.175E-04
  12 F= -.10344186E+03 E0= -.10344186E+03  d E =-.705002E-10
       N       E                     dE             d eps       ncg     rms          rms(c)
DAV:   1    -0.103440212631E+03    0.16510E-02   -0.33388E-01    96   0.175E+00    0.270E-01
DAV:   2    -0.103441899794E+03   -0.16872E-02   -0.17824E-02   132   0.471E-01    0.133E-01
DAV:   3    -0.103441841990E+03    0.57804E-04   -0.56838E-04   132   0.935E-02    0.712E-02
DAV:   4    -0.103441852370E+03   -0.10380E-04   -0.19758E-04   132   0.567E-02    0.161E-02
DAV:   5    -0.103441846077E+03    0.62926E-05   -0.47378E-05   144   0.263E-02    0.114E-02
DAV:   6    -0.103441845660E+03    0.41764E-06   -0.71439E-06   132   0.945E-03
  13 F= -.10344185E+03 E0= -.10344185E+03  d E =-.786225E-10
       N       E                     dE             d eps       ncg     rms          rms(c)
DAV:   1    -0.103439477016E+03    0.23691E-02   -0.16994E-01    96   0.130E+00    0.194E-01
DAV:   2    -0.103440716979E+03   -0.12400E-02   -0.12823E-02   132   0.399E-01    0.114E-01
DAV:   3    -0.103440666516E+03    0.50463E-04   -0.36682E-04   144   0.787E-02    0.651E-02
DAV:   4    -0.103440687394E+03   -0.20878E-04   -0.19245E-04   132   0.556E-02    0.131E-02
DAV:   5    -0.103440686402E+03    0.99188E-06   -0.49613E-05   144   0.262E-02    0.104E-02
DAV:   6    -0.103440685192E+03    0.12092E-05   -0.58550E-06   132   0.825E-03    0.709E-03
DAV:   7    -0.103440688379E+03   -0.31862E-05   -0.17859E-06   132   0.508E-03    0.273E-03
DAV:   8    -0.103440693340E+03   -0.49618E-05   -0.51653E-07   108   0.331E-03    0.763E-04
DAV:   9    -0.103440699388E+03   -0.60478E-05   -0.52528E-07   108   0.236E-03    0.101E-03
DAV:  10    -0.103440707873E+03   -0.84852E-05   -0.42747E-07   108   0.179E-03    0.307E-04
DAV:  11    -0.103440710332E+03   -0.24585E-05   -0.11068E-07   108   0.932E-04    0.260E-04
DAV:  12    -0.103440713461E+03   -0.31286E-05   -0.74449E-08   108   0.690E-04    0.133E-04
DAV:  13    -0.103440715879E+03   -0.24180E-05   -0.74909E-08   108   0.587E-04    0.112E-04
DAV:  14    -0.103440717119E+03   -0.12403E-05   -0.18541E-08   108   0.326E-04    0.752E-05
DAV:  15    -0.103440717860E+03   -0.74113E-06   -0.57752E-09   108   0.235E-04
  14 F= -.10344072E+03 E0= -.10344072E+03  d E =-.712188E-10
       N       E                     dE             d eps       ncg     rms          rms(c)
DAV:   1    -0.103438708482E+03    0.20086E-02   -0.34957E-01    96   0.176E+00    0.262E-01
DAV:   2    -0.103440904283E+03   -0.21958E-02   -0.22749E-02   120   0.531E-01    0.171E-01
DAV:   3    -0.103440793810E+03    0.11047E-03   -0.59188E-04   156   0.103E-01    0.877E-02
DAV:   4    -0.103440799994E+03   -0.61835E-05   -0.35789E-04   120   0.715E-02    0.176E-02
DAV:   5    -0.103440790439E+03    0.95550E-05   -0.72246E-05   132   0.308E-02    0.122E-02
DAV:   6    -0.103440795875E+03   -0.54365E-05   -0.17178E-05   132   0.119E-02    0.720E-03
DAV:   7    -0.103440815330E+03   -0.19454E-04   -0.22287E-06   132   0.514E-03    0.295E-03
DAV:   8    -0.103440840543E+03   -0.25214E-04   -0.23867E-06   132   0.422E-03    0.107E-03
DAV:   9    -0.103440861666E+03   -0.21123E-04   -0.18918E-06   132   0.331E-03    0.132E-03
DAV:  10    -0.103440883603E+03   -0.21937E-04   -0.20566E-06   120   0.312E-03    0.454E-04
DAV:  11    -0.103440889243E+03   -0.56398E-05   -0.20973E-07   108   0.123E-03    0.305E-04
DAV:  12    -0.103440894992E+03   -0.57488E-05   -0.22311E-07    96   0.101E-03    0.151E-04
DAV:  13    -0.103440897710E+03   -0.27181E-05   -0.10425E-07   108   0.646E-04    0.151E-04
DAV:  14    -0.103440899327E+03   -0.16170E-05   -0.27354E-08   108   0.400E-04    0.771E-05
DAV:  15    -0.103440899903E+03   -0.57692E-06   -0.35980E-09   108   0.217E-04
  15 F= -.10344090E+03 E0= -.10344090E+03  d E =-.709817E-10
       N       E                     dE             d eps       ncg     rms          rms(c)
DAV:   1    -0.103440116750E+03    0.78258E-03   -0.17380E-01    96   0.124E+00    0.186E-01
DAV:   2    -0.103441352369E+03   -0.12356E-02   -0.12677E-02   132   0.388E-01    0.129E-01
DAV:   3    -0.103441278505E+03    0.73864E-04   -0.31340E-04   144   0.770E-02    0.631E-02
DAV:   4    -0.103441283979E+03   -0.54741E-05   -0.22046E-04   120   0.547E-02    0.127E-02
DAV:   5    -0.103441275864E+03    0.81147E-05   -0.39187E-05   132   0.228E-02    0.880E-03
DAV:   6    -0.103441277673E+03   -0.18084E-05   -0.90643E-06   132   0.808E-03    0.455E-03
DAV:   7    -0.103441287649E+03   -0.99763E-05   -0.59299E-07   108   0.269E-03    0.223E-03
DAV:   8    -0.103441305655E+03   -0.18006E-04   -0.24613E-06   132   0.411E-03    0.121E-03
DAV:   9    -0.103441316706E+03   -0.11050E-04   -0.68689E-07   108   0.230E-03    0.101E-03
DAV:  10    -0.103441329075E+03   -0.12369E-04   -0.10226E-06   108   0.211E-03    0.347E-04
DAV:  11    -0.103441332848E+03   -0.37735E-05   -0.14314E-07   108   0.885E-04    0.211E-04
DAV:  12    -0.103441336634E+03   -0.37861E-05   -0.12162E-07    96   0.744E-04    0.146E-04
DAV:  13    -0.103441337994E+03   -0.13596E-05   -0.32228E-08   108   0.388E-04    0.139E-04
DAV:  14    -0.103441339334E+03   -0.13403E-05   -0.20920E-08    96   0.330E-04    0.584E-05
DAV:  15    -0.103441339747E+03   -0.41225E-06    0.52619E-10   108   0.182E-04
  16 F= -.10344134E+03 E0= -.10344134E+03  d E =-.699438E-10
       N       E                     dE             d eps       ncg     rms          rms(c)
DAV:   1    -0.103439207513E+03    0.21318E-02   -0.33957E-01    96   0.179E+00    0.267E-01
DAV:   2    -0.103441236907E+03   -0.20294E-02   -0.21145E-02   132   0.501E-01    0.155E-01
DAV:   3    -0.103441139752E+03    0.97155E-04   -0.57245E-04   132   0.978E-02    0.804E-02
DAV:   4    -0.103441146684E+03   -0.69315E-05   -0.29413E-04   132   0.648E-02    0.169E-02
DAV:   5    -0.103441136633E+03    0.10051E-04   -0.57509E-05   132   0.284E-02    0.126E-02
DAV:   6    -0.103441135094E+03    0.15388E-05   -0.11857E-05   132   0.110E-02    0.738E-03
DAV:   7    -0.103441143697E+03   -0.86035E-05   -0.24653E-06   132   0.589E-03    0.272E-03
DAV:   8    -0.103441157468E+03   -0.13771E-04   -0.13123E-06   132   0.422E-03    0.125E-03
DAV:   9    -0.103441173158E+03   -0.15690E-04   -0.89061E-07   108   0.285E-03    0.119E-03
DAV:  10    -0.103441189425E+03   -0.16268E-04   -0.98902E-07   108   0.238E-03    0.563E-04
DAV:  11    -0.103441198856E+03   -0.94301E-05   -0.39749E-07   108   0.145E-03    0.259E-04
DAV:  12    -0.103441204314E+03   -0.54582E-05   -0.11578E-07   108   0.794E-04    0.239E-04
DAV:  13    -0.103441207642E+03   -0.33281E-05   -0.52341E-08    96   0.531E-04    0.123E-04
DAV:  14    -0.103441209795E+03   -0.21535E-05   -0.36360E-08    96   0.423E-04    0.557E-05
DAV:  15    -0.103441210459E+03   -0.66349E-06   -0.92756E-10   120   0.206E-04
  17 F= -.10344121E+03 E0= -.10344121E+03  d E =-.637720E-10
       N       E                     dE             d eps       ncg     rms          rms(c)
DAV:   1    -0.103440546421E+03    0.66337E-03   -0.17339E-01    96   0.127E+00    0.189E-01
DAV:   2    -0.103441556715E+03   -0.10103E-02   -0.10571E-02   120   0.359E-01    0.115E-01
DAV:   3    -0.103441506478E+03    0.50236E-04   -0.27682E-04   144   0.675E-02    0.611E-02
DAV:   4    -0.103441491736E+03    0.14742E-04   -0.13310E-04   132   0.424E-02    0.114E-02
DAV:   5    -0.103441487792E+03    0.39444E-05   -0.19808E-05   132   0.169E-02    0.800E-03
DAV:   6    -0.103441492729E+03   -0.49377E-05   -0.63041E-06   132   0.854E-03    0.438E-03
DAV:   7    -0.103441509355E+03   -0.16626E-04   -0.24810E-06   120   0.558E-03    0.153E-03
DAV:   8    -0.103441524566E+03   -0.15211E-04   -0.91508E-07   108   0.325E-03    0.100E-03
DAV:   9    -0.103441543520E+03   -0.18954E-04   -0.19587E-06   120   0.317E-03    0.753E-04
DAV:  10    -0.103441555980E+03   -0.12461E-04   -0.10907E-06   120   0.223E-03    0.392E-04
DAV:  11    -0.103441559966E+03   -0.39862E-05   -0.13837E-07   120   0.922E-04    0.219E-04
DAV:  12    -0.103441564475E+03   -0.45084E-05   -0.29107E-07   108   0.104E-03    0.174E-04
DAV:  13    -0.103441565428E+03   -0.95342E-06   -0.25645E-08   120   0.379E-04
  18 F= -.10344157E+03 E0= -.10344157E+03  d E =-.742381E-10
       N       E                     dE             d eps       ncg     rms          rms(c)
DAV:   1    -0.103439730035E+03    0.18344E-02   -0.33762E-01    96   0.177E+00    0.267E-01
DAV:   2    -0.103441552276E+03   -0.18222E-02   -0.19141E-02   132   0.478E-01    0.144E-01
DAV:   3    -0.103441477811E+03    0.74465E-04   -0.54447E-04   132   0.906E-02    0.761E-02
DAV:   4    -0.103441473602E+03    0.42084E-05   -0.20258E-04   132   0.555E-02    0.158E-02
DAV:   5    -0.103441463990E+03    0.96126E-05   -0.42983E-05   132   0.251E-02    0.108E-02
DAV:   6    -0.103441464713E+03   -0.72373E-06   -0.74039E-06   132   0.946E-03
  19 F= -.10344146E+03 E0= -.10344146E+03  d E =-.658782E-10
       N       E                     dE             d eps       ncg     rms          rms(c)
DAV:   1    -0.103439730112E+03    0.17339E-02   -0.16796E-01    96   0.131E+00    0.176E-01
DAV:   2    -0.103441060381E+03   -0.13303E-02   -0.13532E-02   132   0.410E-01    0.112E-01
DAV:   3    -0.103441019840E+03    0.40541E-04   -0.33247E-04   132   0.747E-02    0.654E-02
DAV:   4    -0.103441038401E+03   -0.18561E-04   -0.16123E-04   132   0.521E-02    0.112E-02
DAV:   5    -0.103441039480E+03   -0.10782E-05   -0.42462E-05   144   0.244E-02    0.930E-03
DAV:   6    -0.103441041196E+03   -0.17166E-05   -0.44103E-06   132   0.751E-03    0.653E-03
DAV:   7    -0.103441048704E+03   -0.75079E-05   -0.14729E-06   108   0.533E-03    0.211E-03
DAV:   8    -0.103441054984E+03   -0.62797E-05   -0.10072E-06   108   0.408E-03    0.950E-04
DAV:   9    -0.103441062004E+03   -0.70198E-05   -0.52059E-07   108   0.239E-03    0.741E-04
DAV:  10    -0.103441069494E+03   -0.74905E-05   -0.52965E-07   108   0.179E-03    0.346E-04
DAV:  11    -0.103441071876E+03   -0.23816E-05   -0.10869E-07   108   0.935E-04    0.314E-04
DAV:  12    -0.103441074891E+03   -0.30153E-05   -0.11875E-07   108   0.800E-04    0.166E-04
DAV:  13    -0.103441076502E+03   -0.16113E-05   -0.63828E-08   108   0.556E-04    0.111E-04
DAV:  14    -0.103441077632E+03   -0.11299E-05   -0.30597E-08   108   0.403E-04    0.960E-05
DAV:  15    -0.103441078012E+03   -0.37956E-06   -0.16887E-09   120   0.220E-04
  20 F= -.10344108E+03 E0= -.10344108E+03  d E =-.712621E-10
       N       E                     dE             d eps       ncg     rms          rms(c)
DAV:   1    -0.103438822068E+03    0.22556E-02   -0.33938E-01    96   0.179E+00    0.246E-01
DAV:   2    -0.103441239812E+03   -0.24177E-02   -0.25583E-02   132   0.540E-01    0.162E-01
DAV:   3    -0.103441082417E+03    0.15739E-03   -0.62010E-04   132   0.105E-01    0.868E-02
DAV:   4    -0.103441076641E+03    0.57762E-05   -0.40457E-04   120   0.759E-02    0.168E-02
DAV:   5    -0.103441069266E+03    0.73750E-05   -0.81153E-05   132   0.334E-02    0.127E-02
DAV:   6    -0.103441068936E+03    0.32964E-06   -0.11183E-05   132   0.994E-03    0.844E-03
DAV:   7    -0.103441078837E+03   -0.99002E-05   -0.97768E-07    96   0.397E-03    0.379E-03
DAV:   8    -0.103441097049E+03   -0.18212E-04   -0.23750E-06   132   0.565E-03    0.146E-03
DAV:   9    -0.103441111484E+03   -0.14435E-04   -0.12079E-06   120   0.314E-03    0.161E-03
DAV:  10    -0.103441128703E+03   -0.17219E-04   -0.71938E-07   108   0.206E-03    0.810E-04
DAV:  11    -0.103441135762E+03   -0.70591E-05   -0.33049E-07   108   0.127E-03    0.549E-04
DAV:  12    -0.103441143228E+03   -0.74658E-05   -0.20151E-07   108   0.104E-03    0.264E-04
DAV:  13    -0.103441146936E+03   -0.37082E-05   -0.95983E-08   108   0.653E-04    0.202E-04
DAV:  14    -0.103441149587E+03   -0.26508E-05   -0.38698E-08   108   0.467E-04    0.132E-04
DAV:  15    -0.103441150642E+03   -0.10550E-05   -0.10430E-08   108   0.293E-04    0.962E-05
DAV:  16    -0.103441151387E+03   -0.74547E-06   -0.79810E-10   108   0.214E-04
  21 F= -.10344115E+03 E0= -.10344115E+03  d E =-.877878E-10
       N       E                     dE             d eps       ncg     rms          rms(c)
DAV:   1    -0.103441401072E+03   -0.25043E-03   -0.16975E-01    96   0.123E+00    0.159E-01
DAV:   2    -0.103442466310E+03   -0.10652E-02   -0.11212E-02   120   0.362E-01    0.104E-01
DAV:   3    -0.103442415247E+03    0.51063E-04   -0.30573E-04   132   0.718E-02    0.594E-02
DAV:   4    -0.103442412654E+03    0.25924E-05   -0.14386E-04   132   0.467E-02    0.118E-02
DAV:   5    -0.103442409147E+03    0.35070E-05   -0.29945E-05   120   0.201E-02    0.863E-03
DAV:   6    -0.103442409751E+03   -0.60362E-06   -0.41733E-06   132   0.665E-03
  22 F= -.10344241E+03 E0= -.10344241E+03  d E =-.587409E-11
       N       E                     dE             d eps       ncg     rms          rms(c)
DAV:   1    -0.103440681505E+03    0.17276E-02   -0.33576E-01    96   0.164E+00    0.196E-01
DAV:   2    -0.103442228768E+03   -0.15473E-02   -0.16084E-02   132   0.415E-01    0.104E-01
DAV:   3    -0.103442221603E+03    0.71647E-05   -0.49174E-04   144   0.849E-02    0.517E-02
DAV:   4    -0.103442246391E+03   -0.24788E-04   -0.11414E-04   132   0.419E-02    0.139E-02
DAV:   5    -0.103442244670E+03    0.17210E-05   -0.22483E-05   132   0.186E-02    0.739E-03
DAV:   6    -0.103442245764E+03   -0.10942E-05   -0.60975E-06   144   0.825E-03    0.416E-03
DAV:   7    -0.103442248736E+03   -0.29720E-05   -0.52553E-07   108   0.284E-03    0.143E-03
DAV:   8    -0.103442252094E+03   -0.33574E-05   -0.32379E-07   108   0.245E-03    0.743E-04
DAV:   9    -0.103442257658E+03   -0.55640E-05   -0.35710E-07   108   0.236E-03    0.379E-04
DAV:  10    -0.103442261543E+03   -0.38849E-05   -0.32317E-07   108   0.180E-03    0.309E-04
DAV:  11    -0.103442263392E+03   -0.18498E-05   -0.70290E-08   108   0.988E-04    0.234E-04
DAV:  12    -0.103442264997E+03   -0.16046E-05   -0.36202E-08   108   0.527E-04    0.123E-04
DAV:  13    -0.103442266356E+03   -0.13586E-05   -0.28761E-08   108   0.390E-04    0.851E-05
DAV:  14    -0.103442267411E+03   -0.10554E-05   -0.19773E-08   108   0.307E-04    0.605E-05
DAV:  15    -0.103442267965E+03   -0.55384E-06   -0.42307E-09   108   0.214E-04
  23 F= -.10344227E+03 E0= -.10344227E+03  d E =-.463768E-11
       N       E                     dE             d eps       ncg     rms          rms(c)
DAV:   1    -0.103441326312E+03    0.94110E-03   -0.16966E-01    96   0.119E+00    0.149E-01
DAV:   2    -0.103442106488E+03   -0.78018E-03   -0.82681E-03   132   0.301E-01    0.768E-02
DAV:   3    -0.103442089584E+03    0.16904E-04   -0.25277E-04   144   0.606E-02    0.394E-02
DAV:   4    -0.103442096703E+03   -0.71191E-05   -0.66793E-05   144   0.316E-02    0.105E-02
DAV:   5    -0.103442094970E+03    0.17328E-05   -0.13077E-05   144   0.141E-02    0.592E-03
DAV:   6    -0.103442095506E+03   -0.53575E-06   -0.29732E-06   132   0.593E-03
  24 F= -.10344210E+03 E0= -.10344210E+03  d E =-.515862E-10
       N       E                     dE             d eps       ncg     rms          rms(c)
DAV:   1    -0.103440235424E+03    0.18595E-02   -0.34671E-01    96   0.174E+00    0.268E-01
DAV:   2    -0.103441784958E+03   -0.15495E-02   -0.16848E-02   132   0.462E-01    0.124E-01
DAV:   3    -0.103441730370E+03    0.54589E-04   -0.52723E-04   144   0.901E-02    0.728E-02
DAV:   4    -0.103441743552E+03   -0.13183E-04   -0.18245E-04   132   0.523E-02    0.181E-02
DAV:   5    -0.103441740467E+03    0.30852E-05   -0.37318E-05   144   0.230E-02    0.103E-02
DAV:   6    -0.103441740103E+03    0.36461E-06   -0.46939E-06   132   0.765E-03
  25 F= -.10344174E+03 E0= -.10344174E+03  d E =-.442448E-11
       N       E                     dE             d eps       ncg     rms          rms(c)
DAV:   1    -0.103440988627E+03    0.75184E-03   -0.16801E-01    96   0.125E+00    0.175E-01
DAV:   2    -0.103442081098E+03   -0.10925E-02   -0.11627E-02   132   0.365E-01    0.931E-02
DAV:   3    -0.103442038556E+03    0.42542E-04   -0.35775E-04   144   0.744E-02    0.515E-02
DAV:   4    -0.103442049761E+03   -0.11206E-04   -0.12290E-04   132   0.425E-02    0.128E-02
DAV:   5    -0.103442050141E+03   -0.37928E-06   -0.24133E-05   132   0.188E-02    0.829E-03
DAV:   6    -0.103442050311E+03   -0.17068E-06   -0.35953E-06   144   0.681E-03
  26 F= -.10344205E+03 E0= -.10344205E+03  d E =-.888110E-10
       N       E                     dE             d eps       ncg     rms          rms(c)
DAV:   1    -0.103439845855E+03    0.22043E-02   -0.33471E-01    96   0.170E+00    0.226E-01
DAV:   2    -0.103441740532E+03   -0.18947E-02   -0.20004E-02   132   0.482E-01    0.134E-01
DAV:   3    -0.103441667035E+03    0.73497E-04   -0.57005E-04   132   0.952E-02    0.743E-02
DAV:   4    -0.103441677795E+03   -0.10760E-04   -0.23518E-04   132   0.592E-02    0.172E-02
DAV:   5    -0.103441671313E+03    0.64820E-05   -0.47156E-05   132   0.260E-02    0.109E-02
DAV:   6    -0.103441670924E+03    0.38892E-06   -0.68765E-06   144   0.877E-03
  27 F= -.10344167E+03 E0= -.10344167E+03  d E =-.609989E-10
       N       E                     dE             d eps       ncg     rms          rms(c)
DAV:   1    -0.103440580936E+03    0.10904E-02   -0.16877E-01    96   0.120E+00    0.174E-01
DAV:   2    -0.103441311259E+03   -0.73032E-03   -0.79918E-03   132   0.301E-01    0.789E-02
DAV:   3    -0.103441292855E+03    0.18404E-04   -0.27623E-04   132   0.629E-02    0.421E-02
DAV:   4    -0.103441306727E+03   -0.13872E-04   -0.71100E-05   132   0.314E-02    0.118E-02
DAV:   5    -0.103441308360E+03   -0.16328E-05   -0.12762E-05   132   0.140E-02    0.668E-03
DAV:   6    -0.103441310281E+03   -0.19211E-05   -0.26996E-06   132   0.572E-03    0.402E-03
DAV:   7    -0.103441314125E+03   -0.38447E-05   -0.37903E-07   108   0.232E-03    0.121E-03
DAV:   8    -0.103441317522E+03   -0.33962E-05   -0.26511E-07   108   0.188E-03    0.570E-04
DAV:   9    -0.103441322225E+03   -0.47035E-05   -0.25977E-07   108   0.176E-03    0.301E-04
DAV:  10    -0.103441325223E+03   -0.29981E-05   -0.21916E-07   108   0.130E-03    0.306E-04
DAV:  11    -0.103441326380E+03   -0.11568E-05   -0.34895E-08   108   0.690E-04    0.215E-04
DAV:  12    -0.103441327661E+03   -0.12812E-05   -0.31096E-08   108   0.465E-04    0.919E-05
DAV:  13    -0.103441328560E+03   -0.89860E-06   -0.16890E-08   108   0.319E-04
  28 F= -.10344133E+03 E0= -.10344133E+03  d E =-.447987E-11
       N       E                     dE             d eps       ncg     rms          rms(c)
DAV:   1    -0.103439196265E+03    0.21314E-02   -0.33876E-01    96   0.174E+00    0.266E-01
DAV:   2    -0.103441289659E+03   -0.20934E-02   -0.22694E-02   120   0.524E-01    0.156E-01
DAV:   3    -0.103441140652E+03    0.14901E-03   -0.65706E-04   144   0.109E-01    0.816E-02
DAV:   4    -0.103441142786E+03   -0.21334E-05   -0.37684E-04   120   0.723E-02    0.184E-02
DAV:   5    -0.103441135797E+03    0.69886E-05   -0.63038E-05   132   0.300E-02    0.131E-02
DAV:   6    -0.103441136246E+03   -0.44841E-06   -0.10132E-05   132   0.970E-03    0.795E-03
DAV:   7    -0.103441145921E+03   -0.96750E-05   -0.10461E-06    96   0.422E-03    0.281E-03
DAV:   8    -0.103441157892E+03   -0.11971E-04   -0.11523E-06   120   0.403E-03    0.110E-03
DAV:   9    -0.103441171363E+03   -0.13471E-04   -0.84485E-07   108   0.281E-03    0.117E-03
DAV:  10    -0.103441188676E+03   -0.17313E-04   -0.11688E-06   108   0.239E-03    0.705E-04
DAV:  11    -0.103441193132E+03   -0.44567E-05   -0.11741E-07   108   0.106E-03    0.448E-04
DAV:  12    -0.103441199385E+03   -0.62528E-05   -0.17089E-07    84   0.952E-04    0.222E-04
DAV:  13    -0.103441202656E+03   -0.32706E-05   -0.75715E-08   108   0.606E-04    0.197E-04
DAV:  14    -0.103441204916E+03   -0.22600E-05   -0.28775E-08   108   0.398E-04    0.114E-04
DAV:  15    -0.103441205714E+03   -0.79848E-06   -0.34432E-09   108   0.232E-04
  29 F= -.10344121E+03 E0= -.10344121E+03  d E =-.557661E-10
       N       E                     dE             d eps       ncg     rms          rms(c)
DAV:   1    -0.103441623425E+03   -0.41851E-03   -0.16761E-01    96   0.124E+00    0.192E-01
DAV:   2    -0.103442493306E+03   -0.86988E-03   -0.95678E-03   132   0.340E-01    0.943E-02
DAV:   3    -0.103442443970E+03    0.49336E-04   -0.29428E-04   132   0.681E-02    0.522E-02
DAV:   4    -0.103442444925E+03   -0.95432E-06   -0.11856E-04   132   0.419E-02    0.122E-02
DAV:   5    -0.103442442210E+03    0.27151E-05   -0.23544E-05   132   0.184E-02    0.832E-03
DAV:   6    -0.103442442602E+03   -0.39273E-06   -0.32112E-06   132   0.621E-03
  30 F= -.10344244E+03 E0= -.10344244E+03  d E =-.553529E-10
       N       E                     dE             d eps       ncg     rms          rms(c)
DAV:   1    -0.103440634328E+03    0.18079E-02   -0.33965E-01    96   0.170E+00    0.270E-01
DAV:   2    -0.103441959318E+03   -0.13250E-02   -0.15081E-02   132   0.425E-01    0.111E-01
DAV:   3    -0.103441922181E+03    0.37137E-04   -0.54977E-04   132   0.873E-02    0.627E-02
DAV:   4    -0.103441941443E+03   -0.19262E-04   -0.12383E-04   132   0.424E-02    0.186E-02
DAV:   5    -0.103441941856E+03   -0.41258E-06   -0.24189E-05   132   0.195E-02    0.943E-03
DAV:   6    -0.103441943084E+03   -0.12280E-05   -0.49808E-06   132   0.784E-03    0.592E-03
DAV:   7    -0.103441947209E+03   -0.41250E-05   -0.48470E-07   108   0.265E-03    0.200E-03
DAV:   8    -0.103441951342E+03   -0.41334E-05   -0.37323E-07   108   0.254E-03    0.868E-04
DAV:   9    -0.103441956487E+03   -0.51450E-05   -0.30967E-07   108   0.229E-03    0.573E-04
DAV:  10    -0.103441962126E+03   -0.56392E-05   -0.40246E-07   108   0.211E-03    0.647E-04
DAV:  11    -0.103441963489E+03   -0.13623E-05   -0.97630E-08   108   0.117E-03    0.476E-04
DAV:  12    -0.103441964632E+03   -0.11430E-05   -0.26254E-08   108   0.552E-04    0.258E-04
DAV:  13    -0.103441966220E+03   -0.15880E-05   -0.39957E-08   108   0.476E-04    0.885E-05
DAV:  14    -0.103441967301E+03   -0.10808E-05   -0.24598E-08   108   0.363E-04    0.163E-04
DAV:  15    -0.103441967864E+03   -0.56362E-06   -0.43137E-09   108   0.234E-04
  31 F= -.10344197E+03 E0= -.10344197E+03  d E =-.854552E-10
       N       E                     dE             d eps       ncg     rms          rms(c)
DAV:   1    -0.103440959915E+03    0.10074E-02   -0.16721E-01    96   0.125E+00    0.177E-01
DAV:   2    -0.103441997623E+03   -0.10377E-02   -0.10810E-02   132   0.347E-01    0.860E-02
DAV:   3    -0.103441966274E+03    0.31349E-04   -0.30271E-04   144   0.658E-02    0.473E-02
DAV:   4    -0.103441970933E+03   -0.46592E-05   -0.92382E-05   132   0.349E-02    0.115E-02
DAV:   5    -0.103441968896E+03    0.20373E-05   -0.16239E-05   132   0.154E-02    0.762E-03
DAV:   6    -0.103441969069E+03   -0.17333E-06   -0.28872E-06   132   0.607E-03
  32 F= -.10344197E+03 E0= -.10344197E+03  d E =-.473963E-11
       N       E                     dE             d eps       ncg     rms          rms(c)
DAV:   1    -0.103440304052E+03    0.16648E-02   -0.33960E-01    96   0.172E+00    0.222E-01
DAV:   2    -0.103442005952E+03   -0.17019E-02   -0.17874E-02   132   0.464E-01    0.125E-01
DAV:   3    -0.103441956762E+03    0.49190E-04   -0.53498E-04   144   0.914E-02    0.684E-02
DAV:   4    -0.103441969595E+03   -0.12833E-04   -0.18522E-04   132   0.534E-02    0.165E-02
DAV:   5    -0.103441963736E+03    0.58590E-05   -0.35761E-05   144   0.230E-02    0.985E-03
DAV:   6    -0.103441963814E+03   -0.77673E-07   -0.60776E-06   132   0.839E-03
  33 F= -.10344196E+03 E0= -.10344196E+03  d E =-.650877E-10
       N       E                     dE             d eps       ncg     rms          rms(c)
DAV:   1    -0.103440281273E+03    0.16825E-02   -0.17055E-01    96   0.124E+00    0.172E-01
DAV:   2    -0.103441480850E+03   -0.11996E-02   -0.12548E-02   120   0.379E-01    0.113E-01
DAV:   3    -0.103441421203E+03    0.59647E-04   -0.32348E-04   132   0.756E-02    0.619E-02
DAV:   4    -0.103441432838E+03   -0.11635E-04   -0.19694E-04   120   0.526E-02    0.119E-02
DAV:   5    -0.103441429535E+03    0.33025E-05   -0.40775E-05   132   0.232E-02    0.927E-03
DAV:   6    -0.103441427965E+03    0.15703E-05   -0.55661E-06   132   0.695E-03    0.634E-03
DAV:   7    -0.103441429464E+03   -0.14988E-05   -0.53910E-07   108   0.289E-03    0.258E-03
DAV:   8    -0.103441433170E+03   -0.37065E-05   -0.54153E-07   108   0.295E-03    0.760E-04
DAV:   9    -0.103441437575E+03   -0.44050E-05   -0.53847E-07   120   0.206E-03    0.918E-04
DAV:  10    -0.103441444072E+03   -0.64962E-05   -0.27155E-07    96   0.145E-03    0.417E-04
DAV:  11    -0.103441446358E+03   -0.22864E-05   -0.11799E-07   108   0.821E-04    0.373E-04
DAV:  12    -0.103441449055E+03   -0.26964E-05   -0.60108E-08   108   0.600E-04    0.158E-04
DAV:  13    -0.103441451024E+03   -0.19698E-05   -0.54363E-08    96   0.477E-04    0.115E-04
DAV:  14    -0.103441452155E+03   -0.11308E-05   -0.91370E-09   108   0.272E-04    0.907E-05
DAV:  15    -0.103441452926E+03   -0.77050E-06   -0.62778E-09    96   0.235E-04
  34 F= -.10344145E+03 E0= -.10344145E+03  d E =-.552363E-10
       N       E                     dE             d eps       ncg     rms          rms(c)
DAV:   1    -0.103439287234E+03    0.21649E-02   -0.34528E-01    96   0.177E+00    0.270E-01
DAV:   2    -0.103441318745E+03   -0.20315E-02   -0.21724E-02   120   0.521E-01    0.151E-01
DAV:   3    -0.103441203264E+03    0.11548E-03   -0.63991E-04   132   0.104E-01    0.862E-02
DAV:   4    -0.103441197799E+03    0.54656E-05   -0.29738E-04   132   0.666E-02    0.184E-02
DAV:   5    -0.103441192301E+03    0.54977E-05   -0.57060E-05   132   0.279E-02    0.123E-02
DAV:   6    -0.103441194472E+03   -0.21712E-05   -0.76294E-06   144   0.899E-03    0.827E-03
DAV:   7    -0.103441209547E+03   -0.15075E-04   -0.18065E-06   132   0.473E-03    0.241E-03
DAV:   8    -0.103441221999E+03   -0.12452E-04   -0.77228E-07   108   0.297E-03    0.108E-03
DAV:   9    -0.103441237877E+03   -0.15878E-04   -0.13801E-06   132   0.286E-03    0.106E-03
DAV:  10    -0.103441253548E+03   -0.15671E-04   -0.12993E-06   120   0.251E-03    0.495E-04
DAV:  11    -0.103441258146E+03   -0.45980E-05   -0.19703E-07   120   0.113E-03    0.421E-04
DAV:  12    -0.103441263507E+03   -0.53603E-05   -0.21508E-07    96   0.100E-03    0.182E-04
DAV:  13    -0.103441265934E+03   -0.24271E-05   -0.96079E-08   108   0.638E-04    0.196E-04
DAV:  14    -0.103441267414E+03   -0.14796E-05   -0.24124E-08    96   0.394E-04    0.952E-05
DAV:  15    -0.103441267894E+03   -0.48056E-06   -0.19496E-09   120   0.207E-04
  35 F= -.10344127E+03 E0= -.10344127E+03  d E =-.483459E-11
       N       E                     dE             d eps       ncg     rms          rms(c)
DAV:   1    -0.103441139714E+03    0.12770E-03   -0.16967E-01    96   0.127E+00    0.176E-01
DAV:   2    -0.103442296863E+03   -0.11571E-02   -0.12325E-02   120   0.375E-01    0.111E-01
DAV:   3    -0.103442224493E+03    0.72370E-04   -0.33271E-04   144   0.764E-02    0.592E-02
DAV:   4    -0.103442223582E+03    0.91097E-06   -0.19377E-04   120   0.525E-02    0.119E-02
DAV:   5    -0.103442219385E+03    0.41974E-05   -0.36561E-05   144   0.226E-02    0.911E-03
DAV:   6    -0.103442218998E+03    0.38675E-06   -0.52461E-06   144   0.684E-03
  36 F= -.10344222E+03 E0= -.10344222E+03  d E =-.569679E-11
       N       E                     dE             d eps       ncg     rms          rms(c)
DAV:   1    -0.103440178548E+03    0.20408E-02   -0.33806E-01    96   0.166E+00    0.209E-01
DAV:   2    -0.103441857126E+03   -0.16786E-02   -0.17477E-02   120   0.453E-01    0.121E-01
DAV:   3    -0.103441839576E+03    0.17550E-04   -0.55226E-04   144   0.924E-02    0.701E-02
DAV:   4    -0.103441867508E+03   -0.27932E-04   -0.15560E-04   132   0.512E-02    0.150E-02
DAV:   5    -0.103441865474E+03    0.20340E-05   -0.37891E-05   120   0.230E-02    0.963E-03
DAV:   6    -0.103441863738E+03    0.17365E-05   -0.51076E-06   132   0.809E-03    0.637E-03
DAV:   7    -0.103441866468E+03   -0.27306E-05   -0.11142E-06   108   0.450E-03    0.185E-03
DAV:   8    -0.103441870255E+03   -0.37861E-05   -0.50675E-07   108   0.296E-03    0.821E-04
DAV:   9    -0.103441877127E+03   -0.68726E-05   -0.44083E-07   108   0.239E-03    0.534E-04
DAV:  10    -0.103441882469E+03   -0.53419E-05   -0.39718E-07   108   0.184E-03    0.344E-04
DAV:  11    -0.103441884925E+03   -0.24559E-05   -0.11003E-07   108   0.105E-03    0.289E-04
DAV:  12    -0.103441886215E+03   -0.12905E-05   -0.26007E-08   108   0.486E-04    0.206E-04
DAV:  13    -0.103441888465E+03   -0.22495E-05   -0.75675E-08   108   0.567E-04    0.766E-05
DAV:  14    -0.103441889487E+03   -0.10217E-05   -0.23894E-08   108   0.339E-04    0.834E-05
DAV:  15    -0.103441890202E+03   -0.71529E-06   -0.81289E-09   108   0.247E-04
  37 F= -.10344189E+03 E0= -.10344189E+03  d E =-.432398E-11
       N       E                     dE             d eps       ncg     rms          rms(c)
DAV:   1    -0.103439590090E+03    0.22994E-02   -0.16476E-01    96   0.130E+00    0.161E-01
DAV:   2    -0.103440795864E+03   -0.12058E-02   -0.12604E-02   132   0.396E-01    0.107E-01
DAV:   3    -0.103440743723E+03    0.52141E-04   -0.30943E-04   132   0.734E-02    0.583E-02
DAV:   4    -0.103440740254E+03    0.34692E-05   -0.14868E-04   132   0.493E-02    0.106E-02
DAV:   5    -0.103440735033E+03    0.52212E-05   -0.30296E-05   132   0.210E-02    0.828E-03
DAV:   6    -0.103440734539E+03    0.49390E-06   -0.43166E-06   132   0.723E-03
  38 F= -.10344073E+03 E0= -.10344073E+03  d E =-.571324E-10
       N       E                     dE             d eps       ncg     rms          rms(c)
DAV:   1    -0.103438928016E+03    0.18070E-02   -0.34560E-01    96   0.182E+00    0.257E-01
DAV:   2    -0.103441076461E+03   -0.21484E-02   -0.21789E-02   132   0.528E-01    0.165E-01
DAV:   3    -0.103441014205E+03    0.62256E-04   -0.55922E-04   132   0.979E-02    0.881E-02
DAV:   4    -0.103441000105E+03    0.14100E-04   -0.28973E-04   132   0.616E-02    0.157E-02
DAV:   5    -0.103440987414E+03    0.12691E-04   -0.41758E-05   132   0.241E-02    0.115E-02
DAV:   6    -0.103440988787E+03   -0.13732E-05   -0.13108E-05   132   0.119E-02    0.648E-03
DAV:   7    -0.103441009162E+03   -0.20375E-04   -0.43368E-06   108   0.739E-03    0.227E-03
DAV:   8    -0.103441029967E+03   -0.20805E-04   -0.16881E-06   108   0.436E-03    0.126E-03
DAV:   9    -0.103441052602E+03   -0.22635E-04   -0.20491E-06   120   0.358E-03    0.112E-03
DAV:  10    -0.103441071314E+03   -0.18712E-04   -0.16782E-06   108   0.274E-03    0.544E-04
DAV:  11    -0.103441078920E+03   -0.76063E-05   -0.32846E-07   108   0.135E-03    0.245E-04
DAV:  12    -0.103441084749E+03   -0.58287E-05   -0.38443E-07    96   0.120E-03    0.221E-04
DAV:  13    -0.103441086514E+03   -0.17650E-05   -0.46178E-08   120   0.523E-04    0.110E-04
DAV:  14    -0.103441087515E+03   -0.10013E-05   -0.15238E-08   108   0.348E-04    0.547E-05
DAV:  15    -0.103441088044E+03   -0.52844E-06   -0.28890E-09   108   0.224E-04
  39 F= -.10344109E+03 E0= -.10344109E+03  d E =-.767346E-10
       N       E                     dE             d eps       ncg     rms          rms(c)
DAV:   1    -0.103441139545E+03   -0.52029E-04   -0.16853E-01    96   0.126E+00    0.188E-01
DAV:   2    -0.103442105888E+03   -0.96634E-03   -0.10064E-02   132   0.355E-01    0.106E-01
DAV:   3    -0.103442064853E+03    0.41035E-04   -0.28030E-04   132   0.686E-02    0.556E-02
DAV:   4    -0.103442066264E+03   -0.14114E-05   -0.13117E-04   132   0.441E-02    0.114E-02
DAV:   5    -0.103442061067E+03    0.51975E-05   -0.26372E-05   132   0.195E-02    0.828E-03
DAV:   6    -0.103442060543E+03    0.52389E-06   -0.50534E-06   132   0.744E-03
  40 F= -.10344206E+03 E0= -.10344206E+03  d E =-.619493E-10
       N       E                     dE             d eps       ncg     rms          rms(c)
DAV:   1    -0.103440691078E+03    0.13700E-02   -0.33322E-01    96   0.170E+00    0.270E-01
DAV:   2    -0.103442100159E+03   -0.14091E-02   -0.15145E-02   132   0.432E-01    0.124E-01
DAV:   3    -0.103442080817E+03    0.19342E-04   -0.56658E-04   132   0.906E-02    0.668E-02
DAV:   4    -0.103442110794E+03   -0.29976E-04   -0.15810E-04   132   0.529E-02    0.156E-02
DAV:   5    -0.103442111563E+03   -0.76924E-06   -0.45393E-05   132   0.255E-02    0.115E-02
DAV:   6    -0.103442112147E+03   -0.58379E-06   -0.61940E-06   144   0.857E-03
  41 F= -.10344211E+03 E0= -.10344211E+03  d E =-.863488E-10
       N       E                     dE             d eps       ncg     rms          rms(c)
DAV:   1    -0.103439621538E+03    0.24900E-02   -0.17072E-01    96   0.125E+00    0.191E-01
DAV:   2    -0.103440493480E+03   -0.87194E-03   -0.91740E-03   132   0.343E-01    0.989E-02
DAV:   3    -0.103440465967E+03    0.27513E-04   -0.29447E-04   132   0.684E-02    0.518E-02
DAV:   4    -0.103440481430E+03   -0.15464E-04   -0.11736E-04   132   0.424E-02    0.114E-02
DAV:   5    -0.103440480588E+03    0.84217E-06   -0.24953E-05   132   0.187E-02    0.805E-03
DAV:   6    -0.103440481776E+03   -0.11874E-05   -0.44400E-06   132   0.690E-03    0.488E-03
DAV:   7    -0.103440485992E+03   -0.42162E-05   -0.67549E-07   108   0.327E-03    0.204E-03
DAV:   8    -0.103440492089E+03   -0.60970E-05   -0.70475E-07   108   0.312E-03    0.792E-04
DAV:   9    -0.103440497428E+03   -0.53388E-05   -0.39719E-07   108   0.208E-03    0.825E-04
DAV:  10    -0.103440504860E+03   -0.74326E-05   -0.35982E-07   108   0.165E-03    0.333E-04
DAV:  11    -0.103440507189E+03   -0.23290E-05   -0.10144E-07   108   0.916E-04    0.311E-04
DAV:  12    -0.103440509348E+03   -0.21584E-05   -0.31051E-08   108   0.538E-04    0.202E-04
DAV:  13    -0.103440512109E+03   -0.27610E-05   -0.78823E-08    96   0.597E-04    0.130E-04
DAV:  14    -0.103440513167E+03   -0.10581E-05   -0.14199E-08   108   0.302E-04    0.102E-04
DAV:  15    -0.103440513883E+03   -0.71644E-06   -0.37147E-09    96   0.216E-04
  42 F= -.10344051E+03 E0= -.10344051E+03  d E =-.682692E-10
       N       E                     dE             d eps       ncg     rms          rms(c)
DAV:   1    -0.103438428271E+03    0.20849E-02   -0.35007E-01    96   0.180E+00    0.265E-01
DAV:   2    -0.103440733491E+03   -0.23052E-02   -0.23808E-02   132   0.552E-01    0.175E-01
DAV:   3    -0.103440616199E+03    0.11729E-03   -0.64016E-04   144   0.108E-01    0.862E-02
DAV:   4    -0.103440621153E+03   -0.49540E-05   -0.35819E-04   120   0.699E-02    0.172E-02
DAV:   5    -0.103440610815E+03    0.10338E-04   -0.61983E-05   132   0.286E-02    0.113E-02
DAV:   6    -0.103440620483E+03   -0.96687E-05   -0.14734E-05   132   0.108E-02    0.601E-03
DAV:   7    -0.103440646388E+03   -0.25904E-04   -0.20363E-06   120   0.462E-03    0.242E-03
DAV:   8    -0.103440675322E+03   -0.28934E-04   -0.33068E-06   132   0.511E-03    0.147E-03
DAV:   9    -0.103440701369E+03   -0.26047E-04   -0.25095E-06   120   0.382E-03    0.122E-03
DAV:  10    -0.103440719430E+03   -0.18061E-04   -0.15926E-06   120   0.285E-03    0.458E-04
DAV:  11    -0.103440725287E+03   -0.58570E-05   -0.19660E-07   108   0.124E-03    0.289E-04
DAV:  12    -0.103440731730E+03   -0.64435E-05   -0.37678E-07    96   0.124E-03    0.209E-04
DAV:  13    -0.103440732886E+03   -0.11562E-05   -0.30810E-08   120   0.453E-04    0.173E-04
DAV:  14    -0.103440734726E+03   -0.18391E-05   -0.47206E-08    84   0.496E-04    0.638E-05
DAV:  15    -0.103440735207E+03   -0.48104E-06   -0.49038E-09   120   0.250E-04
  43 F= -.10344074E+03 E0= -.10344074E+03  d E =-.761550E-10
       N       E                     dE             d eps       ncg     rms          rms(c)
DAV:   1    -0.103439735084E+03    0.99964E-03   -0.18415E-01    96   0.136E+00    0.173E-01
DAV:   2    -0.103441047330E+03   -0.13122E-02   -0.14181E-02   132   0.416E-01    0.114E-01
DAV:   3    -0.103440985347E+03    0.61983E-04   -0.28241E-04   144   0.683E-02    0.649E-02
DAV:   4    -0.103440976330E+03    0.90167E-05   -0.16618E-04   132   0.502E-02    0.109E-02
DAV:   5    -0.103440969985E+03    0.63447E-05   -0.39813E-05   132   0.232E-02    0.755E-03
DAV:   6    -0.103440968397E+03    0.15882E-05   -0.66546E-06   132   0.826E-03    0.525E-03
DAV:   7    -0.103440975767E+03   -0.73699E-05   -0.14135E-06   120   0.442E-03    0.206E-03
DAV:   8    -0.103440987710E+03   -0.11943E-04   -0.10139E-06   108   0.356E-03    0.903E-04
DAV:   9    -0.103440998694E+03   -0.10984E-04   -0.93440E-07   108   0.264E-03    0.117E-03
DAV:  10    -0.103441010398E+03   -0.11704E-04   -0.51944E-07   108   0.193E-03    0.324E-04
DAV:  11    -0.103441014104E+03   -0.37060E-05   -0.12420E-07   108   0.931E-04    0.229E-04
DAV:  12    -0.103441018739E+03   -0.46351E-05   -0.90715E-08   108   0.699E-04    0.112E-04
DAV:  13    -0.103441020937E+03   -0.21976E-05   -0.50333E-08   108   0.476E-04    0.129E-04
DAV:  14    -0.103441022421E+03   -0.14845E-05   -0.13412E-08   108   0.306E-04    0.534E-05
DAV:  15    -0.103441023104E+03   -0.68278E-06   -0.23692E-09   108   0.208E-04
  44 F= -.10344102E+03 E0= -.10344102E+03  d E =-.715023E-10
       N       E                     dE             d eps       ncg     rms          rms(c)
DAV:   1    -0.103439617880E+03    0.14045E-02   -0.40423E-01    96   0.184E+00    0.217E-01
DAV:   2    -0.103441224007E+03   -0.16061E-02   -0.19555E-02   132   0.445E-01    0.128E-01
DAV:   3    -0.103441105211E+03    0.11880E-03   -0.32040E-04   132   0.639E-02    0.668E-02
DAV:   4    -0.103441050467E+03    0.54744E-04   -0.13342E-04   132   0.437E-02    0.116E-02
DAV:   5    -0.103441043426E+03    0.70412E-05   -0.27466E-05   132   0.197E-02    0.751E-03
DAV:   6    -0.103441056504E+03   -0.13078E-04   -0.10392E-05   132   0.924E-03    0.426E-03
DAV:   7    -0.103441080964E+03   -0.24460E-04   -0.16623E-06   120   0.398E-03    0.210E-03
DAV:   8    -0.103441117192E+03   -0.36229E-04   -0.39879E-06   108   0.464E-03    0.129E-03
DAV:   9    -0.103441138944E+03   -0.21752E-04   -0.15678E-06   120   0.298E-03    0.918E-04
DAV:  10    -0.103441160292E+03   -0.21348E-04   -0.18580E-06   108   0.279E-03    0.372E-04
DAV:  11    -0.103441166546E+03   -0.62544E-05   -0.18875E-07   108   0.113E-03    0.345E-04
DAV:  12    -0.103441173795E+03   -0.72483E-05   -0.34760E-07    96   0.123E-03    0.157E-04
DAV:  13    -0.103441175241E+03   -0.14467E-05   -0.51242E-08   108   0.520E-04    0.130E-04
DAV:  14    -0.103441176755E+03   -0.15141E-05   -0.16639E-08    84   0.383E-04    0.480E-05
DAV:  15    -0.103441177462E+03   -0.70635E-06   -0.79380E-09   108   0.264E-04
  45 F= -.10344118E+03 E0= -.10344118E+03  d E =-.763607E-10
       N       E                     dE             d eps       ncg     rms          rms(c)
DAV:   1    -0.103440660515E+03    0.51624E-03   -0.20330E-01    96   0.131E+00    0.152E-01
DAV:   2    -0.103441411050E+03   -0.75053E-03   -0.91261E-03   108   0.296E-01    0.792E-02
DAV:   3    -0.103441368312E+03    0.42738E-04   -0.17619E-04   144   0.458E-02    0.410E-02
DAV:   4    -0.103441341654E+03    0.26658E-04   -0.40090E-05   132   0.254E-02    0.839E-03
DAV:   5    -0.103441334078E+03    0.75768E-05   -0.91923E-06   132   0.124E-02    0.487E-03
DAV:   6    -0.103441335160E+03   -0.10823E-05   -0.31408E-06   132   0.647E-03    0.273E-03
DAV:   7    -0.103441342659E+03   -0.74996E-05   -0.10242E-06   108   0.424E-03    0.123E-03
DAV:   8    -0.103441354133E+03   -0.11474E-04   -0.10225E-06   120   0.338E-03    0.970E-04
DAV:   9    -0.103441368026E+03   -0.13893E-04   -0.79211E-07   108   0.244E-03    0.438E-04
DAV:  10    -0.103441374897E+03   -0.68712E-05   -0.31242E-07   108   0.133E-03    0.345E-04
DAV:  11    -0.103441380859E+03   -0.59616E-05   -0.14054E-07   108   0.841E-04    0.183E-04
DAV:  12    -0.103441384306E+03   -0.34479E-05   -0.72063E-08   108   0.581E-04    0.108E-04
DAV:  13    -0.103441386822E+03   -0.25154E-05   -0.41974E-08   108   0.428E-04    0.587E-05
DAV:  14    -0.103441387875E+03   -0.10529E-05   -0.68331E-09   108   0.246E-04    0.361E-05
DAV:  15    -0.103441388504E+03   -0.62949E-06   -0.18576E-09   108   0.185E-04
  46 F= -.10344139E+03 E0= -.10344139E+03  d E =-.503479E-11
       N       E                     dE             d eps       ncg     rms          rms(c)
DAV:   1    -0.103439975150E+03    0.14127E-02   -0.40465E-01    96   0.183E+00    0.220E-01
DAV:   2    -0.103441545108E+03   -0.15700E-02   -0.19230E-02   132   0.429E-01    0.119E-01
DAV:   3    -0.103441441530E+03    0.10358E-03   -0.33930E-04   144   0.638E-02    0.629E-02
DAV:   4    -0.103441374219E+03    0.67311E-04   -0.92214E-05   132   0.375E-02    0.124E-02
DAV:   5    -0.103441367501E+03    0.67185E-05   -0.17650E-05   132   0.174E-02    0.740E-03
DAV:   6    -0.103441383884E+03   -0.16383E-04   -0.78607E-06   132   0.963E-03    0.399E-03
DAV:   7    -0.103441413937E+03   -0.30053E-04   -0.39892E-06   120   0.668E-03    0.198E-03
DAV:   8    -0.103441447791E+03   -0.33854E-04   -0.29676E-06   120   0.470E-03    0.125E-03
DAV:   9    -0.103441474141E+03   -0.26349E-04   -0.24786E-06   120   0.367E-03    0.825E-04
DAV:  10    -0.103441492527E+03   -0.18386E-04   -0.15351E-06   120   0.257E-03    0.444E-04
DAV:  11    -0.103441499607E+03   -0.70803E-05   -0.28196E-07   108   0.122E-03    0.280E-04
DAV:  12    -0.103441505241E+03   -0.56337E-05   -0.31211E-07   108   0.111E-03    0.167E-04
DAV:  13    -0.103441506744E+03   -0.15035E-05   -0.41873E-08   108   0.503E-04    0.844E-05
DAV:  14    -0.103441507739E+03   -0.99444E-06   -0.12182E-08   108   0.326E-04
  47 F= -.10344151E+03 E0= -.10344151E+03  d E =-.526826E-10
       N       E                     dE             d eps       ncg     rms          rms(c)
DAV:   1    -0.103441603455E+03   -0.96711E-04   -0.20463E-01   120   0.132E+00    0.154E-01
DAV:   2    -0.103442305574E+03   -0.70212E-03   -0.85154E-03   132   0.288E-01    0.727E-02
DAV:   3    -0.103442273586E+03    0.31988E-04   -0.18700E-04   144   0.482E-02    0.375E-02
DAV:   4    -0.103442260607E+03    0.12979E-04   -0.42729E-05   132   0.297E-02    0.900E-03
DAV:   5    -0.103442256778E+03    0.38287E-05   -0.13740E-05   132   0.145E-02    0.614E-03
DAV:   6    -0.103442257333E+03   -0.55473E-06   -0.24282E-06   132   0.523E-03
  48 F= -.10344226E+03 E0= -.10344226E+03  d E =-.556672E-10
       N       E                     dE             d eps       ncg     rms          rms(c)
DAV:   1    -0.103440781795E+03    0.14750E-02   -0.41113E-01    96   0.181E+00    0.223E-01
DAV:   2    -0.103442126581E+03   -0.13448E-02   -0.16199E-02   120   0.381E-01    0.982E-02
DAV:   3    -0.103442077562E+03    0.49020E-04   -0.36829E-04   144   0.683E-02    0.511E-02
DAV:   4    -0.103442059830E+03    0.17732E-04   -0.85711E-05   132   0.403E-02    0.119E-02
DAV:   5    -0.103442056895E+03    0.29351E-05   -0.24555E-05   132   0.194E-02    0.868E-03
DAV:   6    -0.103442058682E+03   -0.17868E-05   -0.41417E-06   132   0.741E-03    0.520E-03
DAV:   7    -0.103442065431E+03   -0.67496E-05   -0.84174E-07   108   0.455E-03    0.187E-03
DAV:   8    -0.103442075001E+03   -0.95698E-05   -0.10549E-06   120   0.399E-03    0.122E-03
DAV:   9    -0.103442090840E+03   -0.15839E-04   -0.11033E-06   120   0.346E-03    0.534E-04
DAV:  10    -0.103442097044E+03   -0.62042E-05   -0.34230E-07   108   0.189E-03    0.480E-04
DAV:  11    -0.103442100643E+03   -0.35993E-05   -0.80300E-08   108   0.889E-04    0.355E-04
DAV:  12    -0.103442106671E+03   -0.60279E-05   -0.20886E-07    96   0.979E-04    0.186E-04
DAV:  13    -0.103442108064E+03   -0.13924E-05   -0.29291E-08   108   0.439E-04    0.168E-04
DAV:  14    -0.103442110138E+03   -0.20745E-05   -0.38381E-08    96   0.436E-04    0.560E-05
DAV:  15    -0.103442110775E+03   -0.63669E-06   -0.55113E-09   108   0.242E-04
  49 F= -.10344211E+03 E0= -.10344211E+03  d E =-.599761E-11
       N       E                     dE             d eps       ncg     rms          rms(c)
DAV:   1    -0.103441113218E+03    0.99692E-03   -0.20243E-01   120   0.131E+00    0.164E-01
DAV:   2    -0.103442158054E+03   -0.10448E-02   -0.12310E-02   132   0.304E-01    0.726E-02
DAV:   3    -0.103442133817E+03    0.24237E-04   -0.29818E-04   144   0.540E-02    0.401E-02
DAV:   4    -0.103442117947E+03    0.15871E-04   -0.48732E-05   132   0.299E-02    0.109E-02
DAV:   5    -0.103442113241E+03    0.47053E-05   -0.15551E-05   132   0.156E-02    0.672E-03
DAV:   6    -0.103442114790E+03   -0.15484E-05   -0.22201E-06   120   0.571E-03    0.414E-03
DAV:   7    -0.103442120872E+03   -0.60823E-05   -0.90678E-07   108   0.367E-03    0.149E-03
DAV:   8    -0.103442128793E+03   -0.79214E-05   -0.65455E-07   108   0.295E-03    0.871E-04
DAV:   9    -0.103442139979E+03   -0.11186E-04   -0.88202E-07   120   0.267E-03    0.457E-04
DAV:  10    -0.103442145168E+03   -0.51888E-05   -0.32033E-07   108   0.161E-03    0.344E-04
DAV:  11    -0.103442148066E+03   -0.28980E-05   -0.12303E-07   108   0.894E-04    0.268E-04
DAV:  12    -0.103442150218E+03   -0.21519E-05   -0.68651E-08   108   0.621E-04    0.134E-04
DAV:  13    -0.103442151324E+03   -0.11066E-05   -0.26413E-08    96   0.391E-04    0.783E-05
DAV:  14    -0.103442152194E+03   -0.86998E-06   -0.20520E-08   108   0.318E-04
  50 F= -.10344215E+03 E0= -.10344215E+03  d E =-.902652E-10
       N       E                     dE             d eps       ncg     rms          rms(c)
DAV:   1    -0.103440953283E+03    0.11980E-02   -0.41036E-01    96   0.184E+00    0.217E-01
DAV:   2    -0.103442335967E+03   -0.13827E-02   -0.16626E-02   120   0.385E-01    0.995E-02
DAV:   3    -0.103442281073E+03    0.54894E-04   -0.39227E-04   156   0.697E-02    0.517E-02
DAV:   4    -0.103442257478E+03    0.23595E-04   -0.86624E-05   132   0.417E-02    0.121E-02
DAV:   5    -0.103442252205E+03    0.52735E-05   -0.29109E-05   132   0.207E-02    0.847E-03
DAV:   6    -0.103442252877E+03   -0.67258E-06   -0.44559E-06   132   0.720E-03
  51 F= -.10344225E+03 E0= -.10344225E+03  d E =-.772731E-10
       N       E                     dE             d eps       ncg     rms          rms(c)
DAV:   1    -0.103440878150E+03    0.13741E-02   -0.20243E-01    96   0.130E+00    0.152E-01
DAV:   2    -0.103441668374E+03   -0.79022E-03   -0.93232E-03   120   0.301E-01    0.839E-02
DAV:   3    -0.103441643368E+03    0.25006E-04   -0.17234E-04   144   0.451E-02    0.433E-02
DAV:   4    -0.103441618664E+03    0.24704E-04   -0.48762E-05   120   0.256E-02    0.822E-03
DAV:   5    -0.103441611643E+03    0.70206E-05   -0.77173E-06   132   0.113E-02    0.462E-03
DAV:   6    -0.103441615302E+03   -0.36592E-05   -0.35080E-06   108   0.664E-03    0.228E-03
DAV:   7    -0.103441625136E+03   -0.98335E-05   -0.16414E-06   132   0.428E-03    0.134E-03
DAV:   8    -0.103441636698E+03   -0.11562E-04   -0.70606E-07   108   0.228E-03    0.668E-04
DAV:   9    -0.103441647312E+03   -0.10614E-04   -0.80352E-07   120   0.206E-03    0.501E-04
DAV:  10    -0.103441656939E+03   -0.96269E-05   -0.84328E-07   120   0.184E-03    0.206E-04
DAV:  11    -0.103441660464E+03   -0.35254E-05   -0.15603E-07   108   0.913E-04    0.176E-04
DAV:  12    -0.103441662672E+03   -0.22074E-05   -0.95697E-08   108   0.630E-04    0.805E-05
DAV:  13    -0.103441663366E+03   -0.69471E-06   -0.18262E-08   108   0.321E-04
  52 F= -.10344166E+03 E0= -.10344166E+03  d E =-.507616E-10
       N       E                     dE             d eps       ncg     rms          rms(c)
DAV:   1    -0.103439987330E+03    0.16753E-02   -0.40569E-01    96   0.183E+00    0.219E-01
DAV:   2    -0.103441434760E+03   -0.14474E-02   -0.17696E-02   132   0.414E-01    0.115E-01
DAV:   3    -0.103441335599E+03    0.99161E-04   -0.31298E-04   132   0.616E-02    0.595E-02
DAV:   4    -0.103441278809E+03    0.56790E-04   -0.94425E-05   132   0.369E-02    0.117E-02
DAV:   5    -0.103441265846E+03    0.12963E-04   -0.16243E-05   132   0.169E-02    0.708E-03
DAV:   6    -0.103441269287E+03   -0.34407E-05   -0.71892E-06   132   0.978E-03    0.369E-03
DAV:   7    -0.103441284608E+03   -0.15321E-04   -0.27757E-06   132   0.626E-03    0.196E-03
DAV:   8    -0.103441306707E+03   -0.22099E-04   -0.12977E-06   120   0.390E-03    0.120E-03
DAV:   9    -0.103441327915E+03   -0.21208E-04   -0.12890E-06   120   0.294E-03    0.807E-04
DAV:  10    -0.103441346177E+03   -0.18262E-04   -0.84967E-07   120   0.202E-03    0.395E-04
DAV:  11    -0.103441355229E+03   -0.90521E-05   -0.20928E-07   108   0.107E-03    0.280E-04
DAV:  12    -0.103441363316E+03   -0.80866E-05   -0.23318E-07    96   0.973E-04    0.154E-04
DAV:  13    -0.103441365716E+03   -0.24005E-05   -0.36319E-08   108   0.461E-04    0.911E-05
DAV:  14    -0.103441367297E+03   -0.15808E-05   -0.11535E-08   108   0.325E-04    0.512E-05
DAV:  15    -0.103441367935E+03   -0.63781E-06   -0.13450E-09   108   0.196E-04
  53 F= -.10344137E+03 E0= -.10344137E+03  d E =-.588717E-11
       N       E                     dE             d eps       ncg     rms          rms(c)
DAV:   1    -0.103440160662E+03    0.12066E-02   -0.20273E-01   108   0.128E+00    0.157E-01
DAV:   2    -0.103440932971E+03   -0.77231E-03   -0.95209E-03   132   0.313E-01    0.896E-02
DAV:   3    -0.103440873946E+03    0.59026E-04   -0.17185E-04   144   0.465E-02    0.456E-02
DAV:   4    -0.103440843786E+03    0.30160E-04   -0.56616E-05   132   0.297E-02    0.832E-03
DAV:   5    -0.103440838314E+03    0.54725E-05   -0.11649E-05   132   0.130E-02    0.544E-03
DAV:   6    -0.103440843932E+03   -0.56189E-05   -0.47793E-06   132   0.647E-03    0.312E-03
DAV:   7    -0.103440856435E+03   -0.12502E-04   -0.80317E-07   108   0.287E-03    0.148E-03
DAV:   8    -0.103440875106E+03   -0.18671E-04   -0.19422E-06   108   0.316E-03    0.995E-04
DAV:   9    -0.103440888798E+03   -0.13692E-04   -0.90997E-07   120   0.225E-03    0.698E-04
DAV:  10    -0.103440900478E+03   -0.11680E-04   -0.83294E-07   120   0.190E-03    0.265E-04
DAV:  11    -0.103440904487E+03   -0.40092E-05   -0.10041E-07   108   0.833E-04    0.252E-04
DAV:  12    -0.103440908646E+03   -0.41595E-05   -0.16487E-07    96   0.855E-04    0.121E-04
DAV:  13    -0.103440909526E+03   -0.87945E-06   -0.17751E-08   108   0.353E-04
  54 F= -.10344091E+03 E0= -.10344091E+03  d E =-.921761E-10
       N       E                     dE             d eps       ncg     rms          rms(c)
DAV:   1    -0.103439581237E+03    0.13274E-02   -0.40352E-01   108   0.184E+00    0.217E-01
DAV:   2    -0.103441121716E+03   -0.15405E-02   -0.19011E-02   132   0.439E-01    0.129E-01
DAV:   3    -0.103441002165E+03    0.11955E-03   -0.31703E-04   132   0.650E-02    0.665E-02
DAV:   4    -0.103440942492E+03    0.59673E-04   -0.12806E-04   132   0.433E-02    0.118E-02
DAV:   5    -0.103440937924E+03    0.45681E-05   -0.22217E-05   132   0.183E-02    0.796E-03
DAV:   6    -0.103440955109E+03   -0.17186E-04   -0.11638E-05   132   0.975E-03    0.411E-03
DAV:   7    -0.103440982781E+03   -0.27672E-04   -0.24573E-06   120   0.482E-03    0.210E-03
DAV:   8    -0.103441022905E+03   -0.40124E-04   -0.43979E-06   108   0.464E-03    0.132E-03
DAV:   9    -0.103441045735E+03   -0.22830E-04   -0.17152E-06   120   0.291E-03    0.841E-04
DAV:  10    -0.103441067359E+03   -0.21624E-04   -0.19954E-06   108   0.277E-03    0.504E-04
DAV:  11    -0.103441075758E+03   -0.83991E-05   -0.37065E-07   108   0.137E-03    0.312E-04
DAV:  12    -0.103441080807E+03   -0.50491E-05   -0.26108E-07   108   0.105E-03    0.197E-04
DAV:  13    -0.103441082593E+03   -0.17858E-05   -0.40806E-08   108   0.519E-04    0.102E-04
DAV:  14    -0.103441083653E+03   -0.10603E-05   -0.11618E-08   108   0.315E-04    0.551E-05
DAV:  15    -0.103441084132E+03   -0.47957E-06    0.26112E-11   108   0.177E-04
  55 F= -.10344108E+03 E0= -.10344108E+03  d E =-.533326E-10
       N       E                     dE             d eps       ncg     rms          rms(c)
DAV:   1    -0.103441088036E+03   -0.43831E-05   -0.20075E-01    96   0.136E+00    0.158E-01
DAV:   2    -0.103442104141E+03   -0.10161E-02   -0.12049E-02   132   0.347E-01    0.851E-02
DAV:   3    -0.103442066890E+03    0.37251E-04   -0.22138E-04   144   0.487E-02    0.486E-02
DAV:   4    -0.103442040903E+03    0.25987E-04   -0.61982E-05   144   0.298E-02    0.879E-03
DAV:   5    -0.103442034235E+03    0.66684E-05   -0.12647E-05   132   0.129E-02    0.565E-03
DAV:   6    -0.103442036481E+03   -0.22460E-05   -0.39253E-06   120   0.659E-03    0.287E-03
DAV:   7    -0.103442046157E+03   -0.96761E-05   -0.14742E-06   120   0.402E-03    0.135E-03
DAV:   8    -0.103442061374E+03   -0.15217E-04   -0.81799E-07    96   0.246E-03    0.755E-04
DAV:   9    -0.103442073697E+03   -0.12323E-04   -0.78806E-07   108   0.200E-03    0.589E-04
DAV:  10    -0.103442086062E+03   -0.12365E-04   -0.79035E-07    96   0.180E-03    0.241E-04
DAV:  11    -0.103442090024E+03   -0.39621E-05   -0.14286E-07   108   0.861E-04    0.222E-04
DAV:  12    -0.103442093572E+03   -0.35484E-05   -0.87001E-08    96   0.694E-04    0.926E-05
DAV:  13    -0.103442095111E+03   -0.15392E-05   -0.38625E-08   108   0.444E-04    0.768E-05
DAV:  14    -0.103442096103E+03   -0.99179E-06   -0.96357E-09   108   0.284E-04
  56 F= -.10344210E+03 E0= -.10344210E+03  d E =-.943465E-10
       N       E                     dE             d eps       ncg     rms          rms(c)
DAV:   1    -0.103440791303E+03    0.13038E-02   -0.41173E-01   108   0.185E+00    0.219E-01
DAV:   2    -0.103442141014E+03   -0.13497E-02   -0.16227E-02   132   0.387E-01    0.102E-01
DAV:   3    -0.103442073141E+03    0.67873E-04   -0.34934E-04   144   0.648E-02    0.531E-02
DAV:   4    -0.103442045018E+03    0.28123E-04   -0.89884E-05   132   0.414E-02    0.122E-02
DAV:   5    -0.103442038142E+03    0.68765E-05   -0.28936E-05   132   0.207E-02    0.782E-03
DAV:   6    -0.103442038992E+03   -0.85038E-06   -0.52406E-06   132   0.781E-03
  57 F= -.10344204E+03 E0= -.10344204E+03  d E =-.464047E-11
       N       E                     dE             d eps       ncg     rms          rms(c)
DAV:   1    -0.103440773508E+03    0.12646E-02   -0.20756E-01    96   0.128E+00    0.158E-01
DAV:   2    -0.103441393993E+03   -0.62048E-03   -0.73934E-03   132   0.248E-01    0.642E-02
DAV:   3    -0.103441380641E+03    0.13352E-04   -0.18243E-04   144   0.464E-02    0.336E-02
DAV:   4    -0.103441384753E+03   -0.41121E-05   -0.37492E-05   132   0.288E-02    0.867E-03
DAV:   5    -0.103441389032E+03   -0.42792E-05   -0.14425E-05   132   0.146E-02    0.615E-03
DAV:   6    -0.103441392001E+03   -0.29688E-05   -0.16711E-06   120   0.444E-03    0.427E-03
DAV:   7    -0.103441397956E+03   -0.59556E-05   -0.46648E-07   108   0.255E-03    0.136E-03
DAV:   8    -0.103441403265E+03   -0.53083E-05   -0.38414E-07   108   0.218E-03    0.766E-04
DAV:   9    -0.103441412788E+03   -0.95233E-05   -0.58020E-07   108   0.279E-03    0.448E-04
DAV:  10    -0.103441415123E+03   -0.23349E-05   -0.21609E-07   108   0.145E-03    0.531E-04
DAV:  11    -0.103441416308E+03   -0.11852E-05   -0.21718E-08   108   0.569E-04    0.413E-04
DAV:  12    -0.103441419352E+03   -0.30439E-05   -0.69528E-08   108   0.646E-04    0.113E-04
DAV:  13    -0.103441421163E+03   -0.18110E-05   -0.40747E-08   108   0.480E-04    0.196E-04
DAV:  14    -0.103441422312E+03   -0.11494E-05   -0.11910E-08   108   0.310E-04    0.670E-05
DAV:  15    -0.103441422734E+03   -0.42182E-06    0.27322E-10   108   0.169E-04
  58 F= -.10344142E+03 E0= -.10344142E+03  d E =-.794752E-10
       N       E                     dE             d eps       ncg     rms          rms(c)
DAV:   1    -0.103440092482E+03    0.13298E-02   -0.40586E-01    96   0.181E+00    0.223E-01
DAV:   2    -0.103441606627E+03   -0.15141E-02   -0.18619E-02   132   0.415E-01    0.117E-01
DAV:   3    -0.103441513905E+03    0.92721E-04   -0.38738E-04   144   0.676E-02    0.592E-02
DAV:   4    -0.103441459894E+03    0.54011E-04   -0.92017E-05   120   0.390E-02    0.125E-02
DAV:   5    -0.103441453567E+03    0.63273E-05   -0.20213E-05   132   0.177E-02    0.797E-03
DAV:   6    -0.103441465904E+03   -0.12337E-04   -0.76963E-06   132   0.888E-03    0.442E-03
DAV:   7    -0.103441489456E+03   -0.23552E-04   -0.28148E-06   132   0.533E-03    0.198E-03
DAV:   8    -0.103441517026E+03   -0.27570E-04   -0.23328E-06   120   0.394E-03    0.123E-03
DAV:   9    -0.103441540411E+03   -0.23385E-04   -0.20817E-06   108   0.336E-03    0.836E-04
DAV:  10    -0.103441558752E+03   -0.18341E-04   -0.17475E-06   120   0.280E-03    0.409E-04
DAV:  11    -0.103441565898E+03   -0.71460E-05   -0.30738E-07   108   0.136E-03    0.305E-04
DAV:  12    -0.103441570467E+03   -0.45695E-05   -0.24102E-07   108   0.101E-03    0.149E-04
DAV:  13    -0.103441572013E+03   -0.15463E-05   -0.40352E-08   108   0.472E-04    0.925E-05
DAV:  14    -0.103441573006E+03   -0.99210E-06   -0.99925E-09    96   0.303E-04
  59 F= -.10344157E+03 E0= -.10344157E+03  d E =-.743405E-10
       N       E                     dE             d eps       ncg     rms          rms(c)
DAV:   1    -0.103440306461E+03    0.12656E-02   -0.20294E-01    96   0.131E+00    0.155E-01
DAV:   2    -0.103441038760E+03   -0.73230E-03   -0.89766E-03   108   0.297E-01    0.801E-02
DAV:   3    -0.103440992641E+03    0.46118E-04   -0.17612E-04   144   0.450E-02    0.412E-02
DAV:   4    -0.103440961593E+03    0.31048E-04   -0.37675E-05   132   0.234E-02    0.850E-03
DAV:   5    -0.103440953406E+03    0.81871E-05   -0.70297E-06   132   0.111E-02    0.466E-03
DAV:   6    -0.103440955107E+03   -0.17009E-05   -0.30961E-06   120   0.718E-03    0.229E-03
DAV:   7    -0.103440964146E+03   -0.90389E-05   -0.20302E-06   132   0.515E-03    0.140E-03
DAV:   8    -0.103440977333E+03   -0.13187E-04   -0.70249E-07   108   0.283E-03    0.786E-04
DAV:   9    -0.103440988892E+03   -0.11559E-04   -0.65759E-07   108   0.202E-03    0.535E-04
DAV:  10    -0.103441000527E+03   -0.11635E-04   -0.56048E-07    96   0.158E-03    0.256E-04
DAV:  11    -0.103441005828E+03   -0.53010E-05   -0.14813E-07   108   0.886E-04    0.184E-04
DAV:  12    -0.103441010552E+03   -0.47241E-05   -0.11539E-07    96   0.701E-04    0.931E-05
DAV:  13    -0.103441011798E+03   -0.12463E-05   -0.15296E-08   108   0.350E-04    0.651E-05
DAV:  14    -0.103441012674E+03   -0.87615E-06   -0.41135E-09   108   0.237E-04
  60 F= -.10344101E+03 E0= -.10344101E+03  d E =-.803329E-10
       N       E                     dE             d eps       ncg     rms          rms(c)
DAV:   1    -0.103440035162E+03    0.97664E-03   -0.40612E-01   108   0.183E+00    0.217E-01
DAV:   2    -0.103441341949E+03   -0.13068E-02   -0.16682E-02   132   0.394E-01    0.122E-01
DAV:   3    -0.103441226669E+03    0.11528E-03   -0.33120E-04   144   0.624E-02    0.578E-02
DAV:   4    -0.103441158932E+03    0.67736E-04   -0.82219E-05   132   0.338E-02    0.122E-02
DAV:   5    -0.103441154477E+03    0.44554E-05   -0.11616E-05   132   0.141E-02    0.687E-03
DAV:   6    -0.103441180200E+03   -0.25723E-04   -0.11743E-05   108   0.111E-02    0.322E-03
DAV:   7    -0.103441211136E+03   -0.30937E-04   -0.49839E-06   120   0.674E-03    0.228E-03
DAV:   8    -0.103441246533E+03   -0.35396E-04   -0.27582E-06   120   0.388E-03    0.114E-03
DAV:   9    -0.103441275953E+03   -0.29421E-04   -0.29173E-06   108   0.363E-03    0.835E-04
DAV:  10    -0.103441297322E+03   -0.21368E-04   -0.21488E-06   120   0.298E-03    0.333E-04
DAV:  11    -0.103441304665E+03   -0.73431E-05   -0.39041E-07   108   0.149E-03    0.305E-04
DAV:  12    -0.103441308093E+03   -0.34282E-05   -0.11242E-07   108   0.754E-04    0.139E-04
DAV:  13    -0.103441310512E+03   -0.24189E-05   -0.92823E-08   108   0.615E-04    0.766E-05
DAV:  14    -0.103441311391E+03   -0.87959E-06   -0.96699E-09   108   0.302E-04
  61 F= -.10344131E+03 E0= -.10344131E+03  d E =-.742014E-10
       N       E                     dE             d eps       ncg     rms          rms(c)
DAV:   1    -0.103444228395E+03   -0.29179E-02   -0.23308E-01    96   0.168E+00    0.138E-01
DAV:   2    -0.103444646136E+03   -0.41774E-03   -0.60909E-03   132   0.252E-01    0.798E-02
DAV:   3    -0.103444586777E+03    0.59359E-04   -0.17145E-04   144   0.459E-02    0.356E-02
DAV:   4    -0.103444569475E+03    0.17302E-04   -0.55831E-05   132   0.266E-02    0.765E-03
DAV:   5    -0.103444565339E+03    0.41367E-05   -0.72855E-06   132   0.106E-02    0.537E-03
DAV:   6    -0.103444566508E+03   -0.11693E-05   -0.31098E-06   132   0.598E-03    0.230E-03
DAV:   7    -0.103444571063E+03   -0.45552E-05   -0.78861E-07   108   0.353E-03    0.120E-03
DAV:   8    -0.103444578920E+03   -0.78572E-05   -0.51296E-07   108   0.227E-03    0.800E-04
DAV:   9    -0.103444588039E+03   -0.91191E-05   -0.52511E-07   108   0.193E-03    0.393E-04
DAV:  10    -0.103444595791E+03   -0.77520E-05   -0.42382E-07   108   0.145E-03    0.338E-04
DAV:  11    -0.103444600147E+03   -0.43555E-05   -0.11674E-07   108   0.891E-04    0.154E-04
DAV:  12    -0.103444602200E+03   -0.20533E-05   -0.40408E-08   108   0.508E-04    0.124E-04
DAV:  13    -0.103444603113E+03   -0.91271E-06   -0.71075E-09   108   0.277E-04
  62 F= -.10344460E+03 E0= -.10344460E+03  d E =-.642186E-10
       N       E                     dE             d eps       ncg     rms          rms(c)
DAV:   1    -0.103444560494E+03    0.41706E-04   -0.52786E-01    96   0.258E+00    0.173E-01
DAV:   2    -0.103444437930E+03    0.12256E-03   -0.27007E-03   120   0.184E-01    0.976E-02
DAV:   3    -0.103444301050E+03    0.13688E-03   -0.39894E-04   132   0.627E-02    0.199E-02
DAV:   4    -0.103444303319E+03   -0.22686E-05   -0.65179E-05   120   0.263E-02    0.101E-02
DAV:   5    -0.103444304156E+03   -0.83749E-06   -0.28364E-06   132   0.616E-03
  63 F= -.10344430E+03 E0= -.10344430E+03  d E =-.609131E-10
       N       E                     dE             d eps       ncg     rms          rms(c)
DAV:   1    -0.103443433658E+03    0.86966E-03   -0.27173E-01    96   0.190E+00    0.146E-01
DAV:   2    -0.103443430517E+03    0.31403E-05   -0.23985E-03   132   0.162E-01    0.804E-02
DAV:   3    -0.103443339623E+03    0.90894E-04   -0.25250E-04   132   0.471E-02    0.241E-02
DAV:   4    -0.103443337205E+03    0.24181E-05   -0.62576E-05   132   0.228E-02    0.828E-03
DAV:   5    -0.103443335581E+03    0.16240E-05   -0.30701E-06   132   0.722E-03    0.421E-03
DAV:   6    -0.103443335779E+03   -0.19840E-06   -0.23209E-06   132   0.557E-03
  64 F= -.10344334E+03 E0= -.10344334E+03  d E =-.846373E-10
       N       E                     dE             d eps       ncg     rms          rms(c)
DAV:   1    -0.103443519371E+03   -0.18379E-03   -0.53592E-01    96   0.264E+00    0.199E-01
DAV:   2    -0.103443468996E+03    0.50374E-04   -0.44340E-03   108   0.218E-01    0.108E-01
DAV:   3    -0.103443285091E+03    0.18391E-03   -0.45763E-04   132   0.601E-02    0.322E-02
DAV:   4    -0.103443270015E+03    0.15076E-04   -0.88524E-05   132   0.275E-02    0.112E-02
DAV:   5    -0.103443269381E+03    0.63377E-06   -0.62659E-06   132   0.982E-03
  65 F= -.10344327E+03 E0= -.10344327E+03  d E =-.471407E-10
       N       E                     dE             d eps       ncg     rms          rms(c)
DAV:   1    -0.103444620227E+03   -0.13502E-02   -0.27124E-01    96   0.184E+00    0.143E-01
DAV:   2    -0.103444601337E+03    0.18890E-04   -0.22730E-03   132   0.163E-01    0.792E-02
DAV:   3    -0.103444516160E+03    0.85177E-04   -0.26547E-04   132   0.508E-02    0.215E-02
DAV:   4    -0.103444519427E+03   -0.32674E-05   -0.67718E-05   132   0.248E-02    0.824E-03
DAV:   5    -0.103444518889E+03    0.53830E-06   -0.25083E-06   132   0.619E-03
  66 F= -.10344452E+03 E0= -.10344452E+03  d E =-.651933E-10
       N       E                     dE             d eps       ncg     rms          rms(c)
DAV:   1    -0.103444713880E+03   -0.19445E-03   -0.53494E-01    96   0.260E+00    0.169E-01
DAV:   2    -0.103444590935E+03    0.12295E-03   -0.28453E-03   132   0.181E-01    0.977E-02
DAV:   3    -0.103444447988E+03    0.14295E-03   -0.45861E-04   132   0.676E-02    0.165E-02
DAV:   4    -0.103444453580E+03   -0.55925E-05   -0.87108E-05   132   0.300E-02    0.945E-03
DAV:   5    -0.103444452511E+03    0.10688E-05   -0.22875E-06   132   0.550E-03    0.586E-03
DAV:   6    -0.103444452544E+03   -0.33054E-07   -0.22023E-06   132   0.514E-03
  67 F= -.10344445E+03 E0= -.10344445E+03  d E =-.672414E-10
       N       E                     dE             d eps       ncg     rms          rms(c)
DAV:   1    -0.103445035792E+03   -0.58328E-03   -0.26555E-01    96   0.188E+00    0.118E-01
DAV:   2    -0.103445019279E+03    0.16513E-04   -0.14356E-03   132   0.135E-01    0.684E-02
DAV:   3    -0.103444964794E+03    0.54485E-04   -0.14164E-04   132   0.371E-02    0.108E-02
DAV:   4    -0.103444966262E+03   -0.14674E-05   -0.21343E-05   132   0.149E-02    0.480E-03
DAV:   5    -0.103444966388E+03   -0.12682E-06   -0.53348E-07   108   0.289E-03
  68 F= -.10344497E+03 E0= -.10344497E+03  d E =-.663048E-10
       N       E                     dE             d eps       ncg     rms          rms(c)
DAV:   1    -0.103445200369E+03   -0.23411E-03   -0.52606E-01    96   0.257E+00    0.159E-01
DAV:   2    -0.103445087341E+03    0.11303E-03   -0.22135E-03   120   0.166E-01    0.922E-02
DAV:   3    -0.103444990394E+03    0.96947E-04   -0.36620E-04   144   0.638E-02    0.127E-02
DAV:   4    -0.103444997062E+03   -0.66683E-05   -0.63785E-05   120   0.268E-02    0.933E-03
DAV:   5    -0.103444997273E+03   -0.21094E-06   -0.16585E-06   132   0.463E-03
  69 F= -.10344500E+03 E0= -.10344500E+03  d E =-.733737E-10
       N       E                     dE             d eps       ncg     rms          rms(c)
DAV:   1    -0.103444966293E+03    0.30770E-04   -0.26622E-01    96   0.182E+00    0.113E-01
DAV:   2    -0.103444904124E+03    0.62169E-04   -0.10732E-03   132   0.112E-01    0.651E-02
DAV:   3    -0.103444852482E+03    0.51642E-04   -0.18296E-04   132   0.409E-02    0.913E-03
DAV:   4    -0.103444854203E+03   -0.17207E-05   -0.26896E-05   132   0.172E-02    0.570E-03
DAV:   5    -0.103444853954E+03    0.24812E-06   -0.69341E-07   108   0.310E-03
  70 F= -.10344485E+03 E0= -.10344485E+03  d E =-.763321E-10
       N       E                     dE             d eps       ncg     rms          rms(c)
DAV:   1    -0.103445117568E+03   -0.26337E-03   -0.53045E-01    96   0.257E+00    0.162E-01
DAV:   2    -0.103445000971E+03    0.11660E-03   -0.22416E-03   120   0.164E-01    0.925E-02
[...]
DAV:   3    -0.103444893621E+03    0.15704E-03   -0.43979E-04   132   0.652E-02    0.250E-02
DAV:   4    -0.103444900597E+03   -0.69767E-05   -0.69517E-05   132   0.271E-02    0.882E-03
DAV:   5    -0.103444901394E+03   -0.79691E-06   -0.34542E-06   132   0.670E-03
 131 F= -.10344490E+03 E0= -.10344490E+03  d E =-.766227E-10
       N       E                     dE             d eps       ncg     rms          rms(c)
DAV:   1    -0.103444570887E+03    0.32971E-03   -0.27097E-01    96   0.179E+00    0.140E-01
DAV:   2    -0.103444455872E+03    0.11501E-03   -0.15419E-03   132   0.135E-01    0.785E-02
DAV:   3    -0.103444378292E+03    0.77581E-04   -0.21599E-04   132   0.460E-02    0.185E-02
DAV:   4    -0.103444381684E+03   -0.33926E-05   -0.36555E-05   144   0.196E-02    0.676E-03
DAV:   5    -0.103444382188E+03   -0.50395E-06   -0.17557E-06   120   0.499E-03
 132 F= -.10344438E+03 E0= -.10344438E+03  d E =-.696528E-10
       N       E                     dE             d eps       ncg     rms          rms(c)
DAV:   1    -0.103444999303E+03   -0.61762E-03   -0.55055E-01    96   0.252E+00    0.225E-01
DAV:   2    -0.103444721648E+03    0.27765E-03   -0.34405E-03   120   0.196E-01    0.119E-01
DAV:   3    -0.103444537271E+03    0.18438E-03   -0.47571E-04   132   0.690E-02    0.377E-02
DAV:   4    -0.103444538370E+03   -0.10997E-05   -0.11239E-04   132   0.330E-02    0.125E-02
DAV:   5    -0.103444537549E+03    0.82132E-06   -0.63580E-06   132   0.988E-03
 133 F= -.10344454E+03 E0= -.10344454E+03  d E =-.670537E-10
       N       E                     dE             d eps       ncg     rms          rms(c)
DAV:   1    -0.103444535695E+03    0.26756E-05   -0.27624E-01    96   0.204E+00    0.161E-01
DAV:   2    -0.103444446418E+03    0.89277E-04   -0.21586E-03   120   0.173E-01    0.860E-02
DAV:   3    -0.103444356269E+03    0.90149E-04   -0.22050E-04   132   0.500E-02    0.292E-02
DAV:   4    -0.103444355663E+03    0.60615E-06   -0.62711E-05   132   0.253E-02    0.862E-03
DAV:   5    -0.103444354940E+03    0.72359E-06   -0.39690E-06   132   0.778E-03
 134 F= -.10344435E+03 E0= -.10344435E+03  d E =-.720309E-10
       N       E                     dE             d eps       ncg     rms          rms(c)
DAV:   1    -0.103444767866E+03   -0.41220E-03   -0.55312E-01    96   0.254E+00    0.235E-01
DAV:   2    -0.103444448907E+03    0.31896E-03   -0.33198E-03   132   0.199E-01    0.121E-01
DAV:   3    -0.103444235116E+03    0.21379E-03   -0.46468E-04   120   0.633E-02    0.399E-02
DAV:   4    -0.103444228408E+03    0.67074E-05   -0.11504E-04   132   0.318E-02    0.118E-02
DAV:   5    -0.103444228669E+03   -0.26072E-06   -0.73604E-06   120   0.108E-02
 135 F= -.10344423E+03 E0= -.10344423E+03  d E =-.605104E-10
       N       E                     dE             d eps       ncg     rms          rms(c)
DAV:   1    -0.103443731468E+03    0.49694E-03   -0.28990E-01    96   0.180E+00    0.213E-01
DAV:   2    -0.103443495998E+03    0.23547E-03   -0.24924E-03   132   0.170E-01    0.103E-01
DAV:   3    -0.103443350891E+03    0.14511E-03   -0.40089E-04   132   0.626E-02    0.375E-02
DAV:   4    -0.103443351170E+03   -0.27847E-06   -0.13172E-04   132   0.347E-02    0.138E-02
DAV:   5    -0.103443349958E+03    0.12113E-05   -0.56663E-06   132   0.959E-03    0.646E-03
DAV:   6    -0.103443350054E+03   -0.95254E-07   -0.28914E-06   132   0.625E-03
 136 F= -.10344335E+03 E0= -.10344335E+03  d E =-.652867E-10
       N       E                     dE             d eps       ncg     rms          rms(c)
DAV:   1    -0.103444029701E+03   -0.67974E-03   -0.57321E-01    96   0.253E+00    0.272E-01
DAV:   2    -0.103443493094E+03    0.53661E-03   -0.44830E-03   132   0.233E-01    0.138E-01
DAV:   3    -0.103443193663E+03    0.29943E-03   -0.82014E-04   132   0.893E-02    0.458E-02
DAV:   4    -0.103443195089E+03   -0.14264E-05   -0.22094E-04   132   0.466E-02    0.198E-02
DAV:   5    -0.103443194666E+03    0.42300E-06   -0.81530E-06   132   0.113E-02
 137 F= -.10344319E+03 E0= -.10344319E+03  d E =-.674452E-10
       N       E                     dE             d eps       ncg     rms          rms(c)
DAV:   1    -0.103444835282E+03   -0.16402E-02   -0.28829E-01    96   0.182E+00    0.206E-01
DAV:   2    -0.103444607301E+03    0.22798E-03   -0.25130E-03   132   0.174E-01    0.101E-01
DAV:   3    -0.103444462311E+03    0.14499E-03   -0.39121E-04   132   0.635E-02    0.362E-02
DAV:   4    -0.103444463670E+03   -0.13590E-05   -0.13256E-04   132   0.352E-02    0.138E-02
DAV:   5    -0.103444462794E+03    0.87555E-06   -0.54727E-06   132   0.951E-03
 138 F= -.10344446E+03 E0= -.10344446E+03  d E =-.749844E-10
       N       E                     dE             d eps       ncg     rms          rms(c)
DAV:   1    -0.103444872213E+03   -0.40854E-03   -0.54754E-01    96   0.253E+00    0.229E-01
DAV:   2    -0.103444566774E+03    0.30544E-03   -0.34012E-03   132   0.205E-01    0.120E-01
DAV:   3    -0.103444366936E+03    0.19984E-03   -0.46769E-04   144   0.671E-02    0.370E-02
DAV:   4    -0.103444368104E+03   -0.11679E-05   -0.10465E-04   132   0.319E-02    0.123E-02
DAV:   5    -0.103444368335E+03   -0.23083E-06   -0.63525E-06   132   0.995E-03
 139 F= -.10344437E+03 E0= -.10344437E+03  d E =-.605681E-10
       N       E                     dE             d eps       ncg     rms          rms(c)
DAV:   1    -0.103444267126E+03    0.10098E-03   -0.27652E-01    96   0.187E+00    0.166E-01
DAV:   2    -0.103444159632E+03    0.10749E-03   -0.18536E-03   132   0.148E-01    0.874E-02
DAV:   3    -0.103444068707E+03    0.90925E-04   -0.27081E-04   132   0.462E-02    0.268E-02
DAV:   4    -0.103444066580E+03    0.21267E-05   -0.43157E-05   132   0.196E-02    0.108E-02
DAV:   5    -0.103444064958E+03    0.16224E-05   -0.25513E-06   144   0.722E-03    0.536E-03
DAV:   6    -0.103444064905E+03    0.52763E-07   -0.24687E-06   132   0.604E-03
 140 F= -.10344406E+03 E0= -.10344406E+03  d E =-.719742E-10
       N       E                     dE             d eps       ncg     rms          rms(c)
DAV:   1    -0.103444661108E+03   -0.59615E-03   -0.55670E-01    96   0.253E+00    0.243E-01
DAV:   2    -0.103444293168E+03    0.36794E-03   -0.34018E-03   132   0.203E-01    0.124E-01
DAV:   3    -0.103444072063E+03    0.22111E-03   -0.54213E-04   120   0.675E-02    0.396E-02
DAV:   4    -0.103444064960E+03    0.71024E-05   -0.11264E-04   132   0.318E-02    0.135E-02
DAV:   5    -0.103444064935E+03    0.25104E-07   -0.61805E-06   120   0.106E-02
 141 F= -.10344406E+03 E0= -.10344406E+03  d E =-.586203E-10
       N       E                     dE             d eps       ncg     rms          rms(c)
DAV:   1    -0.103443189596E+03    0.87536E-03   -0.27312E-01    96   0.181E+00    0.139E-01
DAV:   2    -0.103443056536E+03    0.13306E-03   -0.14905E-03   132   0.131E-01    0.786E-02
DAV:   3    -0.103442970443E+03    0.86094E-04   -0.26512E-04   132   0.506E-02    0.163E-02
DAV:   4    -0.103442975628E+03   -0.51856E-05   -0.50165E-05   132   0.230E-02    0.865E-03
DAV:   5    -0.103442976133E+03   -0.50457E-06   -0.11652E-06   120   0.417E-03
 142 F= -.10344298E+03 E0= -.10344298E+03  d E =-.629881E-10
       N       E                     dE             d eps       ncg     rms          rms(c)
DAV:   1    -0.103443773564E+03   -0.79794E-03   -0.58165E-01    96   0.258E+00    0.283E-01
DAV:   2    -0.103443234942E+03    0.53862E-03   -0.46731E-03   132   0.235E-01    0.143E-01
DAV:   3    -0.103442914200E+03    0.32074E-03   -0.89768E-04   132   0.954E-02    0.466E-02
DAV:   4    -0.103442919135E+03   -0.49348E-05   -0.25268E-04   120   0.493E-02    0.208E-02
DAV:   5    -0.103442916744E+03    0.23909E-05   -0.87490E-06   132   0.123E-02    0.914E-03
DAV:   6    -0.103442916727E+03    0.17021E-07   -0.62025E-06   120   0.916E-03
 143 F= -.10344292E+03 E0= -.10344292E+03  d E =-.714166E-10
       N       E                     dE             d eps       ncg     rms          rms(c)
DAV:   1    -0.103445196194E+03   -0.22794E-02   -0.28162E-01    96   0.182E+00    0.167E-01
DAV:   2    -0.103444979047E+03    0.21715E-03   -0.18333E-03   132   0.148E-01    0.897E-02
DAV:   3    -0.103444862924E+03    0.11612E-03   -0.34975E-04   132   0.595E-02    0.247E-02
DAV:   4    -0.103444868995E+03   -0.60715E-05   -0.84153E-05   132   0.291E-02    0.118E-02
DAV:   5    -0.103444869044E+03   -0.48860E-07   -0.25537E-06   132   0.639E-03
 144 F= -.10344487E+03 E0= -.10344487E+03  d E =-.724885E-10
       N       E                     dE             d eps       ncg     rms          rms(c)
DAV:   1    -0.103445459953E+03   -0.59096E-03   -0.54147E-01    96   0.251E+00    0.200E-01
DAV:   2    -0.103445192146E+03    0.26781E-03   -0.28517E-03   132   0.187E-01    0.112E-01
DAV:   3    -0.103445024266E+03    0.16788E-03   -0.43269E-04   144   0.660E-02    0.243E-02
DAV:   4    -0.103445029192E+03   -0.49261E-05   -0.69201E-05   120   0.272E-02    0.963E-03
DAV:   5    -0.103445029665E+03   -0.47259E-06   -0.32085E-06   132   0.660E-03
 145 F= -.10344503E+03 E0= -.10344503E+03  d E =-.609500E-10
       N       E                     dE             d eps       ncg     rms          rms(c)
DAV:   1    -0.103444352691E+03    0.67650E-03   -0.27049E-01    96   0.200E+00    0.134E-01
DAV:   2    -0.103444288654E+03    0.64036E-04   -0.18301E-03   132   0.158E-01    0.761E-02
DAV:   3    -0.103444214804E+03    0.73850E-04   -0.22636E-04   132   0.502E-02    0.183E-02
DAV:   4    -0.103444218147E+03   -0.33428E-05   -0.49029E-05   144   0.231E-02    0.762E-03
DAV:   5    -0.103444218017E+03    0.13003E-06   -0.14875E-06   108   0.506E-03
 146 F= -.10344422E+03 E0= -.10344422E+03  d E =-.753614E-10
       N       E                     dE             d eps       ncg     rms          rms(c)
DAV:   1    -0.103444408458E+03   -0.19031E-03   -0.53643E-01    96   0.259E+00    0.176E-01
DAV:   2    -0.103444263569E+03    0.14489E-03   -0.31030E-03   132   0.190E-01    0.101E-01
DAV:   3    -0.103444106030E+03    0.15754E-03   -0.51421E-04   132   0.697E-02    0.186E-02
DAV:   4    -0.103444110829E+03   -0.47994E-05   -0.10104E-04   132   0.325E-02    0.108E-02
DAV:   5    -0.103444109896E+03    0.93349E-06   -0.24495E-06   132   0.566E-03
 147 F= -.10344411E+03 E0= -.10344411E+03  d E =-.590397E-10
       N       E                     dE             d eps       ncg     rms          rms(c)
DAV:   1    -0.103443203137E+03    0.90769E-03   -0.26368E-01    96   0.181E+00    0.111E-01
DAV:   2    -0.103443148034E+03    0.55102E-04   -0.11082E-03   120   0.115E-01    0.638E-02
DAV:   3    -0.103443092316E+03    0.55718E-04   -0.16568E-04   132   0.396E-02    0.106E-02
DAV:   4    -0.103443095146E+03   -0.28299E-05   -0.24318E-05   132   0.165E-02    0.582E-03
DAV:   5    -0.103443096465E+03   -0.13192E-05   -0.89880E-07   108   0.350E-03    0.394E-03
DAV:   6    -0.103443099854E+03   -0.33894E-05   -0.82290E-07    96   0.334E-03    0.730E-04
DAV:   7    -0.103443101732E+03   -0.18775E-05   -0.30858E-07   108   0.189E-03    0.645E-04
DAV:   8    -0.103443105148E+03   -0.34163E-05   -0.20661E-07    96   0.166E-03    0.239E-04
DAV:   9    -0.103443107154E+03   -0.20052E-05   -0.15360E-07   108   0.111E-03    0.237E-04
DAV:  10    -0.103443108918E+03   -0.17644E-05   -0.58760E-08    96   0.713E-04    0.147E-04
DAV:  11    -0.103443109977E+03   -0.10591E-05   -0.40373E-08   108   0.445E-04    0.823E-05
DAV:  12    -0.103443110610E+03   -0.63246E-06   -0.12038E-08   108   0.278E-04
 148 F= -.10344311E+03 E0= -.10344311E+03  d E =-.582078E-10
       N       E                     dE             d eps       ncg     rms          rms(c)
DAV:   1    -0.103443355231E+03   -0.24525E-03   -0.54203E-01    96   0.263E+00    0.202E-01
DAV:   2    -0.103443251922E+03    0.10331E-03   -0.41269E-03   108   0.225E-01    0.111E-01
DAV:   3    -0.103443062235E+03    0.18969E-03   -0.50515E-04   132   0.656E-02    0.291E-02
DAV:   4    -0.103443055284E+03    0.69504E-05   -0.97516E-05   132   0.290E-02    0.110E-02
DAV:   5    -0.103443053073E+03    0.22109E-05   -0.53811E-06   132   0.949E-03    0.565E-03
DAV:   6    -0.103443055484E+03   -0.24104E-05   -0.41771E-06   132   0.772E-03    0.186E-03
DAV:   7    -0.103443059580E+03   -0.40959E-05   -0.14305E-06   132   0.413E-03    0.152E-03
DAV:   8    -0.103443064674E+03   -0.50947E-05   -0.21265E-07   108   0.154E-03    0.667E-04
DAV:   9    -0.103443070501E+03   -0.58265E-05   -0.34018E-07   108   0.150E-03    0.416E-04
DAV:  10    -0.103443076674E+03   -0.61737E-05   -0.34984E-07   108   0.142E-03    0.185E-04
DAV:  11    -0.103443079690E+03   -0.30158E-05   -0.98760E-08   108   0.812E-04    0.215E-04
DAV:  12    -0.103443081133E+03   -0.14426E-05   -0.97227E-09   108   0.417E-04    0.101E-04
DAV:  13    -0.103443082804E+03   -0.16717E-05   -0.29428E-08   108   0.384E-04    0.650E-05
DAV:  14    -0.103443083438E+03   -0.63339E-06   -0.12595E-09   108   0.203E-04
 149 F= -.10344308E+03 E0= -.10344308E+03  d E =-.726948E-10
       N       E                     dE             d eps       ncg     rms          rms(c)
DAV:   1    -0.103445108625E+03   -0.20258E-02   -0.26618E-01    96   0.184E+00    0.127E-01
DAV:   2    -0.103445029386E+03    0.79239E-04   -0.14336E-03   132   0.136E-01    0.713E-02
DAV:   3    -0.103444957655E+03    0.71731E-04   -0.21473E-04   132   0.461E-02    0.146E-02
DAV:   4    -0.103444958430E+03   -0.77522E-06   -0.35564E-05   132   0.193E-02    0.753E-03
DAV:   5    -0.103444958748E+03   -0.31828E-06   -0.13068E-06   108   0.444E-03
 150 F= -.10344496E+03 E0= -.10344496E+03  d E =-.626170E-10
       N       E                     dE             d eps       ncg     rms          rms(c)
DAV:   1    -0.103445220141E+03   -0.26171E-03   -0.52560E-01    96   0.258E+00    0.159E-01
DAV:   2    -0.103445105956E+03    0.11419E-03   -0.21861E-03   120   0.165E-01    0.918E-02
DAV:   3    -0.103445003360E+03    0.10260E-03   -0.34175E-04   144   0.609E-02    0.131E-02
DAV:   4    -0.103445009873E+03   -0.65131E-05   -0.54119E-05   132   0.247E-02    0.906E-03
DAV:   5    -0.103445010822E+03   -0.94894E-06   -0.17542E-06   120   0.466E-03
 151 F= -.10344501E+03 E0= -.10344501E+03  d E =-.525196E-10
       N       E                     dE             d eps       ncg     rms          rms(c)
DAV:   1    -0.103442880531E+03    0.21293E-02   -0.26641E-01    96   0.190E+00    0.130E-01
DAV:   2    -0.103442843905E+03    0.36625E-04   -0.20204E-03   132   0.160E-01    0.714E-02
DAV:   3    -0.103442767357E+03    0.76548E-04   -0.21239E-04   132   0.491E-02    0.194E-02
DAV:   4    -0.103442769750E+03   -0.23931E-05   -0.57080E-05   132   0.237E-02    0.732E-03
DAV:   5    -0.103442770973E+03   -0.12234E-05   -0.22609E-06   132   0.562E-03    0.526E-03
DAV:   6    -0.103442774658E+03   -0.36846E-05   -0.16005E-06   108   0.457E-03    0.104E-03
DAV:   7    -0.103442776894E+03   -0.22364E-05   -0.59612E-07   108   0.259E-03    0.849E-04
DAV:   8    -0.103442778943E+03   -0.20482E-05   -0.99066E-08   108   0.113E-03    0.456E-04
DAV:   9    -0.103442782862E+03   -0.39198E-05   -0.25880E-07   108   0.138E-03    0.440E-04
DAV:  10    -0.103442783897E+03   -0.10346E-05   -0.55709E-08   108   0.735E-04    0.189E-04
DAV:  11    -0.103442785419E+03   -0.15219E-05   -0.70072E-08   108   0.668E-04    0.207E-04
DAV:  12    -0.103442786281E+03   -0.86252E-06   -0.36171E-08   108   0.451E-04
 152 F= -.10344279E+03 E0= -.10344279E+03  d E =-.601137E-10
       N       E                     dE             d eps       ncg     rms          rms(c)
DAV:   1    -0.103443237203E+03   -0.45178E-03   -0.54529E-01   108   0.268E+00    0.205E-01
DAV:   2    -0.103443151327E+03    0.85876E-04   -0.46780E-03   132   0.232E-01    0.114E-01
DAV:   3    -0.103442932126E+03    0.21920E-03   -0.57334E-04   132   0.745E-02    0.308E-02
DAV:   4    -0.103442929998E+03    0.21288E-05   -0.14471E-04   132   0.361E-02    0.119E-02
DAV:   5    -0.103442927851E+03    0.21468E-05   -0.57328E-06   132   0.966E-03    0.646E-03
DAV:   6    -0.103442930095E+03   -0.22444E-05   -0.50480E-06   132   0.830E-03    0.177E-03
DAV:   7    -0.103442933763E+03   -0.36677E-05   -0.15554E-06   132   0.427E-03    0.137E-03
DAV:   8    -0.103442939070E+03   -0.53075E-05   -0.25719E-07   108   0.144E-03    0.496E-04
DAV:   9    -0.103442943837E+03   -0.47667E-05   -0.26640E-07   108   0.126E-03    0.436E-04
DAV:  10    -0.103442949375E+03   -0.55377E-05   -0.29371E-07   108   0.129E-03    0.207E-04
DAV:  11    -0.103442952177E+03   -0.28024E-05   -0.93630E-08   108   0.775E-04    0.253E-04
DAV:  12    -0.103442953376E+03   -0.11986E-05   -0.10780E-08   108   0.395E-04    0.109E-04
DAV:  13    -0.103442954743E+03   -0.13668E-05   -0.18155E-08    96   0.360E-04    0.843E-05
DAV:  14    -0.103442955679E+03   -0.93634E-06   -0.85507E-09   108   0.257E-04
 153 F= -.10344296E+03 E0= -.10344296E+03  d E =-.703409E-10
       N       E                     dE             d eps       ncg     rms          rms(c)
DAV:   1    -0.103445005195E+03   -0.20505E-02   -0.26908E-01    96   0.182E+00    0.139E-01
DAV:   2    -0.103444950310E+03    0.54885E-04   -0.20090E-03   108   0.151E-01    0.762E-02
DAV:   3    -0.103444854945E+03    0.95364E-04   -0.22878E-04   132   0.438E-02    0.216E-02
DAV:   4    -0.103444849347E+03    0.55986E-05   -0.42811E-05   120   0.198E-02    0.774E-03
DAV:   5    -0.103444850799E+03   -0.14520E-05   -0.26773E-06   120   0.666E-03    0.394E-03
DAV:   6    -0.103444855564E+03   -0.47654E-05   -0.20246E-06   132   0.504E-03    0.115E-03
DAV:   7    -0.103444859995E+03   -0.44306E-05   -0.54191E-07   108   0.263E-03    0.807E-04
DAV:   8    -0.103444865139E+03   -0.51439E-05   -0.26309E-07   108   0.148E-03    0.412E-04
DAV:   9    -0.103444869421E+03   -0.42824E-05   -0.24627E-07   108   0.131E-03    0.238E-04
DAV:  10    -0.103444873168E+03   -0.37469E-05   -0.27832E-07   108   0.115E-03    0.140E-04
DAV:  11    -0.103444874329E+03   -0.11607E-05   -0.48486E-08   108   0.566E-04    0.117E-04
DAV:  12    -0.103444875115E+03   -0.78617E-06   -0.15992E-08   108   0.333E-04
 154 F= -.10344488E+03 E0= -.10344488E+03  d E =-.610307E-10
       N       E                     dE             d eps       ncg     rms          rms(c)
DAV:   1    -0.103445197546E+03   -0.32322E-03   -0.53139E-01    96   0.261E+00    0.160E-01
DAV:   2    -0.103445092993E+03    0.10455E-03   -0.21569E-03   108   0.157E-01    0.922E-02
DAV:   3    -0.103444976939E+03    0.11605E-03   -0.34346E-04   132   0.562E-02    0.143E-02
DAV:   4    -0.103444979096E+03   -0.21564E-05   -0.47506E-05   132   0.227E-02    0.781E-03
DAV:   5    -0.103444978687E+03    0.40849E-06   -0.18775E-06   132   0.498E-03
 155 F= -.10344498E+03 E0= -.10344498E+03  d E =-.811711E-10
       N       E                     dE             d eps       ncg     rms          rms(c)
DAV:   1    -0.103444541452E+03    0.43764E-03   -0.26462E-01    96   0.181E+00    0.115E-01
DAV:   2    -0.103444483967E+03    0.57484E-04   -0.11782E-03   132   0.123E-01    0.666E-02
DAV:   3    -0.103444437763E+03    0.46204E-04   -0.18706E-04   132   0.454E-02    0.945E-03
DAV:   4    -0.103444442316E+03   -0.45524E-05   -0.33385E-05   132   0.191E-02    0.670E-03
DAV:   5    -0.103444442871E+03   -0.55465E-06   -0.72213E-07   108   0.331E-03
 156 F= -.10344444E+03 E0= -.10344444E+03  d E =-.867234E-10
       N       E                     dE             d eps       ncg     rms          rms(c)
DAV:   1    -0.103444690081E+03   -0.24777E-03   -0.52661E-01    96   0.263E+00    0.173E-01
DAV:   2    -0.103444609797E+03    0.80284E-04   -0.29254E-03   120   0.188E-01    0.973E-02
DAV:   3    -0.103444484114E+03    0.12568E-03   -0.37080E-04   132   0.589E-02    0.214E-02
DAV:   4    -0.103444484626E+03   -0.51211E-06   -0.59427E-05   132   0.246E-02    0.987E-03
DAV:   5    -0.103444484576E+03    0.49237E-07   -0.31337E-06   132   0.637E-03
 157 F= -.10344448E+03 E0= -.10344448E+03  d E =-.525459E-10
