       N       E                     dE             d eps       ncg     rms          rms(c)
DAV:   1     0.195386908850E+03    0.19539E+03   -0.10509E+04   116   0.546E+02
DAV:   2    -0.328899473770E+02   -0.22828E+03   -0.21358E+03   144   0.102E+02
DAV:   3    -0.105503774318E+03   -0.72614E+02   -0.72444E+02   112   0.535E+01
DAV:   4    -0.109536473703E+03   -0.40327E+01   -0.40173E+01   104   0.179E+01
DAV:   5    -0.109628798617E+03   -0.92325E-01   -0.92277E-01   144   0.299E+00    0.156E+01
DAV:   6    -0.106331440307E+03    0.32974E+01   -0.16010E+00    96   0.462E+00    0.907E+00
DAV:   7    -0.104595401168E+03    0.17360E+01   -0.42584E+00   112   0.687E+00    0.124E+00
DAV:   8    -0.104545954246E+03    0.49447E-01   -0.27939E-01   104   0.226E+00    0.636E-01
DAV:   9    -0.104511196890E+03    0.34757E-01   -0.77084E-02   128   0.809E-01    0.365E-01
DAV:  10    -0.104511080381E+03    0.11651E-03   -0.31959E-03   112   0.220E-01    0.174E-01
DAV:  11    -0.104510351020E+03    0.72936E-03   -0.72159E-03   104   0.244E-01    0.817E-02
DAV:  12    -0.104514065016E+03   -0.37140E-02   -0.79119E-04   104   0.912E-02    0.600E-02
DAV:  13    -0.104518823284E+03   -0.47583E-02   -0.20283E-03   104   0.116E-01    0.382E-02
DAV:  14    -0.104522823268E+03   -0.40000E-02   -0.37131E-04   112   0.521E-02    0.180E-02
DAV:  15    -0.104527595719E+03   -0.47725E-02   -0.58722E-04   112   0.650E-02    0.174E-02
DAV:  16    -0.104528880999E+03   -0.12853E-02   -0.77014E-05   112   0.266E-02    0.797E-03
DAV:  17    -0.104529948503E+03   -0.10675E-02   -0.91516E-05   104   0.231E-02    0.412E-03
DAV:  18    -0.104530208041E+03   -0.25954E-03   -0.71109E-06   104   0.750E-03    0.215E-03
DAV:  19    -0.104530414127E+03   -0.20609E-03   -0.91489E-06    96   0.757E-03    0.219E-03
DAV:  20    -0.104530474727E+03   -0.60601E-04   -0.14541E-06    88   0.413E-03    0.641E-04
DAV:  21    -0.104530496730E+03   -0.22003E-04   -0.69930E-07    88   0.226E-03    0.592E-04
DAV:  22    -0.104530506058E+03   -0.93276E-05   -0.18514E-07    88   0.145E-03    0.297E-04
DAV:  23    -0.104530509504E+03   -0.34457E-05   -0.88424E-08    80   0.824E-04    0.193E-04
DAV:  24    -0.104530512378E+03   -0.28745E-05   -0.38935E-08    80   0.511E-04    0.790E-05
DAV:  25    -0.104530513316E+03   -0.93813E-06   -0.15269E-08    88   0.328E-04
   1 F= -.10453051E+03 E0= -.10453051E+03  d E =-.104531E+03
       N       E                     dE             d eps       ncg     rms          rms(c)
DAV:   1    -0.104731334687E+03   -0.20082E+00   -0.88068E+00    84   0.128E+01    0.126E+00
DAV:   2    -0.104756930436E+03   -0.25596E-01   -0.36243E-01   120   0.244E+00    0.663E-01
DAV:   3    -0.104750455369E+03    0.64751E-02   -0.16903E-02   120   0.516E-01    0.314E-01
DAV:   4    -0.104749228414E+03    0.12270E-02   -0.77407E-03   112   0.297E-01    0.718E-02
DAV:   5    -0.104749102589E+03    0.12582E-03   -0.55986E-04   112   0.988E-02    0.427E-02
DAV:   6    -0.104749182954E+03   -0.80365E-04   -0.17202E-04   112   0.464E-02    0.207E-02
DAV:   7    -0.104749387182E+03   -0.20423E-03   -0.49702E-05   104   0.274E-02    0.880E-03
DAV:   8    -0.104749493053E+03   -0.10587E-03   -0.14274E-05   112   0.136E-02    0.736E-03
DAV:   9    -0.104749628577E+03   -0.13552E-03   -0.69205E-06   112   0.755E-03    0.356E-03
DAV:  10    -0.104749767151E+03   -0.13857E-03   -0.11082E-05   112   0.754E-03    0.242E-03
DAV:  11    -0.104749807352E+03   -0.40200E-04   -0.85592E-07    96   0.310E-03    0.125E-03
DAV:  12    -0.104749876217E+03   -0.68865E-04   -0.41233E-06   104   0.434E-03    0.746E-04
DAV:  13    -0.104749891540E+03   -0.15323E-04   -0.19453E-07    96   0.189E-03    0.759E-04
DAV:  14    -0.104749914267E+03   -0.22727E-04   -0.63044E-07    88   0.179E-03    0.359E-04
DAV:  15    -0.104749919280E+03   -0.50129E-05   -0.90400E-08    96   0.820E-04    0.368E-04
DAV:  16    -0.104749925898E+03   -0.66180E-05   -0.11282E-07    88   0.856E-04    0.157E-04
DAV:  17    -0.104749927010E+03   -0.11122E-05   -0.17964E-08    88   0.374E-04    0.129E-04
DAV:  18    -0.104749928249E+03   -0.12389E-05   -0.19936E-08    80   0.374E-04    0.374E-05
DAV:  19    -0.104749928668E+03   -0.41893E-06   -0.62097E-09    88   0.231E-04
   2 F= -.10474993E+03 E0= -.10474993E+03  d E =-.219415E+00
       N       E                     dE             d eps       ncg     rms          rms(c)
DAV:   1    -0.104753016013E+03   -0.30878E-02   -0.98694E-02    84   0.136E+00    0.130E-01
DAV:   2    -0.104753262213E+03   -0.24620E-03   -0.39637E-03   120   0.254E-01    0.725E-02
DAV:   3    -0.104753176416E+03    0.85797E-04   -0.19883E-04   120   0.555E-02    0.346E-02
DAV:   4    -0.104753154058E+03    0.22359E-04   -0.84158E-05   112   0.311E-02    0.885E-03
DAV:   5    -0.104753153948E+03    0.10943E-06   -0.60317E-06   112   0.103E-02
   3 F= -.10475315E+03 E0= -.10475315E+03  d E =-.222641E+00
       N       E                     dE             d eps       ncg     rms          rms(c)
DAV:   1    -0.104807607289E+03   -0.54453E-01   -0.11561E+00    84   0.460E+00    0.446E-01
DAV:   2    -0.104812696697E+03   -0.50894E-02   -0.63929E-02   120   0.995E-01    0.232E-01
DAV:   3    -0.104812199588E+03    0.49711E-03   -0.30748E-03   120   0.233E-01    0.117E-01
DAV:   4    -0.104812272452E+03   -0.72864E-04   -0.10087E-03   112   0.120E-01    0.423E-02
DAV:   5    -0.104812269086E+03    0.33656E-05   -0.72355E-05   112   0.358E-02    0.216E-02
DAV:   6    -0.104812262949E+03    0.61375E-05   -0.23427E-05   112   0.187E-02    0.855E-03
DAV:   7    -0.104812270871E+03   -0.79221E-05   -0.97814E-06   112   0.118E-02    0.345E-03
DAV:   8    -0.104812276405E+03   -0.55338E-05   -0.82294E-07    88   0.410E-03    0.185E-03
DAV:   9    -0.104812285178E+03   -0.87737E-05   -0.65881E-07    88   0.270E-03    0.675E-04
DAV:  10    -0.104812292541E+03   -0.73626E-05   -0.43966E-07    88   0.211E-03    0.705E-04
DAV:  11    -0.104812300256E+03   -0.77149E-05   -0.47049E-07    88   0.198E-03    0.249E-04
DAV:  12    -0.104812303751E+03   -0.34948E-05   -0.22559E-07    88   0.126E-03    0.195E-04
DAV:  13    -0.104812305325E+03   -0.15741E-05   -0.43856E-08    88   0.715E-04    0.147E-04
DAV:  14    -0.104812306517E+03   -0.11923E-05   -0.44946E-08    88   0.548E-04    0.111E-04
DAV:  15    -0.104812306998E+03   -0.48080E-06   -0.12230E-08    88   0.296E-04
   4 F= -.10481231E+03 E0= -.10481231E+03  d E =-.591530E-01
       N       E                     dE             d eps       ncg     rms          rms(c)
DAV:   1    -0.104822066846E+03   -0.97603E-02   -0.52613E-01    84   0.312E+00    0.298E-01
DAV:   2    -0.104824402494E+03   -0.23356E-02   -0.29511E-02   120   0.676E-01    0.158E-01
DAV:   3    -0.104824170699E+03    0.23180E-03   -0.14465E-03   120   0.160E-01    0.797E-02
DAV:   4    -0.104824211031E+03   -0.40332E-04   -0.46870E-04   112   0.819E-02    0.301E-02
DAV:   5    -0.104824208028E+03    0.30022E-05   -0.31977E-05   112   0.240E-02    0.148E-02
DAV:   6    -0.104824202852E+03    0.51763E-05   -0.11597E-05   112   0.132E-02    0.556E-03
DAV:   7    -0.104824204554E+03   -0.17021E-05   -0.44898E-06   112   0.798E-03    0.248E-03
DAV:   8    -0.104824206845E+03   -0.22910E-05   -0.34247E-07    88   0.263E-03    0.127E-03
DAV:   9    -0.104824210552E+03   -0.37062E-05   -0.26903E-07    80   0.175E-03    0.422E-04
DAV:  10    -0.104824213698E+03   -0.31463E-05   -0.15742E-07    88   0.132E-03    0.450E-04
DAV:  11    -0.104824217580E+03   -0.38819E-05   -0.20589E-07    88   0.133E-03    0.165E-04
DAV:  12    -0.104824219371E+03   -0.17912E-05   -0.10435E-07    88   0.862E-04    0.130E-04
DAV:  13    -0.104824220122E+03   -0.75086E-06   -0.18118E-08    88   0.462E-04
   5 F= -.10482422E+03 E0= -.10482422E+03  d E =-.710662E-01
       N       E                     dE             d eps       ncg     rms          rms(c)
DAV:   1    -0.104842375373E+03   -0.18156E-01   -0.64788E-01    84   0.366E+00    0.304E-01
DAV:   2    -0.104843901009E+03   -0.15256E-02   -0.24419E-02   120   0.632E-01    0.168E-01
DAV:   3    -0.104843611561E+03    0.28945E-03   -0.10780E-03   120   0.130E-01    0.852E-02
DAV:   4    -0.104843565324E+03    0.46237E-04   -0.35920E-04   104   0.662E-02    0.239E-02
DAV:   5    -0.104843552283E+03    0.13041E-04   -0.30253E-05   112   0.224E-02    0.122E-02
DAV:   6    -0.104843560044E+03   -0.77612E-05   -0.12673E-05   112   0.124E-02    0.460E-03
DAV:   7    -0.104843582412E+03   -0.22368E-04   -0.27304E-06   104   0.631E-03    0.196E-03
DAV:   8    -0.104843601866E+03   -0.19454E-04   -0.84460E-07    80   0.297E-03    0.136E-03
DAV:   9    -0.104843631597E+03   -0.29732E-04   -0.18060E-06    86   0.312E-03    0.578E-04
DAV:  10    -0.104843649384E+03   -0.17786E-04   -0.96635E-07    88   0.230E-03    0.475E-04
DAV:  11    -0.104843661306E+03   -0.11922E-04   -0.63554E-07    80   0.181E-03    0.264E-04
DAV:  12    -0.104843664726E+03   -0.34198E-05   -0.99419E-08    88   0.860E-04    0.182E-04
DAV:  13    -0.104843667690E+03   -0.29648E-05   -0.61919E-08    88   0.687E-04    0.118E-04
DAV:  14    -0.104843669491E+03   -0.18009E-05   -0.59072E-08    88   0.533E-04    0.659E-05
DAV:  15    -0.104843670033E+03   -0.54159E-06   -0.53487E-09    88   0.258E-04
   6 F= -.10484367E+03 E0= -.10484367E+03  d E =-.194499E-01
       N       E                     dE             d eps       ncg     rms          rms(c)
DAV:   1    -0.104844018730E+03   -0.34924E-03   -0.16104E-02    84   0.578E-01    0.478E-02
DAV:   2    -0.104844060038E+03   -0.41309E-04   -0.61451E-04   120   0.100E-01    0.267E-02
DAV:   3    -0.104844054721E+03    0.53172E-05   -0.27044E-05   120   0.206E-02    0.135E-02
DAV:   4    -0.104844054683E+03    0.37789E-07   -0.89800E-06   104   0.105E-02
   7 F= -.10484405E+03 E0= -.10484405E+03  d E =-.198346E-01
       N       E                     dE             d eps       ncg     rms          rms(c)
DAV:   1    -0.104848264877E+03   -0.42102E-02   -0.20376E-01    84   0.204E+00    0.160E-01
DAV:   2    -0.104848949619E+03   -0.68474E-03   -0.93517E-03   120   0.380E-01    0.945E-02
DAV:   3    -0.104848851298E+03    0.98321E-04   -0.42443E-04   120   0.844E-02    0.490E-02
DAV:   4    -0.104848848663E+03    0.26348E-05   -0.16519E-04   120   0.492E-02    0.142E-02
DAV:   5    -0.104848845671E+03    0.29919E-05   -0.17748E-05   112   0.182E-02    0.840E-03
DAV:   6    -0.104848846017E+03   -0.34569E-06   -0.42697E-06   112   0.725E-03
   8 F= -.10484885E+03 E0= -.10484885E+03  d E =-.479133E-02
       N       E                     dE             d eps       ncg     rms          rms(c)
DAV:   1    -0.104848851626E+03   -0.59550E-05   -0.89199E-05   104   0.428E-02    0.340E-03
DAV:   2    -0.104848854057E+03   -0.24311E-05   -0.34422E-06   112   0.733E-03    0.198E-03
DAV:   3    -0.104848856880E+03   -0.28233E-05   -0.23007E-07    88   0.196E-03    0.918E-04
DAV:   4    -0.104848860481E+03   -0.36006E-05   -0.21304E-07    88   0.150E-03    0.386E-04
DAV:   5    -0.104848864529E+03   -0.40482E-05   -0.13051E-07    88   0.112E-03    0.208E-04
DAV:   6    -0.104848867278E+03   -0.27491E-05   -0.10370E-07    88   0.823E-04    0.138E-04
DAV:   7    -0.104848869369E+03   -0.20912E-05   -0.80426E-08    88   0.657E-04    0.941E-05
DAV:   8    -0.104848870482E+03   -0.11128E-05   -0.37963E-08    88   0.447E-04    0.547E-05
DAV:   9    -0.104848871132E+03   -0.64959E-06   -0.12696E-08    88   0.290E-04
   9 F= -.10484887E+03 E0= -.10484887E+03  d E =-.481645E-02
       N       E                     dE             d eps       ncg     rms          rms(c)
DAV:   1    -0.104850444491E+03   -0.15740E-02   -0.42295E-02    84   0.938E-01    0.724E-02
DAV:   2    -0.104850519351E+03   -0.74860E-04   -0.13657E-03   120   0.151E-01    0.386E-02
DAV:   3    -0.104850499272E+03    0.20079E-04   -0.85058E-05   128   0.381E-02    0.190E-02
DAV:   4    -0.104850497834E+03    0.14380E-05   -0.25626E-05   120   0.192E-02    0.579E-03
DAV:   5    -0.104850496497E+03    0.13369E-05   -0.17352E-06   104   0.647E-03    0.315E-03
DAV:   6    -0.104850496023E+03    0.47415E-06   -0.67406E-07    88   0.411E-03
  10 F= -.10485050E+03 E0= -.10485050E+03  d E =-.162489E-02
       N       E                     dE             d eps       ncg     rms          rms(c)
DAV:   1    -0.104851194577E+03   -0.69808E-03   -0.75823E-02    84   0.126E+00    0.968E-02
DAV:   2    -0.104851329070E+03   -0.13449E-03   -0.24641E-03   120   0.203E-01    0.518E-02
DAV:   3    -0.104851291086E+03    0.37983E-04   -0.15341E-04   128   0.511E-02    0.256E-02
DAV:   4    -0.104851287216E+03    0.38704E-05   -0.46130E-05   120   0.258E-02    0.775E-03
DAV:   5    -0.104851285269E+03    0.19471E-05   -0.32117E-06   104   0.885E-03    0.424E-03
DAV:   6    -0.104851285412E+03   -0.14281E-06   -0.12582E-06    88   0.566E-03
  11 F= -.10485129E+03 E0= -.10485129E+03  d E =-.241428E-02
       N       E                     dE             d eps       ncg     rms          rms(c)
DAV:   1    -0.104852424893E+03   -0.11396E-02   -0.42291E-02    84   0.944E-01    0.646E-02
DAV:   2    -0.104852458322E+03   -0.33429E-04   -0.86260E-04   120   0.122E-01    0.352E-02
DAV:   3    -0.104852443327E+03    0.14995E-04   -0.63406E-05   120   0.336E-02    0.159E-02
DAV:   4    -0.104852445524E+03   -0.21969E-05   -0.22200E-05   120   0.174E-02    0.519E-03
DAV:   5    -0.104852445996E+03   -0.47188E-06   -0.15186E-06    96   0.532E-03
  12 F= -.10485245E+03 E0= -.10485245E+03  d E =-.116058E-02
       N       E                     dE             d eps       ncg     rms          rms(c)
DAV:   1    -0.104852969007E+03   -0.52348E-03   -0.48532E-02    84   0.101E+00    0.694E-02
DAV:   2    -0.104853006467E+03   -0.37460E-04   -0.99981E-04   120   0.131E-01    0.377E-02
DAV:   3    -0.104852986654E+03    0.19813E-04   -0.71354E-05   120   0.357E-02    0.172E-02
DAV:   4    -0.104852987444E+03   -0.78969E-06   -0.25524E-05   120   0.187E-02    0.547E-03
DAV:   5    -0.104852987554E+03   -0.10982E-06   -0.17763E-06    88   0.575E-03
  13 F= -.10485299E+03 E0= -.10485299E+03  d E =-.170214E-02
       N       E                     dE             d eps       ncg     rms          rms(c)
DAV:   1    -0.104853903986E+03   -0.91654E-03   -0.46264E-02    84   0.961E-01    0.778E-02
DAV:   2    -0.104853977389E+03   -0.73403E-04   -0.12696E-03   120   0.145E-01    0.393E-02
DAV:   3    -0.104853959393E+03    0.17996E-04   -0.76852E-05   128   0.366E-02    0.194E-02
DAV:   4    -0.104853959546E+03   -0.15372E-06   -0.23628E-05   120   0.182E-02    0.610E-03
DAV:   5    -0.104853959576E+03   -0.30164E-07   -0.19974E-06    96   0.609E-03
  14 F= -.10485396E+03 E0= -.10485396E+03  d E =-.972023E-03
       N       E                     dE             d eps       ncg     rms          rms(c)
DAV:   1    -0.104854094088E+03   -0.13454E-03   -0.13774E-02    84   0.524E-01    0.429E-02
DAV:   2    -0.104854116346E+03   -0.22259E-04   -0.38549E-04   120   0.795E-02    0.214E-02
DAV:   3    -0.104854110568E+03    0.57781E-05   -0.22729E-05   128   0.199E-02    0.106E-02
DAV:   4    -0.104854110468E+03    0.10051E-06   -0.70141E-06   120   0.990E-03
  15 F= -.10485411E+03 E0= -.10485411E+03  d E =-.112291E-02
       N       E                     dE             d eps       ncg     rms          rms(c)
DAV:   1    -0.104854357024E+03   -0.24646E-03   -0.16937E-02    84   0.582E-01    0.445E-02
DAV:   2    -0.104854391195E+03   -0.34170E-04   -0.48370E-04   112   0.900E-02    0.241E-02
DAV:   3    -0.104854385345E+03    0.58500E-05   -0.21067E-05   128   0.202E-02    0.121E-02
DAV:   4    -0.104854386369E+03   -0.10246E-05   -0.10302E-05   112   0.118E-02    0.320E-03
DAV:   5    -0.104854386889E+03   -0.51971E-06   -0.92902E-07    88   0.441E-03
  16 F= -.10485439E+03 E0= -.10485439E+03  d E =-.276421E-03
       N       E                     dE             d eps       ncg     rms          rms(c)
DAV:   1    -0.104854413648E+03   -0.27279E-04   -0.26082E-03    84   0.228E-01    0.177E-02
DAV:   2    -0.104854419102E+03   -0.54537E-05   -0.77195E-05   112   0.359E-02    0.946E-03
DAV:   3    -0.104854418131E+03    0.97075E-06   -0.30321E-06   112   0.790E-03
  17 F= -.10485442E+03 E0= -.10485442E+03  d E =-.307664E-03
       N       E                     dE             d eps       ncg     rms          rms(c)
DAV:   1    -0.104854605889E+03   -0.18679E-03   -0.13047E-02    84   0.518E-01    0.365E-02
DAV:   2    -0.104854627159E+03   -0.21270E-04   -0.35306E-04   120   0.760E-02    0.206E-02
DAV:   3    -0.104854622853E+03    0.43063E-05   -0.15555E-05   120   0.164E-02    0.101E-02
DAV:   4    -0.104854622917E+03   -0.64385E-07   -0.60821E-06   104   0.889E-03
  18 F= -.10485462E+03 E0= -.10485462E+03  d E =-.204786E-03
       N       E                     dE             d eps       ncg     rms          rms(c)
DAV:   1    -0.104854640530E+03   -0.17678E-04   -0.22425E-03    84   0.214E-01    0.156E-02
DAV:   2    -0.104854644249E+03   -0.37182E-05   -0.62671E-05   120   0.319E-02    0.859E-03
DAV:   3    -0.104854643464E+03    0.78508E-06   -0.24677E-06    88   0.678E-03
  19 F= -.10485464E+03 E0= -.10485464E+03  d E =-.225332E-03
       N       E                     dE             d eps       ncg     rms          rms(c)
DAV:   1    -0.104854762339E+03   -0.11809E-03   -0.96263E-03    84   0.458E-01    0.304E-02
DAV:   2    -0.104854765101E+03   -0.27624E-05   -0.16759E-04   120   0.538E-02    0.170E-02
DAV:   3    -0.104854761154E+03    0.39469E-05   -0.12691E-05   128   0.141E-02    0.724E-03
DAV:   4    -0.104854761135E+03    0.19610E-07   -0.39876E-06   104   0.717E-03
  20 F= -.10485476E+03 E0= -.10485476E+03  d E =-.117671E-03
       N       E                     dE             d eps       ncg     rms          rms(c)
DAV:   1    -0.104854767656E+03   -0.65012E-05   -0.73969E-04    84   0.126E-01    0.882E-03
DAV:   2    -0.104854767976E+03   -0.32026E-06   -0.13674E-05   120   0.153E-02    0.481E-03
DAV:   3    -0.104854767734E+03    0.24178E-06   -0.79787E-07    80   0.388E-03
  21 F= -.10485477E+03 E0= -.10485477E+03  d E =-.124270E-03
       N       E                     dE             d eps       ncg     rms          rms(c)
DAV:   1    -0.104854805345E+03   -0.37370E-04   -0.43735E-03    84   0.298E-01    0.237E-02
DAV:   2    -0.104854815853E+03   -0.10507E-04   -0.16813E-04   120   0.498E-02    0.128E-02
DAV:   3    -0.104854814229E+03    0.16238E-05   -0.81639E-06   128   0.115E-02    0.691E-03
DAV:   4    -0.104854814252E+03   -0.23231E-07   -0.23066E-06   104   0.626E-03
  22 F= -.10485481E+03 E0= -.10485481E+03  d E =-.465179E-04
