       N       E                     dE             d eps       ncg     rms          rms(c)
DAV:   1     0.198594245587E+03    0.19859E+03   -0.10497E+04   116   0.546E+02
DAV:   2    -0.314612397984E+02   -0.23006E+03   -0.21508E+03   144   0.103E+02
DAV:   3    -0.104463197813E+03   -0.73002E+02   -0.72849E+02   112   0.540E+01
DAV:   4    -0.108533713037E+03   -0.40705E+01   -0.40559E+01   104   0.177E+01
DAV:   5    -0.108622446954E+03   -0.88734E-01   -0.88687E-01   144   0.286E+00    0.154E+01
DAV:   6    -0.105328005209E+03    0.32944E+01   -0.16315E+00   104   0.463E+00    0.894E+00
DAV:   7    -0.103604299067E+03    0.17237E+01   -0.42524E+00   104   0.685E+00    0.123E+00
DAV:   8    -0.103553648056E+03    0.50651E-01   -0.28531E-01   104   0.227E+00    0.632E-01
DAV:   9    -0.103518643654E+03    0.35004E-01   -0.78045E-02   128   0.808E-01    0.355E-01
DAV:  10    -0.103518331055E+03    0.31260E-03   -0.30546E-03   112   0.220E-01    0.170E-01
DAV:  11    -0.103517816364E+03    0.51469E-03   -0.68552E-03   104   0.241E-01    0.840E-02
DAV:  12    -0.103521984583E+03   -0.41682E-02   -0.88625E-04   104   0.947E-02    0.588E-02
DAV:  13    -0.103526423096E+03   -0.44385E-02   -0.21453E-03   104   0.118E-01    0.384E-02
DAV:  14    -0.103531028895E+03   -0.46058E-02   -0.44234E-04   112   0.600E-02    0.153E-02
DAV:  15    -0.103534895769E+03   -0.38669E-02   -0.41650E-04   112   0.552E-02    0.163E-02
DAV:  16    -0.103536581155E+03   -0.16854E-02   -0.13395E-04   112   0.319E-02    0.741E-03
DAV:  17    -0.103537456049E+03   -0.87489E-03   -0.63545E-05   112   0.202E-02    0.522E-03
DAV:  18    -0.103537822709E+03   -0.36666E-03   -0.15415E-05   104   0.983E-03    0.220E-03
DAV:  19    -0.103537942945E+03   -0.12024E-03   -0.37469E-06   104   0.517E-03    0.181E-03
DAV:  20    -0.103538001174E+03   -0.58230E-04   -0.13624E-06    80   0.382E-03    0.667E-04
DAV:  21    -0.103538016638E+03   -0.15463E-04   -0.42955E-07    88   0.184E-03    0.476E-04
DAV:  22    -0.103538027376E+03   -0.10738E-04   -0.24779E-07    80   0.153E-03    0.239E-04
DAV:  23    -0.103538029598E+03   -0.22223E-05   -0.66517E-08    88   0.759E-04    0.130E-04
DAV:  24    -0.103538032169E+03   -0.25708E-05   -0.36604E-08    80   0.492E-04    0.633E-05
DAV:  25    -0.103538033017E+03   -0.84773E-06   -0.10988E-08    80   0.294E-04
   1 F= -.10353803E+03 E0= -.10353803E+03  d E =-.103538E+03
       N       E                     dE             d eps       ncg     rms          rms(c)
DAV:   1    -0.103734322597E+03   -0.19629E+00   -0.10005E+01    84   0.133E+01    0.136E+00
DAV:   2    -0.103765752426E+03   -0.31430E-01   -0.42666E-01   120   0.265E+00    0.713E-01
DAV:   3    -0.103759108730E+03    0.66437E-02   -0.17925E-02   120   0.521E-01    0.341E-01
DAV:   4    -0.103757631881E+03    0.14768E-02   -0.75481E-03   112   0.284E-01    0.697E-02
DAV:   5    -0.103757503417E+03    0.12846E-03   -0.60062E-04   112   0.980E-02    0.424E-02
DAV:   6    -0.103757644271E+03   -0.14085E-03   -0.22013E-04   112   0.487E-02    0.205E-02
DAV:   7    -0.103757969085E+03   -0.32481E-03   -0.61573E-05   104   0.279E-02    0.109E-02
DAV:   8    -0.103758135202E+03   -0.16612E-03   -0.20568E-05   112   0.150E-02    0.894E-03
DAV:   9    -0.103758320231E+03   -0.18503E-03   -0.94310E-06   112   0.907E-03    0.388E-03
DAV:  10    -0.103758492134E+03   -0.17190E-03   -0.13462E-05   112   0.854E-03    0.284E-03
DAV:  11    -0.103758564364E+03   -0.72230E-04   -0.22904E-06    96   0.423E-03    0.131E-03
DAV:  12    -0.103758622325E+03   -0.57961E-04   -0.26956E-06   104   0.371E-03    0.741E-04
DAV:  13    -0.103758647644E+03   -0.25319E-04   -0.31560E-07    96   0.195E-03    0.505E-04
DAV:  14    -0.103758665260E+03   -0.17617E-04   -0.55053E-07    88   0.167E-03    0.473E-04
DAV:  15    -0.103758672801E+03   -0.75407E-05   -0.10341E-07    88   0.830E-04    0.202E-04
DAV:  16    -0.103758677415E+03   -0.46142E-05   -0.85469E-08    88   0.727E-04    0.205E-04
DAV:  17    -0.103758678949E+03   -0.15340E-05   -0.22481E-08    80   0.442E-04    0.607E-05
DAV:  18    -0.103758679784E+03   -0.83497E-06   -0.16254E-08    80   0.318E-04
   2 F= -.10375868E+03 E0= -.10375868E+03  d E =-.220647E+00
       N       E                     dE             d eps       ncg     rms          rms(c)
DAV:   1    -0.103769728989E+03   -0.11050E-01   -0.32456E-01    84   0.242E+00    0.231E-01
DAV:   2    -0.103770633193E+03   -0.90420E-03   -0.13549E-02   120   0.470E-01    0.133E-01
DAV:   3    -0.103770387978E+03    0.24521E-03   -0.63072E-04   120   0.957E-02    0.628E-02
DAV:   4    -0.103770322058E+03    0.65920E-04   -0.22518E-04   112   0.494E-02    0.151E-02
DAV:   5    -0.103770327657E+03   -0.55992E-05   -0.18053E-05   104   0.170E-02    0.735E-03
DAV:   6    -0.103770351236E+03   -0.23579E-04   -0.82335E-06   104   0.928E-03    0.313E-03
DAV:   7    -0.103770381327E+03   -0.30091E-04   -0.25342E-06    96   0.515E-03    0.164E-03
DAV:   8    -0.103770397998E+03   -0.16670E-04   -0.97492E-07    88   0.298E-03    0.125E-03
DAV:   9    -0.103770413835E+03   -0.15837E-04   -0.10962E-06    88   0.245E-03    0.495E-04
DAV:  10    -0.103770425177E+03   -0.11342E-04   -0.86254E-07    88   0.203E-03    0.415E-04
DAV:  11    -0.103770429263E+03   -0.40862E-05   -0.15481E-07    96   0.110E-03    0.162E-04
DAV:  12    -0.103770431629E+03   -0.23656E-05   -0.10369E-07    88   0.796E-04    0.122E-04
DAV:  13    -0.103770432932E+03   -0.13032E-05   -0.34626E-08    88   0.522E-04    0.688E-05
DAV:  14    -0.103770433467E+03   -0.53457E-06   -0.17249E-08    88   0.324E-04
   3 F= -.10377043E+03 E0= -.10377043E+03  d E =-.232400E+00
       N       E                     dE             d eps       ncg     rms          rms(c)
DAV:   1    -0.103808645659E+03   -0.38213E-01   -0.62167E-01    88   0.354E+00    0.316E-01
DAV:   2    -0.103810225526E+03   -0.15799E-02   -0.26503E-02   120   0.633E-01    0.158E-01
DAV:   3    -0.103809992113E+03    0.23341E-03   -0.13998E-03   120   0.151E-01    0.822E-02
DAV:   4    -0.103809991216E+03    0.89718E-06   -0.38287E-04   104   0.730E-02    0.277E-02
DAV:   5    -0.103809985763E+03    0.54525E-05   -0.35501E-05   120   0.253E-02    0.139E-02
DAV:   6    -0.103809984393E+03    0.13697E-05   -0.10261E-05   120   0.121E-02    0.523E-03
DAV:   7    -0.103809993351E+03   -0.89577E-05   -0.24345E-06    88   0.602E-03    0.182E-03
DAV:   8    -0.103810000282E+03   -0.69310E-05   -0.42457E-07    80   0.255E-03    0.122E-03
DAV:   9    -0.103810012876E+03   -0.12594E-04   -0.81689E-07    80   0.266E-03    0.570E-04
DAV:  10    -0.103810019485E+03   -0.66088E-05   -0.40918E-07    88   0.182E-03    0.498E-04
DAV:  11    -0.103810027687E+03   -0.82020E-05   -0.46921E-07    80   0.170E-03    0.278E-04
DAV:  12    -0.103810029492E+03   -0.18050E-05   -0.84032E-08    88   0.827E-04    0.226E-04
DAV:  13    -0.103810031388E+03   -0.18962E-05   -0.48348E-08    88   0.635E-04    0.179E-04
DAV:  14    -0.103810032806E+03   -0.14183E-05   -0.58046E-08    88   0.547E-04    0.812E-05
DAV:  15    -0.103810033180E+03   -0.37435E-06   -0.80737E-09    88   0.251E-04
   4 F= -.10381003E+03 E0= -.10381003E+03  d E =-.395997E-01
       N       E                     dE             d eps       ncg     rms          rms(c)
DAV:   1    -0.103825021742E+03   -0.14989E-01   -0.84853E-01    88   0.415E+00    0.375E-01
DAV:   2    -0.103827231222E+03   -0.22095E-02   -0.36622E-02   120   0.745E-01    0.186E-01
DAV:   3    -0.103826902533E+03    0.32869E-03   -0.19322E-03   120   0.177E-01    0.968E-02
DAV:   4    -0.103826899287E+03    0.32460E-05   -0.53091E-04   112   0.859E-02    0.328E-02
DAV:   5    -0.103826892143E+03    0.71444E-05   -0.48251E-05   120   0.297E-02    0.164E-02
DAV:   6    -0.103826890706E+03    0.14373E-05   -0.14475E-05   120   0.143E-02    0.617E-03
DAV:   7    -0.103826903068E+03   -0.12363E-04   -0.35561E-06    96   0.705E-03    0.236E-03
DAV:   8    -0.103826911770E+03   -0.87011E-05   -0.42203E-07    88   0.257E-03    0.144E-03
DAV:   9    -0.103826928218E+03   -0.16449E-04   -0.10925E-06    80   0.304E-03    0.713E-04
DAV:  10    -0.103826936049E+03   -0.78308E-05   -0.45688E-07    88   0.195E-03    0.578E-04
DAV:  11    -0.103826946357E+03   -0.10308E-04   -0.56011E-07    80   0.192E-03    0.262E-04
DAV:  12    -0.103826949151E+03   -0.27933E-05   -0.13496E-07    88   0.101E-03    0.259E-04
DAV:  13    -0.103826951779E+03   -0.26285E-05   -0.66048E-08    88   0.771E-04    0.219E-04
DAV:  14    -0.103826953413E+03   -0.16335E-05   -0.69779E-08    88   0.595E-04    0.102E-04
DAV:  15    -0.103826953908E+03   -0.49535E-06   -0.10869E-08    88   0.289E-04
   5 F= -.10382695E+03 E0= -.10382695E+03  d E =-.565204E-01
       N       E                     dE             d eps       ncg     rms          rms(c)
DAV:   1    -0.103835621878E+03   -0.86685E-02   -0.46037E-01    86   0.309E+00    0.247E-01
DAV:   2    -0.103836688004E+03   -0.10661E-02   -0.20242E-02   120   0.526E-01    0.132E-01
DAV:   3    -0.103836490010E+03    0.19799E-03   -0.84192E-04   128   0.108E-01    0.762E-02
DAV:   4    -0.103836394375E+03    0.95636E-04   -0.24501E-04   104   0.554E-02    0.171E-02
DAV:   5    -0.103836383133E+03    0.11242E-04   -0.31581E-05   112   0.225E-02    0.115E-02
DAV:   6    -0.103836389426E+03   -0.62934E-05   -0.47622E-06   112   0.830E-03    0.560E-03
DAV:   7    -0.103836413334E+03   -0.23908E-04   -0.23829E-06    96   0.515E-03    0.194E-03
DAV:   8    -0.103836445329E+03   -0.31995E-04   -0.15832E-06    88   0.345E-03    0.149E-03
DAV:   9    -0.103836476925E+03   -0.31596E-04   -0.17723E-06    88   0.313E-03    0.672E-04
DAV:  10    -0.103836499377E+03   -0.22451E-04   -0.12455E-06    88   0.239E-03    0.365E-04
DAV:  11    -0.103836511411E+03   -0.12034E-04   -0.38991E-07    80   0.150E-03    0.254E-04
DAV:  12    -0.103836515730E+03   -0.43192E-05   -0.12877E-07    80   0.799E-04    0.150E-04
DAV:  13    -0.103836518568E+03   -0.28383E-05   -0.56333E-08    80   0.556E-04    0.688E-05
DAV:  14    -0.103836519452E+03   -0.88427E-06   -0.12888E-08    88   0.306E-04
   6 F= -.10383652E+03 E0= -.10383652E+03  d E =-.956554E-02
       N       E                     dE             d eps       ncg     rms          rms(c)
DAV:   1    -0.103836775401E+03   -0.25683E-03   -0.91496E-03    86   0.436E-01    0.346E-02
DAV:   2    -0.103836793560E+03   -0.18159E-04   -0.40722E-04   120   0.746E-02    0.187E-02
DAV:   3    -0.103836787365E+03    0.61949E-05   -0.16712E-05   120   0.152E-02    0.109E-02
DAV:   4    -0.103836782611E+03    0.47544E-05   -0.49644E-06   104   0.783E-03    0.246E-03
DAV:   5    -0.103836782015E+03    0.59574E-06   -0.54287E-07    88   0.316E-03
   7 F= -.10383678E+03 E0= -.10383678E+03  d E =-.982811E-02
       N       E                     dE             d eps       ncg     rms          rms(c)
DAV:   1    -0.103839126591E+03   -0.23440E-02   -0.87910E-02    84   0.137E+00    0.108E-01
DAV:   2    -0.103839377935E+03   -0.25134E-03   -0.37914E-03   120   0.228E-01    0.584E-02
DAV:   3    -0.103839338555E+03    0.39380E-04   -0.20697E-04   128   0.556E-02    0.306E-02
DAV:   4    -0.103839333280E+03    0.52753E-05   -0.64924E-05   120   0.301E-02    0.858E-03
DAV:   5    -0.103839331491E+03    0.17887E-05   -0.78315E-06   120   0.120E-02    0.535E-03
DAV:   6    -0.103839331974E+03   -0.48267E-06   -0.11537E-06    96   0.432E-03
   8 F= -.10383933E+03 E0= -.10383933E+03  d E =-.254996E-02
       N       E                     dE             d eps       ncg     rms          rms(c)
DAV:   1    -0.103839388540E+03   -0.57049E-04   -0.27289E-03   104   0.241E-01    0.189E-02
DAV:   2    -0.103839398313E+03   -0.97726E-05   -0.12354E-04   112   0.410E-02    0.104E-02
DAV:   3    -0.103839398264E+03    0.49107E-07   -0.65968E-06   128   0.994E-03
   9 F= -.10383940E+03 E0= -.10383940E+03  d E =-.261625E-02
       N       E                     dE             d eps       ncg     rms          rms(c)
DAV:   1    -0.103840766153E+03   -0.13678E-02   -0.43804E-02    84   0.969E-01    0.631E-02
DAV:   2    -0.103840779485E+03   -0.13333E-04   -0.82923E-04   120   0.114E-01    0.324E-02
DAV:   3    -0.103840759273E+03    0.20212E-04   -0.75489E-05   128   0.344E-02    0.151E-02
DAV:   4    -0.103840759477E+03   -0.20406E-06   -0.23836E-05   112   0.182E-02    0.544E-03
DAV:   5    -0.103840760091E+03   -0.61360E-06   -0.19348E-06    96   0.622E-03
  10 F= -.10384076E+03 E0= -.10384076E+03  d E =-.136183E-02
       N       E                     dE             d eps       ncg     rms          rms(c)
DAV:   1    -0.103841627177E+03   -0.86770E-03   -0.11746E-01    84   0.159E+00    0.103E-01
DAV:   2    -0.103841668735E+03   -0.41558E-04   -0.22177E-03   120   0.187E-01    0.529E-02
DAV:   3    -0.103841614012E+03    0.54723E-04   -0.19828E-04   128   0.557E-02    0.245E-02
DAV:   4    -0.103841611997E+03    0.20151E-05   -0.62256E-05   112   0.293E-02    0.882E-03
DAV:   5    -0.103841611808E+03    0.18942E-06   -0.52576E-06   120   0.999E-03
  11 F= -.10384161E+03 E0= -.10384161E+03  d E =-.221354E-02
       N       E                     dE             d eps       ncg     rms          rms(c)
DAV:   1    -0.103842482195E+03   -0.87020E-03   -0.35396E-02    84   0.831E-01    0.609E-02
DAV:   2    -0.103842565353E+03   -0.83158E-04   -0.11440E-03   112   0.138E-01    0.349E-02
DAV:   3    -0.103842552811E+03    0.12542E-04   -0.44693E-05   128   0.289E-02    0.179E-02
DAV:   4    -0.103842554456E+03   -0.16443E-05   -0.19224E-05   120   0.162E-02    0.424E-03
DAV:   5    -0.103842556211E+03   -0.17550E-05   -0.23714E-06    96   0.629E-03    0.228E-03
DAV:   6    -0.103842557925E+03   -0.17144E-05   -0.40028E-07    88   0.264E-03    0.130E-03
DAV:   7    -0.103842561013E+03   -0.30879E-05   -0.17604E-07    88   0.185E-03    0.311E-04
DAV:   8    -0.103842563265E+03   -0.22517E-05   -0.16694E-07    88   0.151E-03    0.425E-04
DAV:   9    -0.103842566047E+03   -0.27819E-05   -0.11355E-07    78   0.111E-03    0.151E-04
DAV:  10    -0.103842567366E+03   -0.13188E-05   -0.65173E-08    80   0.731E-04    0.151E-04
DAV:  11    -0.103842567955E+03   -0.58967E-06   -0.19235E-08    96   0.455E-04
  12 F= -.10384257E+03 E0= -.10384257E+03  d E =-.956147E-03
       N       E                     dE             d eps       ncg     rms          rms(c)
DAV:   1    -0.103843001325E+03   -0.43396E-03   -0.42667E-02    84   0.912E-01    0.663E-02
DAV:   2    -0.103843097526E+03   -0.96201E-04   -0.13635E-03   104   0.150E-01    0.380E-02
DAV:   3    -0.103843080366E+03    0.17159E-04   -0.53601E-05   120   0.316E-02    0.195E-02
DAV:   4    -0.103843079717E+03    0.64962E-06   -0.23450E-05   120   0.178E-02    0.470E-03
DAV:   5    -0.103843079423E+03    0.29389E-06   -0.29313E-06   112   0.678E-03
  13 F= -.10384308E+03 E0= -.10384308E+03  d E =-.146761E-02
       N       E                     dE             d eps       ncg     rms          rms(c)
DAV:   1    -0.103843117041E+03   -0.37324E-04   -0.82630E-03    84   0.401E-01    0.297E-02
DAV:   2    -0.103843135986E+03   -0.18945E-04   -0.26777E-04   112   0.665E-02    0.167E-02
DAV:   3    -0.103843132628E+03    0.33579E-05   -0.10248E-05   128   0.138E-02    0.844E-03
DAV:   4    -0.103843132464E+03    0.16450E-06   -0.43278E-06   112   0.769E-03
  14 F= -.10384313E+03 E0= -.10384313E+03  d E =-.152066E-02
       N       E                     dE             d eps       ncg     rms          rms(c)
DAV:   1    -0.103844010076E+03   -0.87745E-03   -0.49563E-02    84   0.101E+00    0.759E-02
DAV:   2    -0.103844043268E+03   -0.33192E-04   -0.94096E-04   120   0.125E-01    0.377E-02
DAV:   3    -0.103844021274E+03    0.21994E-04   -0.75367E-05   126   0.361E-02    0.170E-02
DAV:   4    -0.103844022327E+03   -0.10534E-05   -0.25151E-05   120   0.178E-02    0.635E-03
DAV:   5    -0.103844022817E+03   -0.48985E-06   -0.12600E-06    96   0.487E-03
  15 F= -.10384402E+03 E0= -.10384402E+03  d E =-.890353E-03
       N       E                     dE             d eps       ncg     rms          rms(c)
DAV:   1    -0.103844366013E+03   -0.34369E-03   -0.53448E-02    84   0.105E+00    0.787E-02
DAV:   2    -0.103844401528E+03   -0.35516E-04   -0.10241E-03   112   0.130E-01    0.389E-02
DAV:   3    -0.103844376272E+03    0.25257E-04   -0.79209E-05   128   0.371E-02    0.178E-02
DAV:   4    -0.103844376689E+03   -0.41710E-06   -0.27105E-05   120   0.184E-02    0.650E-03
DAV:   5    -0.103844377518E+03   -0.82981E-06   -0.14085E-06    96   0.517E-03
  16 F= -.10384438E+03 E0= -.10384438E+03  d E =-.124505E-02
