       N       E                     dE             d eps       ncg     rms          rms(c)
DAV:   1     0.242695774973E+03    0.24270E+03   -0.10238E+04   120   0.484E+02
DAV:   2    -0.243480688902E+02   -0.26704E+03   -0.25259E+03   156   0.916E+01
DAV:   3    -0.105252235863E+03   -0.80904E+02   -0.80671E+02   120   0.549E+01
DAV:   4    -0.109305005260E+03   -0.40528E+01   -0.40370E+01   132   0.177E+01
DAV:   5    -0.109381251557E+03   -0.76246E-01   -0.76145E-01   156   0.244E+00    0.162E+01
DAV:   6    -0.105685554368E+03    0.36957E+01   -0.16863E+00   108   0.444E+00    0.938E+00
DAV:   7    -0.103786828397E+03    0.18987E+01   -0.45612E+00   120   0.653E+00    0.134E+00
DAV:   8    -0.103731677029E+03    0.55151E-01   -0.34490E-01   132   0.224E+00    0.711E-01
DAV:   9    -0.103697452172E+03    0.34225E-01   -0.62780E-02   144   0.693E-01    0.396E-01
DAV:  10    -0.103695726370E+03    0.17258E-02   -0.46196E-03   132   0.245E-01    0.151E-01
DAV:  11    -0.103693915347E+03    0.18110E-02   -0.74099E-03   108   0.232E-01    0.113E-01
DAV:  12    -0.103699641578E+03   -0.57262E-02   -0.13144E-03   132   0.105E-01    0.521E-02
DAV:  13    -0.103703034454E+03   -0.33929E-02   -0.20812E-03   132   0.110E-01    0.492E-02
DAV:  14    -0.103706360520E+03   -0.33261E-02   -0.20733E-04   144   0.460E-02    0.220E-02
DAV:  15    -0.103711607155E+03   -0.52466E-02   -0.61033E-04   108   0.609E-02    0.146E-02
DAV:  16    -0.103713390254E+03   -0.17831E-02   -0.13141E-04   132   0.326E-02    0.906E-03
DAV:  17    -0.103714500492E+03   -0.11102E-02   -0.94784E-05   108   0.226E-02    0.856E-03
DAV:  18    -0.103714856433E+03   -0.35594E-03   -0.11415E-05   132   0.878E-03    0.205E-03
DAV:  19    -0.103715063628E+03   -0.20719E-03   -0.93411E-06   132   0.701E-03    0.267E-03
DAV:  20    -0.103715129720E+03   -0.66092E-04   -0.16128E-06   120   0.371E-03    0.114E-03
DAV:  21    -0.103715146029E+03   -0.16309E-04   -0.24561E-07   108   0.150E-03    0.409E-04
DAV:  22    -0.103715161359E+03   -0.15331E-04   -0.35305E-07   108   0.140E-03    0.501E-04
DAV:  23    -0.103715165354E+03   -0.39947E-05   -0.69838E-08   108   0.699E-04    0.241E-04
DAV:  24    -0.103715169001E+03   -0.36475E-05   -0.69881E-08   108   0.688E-04    0.232E-04
DAV:  25    -0.103715169749E+03   -0.74734E-06   -0.59223E-09   108   0.343E-04
   1 F= -.10371517E+03 E0= -.10371517E+03  d E =-.720253E-11
       N       E                     dE             d eps       ncg     rms          rms(c)
DAV:   1    -0.103711829732E+03    0.33393E-02   -0.84431E-02    96   0.859E-01    0.130E-01
DAV:   2    -0.103712149842E+03   -0.32011E-03   -0.36808E-03   132   0.208E-01    0.554E-02
DAV:   3    -0.103712137139E+03    0.12703E-04   -0.13469E-04   132   0.431E-02    0.291E-02
DAV:   4    -0.103712140590E+03   -0.34511E-05   -0.34596E-05   132   0.219E-02    0.850E-03
DAV:   5    -0.103712139900E+03    0.69017E-06   -0.67597E-06   132   0.103E-02
   2 F= -.10371214E+03 E0= -.10371214E+03  d E =-.766728E-11
       N       E                     dE             d eps       ncg     rms          rms(c)
DAV:   1    -0.103710751335E+03    0.13893E-02   -0.34134E-01    96   0.170E+00    0.268E-01
DAV:   2    -0.103712044081E+03   -0.12927E-02   -0.14752E-02   132   0.413E-01    0.111E-01
DAV:   3    -0.103712000322E+03    0.43759E-04   -0.55353E-04   132   0.859E-02    0.603E-02
DAV:   4    -0.103712015434E+03   -0.15113E-04   -0.13236E-04   132   0.430E-02    0.174E-02
DAV:   5    -0.103712012951E+03    0.24833E-05   -0.27300E-05   132   0.203E-02    0.973E-03
DAV:   6    -0.103712012620E+03    0.33124E-06   -0.55805E-06   144   0.820E-03
   3 F= -.10371201E+03 E0= -.10371201E+03  d E =-.829439E-11
       N       E                     dE             d eps       ncg     rms          rms(c)
DAV:   1    -0.103711563234E+03    0.44972E-03   -0.16905E-01    96   0.117E+00    0.156E-01
DAV:   2    -0.103712279680E+03   -0.71645E-03   -0.77733E-03   132   0.295E-01    0.769E-02
DAV:   3    -0.103712265199E+03    0.14480E-04   -0.28336E-04   132   0.625E-02    0.383E-02
DAV:   4    -0.103712278382E+03   -0.13183E-04   -0.64516E-05   132   0.297E-02    0.112E-02
DAV:   5    -0.103712277960E+03    0.42243E-06   -0.10166E-05   132   0.124E-02    0.593E-03
DAV:   6    -0.103712278501E+03   -0.54160E-06   -0.27957E-06   132   0.559E-03
   4 F= -.10371228E+03 E0= -.10371228E+03  d E =-.702871E-11
       N       E                     dE             d eps       ncg     rms          rms(c)
DAV:   1    -0.103710511684E+03    0.17663E-02   -0.33881E-01    96   0.169E+00    0.246E-01
DAV:   2    -0.103711979874E+03   -0.14682E-02   -0.16019E-02   132   0.422E-01    0.112E-01
DAV:   3    -0.103711942787E+03    0.37087E-04   -0.55009E-04   144   0.873E-02    0.606E-02
DAV:   4    -0.103711957338E+03   -0.14551E-04   -0.13478E-04   132   0.433E-02    0.172E-02
DAV:   5    -0.103711952766E+03    0.45719E-05   -0.25409E-05   144   0.195E-02    0.868E-03
DAV:   6    -0.103711952323E+03    0.44328E-06   -0.55921E-06   132   0.816E-03
   5 F= -.10371195E+03 E0= -.10371195E+03  d E =-.104268E-10
       N       E                     dE             d eps       ncg     rms          rms(c)
DAV:   1    -0.103709863960E+03    0.20888E-02   -0.16768E-01    96   0.118E+00    0.161E-01
DAV:   2    -0.103710769790E+03   -0.90583E-03   -0.96557E-03   132   0.330E-01    0.921E-02
DAV:   3    -0.103710732906E+03    0.36884E-04   -0.28466E-04   132   0.656E-02    0.492E-02
DAV:   4    -0.103710740260E+03   -0.73538E-05   -0.11066E-04   132   0.387E-02    0.118E-02
DAV:   5    -0.103710738929E+03    0.13309E-05   -0.19534E-05   132   0.165E-02    0.700E-03
DAV:   6    -0.103710740885E+03   -0.19563E-05   -0.35895E-06   132   0.600E-03    0.455E-03
DAV:   7    -0.103710746617E+03   -0.57317E-05   -0.46839E-07   108   0.243E-03    0.165E-03
DAV:   8    -0.103710752184E+03   -0.55676E-05   -0.48124E-07   108   0.234E-03    0.704E-04
DAV:   9    -0.103710757793E+03   -0.56085E-05   -0.36427E-07   108   0.179E-03    0.591E-04
DAV:  10    -0.103710765289E+03   -0.74961E-05   -0.61171E-07   120   0.174E-03    0.561E-04
DAV:  11    -0.103710766470E+03   -0.11809E-05   -0.40315E-08   108   0.745E-04    0.380E-04
DAV:  12    -0.103710768139E+03   -0.16688E-05   -0.36214E-08   108   0.544E-04    0.173E-04
DAV:  13    -0.103710769732E+03   -0.15934E-05   -0.49987E-08   108   0.486E-04    0.112E-04
DAV:  14    -0.103710770653E+03   -0.92121E-06   -0.14931E-08   108   0.294E-04
   6 F= -.10371077E+03 E0= -.10371077E+03  d E =-.984332E-11
       N       E                     dE             d eps       ncg     rms          rms(c)
DAV:   1    -0.103708597474E+03    0.21723E-02   -0.33862E-01    96   0.170E+00    0.265E-01
DAV:   2    -0.103710940548E+03   -0.23431E-02   -0.25282E-02   132   0.516E-01    0.169E-01
DAV:   3    -0.103710762845E+03    0.17770E-03   -0.67678E-04   132   0.105E-01    0.880E-02
DAV:   4    -0.103710762157E+03    0.68824E-06   -0.44851E-04   132   0.728E-02    0.169E-02
DAV:   5    -0.103710752129E+03    0.10027E-04   -0.68278E-05   132   0.295E-02    0.122E-02
DAV:   6    -0.103710752626E+03   -0.49644E-06   -0.11471E-05   132   0.913E-03    0.808E-03
DAV:   7    -0.103710764230E+03   -0.11604E-04   -0.94334E-07   108   0.350E-03    0.354E-03
DAV:   8    -0.103710784221E+03   -0.19990E-04   -0.25864E-06   120   0.543E-03    0.168E-03
DAV:   9    -0.103710797566E+03   -0.13345E-04   -0.12003E-06   132   0.284E-03    0.175E-03
DAV:  10    -0.103710816659E+03   -0.19094E-04   -0.80836E-07   120   0.201E-03    0.966E-04
DAV:  11    -0.103710824403E+03   -0.77440E-05   -0.30936E-07   108   0.125E-03    0.654E-04
DAV:  12    -0.103710832990E+03   -0.85867E-05   -0.27270E-07   108   0.116E-03    0.298E-04
DAV:  13    -0.103710836434E+03   -0.34444E-05   -0.83135E-08   108   0.609E-04    0.225E-04
DAV:  14    -0.103710838697E+03   -0.22621E-05   -0.20428E-08   108   0.369E-04    0.135E-04
DAV:  15    -0.103710840233E+03   -0.15367E-05   -0.23063E-08   108   0.337E-04    0.950E-05
DAV:  16    -0.103710840880E+03   -0.64646E-06    0.18306E-09   108   0.184E-04
   7 F= -.10371084E+03 E0= -.10371084E+03  d E =-.659684E-11
       N       E                     dE             d eps       ncg     rms          rms(c)
DAV:   1    -0.103709786682E+03    0.10536E-02   -0.19371E-01    96   0.138E+00    0.195E-01
DAV:   2    -0.103711201949E+03   -0.14153E-02   -0.14661E-02   132   0.430E-01    0.120E-01
DAV:   3    -0.103711119727E+03    0.82223E-04   -0.40276E-04   144   0.848E-02    0.654E-02
DAV:   4    -0.103711118043E+03    0.16840E-05   -0.21878E-04   132   0.561E-02    0.128E-02
DAV:   5    -0.103711113134E+03    0.49084E-05   -0.38277E-05   132   0.224E-02    0.926E-03
DAV:   6    -0.103711113950E+03   -0.81618E-06   -0.39526E-06   132   0.648E-03
   8 F= -.10371111E+03 E0= -.10371111E+03  d E =-.661652E-11
       N       E                     dE             d eps       ncg     rms          rms(c)
DAV:   1    -0.103709263137E+03    0.18500E-02   -0.34187E-01    96   0.181E+00    0.253E-01
DAV:   2    -0.103711155451E+03   -0.18923E-02   -0.19544E-02   132   0.501E-01    0.151E-01
DAV:   3    -0.103711096788E+03    0.58663E-04   -0.50094E-04   132   0.892E-02    0.802E-02
DAV:   4    -0.103711094982E+03    0.18058E-05   -0.22456E-04   132   0.561E-02    0.157E-02
DAV:   5    -0.103711084312E+03    0.10670E-04   -0.38397E-05   144   0.240E-02    0.104E-02
DAV:   6    -0.103711085064E+03   -0.75196E-06   -0.82782E-06   132   0.980E-03
   9 F= -.10371109E+03 E0= -.10371109E+03  d E =-.756671E-11
       N       E                     dE             d eps       ncg     rms          rms(c)
DAV:   1    -0.103709152196E+03    0.19321E-02   -0.17432E-01    96   0.130E+00    0.188E-01
DAV:   2    -0.103710290514E+03   -0.11383E-02   -0.11363E-02   132   0.394E-01    0.115E-01
DAV:   3    -0.103710269867E+03    0.20647E-04   -0.27347E-04   132   0.703E-02    0.650E-02
DAV:   4    -0.103710289870E+03   -0.20003E-04   -0.16064E-04   120   0.492E-02    0.120E-02
DAV:   5    -0.103710285861E+03    0.40093E-05   -0.33575E-05   132   0.216E-02    0.876E-03
DAV:   6    -0.103710286190E+03   -0.32953E-06   -0.64099E-06   132   0.808E-03
  10 F= -.10371029E+03 E0= -.10371029E+03  d E =-.614301E-11
       N       E                     dE             d eps       ncg     rms          rms(c)
DAV:   1    -0.103707777105E+03    0.25088E-02   -0.35535E-01    96   0.187E+00    0.268E-01
DAV:   2    -0.103710326852E+03   -0.25497E-02   -0.25822E-02   132   0.584E-01    0.180E-01
DAV:   3    -0.103710203913E+03    0.12294E-03   -0.64849E-04   132   0.115E-01    0.869E-02
DAV:   4    -0.103710234318E+03   -0.30405E-04   -0.45440E-04   120   0.792E-02    0.176E-02
DAV:   5    -0.103710218138E+03    0.16180E-04   -0.65624E-05   132   0.304E-02    0.118E-02
DAV:   6    -0.103710218395E+03   -0.25651E-06   -0.15400E-05   132   0.112E-02    0.571E-03
DAV:   7    -0.103710231299E+03   -0.12904E-04   -0.12061E-06   120   0.370E-03    0.263E-03
DAV:   8    -0.103710252229E+03   -0.20930E-04   -0.32530E-06   120   0.499E-03    0.154E-03
DAV:   9    -0.103710267666E+03   -0.15437E-04   -0.13173E-06   120   0.306E-03    0.129E-03
DAV:  10    -0.103710281128E+03   -0.13461E-04   -0.92233E-07   108   0.227E-03    0.386E-04
DAV:  11    -0.103710286608E+03   -0.54803E-05   -0.27622E-07   108   0.121E-03    0.292E-04
DAV:  12    -0.103710292477E+03   -0.58692E-05   -0.23797E-07    96   0.102E-03    0.175E-04
DAV:  13    -0.103710294355E+03   -0.18778E-05   -0.55277E-08   108   0.531E-04    0.139E-04
DAV:  14    -0.103710296224E+03   -0.18696E-05   -0.33545E-08    96   0.417E-04    0.583E-05
DAV:  15    -0.103710296749E+03   -0.52481E-06   -0.18605E-09   108   0.225E-04
  11 F= -.10371030E+03 E0= -.10371030E+03  d E =-.967009E-11
       N       E                     dE             d eps       ncg     rms          rms(c)
DAV:   1    -0.103710755806E+03   -0.45958E-03   -0.17377E-01    96   0.133E+00    0.180E-01
DAV:   2    -0.103711918955E+03   -0.11631E-02   -0.11927E-02   132   0.403E-01    0.118E-01
DAV:   3    -0.103711862718E+03    0.56237E-04   -0.31141E-04   132   0.783E-02    0.554E-02
DAV:   4    -0.103711867568E+03   -0.48495E-05   -0.17238E-04   120   0.495E-02    0.118E-02
DAV:   5    -0.103711861579E+03    0.59891E-05   -0.25759E-05   132   0.194E-02    0.698E-03
DAV:   6    -0.103711865563E+03   -0.39842E-05   -0.62170E-06   132   0.740E-03    0.361E-03
DAV:   7    -0.103711876652E+03   -0.11089E-04   -0.65636E-07   108   0.282E-03    0.158E-03
DAV:   8    -0.103711891932E+03   -0.15280E-04   -0.19753E-06   120   0.384E-03    0.109E-03
DAV:   9    -0.103711904282E+03   -0.12349E-04   -0.84132E-07   108   0.255E-03    0.585E-04
DAV:  10    -0.103711913610E+03   -0.93286E-05   -0.83918E-07    96   0.190E-03    0.319E-04
DAV:  11    -0.103711917152E+03   -0.35420E-05   -0.12470E-07   108   0.855E-04    0.220E-04
DAV:  12    -0.103711920585E+03   -0.34326E-05   -0.11346E-07    96   0.744E-04    0.103E-04
DAV:  13    -0.103711922020E+03   -0.14347E-05   -0.41419E-08   108   0.438E-04    0.110E-04
DAV:  14    -0.103711923311E+03   -0.12919E-05   -0.21434E-08    96   0.336E-04    0.487E-05
DAV:  15    -0.103711923633E+03   -0.32177E-06    0.18547E-09   108   0.164E-04
  12 F= -.10371192E+03 E0= -.10371192E+03  d E =-.737397E-11
       N       E                     dE             d eps       ncg     rms          rms(c)
DAV:   1    -0.103710075572E+03    0.18477E-02   -0.32989E-01    96   0.176E+00    0.218E-01
DAV:   2    -0.103711876233E+03   -0.18007E-02   -0.18471E-02   132   0.475E-01    0.127E-01
DAV:   3    -0.103711854700E+03    0.21532E-04   -0.48035E-04   132   0.875E-02    0.677E-02
DAV:   4    -0.103711864238E+03   -0.95379E-05   -0.16082E-04   132   0.526E-02    0.139E-02
DAV:   5    -0.103711857013E+03    0.72257E-05   -0.40772E-05   132   0.248E-02    0.946E-03
DAV:   6    -0.103711857362E+03   -0.34916E-06   -0.68293E-06   132   0.892E-03
  13 F= -.10371186E+03 E0= -.10371186E+03  d E =-.954689E-11
       N       E                     dE             d eps       ncg     rms          rms(c)
DAV:   1    -0.103709293805E+03    0.25632E-02   -0.16987E-01    96   0.130E+00    0.172E-01
DAV:   2    -0.103710612998E+03   -0.13192E-02   -0.13539E-02   132   0.409E-01    0.112E-01
DAV:   3    -0.103710572563E+03    0.40435E-04   -0.33955E-04   144   0.768E-02    0.642E-02
DAV:   4    -0.103710595562E+03   -0.23000E-04   -0.18117E-04   132   0.552E-02    0.125E-02
DAV:   5    -0.103710595038E+03    0.52439E-06   -0.50572E-05   132   0.265E-02    0.999E-03
DAV:   6    -0.103710594161E+03    0.87712E-06   -0.57418E-06   132   0.809E-03
  14 F= -.10371059E+03 E0= -.10371059E+03  d E =-.732190E-11
       N       E                     dE             d eps       ncg     rms          rms(c)
DAV:   1    -0.103708188422E+03    0.24066E-02   -0.35179E-01    96   0.188E+00    0.266E-01
DAV:   2    -0.103710722928E+03   -0.25345E-02   -0.25531E-02   132   0.577E-01    0.173E-01
DAV:   3    -0.103710626520E+03    0.96408E-04   -0.58633E-04   132   0.104E-01    0.951E-02
DAV:   4    -0.103710635622E+03   -0.91017E-05   -0.37791E-04   132   0.762E-02    0.176E-02
DAV:   5    -0.103710622133E+03    0.13489E-04   -0.85141E-05   132   0.344E-02    0.118E-02
DAV:   6    -0.103710621733E+03    0.40000E-06   -0.11949E-05   132   0.101E-02    0.785E-03
DAV:   7    -0.103710635195E+03   -0.13463E-04   -0.13806E-06   120   0.425E-03    0.333E-03
DAV:   8    -0.103710653864E+03   -0.18669E-04   -0.28786E-06   120   0.537E-03    0.139E-03
DAV:   9    -0.103710666284E+03   -0.12420E-04   -0.13547E-06   120   0.324E-03    0.156E-03
DAV:  10    -0.103710680451E+03   -0.14167E-04   -0.98501E-07   108   0.239E-03    0.594E-04
DAV:  11    -0.103710685952E+03   -0.55003E-05   -0.27423E-07   108   0.135E-03    0.374E-04
DAV:  12    -0.103710691619E+03   -0.56677E-05   -0.25936E-07    96   0.110E-03    0.158E-04
DAV:  13    -0.103710693895E+03   -0.22753E-05   -0.92725E-08   108   0.639E-04    0.199E-04
DAV:  14    -0.103710695651E+03   -0.17562E-05   -0.39172E-08    96   0.485E-04    0.941E-05
DAV:  15    -0.103710696159E+03   -0.50801E-06   -0.96716E-09   108   0.276E-04
  15 F= -.10371070E+03 E0= -.10371070E+03  d E =-.101079E-10
       N       E                     dE             d eps       ncg     rms          rms(c)
DAV:   1    -0.103709987948E+03    0.70770E-03   -0.17612E-01    96   0.130E+00    0.199E-01
DAV:   2    -0.103711195269E+03   -0.12073E-02   -0.12454E-02   132   0.410E-01    0.125E-01
DAV:   3    -0.103711128704E+03    0.66565E-04   -0.31621E-04   144   0.792E-02    0.619E-02
DAV:   4    -0.103711134931E+03   -0.62272E-05   -0.20231E-04   132   0.530E-02    0.130E-02
DAV:   5    -0.103711126611E+03    0.83206E-05   -0.32434E-05   132   0.213E-02    0.740E-03
DAV:   6    -0.103711130677E+03   -0.40666E-05   -0.66607E-06   132   0.740E-03    0.395E-03
DAV:   7    -0.103711142828E+03   -0.12151E-04   -0.54553E-07   108   0.222E-03    0.187E-03
DAV:   8    -0.103711160728E+03   -0.17900E-04   -0.21735E-06   120   0.380E-03    0.112E-03
DAV:   9    -0.103711171386E+03   -0.10658E-04   -0.69074E-07   108   0.228E-03    0.847E-04
DAV:  10    -0.103711183423E+03   -0.12037E-04   -0.93522E-07    96   0.202E-03    0.402E-04
DAV:  11    -0.103711187004E+03   -0.35811E-05   -0.14037E-07   108   0.910E-04    0.215E-04
DAV:  12    -0.103711190484E+03   -0.34798E-05   -0.98229E-08    84   0.728E-04    0.139E-04
DAV:  13    -0.103711191878E+03   -0.13949E-05   -0.34589E-08   108   0.420E-04    0.152E-04
DAV:  14    -0.103711193065E+03   -0.11862E-05   -0.13136E-08   108   0.301E-04    0.639E-05
DAV:  15    -0.103711193415E+03   -0.35078E-06    0.13312E-09   108   0.175E-04
  16 F= -.10371119E+03 E0= -.10371119E+03  d E =-.741692E-11
       N       E                     dE             d eps       ncg     rms          rms(c)
DAV:   1    -0.103709176270E+03    0.20168E-02   -0.34541E-01    96   0.182E+00    0.268E-01
DAV:   2    -0.103711095436E+03   -0.19192E-02   -0.19965E-02   132   0.515E-01    0.150E-01
DAV:   3    -0.103711015987E+03    0.79449E-04   -0.53463E-04   132   0.963E-02    0.760E-02
DAV:   4    -0.103711024014E+03   -0.80268E-05   -0.27006E-04   132   0.620E-02    0.173E-02
DAV:   5    -0.103711012609E+03    0.11405E-04   -0.49163E-05   132   0.271E-02    0.111E-02
DAV:   6    -0.103711013716E+03   -0.11063E-05   -0.11744E-05   132   0.106E-02    0.644E-03
DAV:   7    -0.103711023923E+03   -0.10208E-04   -0.10473E-06   108   0.449E-03    0.275E-03
DAV:   8    -0.103711040545E+03   -0.16621E-04   -0.18073E-06   132   0.480E-03    0.131E-03
DAV:   9    -0.103711056345E+03   -0.15800E-04   -0.10190E-06   108   0.332E-03    0.119E-03
DAV:  10    -0.103711072540E+03   -0.16195E-04   -0.10958E-06   120   0.256E-03    0.661E-04
DAV:  11    -0.103711078895E+03   -0.63551E-05   -0.16755E-07   108   0.128E-03    0.370E-04
DAV:  12    -0.103711085027E+03   -0.61316E-05   -0.15908E-07    96   0.965E-04    0.230E-04
DAV:  13    -0.103711088255E+03   -0.32278E-05   -0.61825E-08   108   0.575E-04    0.254E-04
DAV:  14    -0.103711090522E+03   -0.22671E-05   -0.23918E-08   108   0.410E-04    0.762E-05
DAV:  15    -0.103711091389E+03   -0.86725E-06   -0.63632E-09   108   0.260E-04
  17 F= -.10371109E+03 E0= -.10371109E+03  d E =-.741157E-11
       N       E                     dE             d eps       ncg     rms          rms(c)
DAV:   1    -0.103710496814E+03    0.59371E-03   -0.17326E-01    96   0.132E+00    0.174E-01
DAV:   2    -0.103711569021E+03   -0.10722E-02   -0.11086E-02   132   0.381E-01    0.114E-01
DAV:   3    -0.103711524387E+03    0.44634E-04   -0.27525E-04   132   0.687E-02    0.593E-02
DAV:   4    -0.103711508962E+03    0.15425E-04   -0.12390E-04   132   0.415E-02    0.109E-02
DAV:   5    -0.103711505729E+03    0.32323E-05   -0.18451E-05   132   0.166E-02    0.715E-03
DAV:   6    -0.103711511887E+03   -0.61574E-05   -0.61319E-06   132   0.827E-03    0.404E-03
DAV:   7    -0.103711529462E+03   -0.17576E-04   -0.19981E-06   108   0.526E-03    0.157E-03
DAV:   8    -0.103711549245E+03   -0.19782E-04   -0.16392E-06   108   0.426E-03    0.982E-04
DAV:   9    -0.103711566674E+03   -0.17430E-04   -0.17292E-06   120   0.338E-03    0.101E-03
DAV:  10    -0.103711579875E+03   -0.13200E-04   -0.11180E-06   120   0.239E-03    0.328E-04
DAV:  11    -0.103711583266E+03   -0.33912E-05   -0.11103E-07   108   0.899E-04    0.235E-04
DAV:  12    -0.103711587033E+03   -0.37675E-05   -0.17313E-07   108   0.893E-04    0.122E-04
DAV:  13    -0.103711588395E+03   -0.13619E-05   -0.45208E-08   108   0.486E-04    0.933E-05
DAV:  14    -0.103711589297E+03   -0.90154E-06   -0.10508E-08   108   0.305E-04
  18 F= -.10371159E+03 E0= -.10371159E+03  d E =-.802413E-11
       N       E                     dE             d eps       ncg     rms          rms(c)
DAV:   1    -0.103709618519E+03    0.19699E-02   -0.33023E-01    96   0.179E+00    0.212E-01
DAV:   2    -0.103711559233E+03   -0.19407E-02   -0.19909E-02   132   0.494E-01    0.141E-01
DAV:   3    -0.103711518584E+03    0.40648E-04   -0.46758E-04   144   0.863E-02    0.764E-02
DAV:   4    -0.103711511707E+03    0.68777E-05   -0.16915E-04   132   0.522E-02    0.142E-02
DAV:   5    -0.103711501142E+03    0.10565E-04   -0.36796E-05   132   0.238E-02    0.898E-03
DAV:   6    -0.103711503014E+03   -0.18720E-05   -0.78169E-06   132   0.967E-03    0.591E-03
DAV:   7    -0.103711516401E+03   -0.13387E-04   -0.21208E-06   120   0.630E-03    0.207E-03
DAV:   8    -0.103711531602E+03   -0.15201E-04   -0.14082E-06   120   0.517E-03    0.146E-03
DAV:   9    -0.103711548156E+03   -0.16554E-04   -0.10452E-06   120   0.342E-03    0.135E-03
DAV:  10    -0.103711562634E+03   -0.14478E-04   -0.53600E-07   108   0.178E-03    0.577E-04
DAV:  11    -0.103711572294E+03   -0.96598E-05   -0.47947E-07   108   0.161E-03    0.364E-04
DAV:  12    -0.103711579125E+03   -0.68308E-05   -0.19147E-07   108   0.100E-03    0.192E-04
DAV:  13    -0.103711583817E+03   -0.46919E-05   -0.13837E-07   108   0.735E-04    0.181E-04
DAV:  14    -0.103711585481E+03   -0.16644E-05   -0.14166E-08   108   0.367E-04    0.110E-04
DAV:  15    -0.103711587413E+03   -0.19320E-05   -0.29309E-08    96   0.380E-04    0.607E-05
DAV:  16    -0.103711587880E+03   -0.46670E-06    0.10572E-09   108   0.184E-04
  19 F= -.10371159E+03 E0= -.10371159E+03  d E =-.769095E-11
       N       E                     dE             d eps       ncg     rms          rms(c)
DAV:   1    -0.103710783676E+03    0.80374E-03   -0.16747E-01    96   0.129E+00    0.170E-01
DAV:   2    -0.103711878816E+03   -0.10951E-02   -0.11579E-02   132   0.379E-01    0.989E-02
DAV:   3    -0.103711833932E+03    0.44884E-04   -0.33654E-04   144   0.733E-02    0.558E-02
DAV:   4    -0.103711823522E+03    0.10410E-04   -0.11371E-04   132   0.449E-02    0.114E-02
DAV:   5    -0.103711820812E+03    0.27100E-05   -0.31919E-05   144   0.215E-02    0.876E-03
DAV:   6    -0.103711821799E+03   -0.98718E-06   -0.33393E-06   132   0.685E-03
  20 F= -.10371182E+03 E0= -.10371182E+03  d E =-.581247E-11
       N       E                     dE             d eps       ncg     rms          rms(c)
DAV:   1    -0.103710146625E+03    0.16742E-02   -0.34075E-01    96   0.172E+00    0.275E-01
DAV:   2    -0.103711684534E+03   -0.15379E-02   -0.17200E-02   132   0.457E-01    0.128E-01
DAV:   3    -0.103711612020E+03    0.72514E-04   -0.56697E-04   132   0.927E-02    0.709E-02
DAV:   4    -0.103711630716E+03   -0.18695E-04   -0.21462E-04   132   0.544E-02    0.184E-02
DAV:   5    -0.103711627988E+03    0.27281E-05   -0.39644E-05   132   0.239E-02    0.111E-02
DAV:   6    -0.103711629332E+03   -0.13443E-05   -0.64422E-06   132   0.857E-03    0.692E-03
DAV:   7    -0.103711635699E+03   -0.63669E-05   -0.79536E-07    96   0.339E-03    0.235E-03
DAV:   8    -0.103711641576E+03   -0.58776E-05   -0.52335E-07   108   0.281E-03    0.867E-04
DAV:   9    -0.103711648550E+03   -0.69738E-05   -0.47579E-07   108   0.240E-03    0.701E-04
DAV:  10    -0.103711657749E+03   -0.91988E-05   -0.79150E-07   120   0.241E-03    0.677E-04
DAV:  11    -0.103711659287E+03   -0.15385E-05   -0.90961E-08   108   0.117E-03    0.520E-04
DAV:  12    -0.103711660518E+03   -0.12300E-05   -0.23195E-08   108   0.527E-04    0.370E-04
DAV:  13    -0.103711663042E+03   -0.25242E-05   -0.75365E-08   108   0.603E-04    0.117E-04
DAV:  14    -0.103711664615E+03   -0.15735E-05   -0.56284E-08   108   0.529E-04    0.214E-04
DAV:  15    -0.103711665258E+03   -0.64299E-06   -0.60447E-09   108   0.272E-04
  21 F= -.10371167E+03 E0= -.10371167E+03  d E =-.854053E-11
       N       E                     dE             d eps       ncg     rms          rms(c)
DAV:   1    -0.103710390939E+03    0.12737E-02   -0.17099E-01    96   0.121E+00    0.190E-01
DAV:   2    -0.103711464100E+03   -0.10732E-02   -0.11720E-02   132   0.360E-01    0.115E-01
DAV:   3    -0.103711377939E+03    0.86161E-04   -0.33807E-04   132   0.745E-02    0.595E-02
DAV:   4    -0.103711380679E+03   -0.27402E-05   -0.20853E-04   120   0.495E-02    0.130E-02
DAV:   5    -0.103711375324E+03    0.53554E-05   -0.28548E-05   132   0.195E-02    0.872E-03
DAV:   6    -0.103711375525E+03   -0.20131E-06   -0.55118E-06   132   0.659E-03
  22 F= -.10371138E+03 E0= -.10371138E+03  d E =-.606872E-11
       N       E                     dE             d eps       ncg     rms          rms(c)
DAV:   1    -0.103709179799E+03    0.21955E-02   -0.34585E-01    96   0.171E+00    0.271E-01
DAV:   2    -0.103711136093E+03   -0.19563E-02   -0.21148E-02   132   0.486E-01    0.152E-01
DAV:   3    -0.103711029136E+03    0.10696E-03   -0.63210E-04   132   0.999E-02    0.839E-02
DAV:   4    -0.103711046645E+03   -0.17510E-04   -0.32983E-04   132   0.632E-02    0.190E-02
DAV:   5    -0.103711036680E+03    0.99654E-05   -0.49101E-05   132   0.253E-02    0.120E-02
DAV:   6    -0.103711035380E+03    0.13003E-05   -0.82462E-06   132   0.872E-03    0.747E-03
DAV:   7    -0.103711042700E+03   -0.73206E-05   -0.12066E-06   120   0.388E-03    0.213E-03
DAV:   8    -0.103711048915E+03   -0.62151E-05   -0.49040E-07   108   0.248E-03    0.924E-04
DAV:   9    -0.103711057832E+03   -0.89168E-05   -0.78870E-07   120   0.224E-03    0.822E-04
DAV:  10    -0.103711068792E+03   -0.10960E-04   -0.94858E-07   120   0.212E-03    0.439E-04
DAV:  11    -0.103711071774E+03   -0.29820E-05   -0.11079E-07   108   0.936E-04    0.349E-04
DAV:  12    -0.103711075333E+03   -0.35588E-05   -0.12704E-07   108   0.772E-04    0.146E-04
DAV:  13    -0.103711077522E+03   -0.21894E-05   -0.87125E-08   108   0.583E-04    0.170E-04
DAV:  14    -0.103711078733E+03   -0.12113E-05   -0.24690E-08   108   0.362E-04    0.743E-05
DAV:  15    -0.103711079122E+03   -0.38909E-06    0.45791E-10   108   0.177E-04
  23 F= -.10371108E+03 E0= -.10371108E+03  d E =-.104398E-10
       N       E                     dE             d eps       ncg     rms          rms(c)
DAV:   1    -0.103710927490E+03    0.15124E-03   -0.16826E-01    96   0.120E+00    0.182E-01
DAV:   2    -0.103712040717E+03   -0.11132E-02   -0.12006E-02   132   0.358E-01    0.111E-01
DAV:   3    -0.103711960458E+03    0.80259E-04   -0.32616E-04   132   0.732E-02    0.574E-02
DAV:   4    -0.103711961660E+03   -0.12018E-05   -0.19380E-04   120   0.488E-02    0.119E-02
DAV:   5    -0.103711956063E+03    0.55967E-05   -0.31071E-05   132   0.204E-02    0.830E-03
DAV:   6    -0.103711956141E+03   -0.78092E-07   -0.50918E-06   132   0.646E-03
  24 F= -.10371196E+03 E0= -.10371196E+03  d E =-.902962E-11
       N       E                     dE             d eps       ncg     rms          rms(c)
DAV:   1    -0.103710342247E+03    0.16138E-02   -0.33730E-01    96   0.163E+00    0.216E-01
DAV:   2    -0.103711995446E+03   -0.16532E-02   -0.17573E-02   132   0.441E-01    0.124E-01
DAV:   3    -0.103711955052E+03    0.40393E-04   -0.53770E-04   144   0.884E-02    0.695E-02
DAV:   4    -0.103711984761E+03   -0.29709E-04   -0.17072E-04   132   0.494E-02    0.170E-02
DAV:   5    -0.103711981965E+03    0.27960E-05   -0.31725E-05   120   0.213E-02    0.903E-03
DAV:   6    -0.103711981167E+03    0.79777E-06   -0.57691E-06   132   0.797E-03
  25 F= -.10371198E+03 E0= -.10371198E+03  d E =-.759827E-11
       N       E                     dE             d eps       ncg     rms          rms(c)
DAV:   1    -0.103709479217E+03    0.25027E-02   -0.16423E-01    96   0.130E+00    0.161E-01
DAV:   2    -0.103710734862E+03   -0.12556E-02   -0.13065E-02   132   0.395E-01    0.107E-01
DAV:   3    -0.103710691125E+03    0.43737E-04   -0.31112E-04   132   0.717E-02    0.591E-02
DAV:   4    -0.103710696116E+03   -0.49907E-05   -0.14492E-04   132   0.477E-02    0.105E-02
DAV:   5    -0.103710692176E+03    0.39395E-05   -0.30823E-05   132   0.208E-02    0.758E-03
DAV:   6    -0.103710691824E+03    0.35253E-06   -0.38302E-06   132   0.662E-03
  26 F= -.10371069E+03 E0= -.10371069E+03  d E =-.701436E-11
       N       E                     dE             d eps       ncg     rms          rms(c)
DAV:   1    -0.103708640772E+03    0.20514E-02   -0.34833E-01    96   0.183E+00    0.247E-01
DAV:   2    -0.103710883531E+03   -0.22428E-02   -0.22627E-02   132   0.533E-01    0.164E-01
DAV:   3    -0.103710822121E+03    0.61410E-04   -0.52272E-04   132   0.943E-02    0.892E-02
DAV:   4    -0.103710801473E+03    0.20648E-04   -0.28414E-04   132   0.627E-02    0.155E-02
DAV:   5    -0.103710788854E+03    0.12619E-04   -0.48547E-05   132   0.259E-02    0.111E-02
DAV:   6    -0.103710790401E+03   -0.15468E-05   -0.11905E-05   132   0.114E-02    0.649E-03
DAV:   7    -0.103710811288E+03   -0.20887E-04   -0.37667E-06   120   0.715E-03    0.234E-03
DAV:   8    -0.103710834748E+03   -0.23460E-04   -0.21437E-06   108   0.509E-03    0.124E-03
DAV:   9    -0.103710857295E+03   -0.22547E-04   -0.22704E-06   108   0.394E-03    0.132E-03
DAV:  10    -0.103710876370E+03   -0.19075E-04   -0.17149E-06   120   0.288E-03    0.447E-04
DAV:  11    -0.103710881387E+03   -0.50169E-05   -0.17071E-07   108   0.114E-03    0.308E-04
DAV:  12    -0.103710888075E+03   -0.66878E-05   -0.40908E-07   108   0.132E-03    0.165E-04
DAV:  13    -0.103710889414E+03   -0.13398E-05   -0.49729E-08   108   0.563E-04    0.140E-04
DAV:  14    -0.103710890535E+03   -0.11207E-05   -0.17816E-08   108   0.388E-04    0.925E-05
DAV:  15    -0.103710891426E+03   -0.89107E-06   -0.14549E-08   108   0.308E-04
  27 F= -.10371089E+03 E0= -.10371089E+03  d E =-.892483E-11
       N       E                     dE             d eps       ncg     rms          rms(c)
DAV:   1    -0.103711066478E+03   -0.17594E-03   -0.16728E-01    96   0.125E+00    0.160E-01
DAV:   2    -0.103712046404E+03   -0.97993E-03   -0.10079E-02   132   0.364E-01    0.102E-01
DAV:   3    -0.103712020099E+03    0.26305E-04   -0.24801E-04   132   0.663E-02    0.502E-02
DAV:   4    -0.103712022352E+03   -0.22523E-05   -0.11557E-04   132   0.411E-02    0.107E-02
DAV:   5    -0.103712016329E+03    0.60233E-05   -0.19157E-05   132   0.172E-02    0.717E-03
DAV:   6    -0.103712016720E+03   -0.39151E-06   -0.54919E-06   132   0.739E-03
  28 F= -.10371202E+03 E0= -.10371202E+03  d E =-.927636E-11
       N       E                     dE             d eps       ncg     rms          rms(c)
DAV:   1    -0.103710468942E+03    0.15474E-02   -0.33874E-01    96   0.174E+00    0.231E-01
DAV:   2    -0.103712025556E+03   -0.15566E-02   -0.15995E-02   132   0.437E-01    0.119E-01
DAV:   3    -0.103712026986E+03   -0.14303E-05   -0.49744E-04   132   0.871E-02    0.616E-02
DAV:   4    -0.103712059202E+03   -0.32216E-04   -0.14783E-04   132   0.512E-02    0.145E-02
DAV:   5    -0.103712059306E+03   -0.10361E-06   -0.39214E-05   132   0.236E-02    0.107E-02
DAV:   6    -0.103712060304E+03   -0.99777E-06   -0.58388E-06   132   0.789E-03
  29 F= -.10371206E+03 E0= -.10371206E+03  d E =-.802399E-11
       N       E                     dE             d eps       ncg     rms          rms(c)
DAV:   1    -0.103709331226E+03    0.27281E-02   -0.17053E-01    96   0.126E+00    0.161E-01
DAV:   2    -0.103710293334E+03   -0.96211E-03   -0.98074E-03   132   0.352E-01    0.969E-02
DAV:   3    -0.103710280731E+03    0.12603E-04   -0.25729E-04   132   0.659E-02    0.513E-02
DAV:   4    -0.103710296532E+03   -0.15802E-04   -0.11140E-04   132   0.429E-02    0.102E-02
DAV:   5    -0.103710295227E+03    0.13051E-05   -0.25925E-05   132   0.196E-02    0.739E-03
DAV:   6    -0.103710296337E+03   -0.11102E-05   -0.42335E-06   132   0.661E-03    0.486E-03
DAV:   7    -0.103710300761E+03   -0.44236E-05   -0.53139E-07   108   0.306E-03    0.212E-03
DAV:   8    -0.103710307223E+03   -0.64622E-05   -0.92014E-07   120   0.354E-03    0.956E-04
DAV:   9    -0.103710313200E+03   -0.59766E-05   -0.45038E-07   108   0.225E-03    0.787E-04
DAV:  10    -0.103710320702E+03   -0.75018E-05   -0.37824E-07   108   0.168E-03    0.476E-04
DAV:  11    -0.103710322911E+03   -0.22095E-05   -0.88635E-08   108   0.914E-04    0.395E-04
DAV:  12    -0.103710325129E+03   -0.22181E-05   -0.30835E-08   108   0.537E-04    0.218E-04
DAV:  13    -0.103710328212E+03   -0.30824E-05   -0.91637E-08   108   0.652E-04    0.162E-04
DAV:  14    -0.103710329270E+03   -0.10583E-05   -0.14561E-08   108   0.325E-04    0.138E-04
DAV:  15    -0.103710329997E+03   -0.72706E-06   -0.34883E-09    96   0.220E-04
  30 F= -.10371033E+03 E0= -.10371033E+03  d E =-.858743E-11
       N       E                     dE             d eps       ncg     rms          rms(c)
DAV:   1    -0.103708130348E+03    0.21989E-02   -0.34811E-01    96   0.187E+00    0.257E-01
DAV:   2    -0.103710650507E+03   -0.25202E-02   -0.25768E-02   132   0.585E-01    0.176E-01
DAV:   3    -0.103710534705E+03    0.11580E-03   -0.63271E-04   144   0.110E-01    0.907E-02
DAV:   4    -0.103710533266E+03    0.14391E-05   -0.38077E-04   132   0.750E-02    0.181E-02
DAV:   5    -0.103710525385E+03    0.78802E-05   -0.75779E-05   132   0.327E-02    0.116E-02
DAV:   6    -0.103710534172E+03   -0.87861E-05   -0.15337E-05   132   0.112E-02    0.667E-03
DAV:   7    -0.103710558942E+03   -0.24770E-04   -0.15557E-06   120   0.422E-03    0.319E-03
DAV:   8    -0.103710596925E+03   -0.37984E-04   -0.52479E-06   120   0.639E-03    0.157E-03
DAV:   9    -0.103710614671E+03   -0.17746E-04   -0.18456E-06   120   0.360E-03    0.173E-03
DAV:  10    -0.103710636517E+03   -0.21846E-04   -0.17328E-06   108   0.304E-03    0.604E-04
DAV:  11    -0.103710643462E+03   -0.69451E-05   -0.37989E-07   108   0.157E-03    0.376E-04
DAV:  12    -0.103710649700E+03   -0.62374E-05   -0.24996E-07   108   0.112E-03    0.168E-04
DAV:  13    -0.103710652452E+03   -0.27527E-05   -0.10892E-07   108   0.686E-04    0.190E-04
DAV:  14    -0.103710654396E+03   -0.19433E-05   -0.42981E-08   108   0.503E-04    0.805E-05
DAV:  15    -0.103710654922E+03   -0.52647E-06   -0.65879E-09   108   0.253E-04
  31 F= -.10371065E+03 E0= -.10371065E+03  d E =-.689650E-11
       N       E                     dE             d eps       ncg     rms          rms(c)
DAV:   1    -0.103710627520E+03    0.26876E-04   -0.17147E-01    96   0.132E+00    0.158E-01
DAV:   2    -0.103711873917E+03   -0.12464E-02   -0.12818E-02   132   0.411E-01    0.110E-01
DAV:   3    -0.103711829393E+03    0.44525E-04   -0.30174E-04   156   0.738E-02    0.615E-02
DAV:   4    -0.103711819525E+03    0.98675E-05   -0.15844E-04   132   0.524E-02    0.105E-02
DAV:   5    -0.103711813959E+03    0.55656E-05   -0.44885E-05   132   0.250E-02    0.902E-03
DAV:   6    -0.103711812724E+03    0.12356E-05   -0.59403E-06   132   0.812E-03    0.630E-03
DAV:   7    -0.103711819979E+03   -0.72555E-05   -0.15326E-06   120   0.535E-03    0.250E-03
DAV:   8    -0.103711833399E+03   -0.13419E-04   -0.16891E-06   120   0.538E-03    0.129E-03
DAV:   9    -0.103711847730E+03   -0.14331E-04   -0.12106E-06   108   0.370E-03    0.142E-03
DAV:  10    -0.103711857282E+03   -0.95519E-05   -0.53104E-07   108   0.207E-03    0.736E-04
DAV:  11    -0.103711864164E+03   -0.68824E-05   -0.26000E-07   108   0.128E-03    0.242E-04
DAV:  12    -0.103711868812E+03   -0.46475E-05   -0.16894E-07   108   0.925E-04    0.274E-04
DAV:  13    -0.103711870819E+03   -0.20070E-05   -0.40786E-08   108   0.491E-04    0.201E-04
DAV:  14    -0.103711872436E+03   -0.16171E-05   -0.29546E-08   108   0.423E-04    0.429E-05
DAV:  15    -0.103711873023E+03   -0.58777E-06   -0.53494E-09   108   0.248E-04
  32 F= -.10371187E+03 E0= -.10371187E+03  d E =-.898779E-11
       N       E                     dE             d eps       ncg     rms          rms(c)
DAV:   1    -0.103710122277E+03    0.17502E-02   -0.34015E-01    96   0.160E+00    0.198E-01
DAV:   2    -0.103711838024E+03   -0.17157E-02   -0.17405E-02   132   0.407E-01    0.125E-01
DAV:   3    -0.103711830809E+03    0.72150E-05   -0.43440E-04   132   0.849E-02    0.607E-02
DAV:   4    -0.103711843605E+03   -0.12795E-04   -0.16718E-04   132   0.544E-02    0.138E-02
DAV:   5    -0.103711837749E+03    0.58558E-05   -0.40848E-05   132   0.239E-02    0.103E-02
DAV:   6    -0.103711838289E+03   -0.54063E-06   -0.75808E-06   132   0.828E-03
  33 F= -.10371184E+03 E0= -.10371184E+03  d E =-.135991E-10
       N       E                     dE             d eps       ncg     rms          rms(c)
DAV:   1    -0.103709983760E+03    0.18540E-02   -0.17311E-01    96   0.113E+00    0.160E-01
DAV:   2    -0.103711116706E+03   -0.11329E-02   -0.11242E-02   132   0.328E-01    0.113E-01
DAV:   3    -0.103711102777E+03    0.13929E-04   -0.23867E-04   144   0.588E-02    0.627E-02
DAV:   4    -0.103711103984E+03   -0.12062E-05   -0.12944E-04   120   0.401E-02    0.109E-02
DAV:   5    -0.103711099063E+03    0.49204E-05   -0.27071E-05   144   0.179E-02    0.721E-03
DAV:   6    -0.103711100445E+03   -0.13815E-05   -0.52041E-06   132   0.629E-03    0.468E-03
DAV:   7    -0.103711110530E+03   -0.10086E-04   -0.90048E-07   108   0.343E-03    0.186E-03
DAV:   8    -0.103711122932E+03   -0.12402E-04   -0.13709E-06   120   0.348E-03    0.915E-04
DAV:   9    -0.103711133911E+03   -0.10979E-04   -0.10917E-06   120   0.256E-03    0.967E-04
DAV:  10    -0.103711141587E+03   -0.76759E-05   -0.40284E-07   108   0.152E-03    0.415E-04
DAV:  11    -0.103711145297E+03   -0.37108E-05   -0.23350E-07   108   0.975E-04    0.228E-04
DAV:  12    -0.103711148685E+03   -0.33873E-05   -0.14686E-07   108   0.787E-04    0.112E-04
DAV:  13    -0.103711149885E+03   -0.12008E-05   -0.43929E-08   108   0.439E-04    0.156E-04
DAV:  14    -0.103711150861E+03   -0.97540E-06   -0.18142E-08   108   0.332E-04
  34 F= -.10371115E+03 E0= -.10371115E+03  d E =-.491848E-11
       N       E                     dE             d eps       ncg     rms          rms(c)
DAV:   1    -0.103708989716E+03    0.21602E-02   -0.34371E-01    96   0.161E+00    0.222E-01
DAV:   2    -0.103711030634E+03   -0.20409E-02   -0.20881E-02   132   0.443E-01    0.153E-01
DAV:   3    -0.103710967316E+03    0.63318E-04   -0.45227E-04   144   0.808E-02    0.799E-02
DAV:   4    -0.103710950941E+03    0.16375E-04   -0.21664E-04   132   0.525E-02    0.146E-02
DAV:   5    -0.103710939488E+03    0.11454E-04   -0.40433E-05   132   0.231E-02    0.927E-03
DAV:   6    -0.103710941153E+03   -0.16648E-05   -0.10568E-05   132   0.937E-03    0.547E-03
DAV:   7    -0.103710956071E+03   -0.14918E-04   -0.17074E-06   132   0.499E-03    0.235E-03
DAV:   8    -0.103710978488E+03   -0.22417E-04   -0.22788E-06   132   0.516E-03    0.149E-03
DAV:   9    -0.103711000256E+03   -0.21769E-04   -0.16454E-06   132   0.334E-03    0.132E-03
DAV:  10    -0.103711019169E+03   -0.18913E-04   -0.77767E-07    96   0.208E-03    0.453E-04
DAV:  11    -0.103711027272E+03   -0.81031E-05   -0.28186E-07   120   0.116E-03    0.346E-04
DAV:  12    -0.103711037688E+03   -0.10416E-04   -0.28078E-07    96   0.108E-03    0.179E-04
DAV:  13    -0.103711040914E+03   -0.32258E-05   -0.74970E-08   108   0.575E-04    0.163E-04
DAV:  14    -0.103711043364E+03   -0.24506E-05   -0.23778E-08   108   0.378E-04    0.754E-05
DAV:  15    -0.103711044353E+03   -0.98869E-06   -0.55094E-09   108   0.245E-04
  35 F= -.10371104E+03 E0= -.10371104E+03  d E =-.165856E-10
       N       E                     dE             d eps       ncg     rms          rms(c)
DAV:   1    -0.103708989040E+03    0.20543E-02   -0.17748E-01    96   0.111E+00    0.172E-01
DAV:   2    -0.103710324490E+03   -0.13355E-02   -0.13515E-02   132   0.357E-01    0.125E-01
DAV:   3    -0.103710258068E+03    0.66422E-04   -0.27882E-04   156   0.665E-02    0.682E-02
DAV:   4    -0.103710254438E+03    0.36296E-05   -0.21340E-04   132   0.520E-02    0.122E-02
DAV:   5    -0.103710249874E+03    0.45644E-05   -0.54334E-05   132   0.248E-02    0.904E-03
DAV:   6    -0.103710250502E+03   -0.62792E-06   -0.84978E-06   132   0.778E-03
  36 F= -.10371025E+03 E0= -.10371025E+03  d E =-.972955E-11
       N       E                     dE             d eps       ncg     rms          rms(c)
DAV:   1    -0.103707823840E+03    0.24260E-02   -0.35552E-01    96   0.159E+00    0.244E-01
DAV:   2    -0.103710561845E+03   -0.27380E-02   -0.27412E-02   132   0.516E-01    0.180E-01
DAV:   3    -0.103710453373E+03    0.10847E-03   -0.55607E-04   132   0.944E-02    0.996E-02
DAV:   4    -0.103710466136E+03   -0.12762E-04   -0.42694E-04   132   0.728E-02    0.171E-02
DAV:   5    -0.103710458640E+03    0.74956E-05   -0.10412E-04   144   0.343E-02    0.124E-02
DAV:   6    -0.103710461817E+03   -0.31774E-05   -0.15883E-05   132   0.101E-02    0.797E-03
DAV:   7    -0.103710482517E+03   -0.20700E-04   -0.19664E-06   132   0.439E-03    0.349E-03
DAV:   8    -0.103710510218E+03   -0.27700E-04   -0.37692E-06   108   0.504E-03    0.134E-03
DAV:   9    -0.103710528934E+03   -0.18716E-04   -0.21993E-06   108   0.343E-03    0.184E-03
DAV:  10    -0.103710546152E+03   -0.17219E-04   -0.15119E-06   108   0.274E-03    0.620E-04
DAV:  11    -0.103710551146E+03   -0.49936E-05   -0.24433E-07   108   0.126E-03    0.316E-04
DAV:  12    -0.103710556963E+03   -0.58175E-05   -0.28290E-07   108   0.109E-03    0.172E-04
DAV:  13    -0.103710558606E+03   -0.16426E-05   -0.62594E-08   108   0.516E-04    0.248E-04
DAV:  14    -0.103710560178E+03   -0.15726E-05   -0.28823E-08   108   0.418E-04    0.116E-04
DAV:  15    -0.103710560760E+03   -0.58121E-06   -0.79513E-09   108   0.262E-04
  37 F= -.10371056E+03 E0= -.10371056E+03  d E =-.619062E-11
       N       E                     dE             d eps       ncg     rms          rms(c)
DAV:   1    -0.103710228439E+03    0.33174E-03   -0.17129E-01    96   0.131E+00    0.177E-01
DAV:   2    -0.103711590102E+03   -0.13617E-02   -0.13729E-02   132   0.413E-01    0.115E-01
DAV:   3    -0.103711544921E+03    0.45181E-04   -0.29058E-04   144   0.702E-02    0.673E-02
DAV:   4    -0.103711540046E+03    0.48755E-05   -0.17635E-04   120   0.527E-02    0.111E-02
DAV:   5    -0.103711535223E+03    0.48227E-05   -0.50337E-05   144   0.254E-02    0.921E-03
DAV:   6    -0.103711534568E+03    0.65541E-06   -0.53179E-06   132   0.719E-03
  38 F= -.10371153E+03 E0= -.10371153E+03  d E =-.827731E-11
       N       E                     dE             d eps       ncg     rms          rms(c)
DAV:   1    -0.103709841956E+03    0.16933E-02   -0.34128E-01    96   0.177E+00    0.249E-01
DAV:   2    -0.103711665855E+03   -0.18239E-02   -0.18675E-02   132   0.486E-01    0.136E-01
DAV:   3    -0.103711627449E+03    0.38407E-04   -0.50015E-04   132   0.914E-02    0.710E-02
DAV:   4    -0.103711655745E+03   -0.28297E-04   -0.23528E-04   132   0.606E-02    0.160E-02
DAV:   5    -0.103711650428E+03    0.53176E-05   -0.52690E-05   132   0.277E-02    0.113E-02
DAV:   6    -0.103711650850E+03   -0.42267E-06   -0.91840E-06   132   0.965E-03
  39 F= -.10371165E+03 E0= -.10371165E+03  d E =-.687468E-11
       N       E                     dE             d eps       ncg     rms          rms(c)
DAV:   1    -0.103710204920E+03    0.14455E-02   -0.16848E-01    96   0.124E+00    0.162E-01
DAV:   2    -0.103710991385E+03   -0.78647E-03   -0.80440E-03   132   0.308E-01    0.816E-02
DAV:   3    -0.103710999291E+03   -0.79063E-05   -0.23792E-04   132   0.593E-02    0.436E-02
DAV:   4    -0.103711020439E+03   -0.21147E-04   -0.65967E-05   132   0.341E-02    0.948E-03
DAV:   5    -0.103711022615E+03   -0.21764E-05   -0.18417E-05   132   0.161E-02    0.715E-03
DAV:   6    -0.103711024468E+03   -0.18531E-05   -0.26833E-06   132   0.539E-03    0.484E-03
DAV:   7    -0.103711028607E+03   -0.41387E-05   -0.37631E-07   108   0.245E-03    0.197E-03
DAV:   8    -0.103711033134E+03   -0.45268E-05   -0.54067E-07   108   0.272E-03    0.830E-04
DAV:   9    -0.103711039042E+03   -0.59081E-05   -0.33260E-07   108   0.223E-03    0.487E-04
DAV:  10    -0.103711042380E+03   -0.33380E-05   -0.20279E-07   108   0.146E-03    0.572E-04
DAV:  11    -0.103711043861E+03   -0.14814E-05   -0.39642E-08   108   0.758E-04    0.410E-04
DAV:  12    -0.103711046295E+03   -0.24342E-05   -0.59393E-08   108   0.625E-04    0.106E-04
DAV:  13    -0.103711047287E+03   -0.99162E-06   -0.14464E-08   108   0.336E-04
  40 F= -.10371105E+03 E0= -.10371105E+03  d E =-.723684E-11
       N       E                     dE             d eps       ncg     rms          rms(c)
DAV:   1    -0.103708848056E+03    0.21982E-02   -0.34469E-01    96   0.182E+00    0.229E-01
DAV:   2    -0.103711131696E+03   -0.22836E-02   -0.23271E-02   132   0.533E-01    0.159E-01
DAV:   3    -0.103711048108E+03    0.83588E-04   -0.55457E-04   132   0.986E-02    0.845E-02
DAV:   4    -0.103711047908E+03    0.20025E-06   -0.30220E-04   132   0.678E-02    0.158E-02
DAV:   5    -0.103711041339E+03    0.65688E-05   -0.65282E-05   132   0.301E-02    0.119E-02
DAV:   6    -0.103711047107E+03   -0.57676E-05   -0.12967E-05   132   0.109E-02    0.762E-03
DAV:   7    -0.103711067608E+03   -0.20501E-04   -0.20621E-06   132   0.522E-03    0.319E-03
DAV:   8    -0.103711094757E+03   -0.27150E-04   -0.32025E-06   120   0.562E-03    0.130E-03
DAV:   9    -0.103711113783E+03   -0.19025E-04   -0.19561E-06   120   0.372E-03    0.153E-03
DAV:  10    -0.103711131228E+03   -0.17446E-04   -0.13617E-06   120   0.273E-03    0.639E-04
DAV:  11    -0.103711138335E+03   -0.71064E-05   -0.34858E-07   108   0.147E-03    0.357E-04
DAV:  12    -0.103711144987E+03   -0.66520E-05   -0.35259E-07   108   0.123E-03    0.174E-04
DAV:  13    -0.103711147109E+03   -0.21228E-05   -0.81276E-08   108   0.608E-04    0.227E-04
DAV:  14    -0.103711148928E+03   -0.18186E-05   -0.40044E-08    96   0.484E-04    0.860E-05
DAV:  15    -0.103711149430E+03   -0.50164E-06   -0.65177E-09   108   0.252E-04
  41 F= -.10371115E+03 E0= -.10371115E+03  d E =-.867866E-11
       N       E                     dE             d eps       ncg     rms          rms(c)
DAV:   1    -0.103709417928E+03    0.17310E-02   -0.16695E-01    96   0.130E+00    0.157E-01
DAV:   2    -0.103710475652E+03   -0.10577E-02   -0.10917E-02   120   0.369E-01    0.108E-01
DAV:   3    -0.103710441509E+03    0.34143E-04   -0.23941E-04   132   0.631E-02    0.570E-02
DAV:   4    -0.103710430893E+03    0.10616E-04   -0.10534E-04   132   0.389E-02    0.996E-03
DAV:   5    -0.103710423811E+03    0.70820E-05   -0.17848E-05   132   0.166E-02    0.638E-03
DAV:   6    -0.103710424182E+03   -0.37079E-06   -0.47289E-06   132   0.764E-03
  42 F= -.10371042E+03 E0= -.10371042E+03  d E =-.890050E-11
       N       E                     dE             d eps       ncg     rms          rms(c)
DAV:   1    -0.103708503182E+03    0.19206E-02   -0.35039E-01    96   0.184E+00    0.249E-01
DAV:   2    -0.103710780751E+03   -0.22776E-02   -0.22995E-02   132   0.550E-01    0.168E-01
DAV:   3    -0.103710727914E+03    0.52837E-04   -0.57311E-04   132   0.101E-01    0.870E-02
DAV:   4    -0.103710720142E+03    0.77719E-05   -0.30734E-04   132   0.653E-02    0.165E-02
DAV:   5    -0.103710708220E+03    0.11922E-04   -0.50134E-05   132   0.266E-02    0.111E-02
DAV:   6    -0.103710713255E+03   -0.50342E-05   -0.15661E-05   132   0.118E-02    0.640E-03
DAV:   7    -0.103710734715E+03   -0.21460E-04   -0.24643E-06   120   0.571E-03    0.258E-03
DAV:   8    -0.103710760551E+03   -0.25836E-04   -0.25695E-06   108   0.491E-03    0.108E-03
DAV:   9    -0.103710783595E+03   -0.23044E-04   -0.26255E-06   120   0.400E-03    0.134E-03
DAV:  10    -0.103710803550E+03   -0.19955E-04   -0.19134E-06   108   0.313E-03    0.409E-04
DAV:  11    -0.103710808590E+03   -0.50404E-05   -0.20203E-07   108   0.119E-03    0.262E-04
DAV:  12    -0.103710814325E+03   -0.57352E-05   -0.30514E-07    96   0.112E-03    0.207E-04
DAV:  13    -0.103710815694E+03   -0.13682E-05   -0.41719E-08   108   0.481E-04    0.167E-04
DAV:  14    -0.103710817014E+03   -0.13200E-05   -0.24362E-08    96   0.409E-04    0.696E-05
DAV:  15    -0.103710817626E+03   -0.61277E-06   -0.67195E-09   108   0.265E-04
  43 F= -.10371082E+03 E0= -.10371082E+03  d E =-.656567E-11
       N       E                     dE             d eps       ncg     rms          rms(c)
DAV:   1    -0.103709567807E+03    0.12492E-02   -0.18292E-01    96   0.133E+00    0.170E-01
DAV:   2    -0.103710942383E+03   -0.13746E-02   -0.15575E-02   132   0.419E-01    0.110E-01
DAV:   3    -0.103710884022E+03    0.58361E-04   -0.30715E-04   144   0.670E-02    0.652E-02
DAV:   4    -0.103710854158E+03    0.29864E-04   -0.12462E-04   132   0.445E-02    0.106E-02
DAV:   5    -0.103710843674E+03    0.10484E-04   -0.30295E-05   132   0.204E-02    0.720E-03
DAV:   6    -0.103710841885E+03    0.17892E-05   -0.55031E-06   132   0.809E-03    0.471E-03
DAV:   7    -0.103710853306E+03   -0.11421E-04   -0.27509E-06   132   0.603E-03    0.165E-03
DAV:   8    -0.103710871160E+03   -0.17854E-04   -0.14331E-06   120   0.435E-03    0.135E-03
DAV:   9    -0.103710886229E+03   -0.15069E-04   -0.68676E-07   108   0.266E-03    0.107E-03
DAV:  10    -0.103710901521E+03   -0.15292E-04   -0.69913E-07   108   0.189E-03    0.359E-04
DAV:  11    -0.103710907808E+03   -0.62864E-05   -0.20840E-07   108   0.100E-03    0.339E-04
DAV:  12    -0.103710914609E+03   -0.68010E-05   -0.14862E-07   108   0.912E-04    0.132E-04
DAV:  13    -0.103710917185E+03   -0.25766E-05   -0.61820E-08   108   0.555E-04    0.123E-04
DAV:  14    -0.103710918983E+03   -0.17976E-05   -0.13282E-08   108   0.396E-04    0.100E-04
DAV:  15    -0.103710919868E+03   -0.88468E-06   -0.83969E-09   108   0.269E-04
  44 F= -.10371092E+03 E0= -.10371092E+03  d E =-.794183E-11
       N       E                     dE             d eps       ncg     rms          rms(c)
DAV:   1    -0.103709634863E+03    0.12841E-02   -0.40367E-01   120   0.163E+00    0.208E-01
DAV:   2    -0.103711120133E+03   -0.14853E-02   -0.18305E-02   132   0.384E-01    0.129E-01
DAV:   3    -0.103711002066E+03    0.11807E-03   -0.33003E-04   144   0.634E-02    0.662E-02
DAV:   4    -0.103710948581E+03    0.53485E-04   -0.12628E-04   144   0.419E-02    0.120E-02
DAV:   5    -0.103710941514E+03    0.70669E-05   -0.22946E-05   132   0.179E-02    0.778E-03
DAV:   6    -0.103710954981E+03   -0.13467E-04   -0.11199E-05   132   0.901E-03    0.390E-03
DAV:   7    -0.103710978906E+03   -0.23925E-04   -0.22185E-06   132   0.431E-03    0.211E-03
DAV:   8    -0.103711014702E+03   -0.35796E-04   -0.36695E-06   120   0.399E-03    0.117E-03
DAV:   9    -0.103711034618E+03   -0.19916E-04   -0.13458E-06   120   0.248E-03    0.925E-04
DAV:  10    -0.103711058214E+03   -0.23596E-04   -0.22073E-06   120   0.282E-03    0.415E-04
DAV:  11    -0.103711065393E+03   -0.71787E-05   -0.27907E-07   108   0.122E-03    0.355E-04
DAV:  12    -0.103711071349E+03   -0.59560E-05   -0.27547E-07    96   0.108E-03    0.179E-04
DAV:  13    -0.103711072789E+03   -0.14406E-05   -0.45192E-08   108   0.492E-04    0.131E-04
DAV:  14    -0.103711074014E+03   -0.12252E-05   -0.10679E-08    96   0.329E-04    0.483E-05
DAV:  15    -0.103711074543E+03   -0.52810E-06   -0.22645E-09   108   0.206E-04
  45 F= -.10371107E+03 E0= -.10371107E+03  d E =-.674440E-11
       N       E                     dE             d eps       ncg     rms          rms(c)
DAV:   1    -0.103710482165E+03    0.59185E-03   -0.20211E-01    96   0.119E+00    0.150E-01
DAV:   2    -0.103711286635E+03   -0.80447E-03   -0.97480E-03   120   0.275E-01    0.796E-02
DAV:   3    -0.103711245287E+03    0.41348E-04   -0.19750E-04   132   0.446E-02    0.414E-02
DAV:   4    -0.103711219493E+03    0.25794E-04   -0.50126E-05   144   0.265E-02    0.905E-03
DAV:   5    -0.103711211846E+03    0.76469E-05   -0.87169E-06   132   0.119E-02    0.520E-03
DAV:   6    -0.103711212862E+03   -0.10158E-05   -0.29969E-06   132   0.601E-03    0.274E-03
DAV:   7    -0.103711220100E+03   -0.72380E-05   -0.11384E-06   120   0.399E-03    0.127E-03
DAV:   8    -0.103711231359E+03   -0.11259E-04   -0.71668E-07   120   0.285E-03    0.863E-04
DAV:   9    -0.103711243986E+03   -0.12627E-04   -0.75600E-07   120   0.223E-03    0.477E-04
DAV:  10    -0.103711253358E+03   -0.93721E-05   -0.37635E-07   108   0.144E-03    0.310E-04
DAV:  11    -0.103711258743E+03   -0.53840E-05   -0.15037E-07   108   0.852E-04    0.186E-04
DAV:  12    -0.103711263115E+03   -0.43726E-05   -0.11383E-07   108   0.695E-04    0.112E-04
DAV:  13    -0.103711264364E+03   -0.12489E-05   -0.14223E-08   108   0.341E-04    0.673E-05
DAV:  14    -0.103711265648E+03   -0.12837E-05   -0.13165E-08    96   0.284E-04    0.339E-05
DAV:  15    -0.103711266033E+03   -0.38543E-06    0.25466E-09   108   0.148E-04
  46 F= -.10371127E+03 E0= -.10371127E+03  d E =-.932657E-11
       N       E                     dE             d eps       ncg     rms          rms(c)
DAV:   1    -0.103709914021E+03    0.13516E-02   -0.40332E-01    96   0.165E+00    0.220E-01
DAV:   2    -0.103711470993E+03   -0.15570E-02   -0.19260E-02   132   0.381E-01    0.116E-01
DAV:   3    -0.103711376943E+03    0.94050E-04   -0.38073E-04   144   0.624E-02    0.599E-02
DAV:   4    -0.103711307658E+03    0.69285E-04   -0.81020E-05   132   0.339E-02    0.121E-02
DAV:   5    -0.103711301217E+03    0.64414E-05   -0.14617E-05   132   0.155E-02    0.689E-03
DAV:   6    -0.103711319652E+03   -0.18435E-04   -0.76493E-06   132   0.921E-03    0.357E-03
DAV:   7    -0.103711350405E+03   -0.30753E-04   -0.45177E-06   132   0.633E-03    0.203E-03
DAV:   8    -0.103711384153E+03   -0.33748E-04   -0.28101E-06   108   0.410E-03    0.112E-03
DAV:   9    -0.103711409633E+03   -0.25481E-04   -0.23090E-06   120   0.328E-03    0.759E-04
DAV:  10    -0.103711429857E+03   -0.20223E-04   -0.19379E-06   120   0.268E-03    0.359E-04
DAV:  11    -0.103711436583E+03   -0.67262E-05   -0.28116E-07   108   0.123E-03    0.257E-04
DAV:  12    -0.103711441289E+03   -0.47062E-05   -0.24278E-07   108   0.943E-04    0.139E-04
DAV:  13    -0.103711442500E+03   -0.12104E-05   -0.30367E-08   108   0.415E-04    0.773E-05
DAV:  14    -0.103711443464E+03   -0.96383E-06   -0.11397E-08   108   0.318E-04
  47 F= -.10371144E+03 E0= -.10371144E+03  d E =-.693952E-11
       N       E                     dE             d eps       ncg     rms          rms(c)
DAV:   1    -0.103711340258E+03    0.10224E-03   -0.20031E-01    96   0.117E+00    0.152E-01
DAV:   2    -0.103712121364E+03   -0.78111E-03   -0.93838E-03   132   0.265E-01    0.733E-02
DAV:   3    -0.103712090948E+03    0.30415E-04   -0.20659E-04   144   0.482E-02    0.386E-02
DAV:   4    -0.103712078758E+03    0.12191E-04   -0.46371E-05   132   0.298E-02    0.932E-03
DAV:   5    -0.103712074823E+03    0.39350E-05   -0.14004E-05   132   0.146E-02    0.619E-03
DAV:   6    -0.103712075284E+03   -0.46098E-06   -0.25240E-06   132   0.512E-03
  48 F= -.10371208E+03 E0= -.10371208E+03  d E =-.681847E-11
       N       E                     dE             d eps       ncg     rms          rms(c)
DAV:   1    -0.103710631994E+03    0.14428E-02   -0.40346E-01    96   0.163E+00    0.210E-01
DAV:   2    -0.103712144219E+03   -0.15122E-02   -0.18118E-02   132   0.364E-01    0.101E-01
DAV:   3    -0.103712096237E+03    0.47982E-04   -0.41453E-04   144   0.675E-02    0.524E-02
DAV:   4    -0.103712081087E+03    0.15150E-04   -0.89743E-05   144   0.404E-02    0.135E-02
DAV:   5    -0.103712077240E+03    0.38467E-05   -0.24360E-05   132   0.193E-02    0.849E-03
DAV:   6    -0.103712079597E+03   -0.23564E-05   -0.40739E-06   132   0.685E-03    0.525E-03
DAV:   7    -0.103712087127E+03   -0.75303E-05   -0.86863E-07   108   0.399E-03    0.164E-03
DAV:   8    -0.103712095899E+03   -0.87718E-05   -0.97690E-07   120   0.354E-03    0.129E-03
DAV:   9    -0.103712110728E+03   -0.14829E-04   -0.95639E-07   120   0.338E-03    0.622E-04
DAV:  10    -0.103712118214E+03   -0.74864E-05   -0.46801E-07   108   0.209E-03    0.681E-04
DAV:  11    -0.103712121022E+03   -0.28080E-05   -0.87638E-08   108   0.101E-03    0.413E-04
DAV:  12    -0.103712126650E+03   -0.56282E-05   -0.17936E-07   108   0.991E-04    0.214E-04
DAV:  13    -0.103712128604E+03   -0.19538E-05   -0.48801E-08   108   0.520E-04    0.237E-04
DAV:  14    -0.103712130705E+03   -0.21009E-05   -0.38926E-08    96   0.454E-04    0.533E-05
DAV:  15    -0.103712131383E+03   -0.67822E-06   -0.72050E-09   108   0.258E-04
  49 F= -.10371213E+03 E0= -.10371213E+03  d E =-.918753E-11
       N       E                     dE             d eps       ncg     rms          rms(c)
DAV:   1    -0.103710214454E+03    0.19163E-02   -0.19896E-01    96   0.131E+00    0.162E-01
DAV:   2    -0.103711332515E+03   -0.11181E-02   -0.13239E-02   132   0.323E-01    0.820E-02
DAV:   3    -0.103711284764E+03    0.47752E-04   -0.29516E-04   144   0.568E-02    0.449E-02
DAV:   4    -0.103711257455E+03    0.27308E-04   -0.63790E-05   132   0.326E-02    0.109E-02
DAV:   5    -0.103711248836E+03    0.86193E-05   -0.16589E-05   132   0.162E-02    0.655E-03
DAV:   6    -0.103711250747E+03   -0.19112E-05   -0.30413E-06   132   0.646E-03    0.408E-03
DAV:   7    -0.103711260135E+03   -0.93880E-05   -0.11498E-06   120   0.395E-03    0.139E-03
DAV:   8    -0.103711270770E+03   -0.10635E-04   -0.75196E-07   108   0.307E-03    0.964E-04
DAV:   9    -0.103711286565E+03   -0.15795E-04   -0.14001E-06   120   0.297E-03    0.535E-04
DAV:  10    -0.103711294691E+03   -0.81259E-05   -0.55004E-07   108   0.196E-03    0.414E-04
DAV:  11    -0.103711298407E+03   -0.37158E-05   -0.15695E-07   108   0.101E-03    0.269E-04
DAV:  12    -0.103711302022E+03   -0.36153E-05   -0.14953E-07   108   0.850E-04    0.144E-04
DAV:  13    -0.103711303084E+03   -0.10615E-05   -0.28050E-08   108   0.409E-04    0.108E-04
DAV:  14    -0.103711304245E+03   -0.11618E-05   -0.28418E-08   108   0.366E-04    0.403E-05
DAV:  15    -0.103711304591E+03   -0.34576E-06   -0.69100E-10   108   0.192E-04
  50 F= -.10371130E+03 E0= -.10371130E+03  d E =-.757705E-11
       N       E                     dE             d eps       ncg     rms          rms(c)
DAV:   1    -0.103709849827E+03    0.14544E-02   -0.39855E-01    96   0.178E+00    0.217E-01
DAV:   2    -0.103711445621E+03   -0.15958E-02   -0.19394E-02   132   0.414E-01    0.123E-01
DAV:   3    -0.103711308225E+03    0.13740E-03   -0.35060E-04   132   0.700E-02    0.634E-02
DAV:   4    -0.103711264793E+03    0.43432E-04   -0.15924E-04   132   0.469E-02    0.129E-02
DAV:   5    -0.103711253432E+03    0.11361E-04   -0.25657E-05   132   0.194E-02    0.807E-03
DAV:   6    -0.103711256107E+03   -0.26745E-05   -0.70974E-06   132   0.804E-03    0.444E-03
DAV:   7    -0.103711269720E+03   -0.13613E-04   -0.16405E-06   120   0.431E-03    0.175E-03
DAV:   8    -0.103711288494E+03   -0.18774E-04   -0.10465E-06   108   0.298E-03    0.118E-03
DAV:   9    -0.103711308769E+03   -0.20275E-04   -0.10599E-06   120   0.230E-03    0.766E-04
DAV:  10    -0.103711326484E+03   -0.17714E-04   -0.10280E-06   120   0.197E-03    0.424E-04
DAV:  11    -0.103711331682E+03   -0.51987E-05   -0.71092E-08   108   0.827E-04    0.239E-04
DAV:  12    -0.103711339204E+03   -0.75220E-05   -0.25030E-07   108   0.102E-03    0.144E-04
DAV:  13    -0.103711340809E+03   -0.16049E-05   -0.22205E-08   108   0.416E-04    0.994E-05
DAV:  14    -0.103711342621E+03   -0.18117E-05   -0.15427E-08   108   0.346E-04    0.451E-05
DAV:  15    -0.103711343237E+03   -0.61594E-06   -0.16864E-09   108   0.198E-04
  51 F= -.10371134E+03 E0= -.10371134E+03  d E =-.945170E-11
       N       E                     dE             d eps       ncg     rms          rms(c)
DAV:   1    -0.103711623203E+03   -0.28058E-03   -0.20105E-01    96   0.128E+00    0.157E-01
DAV:   2    -0.103712386919E+03   -0.76372E-03   -0.92684E-03   132   0.288E-01    0.806E-02
DAV:   3    -0.103712327228E+03    0.59691E-04   -0.19287E-04   132   0.507E-02    0.417E-02
DAV:   4    -0.103712307205E+03    0.20023E-04   -0.70223E-05   132   0.317E-02    0.929E-03
DAV:   5    -0.103712302120E+03    0.50851E-05   -0.12058E-05   132   0.134E-02    0.561E-03
DAV:   6    -0.103712304919E+03   -0.27989E-05   -0.29649E-06   132   0.553E-03    0.301E-03
DAV:   7    -0.103712313276E+03   -0.83572E-05   -0.75819E-07   120   0.287E-03    0.107E-03
DAV:   8    -0.103712321796E+03   -0.85199E-05   -0.45645E-07   108   0.198E-03    0.733E-04
DAV:   9    -0.103712333448E+03   -0.11652E-04   -0.96710E-07   120   0.211E-03    0.419E-04
DAV:  10    -0.103712341175E+03   -0.77276E-05   -0.62383E-07   120   0.165E-03    0.285E-04
DAV:  11    -0.103712343017E+03   -0.18416E-05   -0.33472E-08   108   0.627E-04    0.183E-04
DAV:  12    -0.103712345781E+03   -0.27641E-05   -0.10303E-07   108   0.690E-04    0.962E-05
DAV:  13    -0.103712346786E+03   -0.10048E-05   -0.24632E-08   108   0.360E-04    0.771E-05
DAV:  14    -0.103712347506E+03   -0.71971E-06   -0.36906E-09   108   0.239E-04
  52 F= -.10371235E+03 E0= -.10371235E+03  d E =-.247034E-10
       N       E                     dE             d eps       ncg     rms          rms(c)
DAV:   1    -0.103711176925E+03    0.11699E-02   -0.40911E-01    96   0.176E+00    0.220E-01
DAV:   2    -0.103712444629E+03   -0.12677E-02   -0.15440E-02   132   0.371E-01    0.900E-02
DAV:   3    -0.103712372686E+03    0.71943E-04   -0.39271E-04   144   0.681E-02    0.465E-02
DAV:   4    -0.103712357597E+03    0.15088E-04   -0.85480E-05   132   0.365E-02    0.143E-02
DAV:   5    -0.103712353730E+03    0.38675E-05   -0.17997E-05   132   0.173E-02    0.748E-03
DAV:   6    -0.103712354570E+03   -0.84059E-06   -0.41554E-06   132   0.731E-03
  53 F= -.10371235E+03 E0= -.10371235E+03  d E =-.532843E-11
       N       E                     dE             d eps       ncg     rms          rms(c)
DAV:   1    -0.103711647946E+03    0.70578E-03   -0.20869E-01    96   0.129E+00    0.155E-01
DAV:   2    -0.103712257874E+03   -0.60993E-03   -0.73638E-03   132   0.265E-01    0.654E-02
DAV:   3    -0.103712227470E+03    0.30405E-04   -0.19198E-04   132   0.478E-02    0.337E-02
DAV:   4    -0.103712227045E+03    0.42440E-06   -0.46047E-05   132   0.266E-02    0.102E-02
DAV:   5    -0.103712227386E+03   -0.34032E-06   -0.89321E-06   132   0.121E-02
  54 F= -.10371223E+03 E0= -.10371223E+03  d E =-.710859E-11
       N       E                     dE             d eps       ncg     rms          rms(c)
DAV:   1    -0.103710845336E+03    0.13817E-02   -0.41114E-01    96   0.181E+00    0.220E-01
DAV:   2    -0.103712134369E+03   -0.12890E-02   -0.15657E-02   132   0.385E-01    0.978E-02
DAV:   3    -0.103712064064E+03    0.70305E-04   -0.38386E-04   144   0.691E-02    0.504E-02
DAV:   4    -0.103712047917E+03    0.16147E-04   -0.96337E-05   132   0.391E-02    0.133E-02
DAV:   5    -0.103712040573E+03    0.73443E-05   -0.20557E-05   132   0.178E-02    0.779E-03
DAV:   6    -0.103712040543E+03    0.29383E-07   -0.42033E-06   132   0.722E-03
  55 F= -.10371204E+03 E0= -.10371204E+03  d E =-.949005E-11
       N       E                     dE             d eps       ncg     rms          rms(c)
DAV:   1    -0.103710904112E+03    0.11365E-02   -0.20024E-01    96   0.129E+00    0.168E-01
DAV:   2    -0.103712041430E+03   -0.11373E-02   -0.13354E-02   132   0.310E-01    0.750E-02
DAV:   3    -0.103711998433E+03    0.42997E-04   -0.31056E-04   144   0.584E-02    0.410E-02
DAV:   4    -0.103711992854E+03    0.55783E-05   -0.73011E-05   132   0.320E-02    0.117E-02
DAV:   5    -0.103711991004E+03    0.18503E-05   -0.13924E-05   132   0.147E-02    0.656E-03
DAV:   6    -0.103711991292E+03   -0.28771E-06   -0.26727E-06   132   0.617E-03
  56 F= -.10371199E+03 E0= -.10371199E+03  d E =-.166662E-10
       N       E                     dE             d eps       ncg     rms          rms(c)
DAV:   1    -0.103710494721E+03    0.14963E-02   -0.40573E-01    96   0.177E+00    0.224E-01
DAV:   2    -0.103711960129E+03   -0.14654E-02   -0.17527E-02   132   0.401E-01    0.105E-01
DAV:   3    -0.103711879302E+03    0.80827E-04   -0.37693E-04   132   0.690E-02    0.553E-02
DAV:   4    -0.103711852669E+03    0.26633E-04   -0.12120E-04   144   0.411E-02    0.139E-02
DAV:   5    -0.103711843749E+03    0.89207E-05   -0.19524E-05   132   0.172E-02    0.790E-03
DAV:   6    -0.103711843989E+03   -0.24091E-06   -0.48803E-06   120   0.777E-03
  57 F= -.10371184E+03 E0= -.10371184E+03  d E =-.501014E-11
       N       E                     dE             d eps       ncg     rms          rms(c)
DAV:   1    -0.103710814249E+03    0.10295E-02   -0.20602E-01    96   0.128E+00    0.159E-01
DAV:   2    -0.103711478075E+03   -0.66383E-03   -0.79959E-03   132   0.265E-01    0.647E-02
DAV:   3    -0.103711448850E+03    0.29225E-04   -0.20225E-04   144   0.488E-02    0.340E-02
DAV:   4    -0.103711448863E+03   -0.12948E-07   -0.44561E-05   132   0.262E-02    0.101E-02
DAV:   5    -0.103711451050E+03   -0.21870E-05   -0.97934E-06   132   0.126E-02    0.535E-03
DAV:   6    -0.103711453783E+03   -0.27330E-05   -0.19515E-06   120   0.500E-03    0.316E-03
DAV:   7    -0.103711458606E+03   -0.48238E-05   -0.40550E-07   108   0.229E-03    0.788E-04
DAV:   8    -0.103711462117E+03   -0.35110E-05   -0.21793E-07   108   0.164E-03    0.567E-04
DAV:   9    -0.103711468846E+03   -0.67286E-05   -0.54862E-07   108   0.220E-03    0.301E-04
DAV:  10    -0.103711470531E+03   -0.16848E-05   -0.11800E-07   108   0.112E-03    0.309E-04
DAV:  11    -0.103711471687E+03   -0.11565E-05   -0.23536E-08   108   0.523E-04    0.171E-04
DAV:  12    -0.103711473494E+03   -0.18064E-05   -0.51465E-08   108   0.532E-04    0.899E-05
DAV:  13    -0.103711474434E+03   -0.94002E-06   -0.20955E-08   108   0.333E-04
  58 F= -.10371147E+03 E0= -.10371147E+03  d E =-.157491E-10
       N       E                     dE             d eps       ncg     rms          rms(c)
DAV:   1    -0.103710109571E+03    0.13639E-02   -0.39742E-01    96   0.176E+00    0.214E-01
DAV:   2    -0.103711664768E+03   -0.15552E-02   -0.18828E-02   132   0.412E-01    0.119E-01
DAV:   3    -0.103711536849E+03    0.12792E-03   -0.35941E-04   132   0.708E-02    0.612E-02
DAV:   4    -0.103711496928E+03    0.39921E-04   -0.15526E-04   132   0.465E-02    0.131E-02
DAV:   5    -0.103711486692E+03    0.10236E-04   -0.26052E-05   132   0.193E-02    0.818E-03
DAV:   6    -0.103711488861E+03   -0.21687E-05   -0.62447E-06   132   0.782E-03    0.436E-03
DAV:   7    -0.103711500993E+03   -0.12133E-04   -0.16193E-06   132   0.432E-03    0.160E-03
DAV:   8    -0.103711516474E+03   -0.15481E-04   -0.76401E-07   108   0.272E-03    0.113E-03
DAV:   9    -0.103711535734E+03   -0.19260E-04   -0.11592E-06   120   0.239E-03    0.641E-04
DAV:  10    -0.103711551082E+03   -0.15348E-04   -0.90827E-07   120   0.195E-03    0.454E-04
DAV:  11    -0.103711555607E+03   -0.45246E-05   -0.63145E-08   108   0.829E-04    0.253E-04
DAV:  12    -0.103711562391E+03   -0.67841E-05   -0.20890E-07    96   0.961E-04    0.136E-04
DAV:  13    -0.103711564542E+03   -0.21516E-05   -0.34476E-08   108   0.447E-04    0.103E-04
DAV:  14    -0.103711566476E+03   -0.19333E-05   -0.17052E-08   108   0.347E-04    0.463E-05
DAV:  15    -0.103711566956E+03   -0.48068E-06    0.38060E-10   108   0.176E-04
  59 F= -.10371157E+03 E0= -.10371157E+03  d E =-.541353E-11
       N       E                     dE             d eps       ncg     rms          rms(c)
DAV:   1    -0.103711766182E+03   -0.19971E-03   -0.20584E-01    96   0.129E+00    0.157E-01
DAV:   2    -0.103712468491E+03   -0.70231E-03   -0.85010E-03   132   0.284E-01    0.725E-02
DAV:   3    -0.103712423521E+03    0.44969E-04   -0.19673E-04   144   0.494E-02    0.380E-02
DAV:   4    -0.103712407368E+03    0.16154E-04   -0.52852E-05   132   0.288E-02    0.953E-03
DAV:   5    -0.103712403594E+03    0.37741E-05   -0.11384E-05   132   0.133E-02    0.575E-03
DAV:   6    -0.103712404981E+03   -0.13868E-05   -0.25022E-06   132   0.564E-03    0.330E-03
DAV:   7    -0.103712409961E+03   -0.49806E-05   -0.48758E-07   108   0.257E-03    0.119E-03
DAV:   8    -0.103712415615E+03   -0.56536E-05   -0.39721E-07   108   0.212E-03    0.683E-04
DAV:   9    -0.103712423495E+03   -0.78801E-05   -0.52040E-07    96   0.202E-03    0.415E-04
DAV:  10    -0.103712429420E+03   -0.59256E-05   -0.46877E-07   108   0.161E-03    0.334E-04
DAV:  11    -0.103712431046E+03   -0.16257E-05   -0.53824E-08   108   0.768E-04    0.209E-04
DAV:  12    -0.103712433088E+03   -0.20418E-05   -0.56353E-08   108   0.591E-04    0.113E-04
DAV:  13    -0.103712434319E+03   -0.12306E-05   -0.35557E-08   108   0.403E-04    0.124E-04
DAV:  14    -0.103712435093E+03   -0.77401E-06   -0.92771E-09   108   0.266E-04
  60 F= -.10371244E+03 E0= -.10371244E+03  d E =-.611702E-11
       N       E                     dE             d eps       ncg     rms          rms(c)
DAV:   1    -0.103711235695E+03    0.11986E-02   -0.41550E-01    96   0.181E+00    0.219E-01
DAV:   2    -0.103712387876E+03   -0.11522E-02   -0.14229E-02   132   0.362E-01    0.900E-02
DAV:   3    -0.103712318089E+03    0.69787E-04   -0.37713E-04   132   0.678E-02    0.459E-02
DAV:   4    -0.103712304369E+03    0.13719E-04   -0.85860E-05   132   0.372E-02    0.141E-02
DAV:   5    -0.103712301566E+03    0.28037E-05   -0.18171E-05   132   0.172E-02    0.818E-03
DAV:   6    -0.103712302487E+03   -0.92169E-06   -0.39030E-06   132   0.716E-03
  61 F= -.10371230E+03 E0= -.10371230E+03  d E =-.128756E-10
       N       E                     dE             d eps       ncg     rms          rms(c)
DAV:   1    -0.103713944815E+03   -0.16432E-02   -0.24038E-01    96   0.164E+00    0.172E-01
DAV:   2    -0.103714336225E+03   -0.39141E-03   -0.62647E-03   132   0.242E-01    0.782E-02
DAV:   3    -0.103714276899E+03    0.59326E-04   -0.21859E-04   132   0.505E-02    0.369E-02
DAV:   4    -0.103714277371E+03   -0.47209E-06   -0.71099E-05   132   0.282E-02    0.932E-03
DAV:   5    -0.103714278029E+03   -0.65736E-06   -0.94753E-06   132   0.114E-02
  62 F= -.10371428E+03 E0= -.10371428E+03  d E =-.781130E-11
       N       E                     dE             d eps       ncg     rms          rms(c)
DAV:   1    -0.103714771585E+03   -0.49421E-03   -0.54973E-01    96   0.216E+00    0.230E-01
DAV:   2    -0.103714421200E+03    0.35039E-03   -0.33815E-03   132   0.182E-01    0.122E-01
DAV:   3    -0.103714208998E+03    0.21220E-03   -0.56091E-04   132   0.678E-02    0.347E-02
DAV:   4    -0.103714211317E+03   -0.23186E-05   -0.10610E-04   132   0.314E-02    0.122E-02
DAV:   5    -0.103714211586E+03   -0.26879E-06   -0.63662E-06   132   0.944E-03
  63 F= -.10371421E+03 E0= -.10371421E+03  d E =-.744020E-11
       N       E                     dE             d eps       ncg     rms          rms(c)
DAV:   1    -0.103713481479E+03    0.72984E-03   -0.29101E-01    96   0.161E+00    0.212E-01
DAV:   2    -0.103713223369E+03    0.25811E-03   -0.22421E-03   132   0.139E-01    0.103E-01
DAV:   3    -0.103713078197E+03    0.14517E-03   -0.40350E-04   132   0.521E-02    0.351E-02
DAV:   4    -0.103713071892E+03    0.63057E-05   -0.94819E-05   132   0.265E-02    0.130E-02
DAV:   5    -0.103713069641E+03    0.22501E-05   -0.46987E-06   132   0.824E-03    0.477E-03
DAV:   6    -0.103713069920E+03   -0.27897E-06   -0.23527E-06   132   0.484E-03
  64 F= -.10371307E+03 E0= -.10371307E+03  d E =-.784976E-11
       N       E                     dE             d eps       ncg     rms          rms(c)
DAV:   1    -0.103713891252E+03   -0.82161E-03   -0.56957E-01    96   0.214E+00    0.278E-01
DAV:   2    -0.103713409296E+03    0.48196E-03   -0.40268E-03   132   0.181E-01    0.137E-01
DAV:   3    -0.103713135661E+03    0.27364E-03   -0.72771E-04   132   0.678E-02    0.460E-02
DAV:   4    -0.103713120374E+03    0.15287E-04   -0.14361E-04   144   0.334E-02    0.155E-02
DAV:   5    -0.103713119490E+03    0.88399E-06   -0.78896E-06   132   0.110E-02
  65 F= -.10371312E+03 E0= -.10371312E+03  d E =-.600246E-11
       N       E                     dE             d eps       ncg     rms          rms(c)
DAV:   1    -0.103714802992E+03   -0.16826E-02   -0.28971E-01    96   0.157E+00    0.208E-01
DAV:   2    -0.103714537886E+03    0.26511E-03   -0.22594E-03   132   0.143E-01    0.101E-01
DAV:   3    -0.103714399147E+03    0.13874E-03   -0.42002E-04   132   0.555E-02    0.351E-02
DAV:   4    -0.103714399885E+03   -0.73716E-06   -0.10393E-04   132   0.287E-02    0.123E-02
DAV:   5    -0.103714399287E+03    0.59788E-06   -0.49769E-06   144   0.794E-03
  66 F= -.10371440E+03 E0= -.10371440E+03  d E =-.775506E-11
       N       E                     dE             d eps       ncg     rms          rms(c)
DAV:   1    -0.103714753277E+03   -0.35339E-03   -0.55903E-01    96   0.217E+00    0.223E-01
DAV:   2    -0.103714369150E+03    0.38413E-03   -0.35237E-03   132   0.170E-01    0.122E-01
DAV:   3    -0.103714134681E+03    0.23447E-03   -0.68515E-04   132   0.707E-02    0.311E-02
DAV:   4    -0.103714141245E+03   -0.65644E-05   -0.12647E-04   132   0.322E-02    0.148E-02
DAV:   5    -0.103714140380E+03    0.86485E-06   -0.46674E-06   132   0.732E-03
  67 F= -.10371414E+03 E0= -.10371414E+03  d E =-.718394E-11
       N       E                     dE             d eps       ncg     rms          rms(c)
DAV:   1    -0.103714914319E+03   -0.77307E-03   -0.27538E-01    96   0.151E+00    0.150E-01
DAV:   2    -0.103714845429E+03    0.68890E-04   -0.18827E-03   132   0.126E-01    0.855E-02
DAV:   3    -0.103714758997E+03    0.86432E-04   -0.19086E-04   132   0.400E-02    0.198E-02
DAV:   4    -0.103714760234E+03   -0.12371E-05   -0.36193E-05   132   0.177E-02    0.609E-03
DAV:   5    -0.103714760227E+03    0.72423E-08   -0.14484E-06   132   0.433E-03
  68 F= -.10371476E+03 E0= -.10371476E+03  d E =-.743526E-11
       N       E                     dE             d eps       ncg     rms          rms(c)
DAV:   1    -0.103715366029E+03   -0.60580E-03   -0.54388E-01    96   0.222E+00    0.202E-01
DAV:   2    -0.103715066041E+03    0.29999E-03   -0.27589E-03   132   0.157E-01    0.113E-01
DAV:   3    -0.103714889584E+03    0.17646E-03   -0.51238E-04   132   0.687E-02    0.227E-02
DAV:   4    -0.103714898523E+03   -0.89390E-05   -0.90182E-05   132   0.299E-02    0.973E-03
DAV:   5    -0.103714898659E+03   -0.13552E-06   -0.32759E-06   132   0.661E-03
  69 F= -.10371490E+03 E0= -.10371490E+03  d E =-.788644E-11
       N       E                     dE             d eps       ncg     rms          rms(c)
DAV:   1    -0.103714861900E+03    0.36623E-04   -0.27580E-01    96   0.159E+00    0.143E-01
DAV:   2    -0.103714718429E+03    0.14347E-03   -0.14615E-03   132   0.108E-01    0.804E-02
DAV:   3    -0.103714628844E+03    0.89586E-04   -0.25549E-04   132   0.421E-02    0.179E-02
DAV:   4    -0.103714630676E+03   -0.18322E-05   -0.39460E-05   132   0.184E-02    0.661E-03
DAV:   5    -0.103714630349E+03    0.32739E-06   -0.14077E-06   120   0.429E-03
  70 F= -.10371463E+03 E0= -.10371463E+03  d E =-.768679E-11
       N       E                     dE             d eps       ncg     rms          rms(c)
DAV:   1    -0.103715287912E+03   -0.65724E-03   -0.55011E-01    96   0.214E+00    0.207E-01
DAV:   2    -0.103714982292E+03    0.30562E-03   -0.27391E-03   132   0.150E-01    0.114E-01
DAV:   3    -0.103714791308E+03    0.19098E-03   -0.48911E-04   132   0.589E-02    0.260E-02
DAV:   4    -0.103714793288E+03   -0.19798E-05   -0.80446E-05   132   0.265E-02    0.943E-03
DAV:   5    -0.103714793270E+03    0.18558E-07   -0.38416E-06   132   0.715E-03
  71 F= -.10371479E+03 E0= -.10371479E+03  d E =-.675543E-11
       N       E                     dE             d eps       ncg     rms          rms(c)
DAV:   1    -0.103712381058E+03    0.24122E-02   -0.27938E-01    96   0.160E+00    0.166E-01
DAV:   2    -0.103712177443E+03    0.20362E-03   -0.17975E-03   132   0.126E-01    0.872E-02
DAV:   3    -0.103712059817E+03    0.11763E-03   -0.31673E-04   132   0.485E-02    0.257E-02
DAV:   4    -0.103712062784E+03   -0.29670E-05   -0.64412E-05   132   0.229E-02    0.947E-03
DAV:   5    -0.103712064457E+03   -0.16724E-05   -0.29873E-06   132   0.604E-03    0.481E-03
DAV:   6    -0.103712067219E+03   -0.27626E-05   -0.15485E-06   132   0.377E-03    0.922E-04
DAV:   7    -0.103712068756E+03   -0.15372E-05   -0.22604E-07   108   0.163E-03    0.536E-04
DAV:   8    -0.103712071248E+03   -0.24920E-05   -0.11529E-07   108   0.905E-04    0.214E-04
DAV:   9    -0.103712072520E+03   -0.12711E-05   -0.41610E-08   108   0.551E-04    0.191E-04
DAV:  10    -0.103712074372E+03   -0.18526E-05   -0.81723E-08   108   0.599E-04    0.782E-05
DAV:  11    -0.103712075135E+03   -0.76276E-06   -0.29851E-08   108   0.377E-04
  72 F= -.10371208E+03 E0= -.10371208E+03  d E =-.692205E-11
       N       E                     dE             d eps       ncg     rms          rms(c)
DAV:   1    -0.103713006199E+03   -0.93183E-03   -0.59133E-01    96   0.221E+00    0.314E-01
DAV:   2    -0.103712410293E+03    0.59591E-03   -0.54515E-03   132   0.216E-01    0.152E-01
DAV:   3    -0.103712062224E+03    0.34807E-03   -0.96428E-04   132   0.817E-02    0.515E-02
DAV:   4    -0.103712052298E+03    0.99253E-05   -0.23236E-04   132   0.414E-02    0.207E-02
DAV:   5    -0.103712049383E+03    0.29155E-05   -0.97061E-06   132   0.112E-02    0.842E-03
DAV:   6    -0.103712050815E+03   -0.14317E-05   -0.56645E-06   132   0.788E-03    0.245E-03
DAV:   7    -0.103712054198E+03   -0.33837E-05   -0.14873E-06   132   0.376E-03    0.122E-03
DAV:   8    -0.103712058448E+03   -0.42495E-05   -0.22093E-07   108   0.131E-03    0.562E-04
DAV:   9    -0.103712062225E+03   -0.37769E-05   -0.18918E-07   108   0.118E-03    0.427E-04
DAV:  10    -0.103712067873E+03   -0.56487E-05   -0.33311E-07   108   0.134E-03    0.325E-04
DAV:  11    -0.103712069869E+03   -0.19952E-05   -0.71680E-08   108   0.713E-04    0.194E-04
DAV:  12    -0.103712070831E+03   -0.96200E-06   -0.68317E-09   108   0.334E-04
  73 F= -.10371207E+03 E0= -.10371207E+03  d E =-.745970E-11
       N       E                     dE             d eps       ncg     rms          rms(c)
DAV:   1    -0.103714498198E+03   -0.24283E-02   -0.28028E-01    96   0.180E+00    0.182E-01
DAV:   2    -0.103714357230E+03    0.14097E-03   -0.26920E-03   120   0.171E-01    0.919E-02
DAV:   3    -0.103714218628E+03    0.13860E-03   -0.36920E-04   132   0.581E-02    0.324E-02
DAV:   4    -0.103714214590E+03    0.40372E-05   -0.11136E-04   144   0.308E-02    0.135E-02
DAV:   5    -0.103714215959E+03   -0.13685E-05   -0.37647E-06   132   0.777E-03    0.665E-03
DAV:   6    -0.103714220086E+03   -0.41273E-05   -0.30914E-06   132   0.619E-03    0.131E-03
DAV:   7    -0.103714223128E+03   -0.30423E-05   -0.90988E-07   120   0.321E-03    0.979E-04
DAV:   8    -0.103714226430E+03   -0.33017E-05   -0.12495E-07   108   0.100E-03    0.361E-04
DAV:   9    -0.103714229794E+03   -0.33633E-05   -0.14914E-07   108   0.102E-03    0.281E-04
DAV:  10    -0.103714233041E+03   -0.32473E-05   -0.19796E-07   108   0.107E-03    0.226E-04
DAV:  11    -0.103714234525E+03   -0.14842E-05   -0.76295E-08   108   0.646E-04    0.105E-04
DAV:  12    -0.103714235241E+03   -0.71570E-06   -0.93670E-09   108   0.340E-04
  74 F= -.10371424E+03 E0= -.10371424E+03  d E =-.570402E-11
[...]
DAV:   4    -0.103714768747E+03   -0.56759E-05   -0.48468E-05   120   0.228E-02    0.838E-03
DAV:   5    -0.103714769326E+03   -0.57923E-06   -0.14350E-06   120   0.412E-03
 131 F= -.10371477E+03 E0= -.10371477E+03  d E =-.106662E-10
       N       E                     dE             d eps       ncg     rms          rms(c)
DAV:   1    -0.103714540331E+03    0.22842E-03   -0.26155E-01    96   0.150E+00    0.110E-01
DAV:   2    -0.103714490877E+03    0.49454E-04   -0.10273E-03   132   0.107E-01    0.639E-02
DAV:   3    -0.103714445589E+03    0.45288E-04   -0.17074E-04   132   0.418E-02    0.889E-03
DAV:   4    -0.103714448185E+03   -0.25959E-05   -0.25274E-05   132   0.169E-02    0.648E-03
DAV:   5    -0.103714448406E+03   -0.22162E-06   -0.75196E-07   108   0.322E-03
 132 F= -.10371445E+03 E0= -.10371445E+03  d E =-.760927E-11
       N       E                     dE             d eps       ncg     rms          rms(c)
DAV:   1    -0.103714617698E+03   -0.16951E-03   -0.52879E-01    96   0.213E+00    0.168E-01
DAV:   2    -0.103714515504E+03    0.10219E-03   -0.23899E-03   132   0.160E-01    0.952E-02
DAV:   3    -0.103714401576E+03    0.11393E-03   -0.38705E-04   132   0.608E-02    0.173E-02
DAV:   4    -0.103714404850E+03   -0.32743E-05   -0.62590E-05   120   0.257E-02    0.102E-02
DAV:   5    -0.103714404523E+03    0.32748E-06   -0.25206E-06   132   0.569E-03
 133 F= -.10371440E+03 E0= -.10371440E+03  d E =-.773860E-11
       N       E                     dE             d eps       ncg     rms          rms(c)
DAV:   1    -0.103714305107E+03    0.99743E-04   -0.27104E-01    96   0.205E+00    0.145E-01
DAV:   2    -0.103714271517E+03    0.33590E-04   -0.20336E-03   120   0.170E-01    0.785E-02
DAV:   3    -0.103714199361E+03    0.72156E-04   -0.17158E-04   132   0.434E-02    0.260E-02
DAV:   4    -0.103714198949E+03    0.41175E-06   -0.49607E-05   132   0.221E-02    0.622E-03
DAV:   5    -0.103714198228E+03    0.72086E-06   -0.32980E-06   132   0.701E-03
 134 F= -.10371420E+03 E0= -.10371420E+03  d E =-.835967E-11
       N       E                     dE             d eps       ncg     rms          rms(c)
DAV:   1    -0.103714626478E+03   -0.42753E-03   -0.55366E-01    96   0.273E+00    0.234E-01
DAV:   2    -0.103714338010E+03    0.28847E-03   -0.35345E-03   132   0.208E-01    0.122E-01
DAV:   3    -0.103714115950E+03    0.22206E-03   -0.45500E-04   132   0.652E-02    0.404E-02
DAV:   4    -0.103714107163E+03    0.87862E-05   -0.11655E-04   132   0.328E-02    0.121E-02
DAV:   5    -0.103714107573E+03   -0.40902E-06   -0.79959E-06   132   0.113E-02
 135 F= -.10371411E+03 E0= -.10371411E+03  d E =-.602436E-11
       N       E                     dE             d eps       ncg     rms          rms(c)
DAV:   1    -0.103713511783E+03    0.59538E-03   -0.28990E-01    96   0.191E+00    0.216E-01
DAV:   2    -0.103713287855E+03    0.22393E-03   -0.25758E-03   132   0.184E-01    0.103E-01
DAV:   3    -0.103713143050E+03    0.14481E-03   -0.39229E-04   132   0.669E-02    0.385E-02
DAV:   4    -0.103713141813E+03    0.12371E-05   -0.12973E-04   132   0.366E-02    0.141E-02
DAV:   5    -0.103713140548E+03    0.12643E-05   -0.64432E-06   132   0.103E-02    0.639E-03
DAV:   6    -0.103713140697E+03   -0.14895E-06   -0.28648E-06   132   0.637E-03
 136 F= -.10371314E+03 E0= -.10371314E+03  d E =-.745024E-11
       N       E                     dE             d eps       ncg     rms          rms(c)
DAV:   1    -0.103713966729E+03   -0.82618E-03   -0.57409E-01    96   0.276E+00    0.275E-01
DAV:   2    -0.103713442644E+03    0.52409E-03   -0.45860E-03   132   0.249E-01    0.138E-01
DAV:   3    -0.103713142940E+03    0.29970E-03   -0.82160E-04   132   0.945E-02    0.459E-02
DAV:   4    -0.103713142409E+03    0.53088E-06   -0.21113E-04   132   0.486E-02    0.193E-02
DAV:   5    -0.103713141807E+03    0.60202E-06   -0.91594E-06   132   0.118E-02
 137 F= -.10371314E+03 E0= -.10371314E+03  d E =-.688284E-11
       N       E                     dE             d eps       ncg     rms          rms(c)
DAV:   1    -0.103714789568E+03   -0.16472E-02   -0.28859E-01    96   0.197E+00    0.206E-01
DAV:   2    -0.103714532201E+03    0.25737E-03   -0.23312E-03   144   0.181E-01    0.101E-01
DAV:   3    -0.103714390350E+03    0.14185E-03   -0.39844E-04   132   0.662E-02    0.350E-02
DAV:   4    -0.103714391526E+03   -0.11767E-05   -0.11655E-04   132   0.352E-02    0.136E-02
DAV:   5    -0.103714390930E+03    0.59605E-06   -0.49656E-06   132   0.914E-03
 138 F= -.10371439E+03 E0= -.10371439E+03  d E =-.750370E-11
       N       E                     dE             d eps       ncg     rms          rms(c)
DAV:   1    -0.103714778245E+03   -0.38672E-03   -0.54759E-01    96   0.275E+00    0.228E-01
DAV:   2    -0.103714477724E+03    0.30052E-03   -0.33601E-03   132   0.210E-01    0.120E-01
DAV:   3    -0.103714273111E+03    0.20461E-03   -0.46881E-04   132   0.684E-02    0.369E-02
DAV:   4    -0.103714274731E+03   -0.16205E-05   -0.10510E-04   132   0.325E-02    0.116E-02
DAV:   5    -0.103714275058E+03   -0.32690E-06   -0.64454E-06   132   0.100E-02
 139 F= -.10371428E+03 E0= -.10371428E+03  d E =-.690544E-11
       N       E                     dE             d eps       ncg     rms          rms(c)
DAV:   1    -0.103714120621E+03    0.15411E-03   -0.27647E-01    96   0.198E+00    0.169E-01
DAV:   2    -0.103714017318E+03    0.10330E-03   -0.18463E-03   120   0.153E-01    0.875E-02
DAV:   3    -0.103713923574E+03    0.93744E-04   -0.24353E-04   132   0.460E-02    0.289E-02
DAV:   4    -0.103713919786E+03    0.37885E-05   -0.46813E-05   132   0.204E-02    0.101E-02
DAV:   5    -0.103713918158E+03    0.16276E-05   -0.28234E-06   132   0.777E-03    0.486E-03
DAV:   6    -0.103713918197E+03   -0.38669E-07   -0.23180E-06   132   0.588E-03
 140 F= -.10371392E+03 E0= -.10371392E+03  d E =-.785939E-11
       N       E                     dE             d eps       ncg     rms          rms(c)
DAV:   1    -0.103714544339E+03   -0.62618E-03   -0.55685E-01    96   0.261E+00    0.247E-01
DAV:   2    -0.103714181080E+03    0.36326E-03   -0.35128E-03   132   0.211E-01    0.124E-01
DAV:   3    -0.103713960473E+03    0.22061E-03   -0.50970E-04   132   0.677E-02    0.413E-02
DAV:   4    -0.103713950524E+03    0.99494E-05   -0.11406E-04   132   0.330E-02    0.128E-02
DAV:   5    -0.103713950625E+03   -0.10100E-06   -0.73138E-06   132   0.112E-02
 141 F= -.10371395E+03 E0= -.10371395E+03  d E =-.625276E-11
       N       E                     dE             d eps       ncg     rms          rms(c)
DAV:   1    -0.103713094634E+03    0.85589E-03   -0.27315E-01    96   0.187E+00    0.139E-01
DAV:   2    -0.103712958928E+03    0.13571E-03   -0.14986E-03   132   0.134E-01    0.788E-02
DAV:   3    -0.103712872161E+03    0.86767E-04   -0.26614E-04   132   0.530E-02    0.162E-02
DAV:   4    -0.103712877387E+03   -0.52265E-05   -0.49056E-05   132   0.234E-02    0.872E-03
DAV:   5    -0.103712877964E+03   -0.57660E-06   -0.12307E-06   120   0.428E-03
 142 F= -.10371288E+03 E0= -.10371288E+03  d E =-.714738E-11
       N       E                     dE             d eps       ncg     rms          rms(c)
DAV:   1    -0.103713656629E+03   -0.77924E-03   -0.58197E-01    96   0.268E+00    0.293E-01
DAV:   2    -0.103713089378E+03    0.56725E-03   -0.45165E-03   132   0.250E-01    0.142E-01
DAV:   3    -0.103712777948E+03    0.31143E-03   -0.89680E-04   132   0.998E-02    0.480E-02
DAV:   4    -0.103712778754E+03   -0.80588E-06   -0.23837E-04   132   0.509E-02    0.196E-02
DAV:   5    -0.103712776908E+03    0.18459E-05   -0.94176E-06   132   0.122E-02    0.884E-03
DAV:   6    -0.103712776870E+03    0.38746E-07   -0.49745E-06   120   0.897E-03
 143 F= -.10371278E+03 E0= -.10371278E+03  d E =-.772420E-11
       N       E                     dE             d eps       ncg     rms          rms(c)
DAV:   1    -0.103715124099E+03   -0.23472E-02   -0.28196E-01    96   0.192E+00    0.169E-01
DAV:   2    -0.103714910429E+03    0.21367E-03   -0.19580E-03   132   0.163E-01    0.898E-02
DAV:   3    -0.103714795483E+03    0.11495E-03   -0.34046E-04   132   0.613E-02    0.256E-02
DAV:   4    -0.103714800825E+03   -0.53423E-05   -0.80642E-05   132   0.297E-02    0.113E-02
DAV:   5    -0.103714800995E+03   -0.17010E-06   -0.29126E-06   132   0.675E-03
 144 F= -.10371480E+03 E0= -.10371480E+03  d E =-.878946E-11
       N       E                     dE             d eps       ncg     rms          rms(c)
DAV:   1    -0.103715351301E+03   -0.55048E-03   -0.54300E-01    96   0.261E+00    0.201E-01
DAV:   2    -0.103715063422E+03    0.28788E-03   -0.27205E-03   132   0.192E-01    0.112E-01
DAV:   3    -0.103714891517E+03    0.17191E-03   -0.45569E-04   132   0.683E-02    0.237E-02
DAV:   4    -0.103714897603E+03   -0.60859E-05   -0.73485E-05   132   0.283E-02    0.891E-03
DAV:   5    -0.103714898053E+03   -0.45066E-06   -0.31887E-06   132   0.661E-03
 145 F= -.10371490E+03 E0= -.10371490E+03  d E =-.611063E-11
       N       E                     dE             d eps       ncg     rms          rms(c)
DAV:   1    -0.103714268132E+03    0.62947E-03   -0.27071E-01    96   0.198E+00    0.134E-01
DAV:   2    -0.103714199918E+03    0.68215E-04   -0.18149E-03   132   0.159E-01    0.761E-02
DAV:   3    -0.103714126643E+03    0.73275E-04   -0.22970E-04   132   0.494E-02    0.181E-02
DAV:   4    -0.103714129825E+03   -0.31819E-05   -0.44859E-05   132   0.216E-02    0.712E-03
DAV:   5    -0.103714129773E+03    0.52107E-07   -0.15490E-06   108   0.501E-03
 146 F= -.10371413E+03 E0= -.10371413E+03  d E =-.723177E-11
       N       E                     dE             d eps       ncg     rms          rms(c)
DAV:   1    -0.103714319180E+03   -0.18936E-03   -0.53622E-01    96   0.214E+00    0.178E-01
DAV:   2    -0.103714161815E+03    0.15737E-03   -0.29930E-03   132   0.162E-01    0.100E-01
DAV:   3    -0.103714008373E+03    0.15344E-03   -0.46517E-04   132   0.591E-02    0.205E-02
DAV:   4    -0.103714011277E+03   -0.29038E-05   -0.86963E-05   132   0.265E-02    0.992E-03
DAV:   5    -0.103714010526E+03    0.75069E-06   -0.27554E-06   132   0.556E-03
 147 F= -.10371401E+03 E0= -.10371401E+03  d E =-.729489E-11
       N       E                     dE             d eps       ncg     rms          rms(c)
DAV:   1    -0.103712839751E+03    0.11715E-02   -0.26370E-01    96   0.148E+00    0.112E-01
DAV:   2    -0.103712774209E+03    0.65541E-04   -0.99960E-04   120   0.925E-02    0.636E-02
DAV:   3    -0.103712718254E+03    0.55955E-04   -0.16357E-04   132   0.363E-02    0.104E-02
DAV:   4    -0.103712721174E+03   -0.29199E-05   -0.24998E-05   132   0.154E-02    0.570E-03
DAV:   5    -0.103712722557E+03   -0.13827E-05   -0.94940E-07   108   0.345E-03    0.379E-03
DAV:   6    -0.103712725906E+03   -0.33496E-05   -0.90518E-07   120   0.313E-03    0.718E-04
DAV:   7    -0.103712727738E+03   -0.18317E-05   -0.22224E-07   108   0.158E-03    0.619E-04
DAV:   8    -0.103712731217E+03   -0.34789E-05   -0.21585E-07    96   0.154E-03    0.274E-04
DAV:   9    -0.103712733070E+03   -0.18535E-05   -0.12728E-07   108   0.985E-04    0.237E-04
DAV:  10    -0.103712734970E+03   -0.18995E-05   -0.59842E-08    84   0.618E-04    0.123E-04
DAV:  11    -0.103712736010E+03   -0.10400E-05   -0.33333E-08   108   0.386E-04    0.787E-05
DAV:  12    -0.103712736705E+03   -0.69513E-06   -0.13294E-08   108   0.272E-04
 148 F= -.10371274E+03 E0= -.10371274E+03  d E =-.696756E-11
       N       E                     dE             d eps       ncg     rms          rms(c)
DAV:   1    -0.103713471207E+03   -0.73520E-03   -0.54124E-01   108   0.215E+00    0.205E-01
DAV:   2    -0.103713405798E+03    0.65409E-04   -0.42434E-03   132   0.184E-01    0.110E-01
DAV:   3    -0.103713209634E+03    0.19616E-03   -0.46981E-04   132   0.567E-02    0.331E-02
DAV:   4    -0.103713198887E+03    0.10748E-04   -0.10765E-04   132   0.271E-02    0.113E-02
DAV:   5    -0.103713196414E+03    0.24724E-05   -0.61197E-06   132   0.932E-03    0.557E-03
DAV:   6    -0.103713198864E+03   -0.24494E-05   -0.41341E-06   132   0.665E-03    0.178E-03
DAV:   7    -0.103713203054E+03   -0.41903E-05   -0.11946E-06   132   0.344E-03    0.134E-03
DAV:   8    -0.103713208892E+03   -0.58375E-05   -0.32645E-07   108   0.184E-03    0.566E-04
DAV:   9    -0.103713213796E+03   -0.49039E-05   -0.29747E-07   108   0.139E-03    0.379E-04
DAV:  10    -0.103713220110E+03   -0.63143E-05   -0.32320E-07   108   0.121E-03    0.214E-04
DAV:  11    -0.103713222982E+03   -0.28725E-05   -0.78102E-08   108   0.660E-04    0.149E-04
DAV:  12    -0.103713225367E+03   -0.23849E-05   -0.39479E-08   108   0.425E-04    0.931E-05
DAV:  13    -0.103713226447E+03   -0.10797E-05   -0.12097E-08   108   0.272E-04    0.463E-05
DAV:  14    -0.103713227279E+03   -0.83192E-06   -0.46816E-09   108   0.199E-04
 149 F= -.10371323E+03 E0= -.10371323E+03  d E =-.744530E-11
       N       E                     dE             d eps       ncg     rms          rms(c)
DAV:   1    -0.103715120894E+03   -0.18944E-02   -0.26592E-01    96   0.153E+00    0.127E-01
DAV:   2    -0.103715037219E+03    0.83675E-04   -0.13486E-03   132   0.115E-01    0.714E-02
DAV:   3    -0.103714964293E+03    0.72926E-04   -0.21620E-04   132   0.433E-02    0.146E-02
DAV:   4    -0.103714965116E+03   -0.82317E-06   -0.36522E-05   120   0.186E-02    0.759E-03
DAV:   5    -0.103714965429E+03   -0.31248E-06   -0.14130E-06   120   0.429E-03
 150 F= -.10371497E+03 E0= -.10371497E+03  d E =-.736213E-11
       N       E                     dE             d eps       ncg     rms          rms(c)
DAV:   1    -0.103715010145E+03   -0.45029E-04   -0.52535E-01    96   0.217E+00    0.159E-01
DAV:   2    -0.103714870936E+03    0.13921E-03   -0.18965E-03   132   0.136E-01    0.915E-02
DAV:   3    -0.103714766013E+03    0.10492E-03   -0.34729E-04   132   0.585E-02    0.123E-02
DAV:   4    -0.103714772827E+03   -0.68136E-05   -0.56031E-05   132   0.243E-02    0.920E-03
DAV:   5    -0.103714773757E+03   -0.93036E-06   -0.16588E-06   120   0.447E-03
 151 F= -.10371477E+03 E0= -.10371477E+03  d E =-.701616E-11
       N       E                     dE             d eps       ncg     rms          rms(c)
DAV:   1    -0.103712684940E+03    0.20879E-02   -0.26631E-01    96   0.155E+00    0.130E-01
DAV:   2    -0.103712636442E+03    0.48498E-04   -0.18886E-03   132   0.130E-01    0.712E-02
DAV:   3    -0.103712559650E+03    0.76792E-04   -0.21828E-04   132   0.452E-02    0.190E-02
DAV:   4    -0.103712562259E+03   -0.26094E-05   -0.57457E-05   132   0.219E-02    0.767E-03
DAV:   5    -0.103712563342E+03   -0.10827E-05   -0.21365E-06   132   0.513E-03    0.561E-03
DAV:   6    -0.103712567044E+03   -0.37024E-05   -0.15776E-06   108   0.416E-03    0.109E-03
DAV:   7    -0.103712569307E+03   -0.22630E-05   -0.60842E-07   108   0.235E-03    0.907E-04
DAV:   8    -0.103712571672E+03   -0.23650E-05   -0.11953E-07   108   0.120E-03    0.409E-04
DAV:   9    -0.103712575370E+03   -0.36974E-05   -0.24827E-07   108   0.135E-03    0.480E-04
DAV:  10    -0.103712576435E+03   -0.10654E-05   -0.58395E-08   108   0.736E-04    0.181E-04
DAV:  11    -0.103712577897E+03   -0.14619E-05   -0.66166E-08   108   0.598E-04    0.236E-04
DAV:  12    -0.103712578735E+03   -0.83808E-06   -0.34565E-08   108   0.409E-04
 152 F= -.10371258E+03 E0= -.10371258E+03  d E =-.653499E-11
       N       E                     dE             d eps       ncg     rms          rms(c)
DAV:   1    -0.103713196691E+03   -0.61879E-03   -0.54541E-01   108   0.215E+00    0.206E-01
DAV:   2    -0.103713087380E+03    0.10931E-03   -0.45429E-03   132   0.200E-01    0.114E-01
DAV:   3    -0.103712870486E+03    0.21689E-03   -0.54858E-04   132   0.644E-02    0.309E-02
DAV:   4    -0.103712866940E+03    0.35456E-05   -0.13692E-04   132   0.307E-02    0.120E-02
DAV:   5    -0.103712865050E+03    0.18900E-05   -0.55071E-06   132   0.829E-03    0.688E-03
DAV:   6    -0.103712867165E+03   -0.21150E-05   -0.42455E-06   132   0.690E-03    0.168E-03
DAV:   7    -0.103712870891E+03   -0.37259E-05   -0.14630E-06   132   0.362E-03    0.138E-03
DAV:   8    -0.103712877175E+03   -0.62838E-05   -0.35345E-07   108   0.166E-03    0.430E-04
DAV:   9    -0.103712881156E+03   -0.39810E-05   -0.23211E-07   108   0.116E-03    0.448E-04
DAV:  10    -0.103712886454E+03   -0.52979E-05   -0.21792E-07   108   0.108E-03    0.213E-04
DAV:  11    -0.103712889105E+03   -0.26514E-05   -0.81876E-08   108   0.644E-04    0.220E-04
DAV:  12    -0.103712890856E+03   -0.17504E-05   -0.25500E-08   108   0.424E-04    0.928E-05
DAV:  13    -0.103712892013E+03   -0.11578E-05   -0.10589E-08   108   0.280E-04    0.740E-05
DAV:  14    -0.103712893072E+03   -0.10590E-05   -0.12688E-08    96   0.256E-04    0.356E-05
DAV:  15    -0.103712893361E+03   -0.28879E-06    0.40538E-09   108   0.111E-04
 153 F= -.10371289E+03 E0= -.10371289E+03  d E =-.760065E-11
       N       E                     dE             d eps       ncg     rms          rms(c)
DAV:   1    -0.103714810117E+03   -0.19170E-02   -0.26914E-01   108   0.154E+00    0.140E-01
DAV:   2    -0.103714722288E+03    0.87829E-04   -0.17636E-03   132   0.122E-01    0.760E-02
DAV:   3    -0.103714627921E+03    0.94367E-04   -0.23829E-04   132   0.398E-02    0.201E-02
DAV:   4    -0.103714623254E+03    0.46676E-05   -0.38920E-05   132   0.177E-02    0.790E-03
DAV:   5    -0.103714624655E+03   -0.14017E-05   -0.26238E-06   132   0.588E-03    0.410E-03
DAV:   6    -0.103714629303E+03   -0.46474E-05   -0.17399E-06   132   0.426E-03    0.111E-03
DAV:   7    -0.103714633666E+03   -0.43629E-05   -0.47385E-07   108   0.229E-03    0.821E-04
DAV:   8    -0.103714639223E+03   -0.55571E-05   -0.31491E-07   108   0.152E-03    0.387E-04
DAV:   9    -0.103714643333E+03   -0.41107E-05   -0.24731E-07   108   0.121E-03    0.233E-04
DAV:  10    -0.103714646786E+03   -0.34526E-05   -0.22463E-07   108   0.991E-04    0.129E-04
DAV:  11    -0.103714647963E+03   -0.11772E-05   -0.45880E-08   108   0.489E-04    0.102E-04
DAV:  12    -0.103714648903E+03   -0.93932E-06   -0.23862E-08   108   0.346E-04
 154 F= -.10371465E+03 E0= -.10371465E+03  d E =-.703007E-11
       N       E                     dE             d eps       ncg     rms          rms(c)
DAV:   1    -0.103715208872E+03   -0.56091E-03   -0.53136E-01    96   0.211E+00    0.160E-01
DAV:   2    -0.103715088831E+03    0.12004E-03   -0.20333E-03   132   0.129E-01    0.918E-02
DAV:   3    -0.103714974284E+03    0.11455E-03   -0.34189E-04   132   0.506E-02    0.145E-02
DAV:   4    -0.103714976669E+03   -0.23846E-05   -0.50636E-05   132   0.214E-02    0.756E-03
DAV:   5    -0.103714976242E+03    0.42617E-06   -0.19537E-06   132   0.474E-03
 155 F= -.10371498E+03 E0= -.10371498E+03  d E =-.770991E-11
       N       E                     dE             d eps       ncg     rms          rms(c)
DAV:   1    -0.103714657852E+03    0.31882E-03   -0.26445E-01    96   0.151E+00    0.115E-01
DAV:   2    -0.103714587990E+03    0.69862E-04   -0.10157E-03   132   0.101E-01    0.664E-02
DAV:   3    -0.103714540386E+03    0.47605E-04   -0.19015E-04   132   0.436E-02    0.868E-03
DAV:   4    -0.103714544872E+03   -0.44862E-05   -0.33836E-05   120   0.185E-02    0.679E-03
DAV:   5    -0.103714545394E+03   -0.52194E-06   -0.73909E-07   108   0.325E-03
 156 F= -.10371455E+03 E0= -.10371455E+03  d E =-.766770E-11
       N       E                     dE             d eps       ncg     rms          rms(c)
DAV:   1    -0.103714474410E+03    0.70461E-04   -0.52672E-01    96   0.219E+00    0.172E-01
DAV:   2    -0.103714342489E+03    0.13192E-03   -0.24262E-03   132   0.153E-01    0.968E-02
DAV:   3    -0.103714213130E+03    0.12936E-03   -0.37850E-04   132   0.571E-02    0.192E-02
DAV:   4    -0.103714215262E+03   -0.21326E-05   -0.58583E-05   132   0.240E-02    0.102E-02
DAV:   5    -0.103714215397E+03   -0.13465E-06   -0.26102E-06   132   0.561E-03
 157 F= -.10371422E+03 E0= -.10371422E+03  d E =-.651214E-11
