       N       E                     dE             d eps       ncg     rms          rms(c)
DAV:   1     0.243409472970E+03    0.24341E+03   -0.10223E+04   120   0.484E+02
DAV:   2    -0.253299482685E+02   -0.26874E+03   -0.25474E+03   156   0.923E+01
DAV:   3    -0.105201015038E+03   -0.79871E+02   -0.79665E+02   120   0.552E+01
DAV:   4    -0.109116078979E+03   -0.39151E+01   -0.39018E+01   120   0.176E+01
DAV:   5    -0.109205620970E+03   -0.89542E-01   -0.89452E-01   168   0.300E+00    0.161E+01
DAV:   6    -0.105566457461E+03    0.36392E+01   -0.16487E+00   108   0.441E+00    0.935E+00
DAV:   7    -0.103684255357E+03    0.18822E+01   -0.44774E+00   120   0.649E+00    0.134E+00
DAV:   8    -0.103631638746E+03    0.52617E-01   -0.34885E-01   132   0.223E+00    0.704E-01
DAV:   9    -0.103598582382E+03    0.33056E-01   -0.61664E-02   132   0.687E-01    0.366E-01
DAV:  10    -0.103596477608E+03    0.21048E-02   -0.40423E-03   120   0.222E-01    0.150E-01
DAV:  11    -0.103595038878E+03    0.14387E-02   -0.63007E-03   120   0.212E-01    0.102E-01
DAV:  12    -0.103600617870E+03   -0.55790E-02   -0.17200E-03   132   0.111E-01    0.488E-02
DAV:  13    -0.103603860852E+03   -0.32430E-02   -0.18000E-03   120   0.102E-01    0.402E-02
DAV:  14    -0.103607307236E+03   -0.34464E-02   -0.19112E-04   144   0.446E-02    0.219E-02
DAV:  15    -0.103612420548E+03   -0.51133E-02   -0.55464E-04   120   0.555E-02    0.135E-02
DAV:  16    -0.103613897415E+03   -0.14769E-02   -0.77870E-05   132   0.242E-02    0.805E-03
DAV:  17    -0.103615428157E+03   -0.15307E-02   -0.15218E-04   120   0.262E-02    0.727E-03
DAV:  18    -0.103615685692E+03   -0.25754E-03   -0.60574E-06   132   0.641E-03    0.192E-03
DAV:  19    -0.103615947969E+03   -0.26228E-03   -0.12145E-05   108   0.762E-03    0.207E-03
DAV:  20    -0.103616005138E+03   -0.57169E-04   -0.95144E-07   108   0.318E-03    0.717E-04
DAV:  21    -0.103616041155E+03   -0.36017E-04   -0.95456E-07    96   0.231E-03    0.479E-04
DAV:  22    -0.103616050990E+03   -0.98349E-05   -0.21382E-07   108   0.115E-03    0.229E-04
DAV:  23    -0.103616055376E+03   -0.43852E-05   -0.72329E-08   108   0.651E-04    0.193E-04
DAV:  24    -0.103616058865E+03   -0.34898E-05   -0.51032E-08   108   0.555E-04    0.104E-04
DAV:  25    -0.103616059645E+03   -0.77971E-06   -0.84405E-09   108   0.301E-04
   1 F= -.10361606E+03 E0= -.10361606E+03  d E =-.129243E-10
       N       E                     dE             d eps       ncg     rms          rms(c)
DAV:   1    -0.103612714172E+03    0.33447E-02   -0.82792E-02    96   0.837E-01    0.133E-01
DAV:   2    -0.103613030298E+03   -0.31613E-03   -0.37516E-03   132   0.211E-01    0.572E-02
DAV:   3    -0.103613015404E+03    0.14894E-04   -0.15238E-04   144   0.455E-02    0.298E-02
DAV:   4    -0.103613018794E+03   -0.33900E-05   -0.36711E-05   144   0.221E-02    0.936E-03
DAV:   5    -0.103613018001E+03    0.79329E-06   -0.59365E-06   132   0.962E-03
   2 F= -.10361302E+03 E0= -.10361302E+03  d E =-.122858E-10
       N       E                     dE             d eps       ncg     rms          rms(c)
DAV:   1    -0.103611709139E+03    0.13097E-02   -0.33720E-01    96   0.167E+00    0.268E-01
DAV:   2    -0.103612990087E+03   -0.12809E-02   -0.15161E-02   132   0.425E-01    0.115E-01
DAV:   3    -0.103612935298E+03    0.54789E-04   -0.61172E-04   132   0.912E-02    0.610E-02
DAV:   4    -0.103612952873E+03   -0.17575E-04   -0.14386E-04   132   0.444E-02    0.186E-02
DAV:   5    -0.103612950709E+03    0.21635E-05   -0.24692E-05   132   0.197E-02    0.104E-02
DAV:   6    -0.103612950333E+03    0.37606E-06   -0.52634E-06   132   0.810E-03
   3 F= -.10361295E+03 E0= -.10361295E+03  d E =-.142739E-10
       N       E                     dE             d eps       ncg     rms          rms(c)
DAV:   1    -0.103612439600E+03    0.51111E-03   -0.16798E-01    96   0.118E+00    0.193E-01
DAV:   2    -0.103613127332E+03   -0.68773E-03   -0.79747E-03   132   0.297E-01    0.812E-02
DAV:   3    -0.103613096131E+03    0.31201E-04   -0.31107E-04   144   0.643E-02    0.438E-02
DAV:   4    -0.103613106471E+03   -0.10340E-04   -0.76254E-05   144   0.307E-02    0.136E-02
DAV:   5    -0.103613106290E+03    0.18090E-06   -0.12367E-05   132   0.134E-02    0.726E-03
DAV:   6    -0.103613106492E+03   -0.20152E-06   -0.26672E-06   132   0.553E-03
   4 F= -.10361311E+03 E0= -.10361311E+03  d E =-.127768E-10
       N       E                     dE             d eps       ncg     rms          rms(c)
DAV:   1    -0.103611421655E+03    0.16846E-02   -0.33531E-01    96   0.165E+00    0.268E-01
DAV:   2    -0.103612818896E+03   -0.13972E-02   -0.16085E-02   132   0.430E-01    0.117E-01
DAV:   3    -0.103612751773E+03    0.67123E-04   -0.61752E-04   144   0.925E-02    0.622E-02
DAV:   4    -0.103612765633E+03   -0.13860E-04   -0.15879E-04   132   0.455E-02    0.184E-02
DAV:   5    -0.103612762270E+03    0.33636E-05   -0.27922E-05   132   0.202E-02    0.104E-02
DAV:   6    -0.103612761898E+03    0.37139E-06   -0.55161E-06   132   0.804E-03
   5 F= -.10361276E+03 E0= -.10361276E+03  d E =-.130664E-10
       N       E                     dE             d eps       ncg     rms          rms(c)
DAV:   1    -0.103610676674E+03    0.20856E-02   -0.16539E-01    96   0.119E+00    0.189E-01
DAV:   2    -0.103611536999E+03   -0.86032E-03   -0.96031E-03   132   0.334E-01    0.957E-02
DAV:   3    -0.103611488349E+03    0.48650E-04   -0.32335E-04   132   0.700E-02    0.515E-02
DAV:   4    -0.103611494576E+03   -0.62272E-05   -0.11710E-04   132   0.390E-02    0.132E-02
DAV:   5    -0.103611492906E+03    0.16699E-05   -0.17901E-05   132   0.157E-02    0.804E-03
DAV:   6    -0.103611494321E+03   -0.14154E-05   -0.31568E-06   132   0.594E-03    0.525E-03
DAV:   7    -0.103611499862E+03   -0.55404E-05   -0.53814E-07   108   0.271E-03    0.161E-03
DAV:   8    -0.103611504525E+03   -0.46630E-05   -0.42054E-07   108   0.226E-03    0.712E-04
DAV:   9    -0.103611510197E+03   -0.56726E-05   -0.32792E-07   108   0.175E-03    0.532E-04
DAV:  10    -0.103611516885E+03   -0.66874E-05   -0.57182E-07   120   0.163E-03    0.540E-04
DAV:  11    -0.103611517913E+03   -0.10283E-05   -0.29207E-08   108   0.688E-04    0.376E-04
DAV:  12    -0.103611519805E+03   -0.18926E-05   -0.51063E-08   108   0.594E-04    0.150E-04
DAV:  13    -0.103611521033E+03   -0.12275E-05   -0.33115E-08   108   0.408E-04    0.119E-04
DAV:  14    -0.103611521958E+03   -0.92504E-06   -0.12870E-08   108   0.276E-04
   6 F= -.10361152E+03 E0= -.10361152E+03  d E =-.141597E-10
       N       E                     dE             d eps       ncg     rms          rms(c)
DAV:   1    -0.103609765468E+03    0.17556E-02   -0.33348E-01    96   0.168E+00    0.272E-01
DAV:   2    -0.103612036064E+03   -0.22706E-02   -0.24791E-02   120   0.512E-01    0.171E-01
DAV:   3    -0.103611854045E+03    0.18202E-03   -0.71459E-04   132   0.110E-01    0.899E-02
DAV:   4    -0.103611856415E+03   -0.23703E-05   -0.44910E-04   132   0.724E-02    0.172E-02
DAV:   5    -0.103611846722E+03    0.96927E-05   -0.61502E-05   132   0.280E-02    0.124E-02
DAV:   6    -0.103611846851E+03   -0.12823E-06   -0.10366E-05   132   0.898E-03    0.829E-03
DAV:   7    -0.103611857859E+03   -0.11008E-04   -0.93882E-07    96   0.362E-03    0.346E-03
DAV:   8    -0.103611876098E+03   -0.18239E-04   -0.24326E-06   132   0.545E-03    0.171E-03
DAV:   9    -0.103611887570E+03   -0.11472E-04   -0.10599E-06   132   0.274E-03    0.176E-03
DAV:  10    -0.103611904531E+03   -0.16961E-04   -0.58841E-07   108   0.181E-03    0.837E-04
DAV:  11    -0.103611913986E+03   -0.94556E-05   -0.54523E-07   120   0.144E-03    0.695E-04
DAV:  12    -0.103611920640E+03   -0.66538E-05   -0.14555E-07   108   0.925E-04    0.205E-04
DAV:  13    -0.103611925290E+03   -0.46503E-05   -0.13365E-07   108   0.722E-04    0.287E-04
DAV:  14    -0.103611927810E+03   -0.25198E-05   -0.25963E-08   108   0.432E-04    0.116E-04
DAV:  15    -0.103611929066E+03   -0.12564E-05   -0.12776E-08   108   0.294E-04    0.801E-05
DAV:  16    -0.103611929501E+03   -0.43457E-06    0.36358E-09   108   0.134E-04
   7 F= -.10361193E+03 E0= -.10361193E+03  d E =-.122256E-10
       N       E                     dE             d eps       ncg     rms          rms(c)
DAV:   1    -0.103610964808E+03    0.96426E-03   -0.19102E-01    96   0.136E+00    0.197E-01
DAV:   2    -0.103612336418E+03   -0.13716E-02   -0.14356E-02   120   0.434E-01    0.120E-01
DAV:   3    -0.103612255314E+03    0.81104E-04   -0.40687E-04   144   0.875E-02    0.655E-02
DAV:   4    -0.103612255907E+03   -0.59323E-06   -0.21913E-04   132   0.585E-02    0.125E-02
DAV:   5    -0.103612250776E+03    0.51309E-05   -0.42664E-05   132   0.239E-02    0.987E-03
DAV:   6    -0.103612251371E+03   -0.59506E-06   -0.42347E-06   132   0.674E-03
   8 F= -.10361225E+03 E0= -.10361225E+03  d E =-.111126E-10
       N       E                     dE             d eps       ncg     rms          rms(c)
DAV:   1    -0.103609920464E+03    0.23303E-02   -0.33578E-01    96   0.183E+00    0.262E-01
DAV:   2    -0.103611962072E+03   -0.20416E-02   -0.21054E-02   120   0.514E-01    0.154E-01
DAV:   3    -0.103611888311E+03    0.73762E-04   -0.54394E-04   132   0.926E-02    0.833E-02
DAV:   4    -0.103611884961E+03    0.33497E-05   -0.22629E-04   132   0.578E-02    0.157E-02
DAV:   5    -0.103611874643E+03    0.10318E-04   -0.42954E-05   144   0.250E-02    0.107E-02
DAV:   6    -0.103611874005E+03    0.63806E-06   -0.72307E-06   132   0.991E-03
   9 F= -.10361187E+03 E0= -.10361187E+03  d E =-.124349E-10
       N       E                     dE             d eps       ncg     rms          rms(c)
DAV:   1    -0.103610235578E+03    0.16391E-02   -0.17266E-01    96   0.129E+00    0.185E-01
DAV:   2    -0.103611314268E+03   -0.10787E-02   -0.10903E-02   132   0.377E-01    0.115E-01
DAV:   3    -0.103611293420E+03    0.20848E-04   -0.27907E-04   132   0.702E-02    0.625E-02
DAV:   4    -0.103611314332E+03   -0.20912E-04   -0.15218E-04   120   0.478E-02    0.121E-02
DAV:   5    -0.103611309857E+03    0.44751E-05   -0.30159E-05   132   0.207E-02    0.833E-03
DAV:   6    -0.103611310766E+03   -0.90921E-06   -0.61771E-06   132   0.776E-03
  10 F= -.10361131E+03 E0= -.10361131E+03  d E =-.155151E-10
       N       E                     dE             d eps       ncg     rms          rms(c)
DAV:   1    -0.103608443697E+03    0.28662E-02   -0.34628E-01    96   0.184E+00    0.263E-01
DAV:   2    -0.103611189122E+03   -0.27454E-02   -0.27713E-02   132   0.593E-01    0.186E-01
DAV:   3    -0.103611038231E+03    0.15089E-03   -0.63680E-04   144   0.112E-01    0.962E-02
DAV:   4    -0.103611065718E+03   -0.27488E-04   -0.50771E-04   120   0.860E-02    0.187E-02
DAV:   5    -0.103611049655E+03    0.16063E-04   -0.10623E-04   132   0.380E-02    0.131E-02
DAV:   6    -0.103611047293E+03    0.23621E-05   -0.19311E-05   132   0.122E-02    0.782E-03
DAV:   7    -0.103611059299E+03   -0.12006E-04   -0.14640E-06   120   0.426E-03    0.350E-03
DAV:   8    -0.103611077638E+03   -0.18340E-04   -0.32040E-06   132   0.516E-03    0.125E-03
DAV:   9    -0.103611091624E+03   -0.13985E-04   -0.12946E-06   132   0.294E-03    0.155E-03
DAV:  10    -0.103611108218E+03   -0.16594E-04   -0.13548E-06   120   0.250E-03    0.510E-04
DAV:  11    -0.103611112753E+03   -0.45346E-05   -0.12829E-07   108   0.977E-04    0.321E-04
DAV:  12    -0.103611119939E+03   -0.71864E-05   -0.33944E-07    96   0.113E-03    0.160E-04
DAV:  13    -0.103611121812E+03   -0.18727E-05   -0.50045E-08   108   0.460E-04    0.195E-04
DAV:  14    -0.103611124076E+03   -0.22639E-05   -0.41029E-08    96   0.467E-04    0.102E-04
DAV:  15    -0.103611124689E+03   -0.61325E-06   -0.70232E-09   108   0.249E-04
  11 F= -.10361112E+03 E0= -.10361112E+03  d E =-.109095E-10
       N       E                     dE             d eps       ncg     rms          rms(c)
DAV:   1    -0.103611366083E+03   -0.24201E-03   -0.17093E-01    96   0.132E+00    0.189E-01
DAV:   2    -0.103612573423E+03   -0.12073E-02   -0.12470E-02   132   0.403E-01    0.123E-01
DAV:   3    -0.103612503076E+03    0.70347E-04   -0.30130E-04   132   0.759E-02    0.664E-02
DAV:   4    -0.103612506594E+03   -0.35175E-05   -0.20875E-04   120   0.573E-02    0.127E-02
DAV:   5    -0.103612501078E+03    0.55160E-05   -0.46194E-05   132   0.258E-02    0.955E-03
DAV:   6    -0.103612502082E+03   -0.10042E-05   -0.92296E-06   132   0.914E-03    0.611E-03
DAV:   7    -0.103612510972E+03   -0.88906E-05   -0.10738E-06   108   0.396E-03    0.278E-03
DAV:   8    -0.103612524683E+03   -0.13711E-04   -0.14795E-06   132   0.358E-03    0.780E-04
DAV:   9    -0.103612535871E+03   -0.11189E-04   -0.85651E-07   108   0.260E-03    0.111E-03
DAV:  10    -0.103612548658E+03   -0.12787E-04   -0.12590E-06   108   0.235E-03    0.501E-04
DAV:  11    -0.103612552615E+03   -0.39563E-05   -0.14867E-07   108   0.104E-03    0.251E-04
DAV:  12    -0.103612555752E+03   -0.31372E-05   -0.98355E-08    96   0.697E-04    0.133E-04
DAV:  13    -0.103612557610E+03   -0.18584E-05   -0.50064E-08   108   0.475E-04    0.189E-04
DAV:  14    -0.103612558904E+03   -0.12939E-05   -0.20829E-08    96   0.348E-04    0.584E-05
DAV:  15    -0.103612559285E+03   -0.38080E-06   -0.58957E-11   108   0.178E-04
  12 F= -.10361256E+03 E0= -.10361256E+03  d E =-.122022E-10
       N       E                     dE             d eps       ncg     rms          rms(c)
DAV:   1    -0.103611052813E+03    0.15061E-02   -0.33468E-01    96   0.178E+00    0.269E-01
DAV:   2    -0.103612721498E+03   -0.16687E-02   -0.17762E-02   132   0.468E-01    0.133E-01
DAV:   3    -0.103612669161E+03    0.52337E-04   -0.57148E-04   132   0.935E-02    0.707E-02
DAV:   4    -0.103612679974E+03   -0.10813E-04   -0.18950E-04   132   0.558E-02    0.159E-02
DAV:   5    -0.103612673198E+03    0.67757E-05   -0.42931E-05   132   0.254E-02    0.116E-02
DAV:   6    -0.103612672836E+03    0.36278E-06   -0.70872E-06   132   0.934E-03
  13 F= -.10361267E+03 E0= -.10361267E+03  d E =-.147155E-10
       N       E                     dE             d eps       ncg     rms          rms(c)
DAV:   1    -0.103610148448E+03    0.25247E-02   -0.16626E-01    96   0.129E+00    0.193E-01
DAV:   2    -0.103611450384E+03   -0.13019E-02   -0.13495E-02   132   0.403E-01    0.116E-01
DAV:   3    -0.103611396921E+03    0.53463E-04   -0.36773E-04   144   0.788E-02    0.667E-02
DAV:   4    -0.103611417367E+03   -0.20447E-04   -0.19325E-04   132   0.563E-02    0.132E-02
DAV:   5    -0.103611416618E+03    0.74910E-06   -0.50756E-05   144   0.265E-02    0.107E-02
DAV:   6    -0.103611415135E+03    0.14836E-05   -0.56458E-06   132   0.824E-03    0.754E-03
DAV:   7    -0.103611418560E+03   -0.34257E-05   -0.18988E-06   120   0.521E-03    0.283E-03
DAV:   8    -0.103611423700E+03   -0.51391E-05   -0.52748E-07   108   0.334E-03    0.774E-04
DAV:   9    -0.103611429489E+03   -0.57899E-05   -0.46831E-07   108   0.224E-03    0.988E-04
DAV:  10    -0.103611438402E+03   -0.89128E-05   -0.48320E-07   108   0.177E-03    0.343E-04
DAV:  11    -0.103611440522E+03   -0.21198E-05   -0.10160E-07   108   0.875E-04    0.317E-04
DAV:  12    -0.103611443334E+03   -0.28117E-05   -0.59395E-08   108   0.649E-04    0.183E-04
DAV:  13    -0.103611446153E+03   -0.28190E-05   -0.95085E-08   108   0.640E-04    0.127E-04
DAV:  14    -0.103611447351E+03   -0.11984E-05   -0.19777E-08   108   0.334E-04    0.103E-04
DAV:  15    -0.103611448232E+03   -0.88111E-06   -0.94172E-09   108   0.264E-04
  14 F= -.10361145E+03 E0= -.10361145E+03  d E =-.145301E-10
       N       E                     dE             d eps       ncg     rms          rms(c)
DAV:   1    -0.103609083097E+03    0.23643E-02   -0.34327E-01    96   0.182E+00    0.264E-01
DAV:   2    -0.103611686763E+03   -0.26037E-02   -0.26637E-02   132   0.584E-01    0.177E-01
DAV:   3    -0.103611546601E+03    0.14016E-03   -0.62523E-04   132   0.107E-01    0.979E-02
DAV:   4    -0.103611547860E+03   -0.12587E-05   -0.41717E-04   120   0.812E-02    0.179E-02
DAV:   5    -0.103611539592E+03    0.82674E-05   -0.96977E-05   132   0.367E-02    0.134E-02
DAV:   6    -0.103611542478E+03   -0.28857E-05   -0.16615E-05   132   0.123E-02    0.896E-03
DAV:   7    -0.103611562635E+03   -0.20157E-04   -0.28886E-06   132   0.586E-03    0.359E-03
DAV:   8    -0.103611586810E+03   -0.24175E-04   -0.22812E-06   132   0.440E-03    0.113E-03
DAV:   9    -0.103611610517E+03   -0.23707E-04   -0.24517E-06   120   0.372E-03    0.167E-03
DAV:  10    -0.103611629871E+03   -0.19354E-04   -0.15485E-06   132   0.285E-03    0.736E-04
DAV:  11    -0.103611637298E+03   -0.74273E-05   -0.34069E-07   108   0.137E-03    0.313E-04
DAV:  12    -0.103611643561E+03   -0.62632E-05   -0.32226E-07   108   0.111E-03    0.235E-04
DAV:  13    -0.103611645434E+03   -0.18725E-05   -0.47840E-08   108   0.475E-04    0.220E-04
DAV:  14    -0.103611647275E+03   -0.18412E-05   -0.38625E-08    96   0.457E-04    0.682E-05
DAV:  15    -0.103611647773E+03   -0.49863E-06   -0.48760E-09   120   0.231E-04
  15 F= -.10361165E+03 E0= -.10361165E+03  d E =-.119897E-10
       N       E                     dE             d eps       ncg     rms          rms(c)
DAV:   1    -0.103611113215E+03    0.53406E-03   -0.17251E-01    96   0.131E+00    0.186E-01
DAV:   2    -0.103612390026E+03   -0.12768E-02   -0.13100E-02   132   0.414E-01    0.130E-01
DAV:   3    -0.103612312867E+03    0.77159E-04   -0.29823E-04   132   0.777E-02    0.688E-02
DAV:   4    -0.103612318211E+03   -0.53440E-05   -0.23809E-04   132   0.602E-02    0.133E-02
DAV:   5    -0.103612310849E+03    0.73626E-05   -0.50779E-05   132   0.267E-02    0.948E-03
DAV:   6    -0.103612311932E+03   -0.10833E-05   -0.98916E-06   132   0.878E-03    0.560E-03
DAV:   7    -0.103612321346E+03   -0.94140E-05   -0.61845E-07   108   0.296E-03    0.279E-03
DAV:   8    -0.103612339069E+03   -0.17722E-04   -0.22722E-06   132   0.427E-03    0.108E-03
DAV:   9    -0.103612348552E+03   -0.94837E-05   -0.69394E-07   108   0.240E-03    0.119E-03
DAV:  10    -0.103612363091E+03   -0.14539E-04   -0.12576E-06   108   0.228E-03    0.482E-04
DAV:  11    -0.103612366313E+03   -0.32220E-05   -0.94434E-08   108   0.904E-04    0.261E-04
DAV:  12    -0.103612369994E+03   -0.36808E-05   -0.10135E-07    96   0.715E-04    0.119E-04
DAV:  13    -0.103612371943E+03   -0.19488E-05   -0.46793E-08   108   0.460E-04    0.167E-04
DAV:  14    -0.103612373396E+03   -0.14534E-05   -0.21658E-08   108   0.346E-04    0.887E-05
DAV:  15    -0.103612373829E+03   -0.43295E-06    0.23055E-10   108   0.185E-04
  16 F= -.10361237E+03 E0= -.10361237E+03  d E =-.157931E-10
       N       E                     dE             d eps       ncg     rms          rms(c)
DAV:   1    -0.103609970920E+03    0.24025E-02   -0.33911E-01    96   0.182E+00    0.259E-01
DAV:   2    -0.103611896336E+03   -0.19254E-02   -0.20242E-02   132   0.511E-01    0.153E-01
DAV:   3    -0.103611809117E+03    0.87219E-04   -0.55928E-04   132   0.979E-02    0.793E-02
DAV:   4    -0.103611816638E+03   -0.75212E-05   -0.27795E-04   132   0.644E-02    0.168E-02
DAV:   5    -0.103611805722E+03    0.10916E-04   -0.54240E-05   132   0.281E-02    0.116E-02
DAV:   6    -0.103611805039E+03    0.68330E-06   -0.11682E-05   132   0.111E-02    0.699E-03
DAV:   7    -0.103611814646E+03   -0.96071E-05   -0.18803E-06   132   0.543E-03    0.268E-03
DAV:   8    -0.103611828371E+03   -0.13725E-04   -0.13520E-06   132   0.427E-03    0.115E-03
DAV:   9    -0.103611842951E+03   -0.14580E-04   -0.82467E-07   108   0.281E-03    0.113E-03
DAV:  10    -0.103611860557E+03   -0.17606E-04   -0.12230E-06   120   0.253E-03    0.533E-04
DAV:  11    -0.103611867680E+03   -0.71224E-05   -0.21113E-07   108   0.129E-03    0.296E-04
DAV:  12    -0.103611873327E+03   -0.56474E-05   -0.14415E-07    96   0.836E-04    0.239E-04
DAV:  13    -0.103611876582E+03   -0.32546E-05   -0.55147E-08   108   0.513E-04    0.182E-04
DAV:  14    -0.103611878781E+03   -0.21991E-05   -0.29127E-08   108   0.393E-04    0.675E-05
DAV:  15    -0.103611879721E+03   -0.94022E-06   -0.53426E-09   108   0.233E-04
  17 F= -.10361188E+03 E0= -.10361188E+03  d E =-.110702E-10
       N       E                     dE             d eps       ncg     rms          rms(c)
DAV:   1    -0.103611231080E+03    0.64770E-03   -0.17221E-01    96   0.132E+00    0.183E-01
DAV:   2    -0.103612268568E+03   -0.10375E-02   -0.10826E-02   120   0.381E-01    0.116E-01
DAV:   3    -0.103612217188E+03    0.51381E-04   -0.27241E-04   132   0.694E-02    0.617E-02
DAV:   4    -0.103612204099E+03    0.13089E-04   -0.13126E-04   132   0.438E-02    0.109E-02
DAV:   5    -0.103612199630E+03    0.44681E-05   -0.19988E-05   132   0.173E-02    0.786E-03
DAV:   6    -0.103612204318E+03   -0.46880E-05   -0.58936E-06   132   0.860E-03    0.448E-03
DAV:   7    -0.103612221510E+03   -0.17191E-04   -0.23657E-06   120   0.593E-03    0.155E-03
DAV:   8    -0.103612238932E+03   -0.17422E-04   -0.13437E-06   120   0.405E-03    0.106E-03
DAV:   9    -0.103612254801E+03   -0.15869E-04   -0.12806E-06   120   0.297E-03    0.974E-04
DAV:  10    -0.103612268899E+03   -0.14098E-04   -0.12650E-06   108   0.233E-03    0.385E-04
DAV:  11    -0.103612271388E+03   -0.24893E-05   -0.62869E-08   120   0.835E-04    0.270E-04
DAV:  12    -0.103612276762E+03   -0.53741E-05   -0.33367E-07    84   0.119E-03    0.131E-04
DAV:  13    -0.103612277655E+03   -0.89278E-06   -0.40824E-08   120   0.494E-04
  18 F= -.10361228E+03 E0= -.10361228E+03  d E =-.122862E-10
       N       E                     dE             d eps       ncg     rms          rms(c)
DAV:   1    -0.103610475302E+03    0.18015E-02   -0.33502E-01    96   0.182E+00    0.264E-01
DAV:   2    -0.103612353802E+03   -0.18785E-02   -0.19689E-02   132   0.499E-01    0.145E-01
DAV:   3    -0.103612276953E+03    0.76849E-04   -0.54405E-04   132   0.932E-02    0.764E-02
DAV:   4    -0.103612273975E+03    0.29779E-05   -0.21238E-04   132   0.572E-02    0.159E-02
DAV:   5    -0.103612263426E+03    0.10548E-04   -0.42384E-05   144   0.254E-02    0.108E-02
DAV:   6    -0.103612264536E+03   -0.11093E-05   -0.73821E-06   120   0.940E-03    0.705E-03
DAV:   7    -0.103612277169E+03   -0.12634E-04   -0.16563E-06   132   0.666E-03    0.210E-03
DAV:   8    -0.103612290896E+03   -0.13727E-04   -0.19789E-06   132   0.611E-03    0.188E-03
DAV:   9    -0.103612301680E+03   -0.10784E-04   -0.75958E-07   108   0.339E-03    0.145E-03
DAV:  10    -0.103612315583E+03   -0.13903E-04   -0.51559E-07   108   0.185E-03    0.681E-04
DAV:  11    -0.103612328227E+03   -0.12643E-04   -0.70727E-07   108   0.191E-03    0.499E-04
DAV:  12    -0.103612334497E+03   -0.62701E-05   -0.20474E-07   108   0.116E-03    0.314E-04
DAV:  13    -0.103612340007E+03   -0.55107E-05   -0.14899E-07   108   0.929E-04    0.447E-04
DAV:  14    -0.103612341770E+03   -0.17631E-05   -0.31214E-08   120   0.535E-04    0.230E-04
DAV:  15    -0.103612343162E+03   -0.13914E-05   -0.15361E-08   108   0.485E-04    0.252E-04
DAV:  16    -0.103612344170E+03   -0.10079E-05   -0.98421E-09    96   0.335E-04    0.116E-04
DAV:  17    -0.103612344512E+03   -0.34199E-06    0.23111E-09   120   0.163E-04
  19 F= -.10361234E+03 E0= -.10361234E+03  d E =-.143398E-10
       N       E                     dE             d eps       ncg     rms          rms(c)
DAV:   1    -0.103609953820E+03    0.23903E-02   -0.16951E-01    96   0.131E+00    0.185E-01
DAV:   2    -0.103611350005E+03   -0.13962E-02   -0.14201E-02   132   0.423E-01    0.119E-01
DAV:   3    -0.103611289814E+03    0.60191E-04   -0.31584E-04   144   0.724E-02    0.704E-02
DAV:   4    -0.103611279668E+03    0.10145E-04   -0.19207E-04   132   0.542E-02    0.116E-02
DAV:   5    -0.103611275817E+03    0.38515E-05   -0.54794E-05   132   0.266E-02    0.985E-03
DAV:   6    -0.103611275187E+03    0.62951E-06   -0.58829E-06   144   0.841E-03
  20 F= -.10361128E+03 E0= -.10361128E+03  d E =-.122406E-10
       N       E                     dE             d eps       ncg     rms          rms(c)
DAV:   1    -0.103609142923E+03    0.21329E-02   -0.35456E-01    96   0.170E+00    0.267E-01
DAV:   2    -0.103611521218E+03   -0.23783E-02   -0.24085E-02   132   0.526E-01    0.174E-01
DAV:   3    -0.103611426920E+03    0.94298E-04   -0.56130E-04   144   0.989E-02    0.911E-02
DAV:   4    -0.103611451566E+03   -0.24646E-04   -0.40049E-04   132   0.722E-02    0.176E-02
DAV:   5    -0.103611438793E+03    0.12772E-04   -0.83629E-05   132   0.323E-02    0.122E-02
DAV:   6    -0.103611441355E+03   -0.25613E-05   -0.14766E-05   132   0.102E-02    0.728E-03
DAV:   7    -0.103611456649E+03   -0.15295E-04   -0.11657E-06   120   0.371E-03    0.315E-03
DAV:   8    -0.103611476681E+03   -0.20032E-04   -0.22888E-06   120   0.426E-03    0.105E-03
DAV:   9    -0.103611492763E+03   -0.16082E-04   -0.16732E-06   120   0.319E-03    0.129E-03
DAV:  10    -0.103611509377E+03   -0.16614E-04   -0.14324E-06   108   0.268E-03    0.525E-04
DAV:  11    -0.103611512958E+03   -0.35806E-05   -0.12170E-07   108   0.101E-03    0.385E-04
DAV:  12    -0.103611518348E+03   -0.53900E-05   -0.20601E-07    96   0.989E-04    0.142E-04
DAV:  13    -0.103611520653E+03   -0.23057E-05   -0.97293E-08   108   0.649E-04    0.225E-04
DAV:  14    -0.103611522338E+03   -0.16845E-05   -0.31436E-08   108   0.442E-04    0.111E-04
DAV:  15    -0.103611522842E+03   -0.50396E-06   -0.39551E-09   108   0.239E-04
  21 F= -.10361152E+03 E0= -.10361152E+03  d E =-.178995E-10
       N       E                     dE             d eps       ncg     rms          rms(c)
DAV:   1    -0.103610829150E+03    0.69319E-03   -0.17212E-01    96   0.120E+00    0.180E-01
DAV:   2    -0.103611763602E+03   -0.93445E-03   -0.97606E-03   132   0.325E-01    0.106E-01
DAV:   3    -0.103611728004E+03    0.35598E-04   -0.24318E-04   132   0.592E-02    0.570E-02
DAV:   4    -0.103611724830E+03    0.31739E-05   -0.10662E-04   132   0.378E-02    0.112E-02
DAV:   5    -0.103611718787E+03    0.60426E-05   -0.21121E-05   132   0.168E-02    0.745E-03
DAV:   6    -0.103611718376E+03    0.41101E-06   -0.44666E-06   132   0.686E-03
  22 F= -.10361172E+03 E0= -.10361172E+03  d E =-.114437E-10
       N       E                     dE             d eps       ncg     rms          rms(c)
DAV:   1    -0.103609834463E+03    0.18843E-02   -0.34755E-01    96   0.170E+00    0.258E-01
DAV:   2    -0.103611926623E+03   -0.20922E-02   -0.21225E-02   132   0.491E-01    0.161E-01
DAV:   3    -0.103611869927E+03    0.56696E-04   -0.48088E-04   132   0.850E-02    0.939E-02
DAV:   4    -0.103611857152E+03    0.12775E-04   -0.25740E-04   132   0.596E-02    0.154E-02
DAV:   5    -0.103611849985E+03    0.71665E-05   -0.54286E-05   144   0.261E-02    0.117E-02
DAV:   6    -0.103611853470E+03   -0.34851E-05   -0.10186E-05   132   0.105E-02    0.691E-03
DAV:   7    -0.103611874023E+03   -0.20552E-04   -0.41948E-06   132   0.685E-03    0.257E-03
DAV:   8    -0.103611896792E+03   -0.22770E-04   -0.18467E-06   120   0.428E-03    0.118E-03
DAV:   9    -0.103611919554E+03   -0.22762E-04   -0.21377E-06   108   0.361E-03    0.120E-03
DAV:  10    -0.103611937015E+03   -0.17461E-04   -0.16046E-06   120   0.271E-03    0.607E-04
DAV:  11    -0.103611943890E+03   -0.68751E-05   -0.30750E-07   108   0.131E-03    0.236E-04
DAV:  12    -0.103611949077E+03   -0.51868E-05   -0.30728E-07   108   0.110E-03    0.178E-04
DAV:  13    -0.103611950693E+03   -0.16158E-05   -0.48356E-08   108   0.525E-04    0.143E-04
DAV:  14    -0.103611951588E+03   -0.89496E-06   -0.11222E-08   108   0.320E-04
  23 F= -.10361195E+03 E0= -.10361195E+03  d E =-.167951E-10
       N       E                     dE             d eps       ncg     rms          rms(c)
DAV:   1    -0.103611876467E+03    0.74226E-04   -0.17093E-01    96   0.116E+00    0.172E-01
DAV:   2    -0.103612743509E+03   -0.86704E-03   -0.90326E-03   132   0.312E-01    0.943E-02
DAV:   3    -0.103612720563E+03    0.22946E-04   -0.25376E-04   132   0.617E-02    0.494E-02
DAV:   4    -0.103612728945E+03   -0.83819E-05   -0.10564E-04   132   0.407E-02    0.108E-02
DAV:   5    -0.103612725543E+03    0.34017E-05   -0.26095E-05   132   0.190E-02    0.792E-03
DAV:   6    -0.103612725344E+03    0.19899E-06   -0.41811E-06   132   0.635E-03
  24 F= -.10361273E+03 E0= -.10361273E+03  d E =-.983603E-11
       N       E                     dE             d eps       ncg     rms          rms(c)
DAV:   1    -0.103611015683E+03    0.17099E-02   -0.33576E-01    96   0.162E+00    0.213E-01
DAV:   2    -0.103612732225E+03   -0.17165E-02   -0.17512E-02   120   0.426E-01    0.127E-01
DAV:   3    -0.103612719750E+03    0.12475E-04   -0.51432E-04   144   0.856E-02    0.646E-02
DAV:   4    -0.103612740377E+03   -0.20626E-04   -0.17287E-04   132   0.514E-02    0.139E-02
DAV:   5    -0.103612735796E+03    0.45809E-05   -0.37652E-05   132   0.231E-02    0.100E-02
DAV:   6    -0.103612737448E+03   -0.16523E-05   -0.71296E-06   132   0.834E-03    0.607E-03
DAV:   7    -0.103612744784E+03   -0.73364E-05   -0.10175E-06   108   0.448E-03    0.237E-03
DAV:   8    -0.103612755006E+03   -0.10222E-04   -0.16517E-06   120   0.493E-03    0.146E-03
DAV:   9    -0.103612766545E+03   -0.11539E-04   -0.80162E-07   108   0.321E-03    0.929E-04
DAV:  10    -0.103612776200E+03   -0.96548E-05   -0.54884E-07   108   0.211E-03    0.625E-04
DAV:  11    -0.103612781052E+03   -0.48524E-05   -0.17719E-07   108   0.123E-03    0.465E-04
DAV:  12    -0.103612786141E+03   -0.50889E-05   -0.11667E-07   108   0.841E-04    0.190E-04
DAV:  13    -0.103612789285E+03   -0.31440E-05   -0.79788E-08   108   0.597E-04    0.196E-04
DAV:  14    -0.103612791398E+03   -0.21129E-05   -0.30323E-08   108   0.403E-04    0.645E-05
DAV:  15    -0.103612792358E+03   -0.96085E-06   -0.13689E-08   108   0.289E-04
  25 F= -.10361279E+03 E0= -.10361279E+03  d E =-.194622E-10
       N       E                     dE             d eps       ncg     rms          rms(c)
DAV:   1    -0.103610748717E+03    0.20427E-02   -0.16598E-01    96   0.127E+00    0.163E-01
DAV:   2    -0.103611988049E+03   -0.12393E-02   -0.12912E-02   132   0.385E-01    0.107E-01
DAV:   3    -0.103611932942E+03    0.55107E-04   -0.32422E-04   144   0.710E-02    0.613E-02
DAV:   4    -0.103611920169E+03    0.12773E-04   -0.14873E-04   132   0.477E-02    0.115E-02
DAV:   5    -0.103611914273E+03    0.58959E-05   -0.36679E-05   144   0.224E-02    0.871E-03
DAV:   6    -0.103611914384E+03   -0.11101E-06   -0.44977E-06   144   0.722E-03
  26 F= -.10361191E+03 E0= -.10361191E+03  d E =-.141891E-10
       N       E                     dE             d eps       ncg     rms          rms(c)
DAV:   1    -0.103609660852E+03    0.22534E-02   -0.33792E-01    96   0.170E+00    0.260E-01
DAV:   2    -0.103611935977E+03   -0.22751E-02   -0.24352E-02   132   0.510E-01    0.162E-01
DAV:   3    -0.103611795380E+03    0.14060E-03   -0.68779E-04   132   0.105E-01    0.848E-02
DAV:   4    -0.103611813346E+03   -0.17966E-04   -0.40486E-04   132   0.707E-02    0.173E-02
DAV:   5    -0.103611803880E+03    0.94663E-05   -0.59845E-05   144   0.279E-02    0.123E-02
DAV:   6    -0.103611802729E+03    0.11503E-05   -0.10145E-05   144   0.910E-03    0.774E-03
DAV:   7    -0.103611809111E+03   -0.63816E-05   -0.82247E-07   108   0.354E-03    0.306E-03
DAV:   8    -0.103611818873E+03   -0.97626E-05   -0.14120E-06   120   0.432E-03    0.115E-03
DAV:   9    -0.103611828022E+03   -0.91485E-05   -0.82363E-07   108   0.256E-03    0.128E-03
DAV:  10    -0.103611841605E+03   -0.13583E-04   -0.74713E-07   120   0.198E-03    0.709E-04
DAV:  11    -0.103611844977E+03   -0.33720E-05   -0.10335E-07   108   0.936E-04    0.456E-04
DAV:  12    -0.103611850704E+03   -0.57275E-05   -0.16946E-07   108   0.971E-04    0.245E-04
DAV:  13    -0.103611853160E+03   -0.24554E-05   -0.65429E-08   108   0.566E-04    0.188E-04
DAV:  14    -0.103611854978E+03   -0.18180E-05   -0.17783E-08   108   0.376E-04    0.102E-04
DAV:  15    -0.103611855924E+03   -0.94637E-06   -0.10696E-08   108   0.276E-04
  27 F= -.10361186E+03 E0= -.10361186E+03  d E =-.104151E-10
       N       E                     dE             d eps       ncg     rms          rms(c)
DAV:   1    -0.103611848998E+03    0.59799E-05   -0.16949E-01    96   0.121E+00    0.162E-01
DAV:   2    -0.103612904527E+03   -0.10555E-02   -0.11232E-02   132   0.355E-01    0.106E-01
DAV:   3    -0.103612842020E+03    0.62507E-04   -0.31475E-04   132   0.722E-02    0.564E-02
DAV:   4    -0.103612841126E+03    0.89377E-06   -0.15875E-04   132   0.459E-02    0.130E-02
DAV:   5    -0.103612836383E+03    0.47429E-05   -0.23330E-05   132   0.180E-02    0.822E-03
DAV:   6    -0.103612837929E+03   -0.15458E-05   -0.46700E-06   132   0.679E-03    0.499E-03
DAV:   7    -0.103612845375E+03   -0.74463E-05   -0.61425E-07   108   0.286E-03    0.170E-03
DAV:   8    -0.103612852983E+03   -0.76081E-05   -0.60622E-07   108   0.251E-03    0.734E-04
DAV:   9    -0.103612861271E+03   -0.82877E-05   -0.58698E-07   108   0.207E-03    0.725E-04
DAV:  10    -0.103612870738E+03   -0.94668E-05   -0.82975E-07   120   0.195E-03    0.404E-04
DAV:  11    -0.103612872503E+03   -0.17655E-05   -0.50201E-08   120   0.776E-04    0.260E-04
DAV:  12    -0.103612874612E+03   -0.21088E-05   -0.54480E-08   108   0.576E-04    0.132E-04
DAV:  13    -0.103612876220E+03   -0.16079E-05   -0.42860E-08   108   0.454E-04    0.106E-04
DAV:  14    -0.103612877302E+03   -0.10817E-05   -0.22916E-08   108   0.335E-04    0.841E-05
DAV:  15    -0.103612877655E+03   -0.35307E-06    0.16331E-09   120   0.166E-04
  28 F= -.10361288E+03 E0= -.10361288E+03  d E =-.104350E-10
       N       E                     dE             d eps       ncg     rms          rms(c)
DAV:   1    -0.103611746332E+03    0.11310E-02   -0.33908E-01    96   0.169E+00    0.240E-01
DAV:   2    -0.103613219599E+03   -0.14733E-02   -0.16170E-02   132   0.433E-01    0.111E-01
DAV:   3    -0.103613168324E+03    0.51274E-04   -0.54902E-04   144   0.884E-02    0.577E-02
DAV:   4    -0.103613179680E+03   -0.11356E-04   -0.14527E-04   132   0.451E-02    0.162E-02
DAV:   5    -0.103613176433E+03    0.32470E-05   -0.26299E-05   132   0.200E-02    0.945E-03
DAV:   6    -0.103613177208E+03   -0.77510E-06   -0.56808E-06   132   0.801E-03
  29 F= -.10361318E+03 E0= -.10361318E+03  d E =-.199708E-10
       N       E                     dE             d eps       ncg     rms          rms(c)
DAV:   1    -0.103612275049E+03    0.90138E-03   -0.16951E-01    96   0.121E+00    0.157E-01
DAV:   2    -0.103613005244E+03   -0.73019E-03   -0.78649E-03   132   0.298E-01    0.782E-02
DAV:   3    -0.103612989157E+03    0.16087E-04   -0.25710E-04   132   0.612E-02    0.399E-02
DAV:   4    -0.103613005686E+03   -0.16529E-04   -0.76228E-05   132   0.318E-02    0.117E-02
DAV:   5    -0.103613006707E+03   -0.10216E-05   -0.11797E-05   132   0.134E-02    0.642E-03
DAV:   6    -0.103613008120E+03   -0.14126E-05   -0.30983E-06   144   0.599E-03    0.342E-03
DAV:   7    -0.103613010477E+03   -0.23570E-05   -0.32723E-07   108   0.219E-03    0.117E-03
DAV:   8    -0.103613012991E+03   -0.25137E-05   -0.20089E-07   108   0.183E-03    0.507E-04
DAV:   9    -0.103613015570E+03   -0.25790E-05   -0.12953E-07   108   0.134E-03    0.376E-04
DAV:  10    -0.103613018659E+03   -0.30897E-05   -0.16229E-07   108   0.123E-03    0.231E-04
DAV:  11    -0.103613019456E+03   -0.79636E-06   -0.38550E-08   120   0.692E-04
  30 F= -.10361302E+03 E0= -.10361302E+03  d E =-.798171E-11
       N       E                     dE             d eps       ncg     rms          rms(c)
DAV:   1    -0.103611038822E+03    0.19798E-02   -0.33972E-01    96   0.170E+00    0.263E-01
DAV:   2    -0.103612530465E+03   -0.14916E-02   -0.16727E-02   132   0.454E-01    0.123E-01
DAV:   3    -0.103612463921E+03    0.66544E-04   -0.55386E-04   132   0.916E-02    0.677E-02
DAV:   4    -0.103612473370E+03   -0.94492E-05   -0.18515E-04   132   0.514E-02    0.187E-02
DAV:   5    -0.103612468884E+03    0.44861E-05   -0.31951E-05   132   0.217E-02    0.994E-03
DAV:   6    -0.103612470036E+03   -0.11513E-05   -0.59528E-06   144   0.838E-03    0.592E-03
DAV:   7    -0.103612477107E+03   -0.70715E-05   -0.78108E-07   108   0.347E-03    0.174E-03
DAV:   8    -0.103612483268E+03   -0.61607E-05   -0.45497E-07   108   0.258E-03    0.844E-04
DAV:   9    -0.103612492959E+03   -0.96916E-05   -0.65180E-07   120   0.263E-03    0.616E-04
DAV:  10    -0.103612501244E+03   -0.82850E-05   -0.58741E-07   108   0.213E-03    0.490E-04
DAV:  11    -0.103612503343E+03   -0.20988E-05   -0.11372E-07   120   0.108E-03    0.378E-04
DAV:  12    -0.103612504982E+03   -0.16384E-05   -0.35257E-08   108   0.545E-04    0.235E-04
DAV:  13    -0.103612507838E+03   -0.28564E-05   -0.10548E-07    96   0.684E-04    0.127E-04
DAV:  14    -0.103612508958E+03   -0.11204E-05   -0.27795E-08   108   0.382E-04    0.172E-04
DAV:  15    -0.103612509528E+03   -0.56916E-06   -0.12121E-09   108   0.230E-04
  31 F= -.10361251E+03 E0= -.10361251E+03  d E =-.230835E-10
       N       E                     dE             d eps       ncg     rms          rms(c)
DAV:   1    -0.103611578343E+03    0.93062E-03   -0.16715E-01    96   0.124E+00    0.183E-01
DAV:   2    -0.103612641538E+03   -0.10632E-02   -0.11576E-02   132   0.360E-01    0.934E-02
DAV:   3    -0.103612576759E+03    0.64779E-04   -0.37518E-04   144   0.750E-02    0.509E-02
DAV:   4    -0.103612576857E+03   -0.97546E-07   -0.12961E-04   132   0.423E-02    0.133E-02
DAV:   5    -0.103612575064E+03    0.17930E-05   -0.23956E-05   132   0.185E-02    0.816E-03
DAV:   6    -0.103612575604E+03   -0.54032E-06   -0.35780E-06   144   0.662E-03
  32 F= -.10361258E+03 E0= -.10361258E+03  d E =-.786656E-11
       N       E                     dE             d eps       ncg     rms          rms(c)
DAV:   1    -0.103610925278E+03    0.16498E-02   -0.34023E-01    96   0.170E+00    0.263E-01
DAV:   2    -0.103612674706E+03   -0.17494E-02   -0.18888E-02   132   0.470E-01    0.133E-01
DAV:   3    -0.103612594855E+03    0.79851E-04   -0.57730E-04   132   0.934E-02    0.741E-02
DAV:   4    -0.103612607602E+03   -0.12748E-04   -0.22937E-04   132   0.556E-02    0.181E-02
DAV:   5    -0.103612602378E+03    0.52246E-05   -0.41930E-05   144   0.239E-02    0.104E-02
DAV:   6    -0.103612602362E+03    0.15953E-07   -0.62211E-06   132   0.820E-03
  33 F= -.10361260E+03 E0= -.10361260E+03  d E =-.229131E-10
       N       E                     dE             d eps       ncg     rms          rms(c)
DAV:   1    -0.103611195137E+03    0.14072E-02   -0.16905E-01    96   0.121E+00    0.161E-01
DAV:   2    -0.103611949289E+03   -0.75415E-03   -0.81795E-03   132   0.304E-01    0.799E-02
DAV:   3    -0.103611929927E+03    0.19362E-04   -0.27427E-04   144   0.621E-02    0.420E-02
DAV:   4    -0.103611944344E+03   -0.14417E-04   -0.72885E-05   132   0.314E-02    0.125E-02
DAV:   5    -0.103611946195E+03   -0.18506E-05   -0.12206E-05   132   0.136E-02    0.644E-03
DAV:   6    -0.103611948820E+03   -0.26256E-05   -0.31695E-06   132   0.592E-03    0.349E-03
DAV:   7    -0.103611953150E+03   -0.43301E-05   -0.41004E-07   108   0.222E-03    0.907E-04
DAV:   8    -0.103611956528E+03   -0.33774E-05   -0.21089E-07   108   0.158E-03    0.536E-04
DAV:   9    -0.103611961900E+03   -0.53727E-05   -0.30618E-07   108   0.172E-03    0.288E-04
DAV:  10    -0.103611965015E+03   -0.31142E-05   -0.23378E-07   108   0.124E-03    0.251E-04
DAV:  11    -0.103611966289E+03   -0.12749E-05   -0.35201E-08   120   0.644E-04    0.150E-04
DAV:  12    -0.103611967781E+03   -0.14912E-05   -0.41104E-08   108   0.483E-04    0.746E-05
DAV:  13    -0.103611968480E+03   -0.69901E-06   -0.10152E-08   108   0.273E-04
  34 F= -.10361197E+03 E0= -.10361197E+03  d E =-.143676E-10
       N       E                     dE             d eps       ncg     rms          rms(c)
DAV:   1    -0.103610066502E+03    0.19013E-02   -0.33828E-01    96   0.173E+00    0.242E-01
DAV:   2    -0.103612276140E+03   -0.22096E-02   -0.23669E-02   132   0.502E-01    0.156E-01
DAV:   3    -0.103612128235E+03    0.14790E-03   -0.65582E-04   132   0.104E-01    0.797E-02
DAV:   4    -0.103612132073E+03   -0.38385E-05   -0.35729E-04   132   0.670E-02    0.165E-02
DAV:   5    -0.103612123096E+03    0.89772E-05   -0.54995E-05   132   0.272E-02    0.116E-02
DAV:   6    -0.103612123548E+03   -0.45128E-06   -0.94257E-06   132   0.898E-03
  35 F= -.10361212E+03 E0= -.10361212E+03  d E =-.125096E-10
       N       E                     dE             d eps       ncg     rms          rms(c)
DAV:   1    -0.103612317703E+03   -0.19461E-03   -0.16793E-01    96   0.121E+00    0.160E-01
DAV:   2    -0.103613243897E+03   -0.92619E-03   -0.97343E-03   132   0.336E-01    0.943E-02
DAV:   3    -0.103613220294E+03    0.23602E-04   -0.29878E-04   132   0.684E-02    0.501E-02
DAV:   4    -0.103613250650E+03   -0.30356E-04   -0.12004E-04   132   0.402E-02    0.127E-02
DAV:   5    -0.103613254667E+03   -0.40172E-05   -0.18809E-05   132   0.162E-02    0.770E-03
DAV:   6    -0.103613256673E+03   -0.20058E-05   -0.35689E-06   132   0.638E-03    0.451E-03
DAV:   7    -0.103613259883E+03   -0.32096E-05   -0.50973E-07   108   0.282E-03    0.110E-03
DAV:   8    -0.103613261849E+03   -0.19666E-05   -0.21291E-07   108   0.185E-03    0.512E-04
DAV:   9    -0.103613264358E+03   -0.25081E-05   -0.14165E-07   108   0.143E-03    0.380E-04
DAV:  10    -0.103613266652E+03   -0.22949E-05   -0.14839E-07   108   0.119E-03    0.266E-04
DAV:  11    -0.103613267311E+03   -0.65833E-06   -0.30679E-08   120   0.663E-04
  36 F= -.10361327E+03 E0= -.10361327E+03  d E =-.947992E-11
       N       E                     dE             d eps       ncg     rms          rms(c)
DAV:   1    -0.103611451255E+03    0.18154E-02   -0.33897E-01    96   0.169E+00    0.264E-01
DAV:   2    -0.103612746233E+03   -0.12950E-02   -0.14880E-02   132   0.428E-01    0.110E-01
DAV:   3    -0.103612704220E+03    0.42013E-04   -0.55268E-04   132   0.872E-02    0.602E-02
DAV:   4    -0.103612718556E+03   -0.14335E-04   -0.12358E-04   132   0.420E-02    0.186E-02
DAV:   5    -0.103612716594E+03    0.19612E-05   -0.22616E-05   132   0.191E-02    0.926E-03
DAV:   6    -0.103612717483E+03   -0.88832E-06   -0.52076E-06   132   0.799E-03
  37 F= -.10361272E+03 E0= -.10361272E+03  d E =-.194205E-10
       N       E                     dE             d eps       ncg     rms          rms(c)
DAV:   1    -0.103611632475E+03    0.10841E-02   -0.19185E-01    96   0.129E+00    0.197E-01
DAV:   2    -0.103612710668E+03   -0.10782E-02   -0.11431E-02   132   0.364E-01    0.936E-02
DAV:   3    -0.103612664744E+03    0.45924E-04   -0.38816E-04   132   0.758E-02    0.498E-02
DAV:   4    -0.103612684629E+03   -0.19885E-04   -0.13954E-04   132   0.412E-02    0.144E-02
DAV:   5    -0.103612685711E+03   -0.10816E-05   -0.19933E-05   132   0.166E-02    0.935E-03
DAV:   6    -0.103612686948E+03   -0.12373E-05   -0.33916E-06   132   0.620E-03    0.565E-03
DAV:   7    -0.103612690531E+03   -0.35823E-05   -0.45550E-07   108   0.275E-03    0.162E-03
DAV:   8    -0.103612693557E+03   -0.30260E-05   -0.39417E-07   108   0.234E-03    0.659E-04
DAV:   9    -0.103612696897E+03   -0.33403E-05   -0.19729E-07   108   0.168E-03    0.419E-04
DAV:  10    -0.103612700313E+03   -0.34163E-05   -0.20519E-07   108   0.134E-03    0.347E-04
DAV:  11    -0.103612701544E+03   -0.12310E-05   -0.62857E-08   108   0.781E-04    0.249E-04
DAV:  12    -0.103612702368E+03   -0.82360E-06   -0.15837E-08   108   0.408E-04
  38 F= -.10361270E+03 E0= -.10361270E+03  d E =-.137717E-10
       N       E                     dE             d eps       ncg     rms          rms(c)
DAV:   1    -0.103610970662E+03    0.17309E-02   -0.34137E-01    96   0.165E+00    0.266E-01
DAV:   2    -0.103612624993E+03   -0.16543E-02   -0.17608E-02   144   0.441E-01    0.135E-01
DAV:   3    -0.103612572219E+03    0.52774E-04   -0.56374E-04   132   0.906E-02    0.710E-02
DAV:   4    -0.103612586924E+03   -0.14705E-04   -0.20614E-04   132   0.572E-02    0.158E-02
DAV:   5    -0.103612580564E+03    0.63601E-05   -0.50813E-05   132   0.269E-02    0.113E-02
DAV:   6    -0.103612580535E+03    0.28473E-07   -0.77687E-06   132   0.882E-03
  39 F= -.10361258E+03 E0= -.10361258E+03  d E =-.122215E-10
       N       E                     dE             d eps       ncg     rms          rms(c)
DAV:   1    -0.103611020368E+03    0.15602E-02   -0.17357E-01    96   0.120E+00    0.180E-01
DAV:   2    -0.103612083157E+03   -0.10628E-02   -0.10787E-02   132   0.347E-01    0.114E-01
DAV:   3    -0.103612058948E+03    0.24209E-04   -0.27509E-04   132   0.652E-02    0.609E-02
DAV:   4    -0.103612063772E+03   -0.48236E-05   -0.14678E-04   120   0.424E-02    0.113E-02
DAV:   5    -0.103612056800E+03    0.69717E-05   -0.24415E-05   132   0.175E-02    0.785E-03
DAV:   6    -0.103612057571E+03   -0.77093E-06   -0.59531E-06   120   0.701E-03
  40 F= -.10361206E+03 E0= -.10361206E+03  d E =-.113759E-10
       N       E                     dE             d eps       ncg     rms          rms(c)
DAV:   1    -0.103609791603E+03    0.22652E-02   -0.34265E-01    96   0.170E+00    0.259E-01
DAV:   2    -0.103611909383E+03   -0.21178E-02   -0.21626E-02   132   0.485E-01    0.158E-01
DAV:   3    -0.103611834559E+03    0.74824E-04   -0.55668E-04   132   0.908E-02    0.833E-02
DAV:   4    -0.103611839156E+03   -0.45972E-05   -0.27586E-04   132   0.592E-02    0.158E-02
DAV:   5    -0.103611824317E+03    0.14839E-04   -0.48115E-05   144   0.251E-02    0.108E-02
DAV:   6    -0.103611820199E+03    0.41181E-05   -0.94058E-06   132   0.962E-03    0.663E-03
DAV:   7    -0.103611826241E+03   -0.60422E-05   -0.21875E-06   132   0.609E-03    0.222E-03
DAV:   8    -0.103611835661E+03   -0.94198E-05   -0.17871E-06   132   0.524E-03    0.152E-03
DAV:   9    -0.103611847165E+03   -0.11504E-04   -0.99826E-07   120   0.298E-03    0.138E-03
DAV:  10    -0.103611859567E+03   -0.12402E-04   -0.52973E-07   108   0.180E-03    0.472E-04
DAV:  11    -0.103611865614E+03   -0.60466E-05   -0.27479E-07   108   0.122E-03    0.361E-04
DAV:  12    -0.103611873135E+03   -0.75211E-05   -0.20554E-07   108   0.104E-03    0.219E-04
DAV:  13    -0.103611876304E+03   -0.31691E-05   -0.79886E-08   108   0.628E-04    0.188E-04
DAV:  14    -0.103611878451E+03   -0.21470E-05   -0.22512E-08   108   0.416E-04    0.106E-04
DAV:  15    -0.103611879678E+03   -0.12275E-05   -0.12214E-08   108   0.293E-04    0.743E-05
DAV:  16    -0.103611880334E+03   -0.65585E-06   -0.16282E-10   108   0.191E-04
  41 F= -.10361188E+03 E0= -.10361188E+03  d E =-.133330E-10
       N       E                     dE             d eps       ncg     rms          rms(c)
DAV:   1    -0.103610130629E+03    0.17490E-02   -0.17429E-01    96   0.119E+00    0.188E-01
DAV:   2    -0.103611383531E+03   -0.12529E-02   -0.12910E-02   132   0.373E-01    0.125E-01
DAV:   3    -0.103611313677E+03    0.69854E-04   -0.30636E-04   144   0.718E-02    0.665E-02
DAV:   4    -0.103611314987E+03   -0.13104E-05   -0.21546E-04   132   0.528E-02    0.127E-02
DAV:   5    -0.103611308240E+03    0.67472E-05   -0.50497E-05   132   0.247E-02    0.930E-03
DAV:   6    -0.103611309812E+03   -0.15725E-05   -0.90650E-06   132   0.796E-03    0.600E-03
DAV:   7    -0.103611318949E+03   -0.91363E-05   -0.68064E-07   108   0.296E-03    0.277E-03
DAV:   8    -0.103611332808E+03   -0.13860E-04   -0.16008E-06   132   0.361E-03    0.878E-04
DAV:   9    -0.103611343804E+03   -0.10996E-04   -0.95687E-07   108   0.253E-03    0.104E-03
DAV:  10    -0.103611356539E+03   -0.12734E-04   -0.96471E-07   120   0.216E-03    0.560E-04
DAV:  11    -0.103611359587E+03   -0.30489E-05   -0.92758E-08   108   0.893E-04    0.399E-04
DAV:  12    -0.103611362949E+03   -0.33619E-05   -0.82725E-08   108   0.686E-04    0.164E-04
DAV:  13    -0.103611365456E+03   -0.25063E-05   -0.85097E-08   108   0.632E-04    0.171E-04
DAV:  14    -0.103611366694E+03   -0.12385E-05   -0.22124E-08   108   0.379E-04    0.135E-04
DAV:  15    -0.103611367186E+03   -0.49150E-06   -0.10840E-09   108   0.214E-04
  42 F= -.10361137E+03 E0= -.10361137E+03  d E =-.164078E-10
       N       E                     dE             d eps       ncg     rms          rms(c)
DAV:   1    -0.103608869258E+03    0.24974E-02   -0.34616E-01    96   0.167E+00    0.259E-01
DAV:   2    -0.103611391363E+03   -0.25221E-02   -0.25930E-02   132   0.526E-01    0.179E-01
DAV:   3    -0.103611262445E+03    0.12892E-03   -0.61790E-04   132   0.102E-01    0.917E-02
DAV:   4    -0.103611271183E+03   -0.87382E-05   -0.41170E-04   120   0.715E-02    0.176E-02
DAV:   5    -0.103611259394E+03    0.11789E-04   -0.79728E-05   132   0.309E-02    0.121E-02
DAV:   6    -0.103611267172E+03   -0.77782E-05   -0.16588E-05   132   0.105E-02    0.708E-03
DAV:   7    -0.103611292508E+03   -0.25336E-04   -0.19049E-06   132   0.426E-03    0.296E-03
DAV:   8    -0.103611320655E+03   -0.28147E-04   -0.32092E-06   132   0.489E-03    0.130E-03
DAV:   9    -0.103611345421E+03   -0.24766E-04   -0.25151E-06   120   0.360E-03    0.143E-03
DAV:  10    -0.103611365476E+03   -0.20054E-04   -0.17689E-06   132   0.278E-03    0.568E-04
DAV:  11    -0.103611370678E+03   -0.52021E-05   -0.15409E-07   108   0.104E-03    0.370E-04
DAV:  12    -0.103611378096E+03   -0.74177E-05   -0.42184E-07    96   0.126E-03    0.223E-04
DAV:  13    -0.103611379548E+03   -0.14528E-05   -0.48020E-08   108   0.487E-04    0.260E-04
DAV:  14    -0.103611381578E+03   -0.20301E-05   -0.49717E-08   108   0.499E-04    0.883E-05
DAV:  15    -0.103611382014E+03   -0.43586E-06   -0.53683E-09   108   0.241E-04
  43 F= -.10361138E+03 E0= -.10361138E+03  d E =-.105847E-10
       N       E                     dE             d eps       ncg     rms          rms(c)
DAV:   1    -0.103611812442E+03   -0.43086E-03   -0.18432E-01    96   0.130E+00    0.156E-01
DAV:   2    -0.103613101966E+03   -0.12895E-02   -0.13800E-02   132   0.386E-01    0.104E-01
DAV:   3    -0.103613050843E+03    0.51123E-04   -0.29350E-04   144   0.676E-02    0.595E-02
DAV:   4    -0.103613042782E+03    0.80613E-05   -0.14565E-04   132   0.474E-02    0.102E-02
DAV:   5    -0.103613039528E+03    0.32533E-05   -0.39810E-05   132   0.223E-02    0.834E-03
DAV:   6    -0.103613038164E+03    0.13641E-05   -0.45226E-06   132   0.692E-03    0.580E-03
DAV:   7    -0.103613043061E+03   -0.48972E-05   -0.17536E-06   132   0.466E-03    0.201E-03
DAV:   8    -0.103613051616E+03   -0.85545E-05   -0.63190E-07   108   0.323E-03    0.858E-04
DAV:   9    -0.103613060996E+03   -0.93802E-05   -0.64045E-07   108   0.231E-03    0.112E-03
DAV:  10    -0.103613071086E+03   -0.10090E-04   -0.50576E-07   108   0.174E-03    0.296E-04
DAV:  11    -0.103613074069E+03   -0.29837E-05   -0.10474E-07   108   0.829E-04    0.218E-04
DAV:  12    -0.103613078212E+03   -0.41422E-05   -0.10838E-07   108   0.698E-04    0.119E-04
DAV:  13    -0.103613079821E+03   -0.16089E-05   -0.32304E-08   108   0.395E-04    0.120E-04
DAV:  14    -0.103613081333E+03   -0.15124E-05   -0.18819E-08   108   0.317E-04    0.547E-05
DAV:  15    -0.103613081925E+03   -0.59253E-06   -0.23563E-09   108   0.196E-04
  44 F= -.10361308E+03 E0= -.10361308E+03  d E =-.313352E-10
       N       E                     dE             d eps       ncg     rms          rms(c)
DAV:   1    -0.103611740150E+03    0.13412E-02   -0.40601E-01    96   0.162E+00    0.180E-01
DAV:   2    -0.103613167128E+03   -0.14270E-02   -0.17031E-02   132   0.357E-01    0.917E-02
DAV:   3    -0.103613105618E+03    0.61511E-04   -0.30017E-04   132   0.615E-02    0.481E-02
DAV:   4    -0.103613077317E+03    0.28301E-04   -0.83635E-05   144   0.397E-02    0.106E-02
DAV:   5    -0.103613072552E+03    0.47644E-05   -0.23245E-05   132   0.188E-02    0.737E-03
DAV:   6    -0.103613075551E+03   -0.29986E-05   -0.47220E-06   132   0.733E-03    0.462E-03
DAV:   7    -0.103613083956E+03   -0.84050E-05   -0.82281E-07   120   0.343E-03    0.195E-03
DAV:   8    -0.103613095365E+03   -0.11409E-04   -0.85007E-07   120   0.317E-03    0.975E-04
DAV:   9    -0.103613112308E+03   -0.16944E-04   -0.15242E-06   120   0.340E-03    0.651E-04
DAV:  10    -0.103613121628E+03   -0.93196E-05   -0.76465E-07   120   0.226E-03    0.582E-04
DAV:  11    -0.103613124665E+03   -0.30374E-05   -0.67128E-08   108   0.925E-04    0.360E-04
DAV:  12    -0.103613128391E+03   -0.37259E-05   -0.12766E-07   108   0.867E-04    0.216E-04
DAV:  13    -0.103613130326E+03   -0.19343E-05   -0.55648E-08   108   0.527E-04    0.174E-04
DAV:  14    -0.103613131577E+03   -0.12514E-05   -0.22546E-08    96   0.354E-04    0.624E-05
DAV:  15    -0.103613132002E+03   -0.42522E-06    0.12882E-09   108   0.176E-04
  45 F= -.10361313E+03 E0= -.10361313E+03  d E =-.223796E-10
       N       E                     dE             d eps       ncg     rms          rms(c)
DAV:   1    -0.103611677626E+03    0.14540E-02   -0.19917E-01    96   0.114E+00    0.137E-01
DAV:   2    -0.103612461731E+03   -0.78410E-03   -0.96569E-03   120   0.266E-01    0.832E-02
DAV:   3    -0.103612402040E+03    0.59691E-04   -0.16844E-04   144   0.461E-02    0.423E-02
DAV:   4    -0.103612374969E+03    0.27071E-04   -0.58357E-05   132   0.293E-02    0.795E-03
DAV:   5    -0.103612367994E+03    0.69755E-05   -0.12501E-05   132   0.131E-02    0.504E-03
DAV:   6    -0.103612369740E+03   -0.17462E-05   -0.32956E-06   132   0.521E-03    0.283E-03
DAV:   7    -0.103612377805E+03   -0.80647E-05   -0.67280E-07    96   0.268E-03    0.119E-03
DAV:   8    -0.103612389715E+03   -0.11910E-04   -0.84286E-07   120   0.231E-03    0.876E-04
DAV:   9    -0.103612401932E+03   -0.12217E-04   -0.59892E-07   120   0.175E-03    0.493E-04
DAV:  10    -0.103612411245E+03   -0.93127E-05   -0.42477E-07   108   0.132E-03    0.287E-04
DAV:  11    -0.103612414386E+03   -0.31419E-05   -0.71037E-08   108   0.648E-04    0.179E-04
DAV:  12    -0.103612419152E+03   -0.47652E-05   -0.15107E-07    96   0.768E-04    0.917E-05
DAV:  13    -0.103612420329E+03   -0.11778E-05   -0.18715E-08   108   0.344E-04    0.673E-05
DAV:  14    -0.103612421618E+03   -0.12884E-05   -0.12253E-08   108   0.278E-04    0.304E-05
DAV:  15    -0.103612422032E+03   -0.41386E-06    0.19810E-09   108   0.152E-04
  46 F= -.10361242E+03 E0= -.10361242E+03  d E =-.336991E-10
       N       E                     dE             d eps       ncg     rms          rms(c)
DAV:   1    -0.103611157751E+03    0.12639E-02   -0.40137E-01   108   0.162E+00    0.191E-01
DAV:   2    -0.103612711118E+03   -0.15534E-02   -0.18839E-02   120   0.366E-01    0.110E-01
DAV:   3    -0.103612616880E+03    0.94237E-04   -0.34690E-04   144   0.645E-02    0.574E-02
DAV:   4    -0.103612569319E+03    0.47561E-04   -0.10078E-04   132   0.399E-02    0.111E-02
DAV:   5    -0.103612562384E+03    0.69353E-05   -0.24449E-05   132   0.184E-02    0.707E-03
DAV:   6    -0.103612570831E+03   -0.84475E-05   -0.59569E-06   132   0.714E-03    0.424E-03
DAV:   7    -0.103612589585E+03   -0.18754E-04   -0.17261E-06   132   0.378E-03    0.173E-03
DAV:   8    -0.103612609340E+03   -0.19755E-04   -0.14559E-06   120   0.293E-03    0.110E-03
DAV:   9    -0.103612631544E+03   -0.22204E-04   -0.19899E-06   132   0.293E-03    0.698E-04
DAV:  10    -0.103612647176E+03   -0.15632E-04   -0.14729E-06   120   0.230E-03    0.429E-04
DAV:  11    -0.103612650979E+03   -0.38029E-05   -0.87792E-08   108   0.877E-04    0.251E-04
DAV:  12    -0.103612656640E+03   -0.56611E-05   -0.28742E-07    96   0.106E-03    0.157E-04
DAV:  13    -0.103612657876E+03   -0.12358E-05   -0.34559E-08   120   0.438E-04    0.103E-04
DAV:  14    -0.103612659187E+03   -0.13116E-05   -0.18717E-08    96   0.346E-04    0.441E-05
DAV:  15    -0.103612659643E+03   -0.45543E-06   -0.16419E-09   108   0.194E-04
  47 F= -.10361266E+03 E0= -.10361266E+03  d E =-.815111E-11
       N       E                     dE             d eps       ncg     rms          rms(c)
DAV:   1    -0.103612303325E+03    0.35586E-03   -0.19869E-01    96   0.115E+00    0.144E-01
DAV:   2    -0.103613084367E+03   -0.78104E-03   -0.95661E-03   120   0.263E-01    0.818E-02
DAV:   3    -0.103613026467E+03    0.57900E-04   -0.16589E-04   132   0.456E-02    0.423E-02
DAV:   4    -0.103613000415E+03    0.26052E-04   -0.62611E-05   132   0.298E-02    0.815E-03
DAV:   5    -0.103612994313E+03    0.61025E-05   -0.13109E-05   132   0.134E-02    0.517E-03
DAV:   6    -0.103612995330E+03   -0.10173E-05   -0.31812E-06   132   0.515E-03    0.299E-03
DAV:   7    -0.103613002447E+03   -0.71170E-05   -0.64465E-07   108   0.273E-03    0.130E-03
DAV:   8    -0.103613014194E+03   -0.11747E-04   -0.84988E-07   120   0.235E-03    0.828E-04
DAV:   9    -0.103613025817E+03   -0.11623E-04   -0.59195E-07   120   0.177E-03    0.575E-04
DAV:  10    -0.103613035133E+03   -0.93166E-05   -0.40779E-07   108   0.133E-03    0.249E-04
DAV:  11    -0.103613038761E+03   -0.36279E-05   -0.91710E-08   108   0.690E-04    0.180E-04
DAV:  12    -0.103613043260E+03   -0.44992E-05   -0.12916E-07    96   0.721E-04    0.974E-05
DAV:  13    -0.103613044540E+03   -0.12792E-05   -0.19413E-08   108   0.341E-04    0.676E-05
DAV:  14    -0.103613045780E+03   -0.12407E-05   -0.11614E-08   108   0.268E-04    0.315E-05
DAV:  15    -0.103613046165E+03   -0.38447E-06    0.24003E-09   108   0.142E-04
  48 F= -.10361305E+03 E0= -.10361305E+03  d E =-.777947E-11
       N       E                     dE             d eps       ncg     rms          rms(c)
DAV:   1    -0.103611613015E+03    0.14328E-02   -0.40566E-01    96   0.163E+00    0.218E-01
DAV:   2    -0.103612983234E+03   -0.13702E-02   -0.16595E-02   120   0.367E-01    0.927E-02
DAV:   3    -0.103612921438E+03    0.61796E-04   -0.36133E-04   156   0.651E-02    0.495E-02
DAV:   4    -0.103612893320E+03    0.28119E-04   -0.80117E-05   144   0.367E-02    0.118E-02
DAV:   5    -0.103612888253E+03    0.50670E-05   -0.19954E-05   132   0.171E-02    0.680E-03
DAV:   6    -0.103612890959E+03   -0.27063E-05   -0.39681E-06   132   0.681E-03    0.382E-03
DAV:   7    -0.103612899755E+03   -0.87956E-05   -0.78197E-07   120   0.323E-03    0.146E-03
DAV:   8    -0.103612910298E+03   -0.10543E-04   -0.67545E-07   120   0.270E-03    0.881E-04
DAV:   9    -0.103612923777E+03   -0.13480E-04   -0.94189E-07   120   0.268E-03    0.529E-04
DAV:  10    -0.103612933423E+03   -0.96457E-05   -0.73903E-07   120   0.206E-03    0.402E-04
DAV:  11    -0.103612935883E+03   -0.24599E-05   -0.54782E-08   108   0.856E-04    0.239E-04
DAV:  12    -0.103612939618E+03   -0.37353E-05   -0.12438E-07   108   0.797E-04    0.157E-04
DAV:  13    -0.103612941170E+03   -0.15521E-05   -0.41059E-08   108   0.440E-04    0.126E-04
DAV:  14    -0.103612942213E+03   -0.10422E-05   -0.10519E-08   108   0.291E-04    0.387E-05
DAV:  15    -0.103612942705E+03   -0.49241E-06   -0.81691E-10   108   0.191E-04
  49 F= -.10361294E+03 E0= -.10361294E+03  d E =-.305472E-10
       N       E                     dE             d eps       ncg     rms          rms(c)
DAV:   1    -0.103611021239E+03    0.19210E-02   -0.19562E-01    96   0.131E+00    0.157E-01
DAV:   2    -0.103612084326E+03   -0.10631E-02   -0.12970E-02   120   0.334E-01    0.788E-02
DAV:   3    -0.103612049727E+03    0.34599E-04   -0.27439E-04   156   0.543E-02    0.435E-02
DAV:   4    -0.103612024515E+03    0.25212E-04   -0.53679E-05   132   0.292E-02    0.949E-03
DAV:   5    -0.103612017312E+03    0.72028E-05   -0.12541E-05   132   0.137E-02    0.551E-03
DAV:   6    -0.103612017968E+03   -0.65590E-06   -0.26543E-06   132   0.610E-03
  50 F= -.10361202E+03 E0= -.10361202E+03  d E =-.174291E-10
       N       E                     dE             d eps       ncg     rms          rms(c)
DAV:   1    -0.103610501352E+03    0.15160E-02   -0.40308E-01    96   0.184E+00    0.203E-01
DAV:   2    -0.103612137101E+03   -0.16357E-02   -0.19569E-02   108   0.446E-01    0.121E-01
DAV:   3    -0.103612060752E+03    0.76348E-04   -0.31296E-04   144   0.595E-02    0.663E-02
DAV:   4    -0.103611981991E+03    0.78762E-04   -0.10566E-04   132   0.364E-02    0.112E-02
DAV:   5    -0.103611969080E+03    0.12911E-04   -0.16475E-05   132   0.161E-02    0.674E-03
DAV:   6    -0.103611980065E+03   -0.10985E-04   -0.90618E-06   132   0.104E-02    0.332E-03
DAV:   7    -0.103612004174E+03   -0.24109E-04   -0.46601E-06   120   0.668E-03    0.210E-03
DAV:   8    -0.103612032582E+03   -0.28408E-04   -0.21103E-06   108   0.375E-03    0.108E-03
DAV:   9    -0.103612058175E+03   -0.25593E-04   -0.24316E-06   108   0.342E-03    0.759E-04
DAV:  10    -0.103612077284E+03   -0.19109E-04   -0.17216E-06   120   0.265E-03    0.337E-04
DAV:  11    -0.103612084965E+03   -0.76813E-05   -0.40271E-07   108   0.141E-03    0.261E-04
DAV:  12    -0.103612088374E+03   -0.34086E-05   -0.13036E-07   108   0.761E-04    0.147E-04
DAV:  13    -0.103612090397E+03   -0.20237E-05   -0.58872E-08   108   0.535E-04    0.610E-05
DAV:  14    -0.103612091213E+03   -0.81594E-06   -0.89596E-09   108   0.293E-04
  51 F= -.10361209E+03 E0= -.10361209E+03  d E =-.135649E-10
       N       E                     dE             d eps       ncg     rms          rms(c)
DAV:   1    -0.103612685291E+03   -0.59489E-03   -0.20299E-01   120   0.131E+00    0.147E-01
DAV:   2    -0.103613455623E+03   -0.77033E-03   -0.93452E-03   132   0.305E-01    0.768E-02
DAV:   3    -0.103613419414E+03    0.36209E-04   -0.18222E-04   144   0.458E-02    0.405E-02
DAV:   4    -0.103613396593E+03    0.22821E-04   -0.45496E-05   132   0.282E-02    0.817E-03
DAV:   5    -0.103613391028E+03    0.55647E-05   -0.13191E-05   132   0.139E-02    0.522E-03
DAV:   6    -0.103613392031E+03   -0.10030E-05   -0.31063E-06   132   0.564E-03    0.325E-03
DAV:   7    -0.103613398016E+03   -0.59845E-05   -0.60299E-07   108   0.317E-03    0.141E-03
DAV:   8    -0.103613408311E+03   -0.10295E-04   -0.10303E-06   108   0.337E-03    0.105E-03
DAV:   9    -0.103613420001E+03   -0.11690E-04   -0.85026E-07   108   0.259E-03    0.700E-04
DAV:  10    -0.103613427027E+03   -0.70253E-05   -0.31216E-07   108   0.153E-03    0.451E-04
DAV:  11    -0.103613430277E+03   -0.32503E-05   -0.56708E-08   108   0.741E-04    0.231E-04
DAV:  12    -0.103613434828E+03   -0.45509E-05   -0.13936E-07    96   0.846E-04    0.227E-04
DAV:  13    -0.103613435728E+03   -0.90062E-06   -0.13205E-08   120   0.376E-04
  52 F= -.10361344E+03 E0= -.10361344E+03  d E =-.544848E-11
       N       E                     dE             d eps       ncg     rms          rms(c)
DAV:   1    -0.103611731022E+03    0.17038E-02   -0.41051E-01   120   0.176E+00    0.194E-01
DAV:   2    -0.103613176991E+03   -0.14460E-02   -0.17251E-02   120   0.376E-01    0.859E-02
DAV:   3    -0.103613155326E+03    0.21665E-04   -0.40378E-04   156   0.686E-02    0.456E-02
DAV:   4    -0.103613140857E+03    0.14469E-04   -0.67193E-05   132   0.408E-02    0.104E-02
DAV:   5    -0.103613138687E+03    0.21695E-05   -0.31075E-05   132   0.212E-02    0.797E-03
DAV:   6    -0.103613139580E+03   -0.89225E-06   -0.32570E-06   132   0.597E-03
  53 F= -.10361314E+03 E0= -.10361314E+03  d E =-.455285E-10
       N       E                     dE             d eps       ncg     rms          rms(c)
DAV:   1    -0.103611011577E+03    0.21271E-02   -0.20429E-01    96   0.131E+00    0.145E-01
DAV:   2    -0.103611766072E+03   -0.75449E-03   -0.90547E-03   132   0.298E-01    0.722E-02
DAV:   3    -0.103611745611E+03    0.20461E-04   -0.19438E-04   144   0.474E-02    0.374E-02
DAV:   4    -0.103611741869E+03    0.37420E-05   -0.41743E-05   132   0.284E-02    0.815E-03
DAV:   5    -0.103611742212E+03   -0.34297E-06   -0.12680E-05   132   0.135E-02    0.543E-03
DAV:   6    -0.103611745065E+03   -0.28537E-05   -0.23816E-06   132   0.485E-03    0.347E-03
DAV:   7    -0.103611751393E+03   -0.63270E-05   -0.39393E-07   108   0.234E-03    0.144E-03
DAV:   8    -0.103611759835E+03   -0.84423E-05   -0.82150E-07   108   0.267E-03    0.989E-04
DAV:   9    -0.103611768818E+03   -0.89828E-05   -0.58480E-07   108   0.218E-03    0.700E-04
DAV:  10    -0.103611775188E+03   -0.63700E-05   -0.29526E-07   108   0.148E-03    0.492E-04
DAV:  11    -0.103611777395E+03   -0.22078E-05   -0.42347E-08   108   0.732E-04    0.242E-04
DAV:  12    -0.103611781161E+03   -0.37653E-05   -0.11049E-07   108   0.848E-04    0.275E-04
DAV:  13    -0.103611781927E+03   -0.76668E-06   -0.13570E-08   108   0.402E-04
  54 F= -.10361178E+03 E0= -.10361178E+03  d E =-.186364E-10
       N       E                     dE             d eps       ncg     rms          rms(c)
DAV:   1    -0.103610308269E+03    0.14729E-02   -0.40459E-01   108   0.185E+00    0.213E-01
DAV:   2    -0.103611776807E+03   -0.14685E-02   -0.18458E-02   132   0.443E-01    0.128E-01
DAV:   3    -0.103611660460E+03    0.11635E-03   -0.31521E-04   132   0.628E-02    0.659E-02
DAV:   4    -0.103611599949E+03    0.60512E-04   -0.12842E-04   132   0.427E-02    0.117E-02
DAV:   5    -0.103611596945E+03    0.30032E-05   -0.24080E-05   132   0.185E-02    0.748E-03
DAV:   6    -0.103611614857E+03   -0.17912E-04   -0.12064E-05   132   0.970E-03    0.403E-03
DAV:   7    -0.103611642658E+03   -0.27801E-04   -0.21025E-06   108   0.463E-03    0.217E-03
DAV:   8    -0.103611685511E+03   -0.42853E-04   -0.47943E-06   108   0.480E-03    0.124E-03
DAV:   9    -0.103611708987E+03   -0.23476E-04   -0.17994E-06   120   0.302E-03    0.863E-04
DAV:  10    -0.103611730654E+03   -0.21668E-04   -0.19390E-06   108   0.274E-03    0.358E-04
DAV:  11    -0.103611738434E+03   -0.77794E-05   -0.31432E-07   108   0.127E-03    0.311E-04
DAV:  12    -0.103611744643E+03   -0.62095E-05   -0.36016E-07   108   0.115E-03    0.124E-04
DAV:  13    -0.103611745854E+03   -0.12110E-05   -0.31971E-08   120   0.438E-04    0.820E-05
DAV:  14    -0.103611747097E+03   -0.12426E-05   -0.15860E-08   108   0.344E-04    0.530E-05
DAV:  15    -0.103611747533E+03   -0.43653E-06   -0.33307E-10   108   0.191E-04
  55 F= -.10361175E+03 E0= -.10361175E+03  d E =-.100862E-10
       N       E                     dE             d eps       ncg     rms          rms(c)
DAV:   1    -0.103611925159E+03   -0.17806E-03   -0.19994E-01    96   0.129E+00    0.148E-01
DAV:   2    -0.103613034272E+03   -0.11091E-02   -0.13515E-02   132   0.340E-01    0.830E-02
DAV:   3    -0.103612990321E+03    0.43951E-04   -0.27709E-04   144   0.540E-02    0.470E-02
DAV:   4    -0.103612955135E+03    0.35185E-04   -0.59527E-05   144   0.338E-02    0.957E-03
DAV:   5    -0.103612945085E+03    0.10051E-04   -0.19363E-05   132   0.169E-02    0.674E-03
DAV:   6    -0.103612946497E+03   -0.14122E-05   -0.37322E-06   132   0.638E-03    0.455E-03
DAV:   7    -0.103612956545E+03   -0.10048E-04   -0.13476E-06   120   0.449E-03    0.168E-03
DAV:   8    -0.103612971774E+03   -0.15229E-04   -0.15175E-06   120   0.415E-03    0.138E-03
DAV:   9    -0.103612992661E+03   -0.20887E-04   -0.15764E-06   120   0.353E-03    0.828E-04
DAV:  10    -0.103613001205E+03   -0.85434E-05   -0.38381E-07   108   0.182E-03    0.604E-04
DAV:  11    -0.103613008155E+03   -0.69506E-05   -0.21636E-07   108   0.118E-03    0.212E-04
DAV:  12    -0.103613012708E+03   -0.45529E-05   -0.17353E-07   108   0.863E-04    0.295E-04
DAV:  13    -0.103613014732E+03   -0.20235E-05   -0.30302E-08   108   0.472E-04    0.120E-04
DAV:  14    -0.103613016247E+03   -0.15154E-05   -0.30923E-08    96   0.388E-04    0.499E-05
DAV:  15    -0.103613017024E+03   -0.77655E-06   -0.34569E-09   108   0.229E-04
  56 F= -.10361302E+03 E0= -.10361302E+03  d E =-.758821E-11
       N       E                     dE             d eps       ncg     rms          rms(c)
DAV:   1    -0.103611287701E+03    0.17285E-02   -0.40784E-01    96   0.178E+00    0.191E-01
DAV:   2    -0.103612842385E+03   -0.15547E-02   -0.18640E-02   120   0.411E-01    0.992E-02
DAV:   3    -0.103612798616E+03    0.43769E-04   -0.39076E-04   156   0.665E-02    0.532E-02
DAV:   4    -0.103612769277E+03    0.29339E-04   -0.78467E-05   132   0.403E-02    0.104E-02
DAV:   5    -0.103612761753E+03    0.75236E-05   -0.27941E-05   132   0.203E-02    0.781E-03
DAV:   6    -0.103612763062E+03   -0.13087E-05   -0.48868E-06   132   0.715E-03    0.532E-03
DAV:   7    -0.103612771188E+03   -0.81261E-05   -0.89065E-07   108   0.401E-03    0.212E-03
DAV:   8    -0.103612783948E+03   -0.12760E-04   -0.16480E-06   120   0.431E-03    0.154E-03
DAV:   9    -0.103612801079E+03   -0.17131E-04   -0.10880E-06   108   0.343E-03    0.764E-04
DAV:  10    -0.103612810262E+03   -0.91829E-05   -0.62940E-07   108   0.219E-03    0.764E-04
DAV:  11    -0.103612815019E+03   -0.47567E-05   -0.10509E-07   108   0.109E-03    0.423E-04
DAV:  12    -0.103612821200E+03   -0.61810E-05   -0.22002E-07   108   0.106E-03    0.296E-04
DAV:  13    -0.103612822917E+03   -0.17171E-05   -0.31872E-08   108   0.475E-04    0.247E-04
DAV:  14    -0.103612825175E+03   -0.22578E-05   -0.43015E-08    96   0.484E-04    0.571E-05
DAV:  15    -0.103612825885E+03   -0.70996E-06   -0.70276E-09   108   0.263E-04
  57 F= -.10361283E+03 E0= -.10361283E+03  d E =-.324900E-10
       N       E                     dE             d eps       ncg     rms          rms(c)
DAV:   1    -0.103611684055E+03    0.11411E-02   -0.20599E-01    96   0.127E+00    0.137E-01
DAV:   2    -0.103612373644E+03   -0.68959E-03   -0.82472E-03   120   0.260E-01    0.607E-02
DAV:   3    -0.103612363454E+03    0.10189E-04   -0.20483E-04   156   0.496E-02    0.318E-02
DAV:   4    -0.103612357134E+03    0.63203E-05   -0.34022E-05   132   0.288E-02    0.741E-03
DAV:   5    -0.103612356285E+03    0.84870E-06   -0.15036E-05   132   0.147E-02    0.571E-03
DAV:   6    -0.103612356600E+03   -0.31435E-06   -0.13794E-06   120   0.398E-03
  58 F= -.10361236E+03 E0= -.10361236E+03  d E =-.807642E-11
       N       E                     dE             d eps       ncg     rms          rms(c)
DAV:   1    -0.103610600726E+03    0.17556E-02   -0.40500E-01   120   0.184E+00    0.213E-01
DAV:   2    -0.103612261497E+03   -0.16608E-02   -0.19965E-02   120   0.450E-01    0.117E-01
DAV:   3    -0.103612182324E+03    0.79172E-04   -0.37514E-04   156   0.659E-02    0.626E-02
DAV:   4    -0.103612131537E+03    0.50787E-04   -0.10855E-04   120   0.409E-02    0.114E-02
DAV:   5    -0.103612125092E+03    0.64449E-05   -0.25450E-05   132   0.188E-02    0.756E-03
DAV:   6    -0.103612133486E+03   -0.83938E-05   -0.74769E-06   132   0.845E-03    0.422E-03
DAV:   7    -0.103612153066E+03   -0.19580E-04   -0.26050E-06   132   0.514E-03    0.196E-03
DAV:   8    -0.103612180226E+03   -0.27159E-04   -0.27366E-06   108   0.430E-03    0.119E-03
DAV:   9    -0.103612198610E+03   -0.18385E-04   -0.16027E-06   120   0.306E-03    0.929E-04
DAV:  10    -0.103612214678E+03   -0.16067E-04   -0.13559E-06   108   0.248E-03    0.369E-04
DAV:  11    -0.103612220663E+03   -0.59856E-05   -0.25500E-07   108   0.117E-03    0.346E-04
DAV:  12    -0.103612226032E+03   -0.53691E-05   -0.29085E-07    96   0.110E-03    0.127E-04
DAV:  13    -0.103612227492E+03   -0.14601E-05   -0.49418E-08   108   0.506E-04    0.982E-05
DAV:  14    -0.103612228540E+03   -0.10471E-05   -0.87567E-09    96   0.295E-04    0.440E-05
DAV:  15    -0.103612229145E+03   -0.60506E-06   -0.68484E-09   108   0.232E-04
  59 F= -.10361223E+03 E0= -.10361223E+03  d E =-.273993E-10
       N       E                     dE             d eps       ncg     rms          rms(c)
DAV:   1    -0.103611211101E+03    0.10174E-02   -0.20189E-01    96   0.133E+00    0.153E-01
DAV:   2    -0.103611957620E+03   -0.74652E-03   -0.92336E-03   120   0.314E-01    0.787E-02
DAV:   3    -0.103611912690E+03    0.44930E-04   -0.15599E-04   132   0.421E-02    0.416E-02
DAV:   4    -0.103611879351E+03    0.33339E-04   -0.43372E-05   132   0.246E-02    0.826E-03
DAV:   5    -0.103611872031E+03    0.73195E-05   -0.78858E-06   132   0.116E-02    0.464E-03
DAV:   6    -0.103611873768E+03   -0.17371E-05   -0.36864E-06   132   0.722E-03    0.239E-03
DAV:   7    -0.103611882872E+03   -0.91032E-05   -0.16551E-06   120   0.486E-03    0.143E-03
DAV:   8    -0.103611895881E+03   -0.13009E-04   -0.70920E-07   108   0.273E-03    0.789E-04
DAV:   9    -0.103611909550E+03   -0.13669E-04   -0.90648E-07   120   0.225E-03    0.541E-04
DAV:  10    -0.103611920681E+03   -0.11131E-04   -0.46950E-07   108   0.159E-03    0.260E-04
DAV:  11    -0.103611926248E+03   -0.55668E-05   -0.18187E-07   108   0.923E-04    0.199E-04
DAV:  12    -0.103611930819E+03   -0.45710E-05   -0.94049E-08   108   0.659E-04    0.885E-05
DAV:  13    -0.103611932301E+03   -0.14824E-05   -0.19493E-08   108   0.357E-04    0.533E-05
DAV:  14    -0.103611933319E+03   -0.10185E-05   -0.72378E-09   108   0.245E-04    0.370E-05
DAV:  15    -0.103611933794E+03   -0.47467E-06    0.20260E-09   108   0.154E-04
  60 F= -.10361193E+03 E0= -.10361193E+03  d E =-.225197E-10
       N       E                     dE             d eps       ncg     rms          rms(c)
DAV:   1    -0.103610520739E+03    0.14126E-02   -0.40393E-01   108   0.187E+00    0.207E-01
DAV:   2    -0.103611956937E+03   -0.14362E-02   -0.18104E-02   132   0.431E-01    0.123E-01
DAV:   3    -0.103611843787E+03    0.11315E-03   -0.31047E-04   144   0.604E-02    0.627E-02
DAV:   4    -0.103611772108E+03    0.71679E-04   -0.93666E-05   132   0.367E-02    0.114E-02
DAV:   5    -0.103611769704E+03    0.24042E-05   -0.17491E-05   132   0.167E-02    0.666E-03
DAV:   6    -0.103611793300E+03   -0.23597E-04   -0.11189E-05   108   0.102E-02    0.364E-03
DAV:   7    -0.103611825701E+03   -0.32400E-04   -0.35441E-06   120   0.599E-03    0.215E-03
DAV:   8    -0.103611867302E+03   -0.41601E-04   -0.42149E-06   108   0.471E-03    0.110E-03
DAV:   9    -0.103611893552E+03   -0.26250E-04   -0.24599E-06   120   0.343E-03    0.875E-04
DAV:  10    -0.103611915171E+03   -0.21620E-04   -0.20337E-06   120   0.281E-03    0.382E-04
DAV:  11    -0.103611922212E+03   -0.70410E-05   -0.30108E-07   108   0.123E-03    0.279E-04
DAV:  12    -0.103611927569E+03   -0.53562E-05   -0.28415E-07   108   0.104E-03    0.141E-04
DAV:  13    -0.103611928895E+03   -0.13260E-05   -0.30910E-08   108   0.442E-04    0.723E-05
DAV:  14    -0.103611930017E+03   -0.11221E-05   -0.13969E-08   108   0.336E-04    0.544E-05
DAV:  15    -0.103611930339E+03   -0.32233E-06    0.19057E-09   108   0.160E-04
  61 F= -.10361193E+03 E0= -.10361193E+03  d E =-.832303E-11
       N       E                     dE             d eps       ncg     rms          rms(c)
DAV:   1    -0.103614919358E+03   -0.29893E-02   -0.23800E-01    96   0.164E+00    0.155E-01
DAV:   2    -0.103615279388E+03   -0.36003E-03   -0.63157E-03   132   0.262E-01    0.870E-02
DAV:   3    -0.103615200589E+03    0.78799E-04   -0.20908E-04   132   0.513E-02    0.377E-02
DAV:   4    -0.103615183666E+03    0.16923E-04   -0.75676E-05   132   0.299E-02    0.945E-03
DAV:   5    -0.103615179895E+03    0.37709E-05   -0.88569E-06   132   0.113E-02    0.677E-03
DAV:   6    -0.103615180984E+03   -0.10890E-05   -0.33995E-06   132   0.643E-03    0.228E-03
DAV:   7    -0.103615185398E+03   -0.44137E-05   -0.75687E-07   108   0.359E-03    0.135E-03
DAV:   8    -0.103615193342E+03   -0.79443E-05   -0.44461E-07   108   0.218E-03    0.760E-04
DAV:   9    -0.103615202866E+03   -0.95236E-05   -0.57251E-07   108   0.206E-03    0.434E-04
DAV:  10    -0.103615211171E+03   -0.83050E-05   -0.49499E-07   108   0.158E-03    0.295E-04
DAV:  11    -0.103615213911E+03   -0.27398E-05   -0.72950E-08   108   0.773E-04    0.214E-04
DAV:  12    -0.103615216263E+03   -0.23525E-05   -0.32882E-08   108   0.492E-04    0.108E-04
DAV:  13    -0.103615218087E+03   -0.18241E-05   -0.39886E-08   108   0.412E-04    0.783E-05
DAV:  14    -0.103615218910E+03   -0.82315E-06   -0.26236E-09   108   0.241E-04
  62 F= -.10361522E+03 E0= -.10361522E+03  d E =-.133769E-10
       N       E                     dE             d eps       ncg     rms          rms(c)
DAV:   1    -0.103615635216E+03   -0.41713E-03   -0.54961E-01    96   0.227E+00    0.228E-01
DAV:   2    -0.103615257857E+03    0.37736E-03   -0.32165E-03   120   0.185E-01    0.121E-01
DAV:   3    -0.103615050196E+03    0.20766E-03   -0.55125E-04   132   0.691E-02    0.345E-02
DAV:   4    -0.103615053453E+03   -0.32570E-05   -0.10449E-04   120   0.317E-02    0.137E-02
DAV:   5    -0.103615054699E+03   -0.12454E-05   -0.56436E-06   132   0.908E-03    0.844E-03
DAV:   6    -0.103615058344E+03   -0.36455E-05   -0.31637E-06   132   0.613E-03    0.149E-03
DAV:   7    -0.103615060562E+03   -0.22176E-05   -0.66904E-07   108   0.302E-03    0.114E-03
DAV:   8    -0.103615063138E+03   -0.25759E-05   -0.12703E-07   108   0.144E-03    0.486E-04
DAV:   9    -0.103615066555E+03   -0.34169E-05   -0.17082E-07   108   0.141E-03    0.416E-04
DAV:  10    -0.103615068351E+03   -0.17967E-05   -0.81895E-08   108   0.890E-04    0.231E-04
DAV:  11    -0.103615070087E+03   -0.17353E-05   -0.67568E-08   108   0.664E-04    0.279E-04
DAV:  12    -0.103615070892E+03   -0.80493E-06   -0.20372E-08   108   0.425E-04
  63 F= -.10361507E+03 E0= -.10361507E+03  d E =-.126854E-10
       N       E                     dE             d eps       ncg     rms          rms(c)
DAV:   1    -0.103614485730E+03    0.58436E-03   -0.29090E-01    96   0.161E+00    0.211E-01
DAV:   2    -0.103614218835E+03    0.26689E-03   -0.23447E-03   132   0.155E-01    0.103E-01
DAV:   3    -0.103614068170E+03    0.15066E-03   -0.41754E-04   132   0.579E-02    0.357E-02
DAV:   4    -0.103614064101E+03    0.40693E-05   -0.11439E-04   132   0.304E-02    0.144E-02
DAV:   5    -0.103614062273E+03    0.18282E-05   -0.48533E-06   132   0.904E-03    0.530E-03
DAV:   6    -0.103614063307E+03   -0.10344E-05   -0.31208E-06   132   0.586E-03    0.186E-03
DAV:   7    -0.103614064914E+03   -0.16071E-05   -0.62528E-07   108   0.277E-03    0.877E-04
DAV:   8    -0.103614067480E+03   -0.25660E-05   -0.17813E-07   108   0.148E-03    0.430E-04
DAV:   9    -0.103614069405E+03   -0.19249E-05   -0.11448E-07   108   0.110E-03    0.378E-04
DAV:  10    -0.103614072556E+03   -0.31507E-05   -0.17257E-07    96   0.102E-03    0.135E-04
DAV:  11    -0.103614073422E+03   -0.86644E-06   -0.32352E-08   108   0.543E-04
  64 F= -.10361407E+03 E0= -.10361407E+03  d E =-.144945E-10
       N       E                     dE             d eps       ncg     rms          rms(c)
DAV:   1    -0.103614684795E+03   -0.61224E-03   -0.56918E-01    96   0.226E+00    0.276E-01
DAV:   2    -0.103614157844E+03    0.52695E-03   -0.38640E-03   132   0.198E-01    0.136E-01
DAV:   3    -0.103613874720E+03    0.28312E-03   -0.75911E-04   120   0.737E-02    0.457E-02
DAV:   4    -0.103613863543E+03    0.11177E-04   -0.15226E-04   132   0.356E-02    0.189E-02
DAV:   5    -0.103613865573E+03   -0.20302E-05   -0.80799E-06   132   0.118E-02    0.741E-03
DAV:   6    -0.103613872193E+03   -0.66195E-05   -0.55761E-06   132   0.761E-03    0.244E-03
DAV:   7    -0.103613877563E+03   -0.53706E-05   -0.10607E-06   132   0.350E-03    0.121E-03
DAV:   8    -0.103613884713E+03   -0.71501E-05   -0.37353E-07   108   0.186E-03    0.521E-04
DAV:   9    -0.103613890057E+03   -0.53439E-05   -0.34346E-07   108   0.156E-03    0.495E-04
DAV:  10    -0.103613897007E+03   -0.69501E-05   -0.60735E-07   120   0.167E-03    0.244E-04
DAV:  11    -0.103613898364E+03   -0.13562E-05   -0.50854E-08   108   0.734E-04    0.168E-04
DAV:  12    -0.103613899447E+03   -0.10831E-05   -0.20877E-08   108   0.418E-04    0.112E-04
DAV:  13    -0.103613900688E+03   -0.12408E-05   -0.30815E-08   108   0.406E-04    0.771E-05
DAV:  14    -0.103613901219E+03   -0.53101E-06   -0.92838E-09   108   0.251E-04
  65 F= -.10361390E+03 E0= -.10361390E+03  d E =-.121038E-10
       N       E                     dE             d eps       ncg     rms          rms(c)
DAV:   1    -0.103615685683E+03   -0.17850E-02   -0.28951E-01    96   0.159E+00    0.207E-01
DAV:   2    -0.103615398136E+03    0.28755E-03   -0.22976E-03   132   0.156E-01    0.100E-01
[...]
 131 F= -.10361576E+03 E0= -.10361576E+03  d E =-.116689E-10
       N       E                     dE             d eps       ncg     rms          rms(c)
DAV:   1    -0.103615477143E+03    0.28422E-03   -0.27139E-01    96   0.165E+00    0.139E-01
DAV:   2    -0.103615356355E+03    0.12079E-03   -0.14184E-03   132   0.121E-01    0.779E-02
DAV:   3    -0.103615279275E+03    0.77080E-04   -0.21869E-04   132   0.442E-02    0.176E-02
DAV:   4    -0.103615282114E+03   -0.28391E-05   -0.32800E-05   132   0.184E-02    0.627E-03
DAV:   5    -0.103615282784E+03   -0.66989E-06   -0.16000E-06   120   0.473E-03
 132 F= -.10361528E+03 E0= -.10361528E+03  d E =-.158624E-10
       N       E                     dE             d eps       ncg     rms          rms(c)
DAV:   1    -0.103615726756E+03   -0.44464E-03   -0.55108E-01    96   0.227E+00    0.223E-01
DAV:   2    -0.103615432314E+03    0.29444E-03   -0.32359E-03   132   0.185E-01    0.118E-01
DAV:   3    -0.103615250997E+03    0.18132E-03   -0.49331E-04   132   0.664E-02    0.354E-02
DAV:   4    -0.103615252845E+03   -0.18480E-05   -0.10278E-04   132   0.310E-02    0.120E-02
DAV:   5    -0.103615251947E+03    0.89889E-06   -0.54462E-06   132   0.912E-03
 133 F= -.10361525E+03 E0= -.10361525E+03  d E =-.116301E-10
       N       E                     dE             d eps       ncg     rms          rms(c)
DAV:   1    -0.103615285415E+03   -0.32570E-04   -0.27661E-01    96   0.204E+00    0.160E-01
DAV:   2    -0.103615193924E+03    0.91491E-04   -0.21205E-03   120   0.171E-01    0.856E-02
DAV:   3    -0.103615103203E+03    0.90721E-04   -0.21470E-04   132   0.486E-02    0.283E-02
DAV:   4    -0.103615102526E+03    0.67787E-06   -0.57532E-05   132   0.242E-02    0.801E-03
DAV:   5    -0.103615101827E+03    0.69871E-06   -0.36619E-06   144   0.757E-03
 134 F= -.10361510E+03 E0= -.10361510E+03  d E =-.140890E-10
       N       E                     dE             d eps       ncg     rms          rms(c)
DAV:   1    -0.103615596125E+03   -0.49360E-03   -0.55332E-01    96   0.270E+00    0.231E-01
DAV:   2    -0.103615298159E+03    0.29797E-03   -0.34711E-03   132   0.213E-01    0.121E-01
DAV:   3    -0.103615087754E+03    0.21041E-03   -0.44146E-04   132   0.651E-02    0.394E-02
DAV:   4    -0.103615080050E+03    0.77035E-05   -0.10979E-04   132   0.324E-02    0.121E-02
DAV:   5    -0.103615080473E+03   -0.42237E-06   -0.68583E-06   132   0.108E-02
 135 F= -.10361508E+03 E0= -.10361508E+03  d E =-.119838E-10
       N       E                     dE             d eps       ncg     rms          rms(c)
DAV:   1    -0.103614391439E+03    0.68861E-03   -0.28999E-01    96   0.197E+00    0.210E-01
DAV:   2    -0.103614161262E+03    0.23018E-03   -0.25113E-03   132   0.186E-01    0.102E-01
DAV:   3    -0.103614016700E+03    0.14456E-03   -0.37346E-04   132   0.649E-02    0.371E-02
DAV:   4    -0.103614015908E+03    0.79228E-06   -0.12157E-04   132   0.350E-02    0.142E-02
DAV:   5    -0.103614014522E+03    0.13851E-05   -0.60764E-06   132   0.103E-02    0.637E-03
DAV:   6    -0.103614014675E+03   -0.15298E-06   -0.26903E-06   132   0.609E-03
 136 F= -.10361401E+03 E0= -.10361401E+03  d E =-.132847E-10
       N       E                     dE             d eps       ncg     rms          rms(c)
DAV:   1    -0.103614929967E+03   -0.91544E-03   -0.57206E-01   108   0.275E+00    0.271E-01
DAV:   2    -0.103614391836E+03    0.53813E-03   -0.45988E-03   132   0.256E-01    0.137E-01
DAV:   3    -0.103614097864E+03    0.29397E-03   -0.79959E-04   132   0.940E-02    0.458E-02
DAV:   4    -0.103614098622E+03   -0.75816E-06   -0.20154E-04   132   0.473E-02    0.206E-02
DAV:   5    -0.103614098228E+03    0.39429E-06   -0.85038E-06   132   0.118E-02
 137 F= -.10361410E+03 E0= -.10361410E+03  d E =-.133305E-10
       N       E                     dE             d eps       ncg     rms          rms(c)
DAV:   1    -0.103615530393E+03   -0.14318E-02   -0.28859E-01   108   0.196E+00    0.207E-01
DAV:   2    -0.103615279211E+03    0.25118E-03   -0.24721E-03   132   0.185E-01    0.101E-01
DAV:   3    -0.103615135802E+03    0.14341E-03   -0.40334E-04   132   0.668E-02    0.353E-02
DAV:   4    -0.103615137377E+03   -0.15747E-05   -0.12077E-04   132   0.354E-02    0.141E-02
DAV:   5    -0.103615136535E+03    0.84219E-06   -0.50651E-06   132   0.952E-03
 138 F= -.10361514E+03 E0= -.10361514E+03  d E =-.150790E-10
       N       E                     dE             d eps       ncg     rms          rms(c)
DAV:   1    -0.103615659840E+03   -0.52246E-03   -0.54797E-01    96   0.272E+00    0.229E-01
DAV:   2    -0.103615366916E+03    0.29292E-03   -0.35253E-03   132   0.218E-01    0.121E-01
DAV:   3    -0.103615164514E+03    0.20240E-03   -0.47252E-04   132   0.695E-02    0.378E-02
DAV:   4    -0.103615165742E+03   -0.12272E-05   -0.10964E-04   144   0.334E-02    0.134E-02
DAV:   5    -0.103615165864E+03   -0.12284E-06   -0.61453E-06   132   0.993E-03
 139 F= -.10361517E+03 E0= -.10361517E+03  d E =-.118102E-10
       N       E                     dE             d eps       ncg     rms          rms(c)
DAV:   1    -0.103614951497E+03    0.21424E-03   -0.27685E-01    96   0.199E+00    0.169E-01
DAV:   2    -0.103614848062E+03    0.10344E-03   -0.19258E-03   120   0.155E-01    0.877E-02
DAV:   3    -0.103614755937E+03    0.92125E-04   -0.25978E-04   132   0.475E-02    0.282E-02
DAV:   4    -0.103614752782E+03    0.31548E-05   -0.45937E-05   144   0.202E-02    0.105E-02
DAV:   5    -0.103614751175E+03    0.16074E-05   -0.25811E-06   132   0.739E-03    0.548E-03
DAV:   6    -0.103614751068E+03    0.10668E-06   -0.24076E-06   132   0.622E-03
 140 F= -.10361475E+03 E0= -.10361475E+03  d E =-.138399E-10
       N       E                     dE             d eps       ncg     rms          rms(c)
DAV:   1    -0.103615444173E+03   -0.69300E-03   -0.55730E-01    96   0.262E+00    0.246E-01
DAV:   2    -0.103615104694E+03    0.33948E-03   -0.36740E-03   120   0.221E-01    0.125E-01
DAV:   3    -0.103614881068E+03    0.22363E-03   -0.50448E-04   132   0.685E-02    0.415E-02
DAV:   4    -0.103614871353E+03    0.97151E-05   -0.11489E-04   132   0.330E-02    0.131E-02
DAV:   5    -0.103614871555E+03   -0.20242E-06   -0.72301E-06   132   0.115E-02
 141 F= -.10361487E+03 E0= -.10361487E+03  d E =-.119204E-10
       N       E                     dE             d eps       ncg     rms          rms(c)
DAV:   1    -0.103614047642E+03    0.82371E-03   -0.27298E-01    96   0.187E+00    0.139E-01
DAV:   2    -0.103613920654E+03    0.12699E-03   -0.15331E-03   132   0.138E-01    0.785E-02
DAV:   3    -0.103613836147E+03    0.84507E-04   -0.25911E-04   132   0.526E-02    0.170E-02
DAV:   4    -0.103613841397E+03   -0.52495E-05   -0.50119E-05   132   0.240E-02    0.871E-03
DAV:   5    -0.103613841920E+03   -0.52369E-06   -0.12103E-06   120   0.435E-03
 142 F= -.10361384E+03 E0= -.10361384E+03  d E =-.121231E-10
       N       E                     dE             d eps       ncg     rms          rms(c)
DAV:   1    -0.103614477157E+03   -0.63576E-03   -0.58096E-01    96   0.269E+00    0.289E-01
DAV:   2    -0.103613949788E+03    0.52737E-03   -0.49942E-03   132   0.258E-01    0.142E-01
DAV:   3    -0.103613639578E+03    0.31021E-03   -0.85792E-04   132   0.970E-02    0.478E-02
DAV:   4    -0.103613641916E+03   -0.23380E-05   -0.24306E-04   132   0.501E-02    0.197E-02
DAV:   5    -0.103613639971E+03    0.19452E-05   -0.92440E-06   132   0.127E-02    0.868E-03
DAV:   6    -0.103613640169E+03   -0.19841E-06   -0.54303E-06   120   0.878E-03
 143 F= -.10361364E+03 E0= -.10361364E+03  d E =-.145778E-10
       N       E                     dE             d eps       ncg     rms          rms(c)
DAV:   1    -0.103616056884E+03   -0.24169E-02   -0.28145E-01    96   0.186E+00    0.169E-01
DAV:   2    -0.103615840017E+03    0.21687E-03   -0.19131E-03   132   0.163E-01    0.897E-02
DAV:   3    -0.103615726493E+03    0.11352E-03   -0.33212E-04   132   0.604E-02    0.257E-02
DAV:   4    -0.103615731575E+03   -0.50813E-05   -0.76510E-05   132   0.289E-02    0.116E-02
DAV:   5    -0.103615731647E+03   -0.71902E-07   -0.24832E-06   120   0.651E-03
 144 F= -.10361573E+03 E0= -.10361573E+03  d E =-.146597E-10
       N       E                     dE             d eps       ncg     rms          rms(c)
DAV:   1    -0.103616159469E+03   -0.42789E-03   -0.54163E-01    96   0.257E+00    0.199E-01
DAV:   2    -0.103615898819E+03    0.26065E-03   -0.29080E-03   132   0.193E-01    0.112E-01
DAV:   3    -0.103615732212E+03    0.16661E-03   -0.42686E-04   132   0.670E-02    0.244E-02
DAV:   4    -0.103615737311E+03   -0.50986E-05   -0.68732E-05   132   0.274E-02    0.100E-02
DAV:   5    -0.103615737786E+03   -0.47520E-06   -0.29654E-06   144   0.639E-03
 145 F= -.10361574E+03 E0= -.10361574E+03  d E =-.117843E-10
       N       E                     dE             d eps       ncg     rms          rms(c)
DAV:   1    -0.103615083641E+03    0.65367E-03   -0.27710E-01    96   0.199E+00    0.158E-01
DAV:   2    -0.103614944143E+03    0.13950E-03   -0.20054E-03   132   0.165E-01    0.855E-02
DAV:   3    -0.103614847676E+03    0.96467E-04   -0.26794E-04   132   0.551E-02    0.261E-02
DAV:   4    -0.103614851833E+03   -0.41565E-05   -0.72829E-05   132   0.271E-02    0.992E-03
DAV:   5    -0.103614851521E+03    0.31184E-06   -0.25586E-06   132   0.646E-03
 146 F= -.10361485E+03 E0= -.10361485E+03  d E =-.140898E-10
       N       E                     dE             d eps       ncg     rms          rms(c)
DAV:   1    -0.103615475245E+03   -0.62341E-03   -0.56189E-01    96   0.245E+00    0.239E-01
DAV:   2    -0.103615051471E+03    0.42377E-03   -0.38127E-03   132   0.202E-01    0.127E-01
DAV:   3    -0.103614801239E+03    0.25023E-03   -0.66743E-04   132   0.766E-02    0.375E-02
DAV:   4    -0.103614805030E+03   -0.37913E-05   -0.15506E-04   132   0.376E-02    0.164E-02
DAV:   5    -0.103614804355E+03    0.67498E-06   -0.58836E-06   132   0.856E-03
 147 F= -.10361480E+03 E0= -.10361480E+03  d E =-.126666E-10
       N       E                     dE             d eps       ncg     rms          rms(c)
DAV:   1    -0.103614028592E+03    0.77644E-03   -0.27241E-01    96   0.171E+00    0.142E-01
DAV:   2    -0.103613890994E+03    0.13760E-03   -0.13452E-03   120   0.114E-01    0.780E-02
DAV:   3    -0.103613802272E+03    0.88721E-04   -0.20516E-04   132   0.408E-02    0.205E-02
DAV:   4    -0.103613803965E+03   -0.16928E-05   -0.38145E-05   132   0.185E-02    0.657E-03
DAV:   5    -0.103613805349E+03   -0.13836E-05   -0.21708E-06   132   0.528E-03    0.416E-03
DAV:   6    -0.103613807603E+03   -0.22549E-05   -0.73875E-07    96   0.297E-03    0.103E-03
DAV:   7    -0.103613809285E+03   -0.16816E-05   -0.24476E-07   108   0.170E-03    0.593E-04
DAV:   8    -0.103613811619E+03   -0.23337E-05   -0.10883E-07    96   0.126E-03    0.267E-04
DAV:   9    -0.103613813790E+03   -0.21712E-05   -0.13938E-07   108   0.111E-03    0.224E-04
DAV:  10    -0.103613815664E+03   -0.18744E-05   -0.92334E-08   108   0.784E-04    0.130E-04
DAV:  11    -0.103613816323E+03   -0.65820E-06   -0.18692E-08   108   0.382E-04
 148 F= -.10361382E+03 E0= -.10361382E+03  d E =-.129388E-10
       N       E                     dE             d eps       ncg     rms          rms(c)
DAV:   1    -0.103614399013E+03   -0.58335E-03   -0.57650E-01    96   0.248E+00    0.294E-01
DAV:   2    -0.103613940769E+03    0.45824E-03   -0.44315E-03   132   0.213E-01    0.141E-01
DAV:   3    -0.103613646276E+03    0.29449E-03   -0.69430E-04   132   0.743E-02    0.529E-02
DAV:   4    -0.103613629527E+03    0.16749E-04   -0.21026E-04   132   0.408E-02    0.174E-02
DAV:   5    -0.103613626697E+03    0.28301E-05   -0.12182E-05   132   0.137E-02    0.759E-03
DAV:   6    -0.103613628448E+03   -0.17509E-05   -0.53223E-06   132   0.772E-03    0.270E-03
DAV:   7    -0.103613631129E+03   -0.26816E-05   -0.10551E-06   132   0.350E-03    0.126E-03
DAV:   8    -0.103613635541E+03   -0.44123E-05   -0.28274E-07   108   0.180E-03    0.541E-04
DAV:   9    -0.103613638646E+03   -0.31050E-05   -0.18638E-07   108   0.126E-03    0.552E-04
DAV:  10    -0.103613644539E+03   -0.58924E-05   -0.31668E-07    96   0.136E-03    0.224E-04
DAV:  11    -0.103613646255E+03   -0.17163E-05   -0.75988E-08   108   0.735E-04    0.184E-04
DAV:  12    -0.103613647655E+03   -0.13998E-05   -0.12507E-08    96   0.386E-04    0.129E-04
DAV:  13    -0.103613649411E+03   -0.17557E-05   -0.30394E-08   108   0.413E-04    0.129E-04
DAV:  14    -0.103613650193E+03   -0.78235E-06   -0.74583E-09   108   0.255E-04
 149 F= -.10361365E+03 E0= -.10361365E+03  d E =-.130244E-10
       N       E                     dE             d eps       ncg     rms          rms(c)
DAV:   1    -0.103615987920E+03   -0.23385E-02   -0.27810E-01    96   0.175E+00    0.170E-01
DAV:   2    -0.103615777677E+03    0.21024E-03   -0.17258E-03   132   0.138E-01    0.887E-02
DAV:   3    -0.103615665168E+03    0.11251E-03   -0.27439E-04   132   0.489E-02    0.277E-02
DAV:   4    -0.103615666582E+03   -0.14138E-05   -0.64131E-05   132   0.240E-02    0.105E-02
DAV:   5    -0.103615667531E+03   -0.94862E-06   -0.37001E-06   132   0.741E-03
 150 F= -.10361567E+03 E0= -.10361567E+03  d E =-.148328E-10
       N       E                     dE             d eps       ncg     rms          rms(c)
DAV:   1    -0.103616254105E+03   -0.58752E-03   -0.54267E-01    96   0.244E+00    0.201E-01
DAV:   2    -0.103615958673E+03    0.29543E-03   -0.26374E-03   132   0.167E-01    0.112E-01
DAV:   3    -0.103615779721E+03    0.17895E-03   -0.46068E-04   132   0.633E-02    0.231E-02
DAV:   4    -0.103615786514E+03   -0.67930E-05   -0.72379E-05   132   0.264E-02    0.855E-03
DAV:   5    -0.103615787753E+03   -0.12390E-05   -0.34150E-06   132   0.649E-03    0.580E-03
DAV:   6    -0.103615791078E+03   -0.33253E-05   -0.16073E-06   132   0.385E-03    0.120E-03
DAV:   7    -0.103615793371E+03   -0.22928E-05   -0.21099E-07   108   0.167E-03    0.829E-04
DAV:   8    -0.103615796910E+03   -0.35393E-05   -0.14989E-07   108   0.154E-03    0.386E-04
DAV:   9    -0.103615800100E+03   -0.31893E-05   -0.17468E-07   108   0.144E-03    0.316E-04
DAV:  10    -0.103615802464E+03   -0.23645E-05   -0.11647E-07   108   0.902E-04    0.192E-04
DAV:  11    -0.103615803698E+03   -0.12341E-05   -0.32295E-08   108   0.467E-04    0.143E-04
DAV:  12    -0.103615804507E+03   -0.80838E-06   -0.15038E-08   108   0.311E-04
 151 F= -.10361580E+03 E0= -.10361580E+03  d E =-.110718E-10
       N       E                     dE             d eps       ncg     rms          rms(c)
DAV:   1    -0.103613845447E+03    0.19583E-02   -0.28067E-01    96   0.176E+00    0.180E-01
DAV:   2    -0.103613612163E+03    0.23328E-03   -0.22121E-03   132   0.158E-01    0.903E-02
DAV:   3    -0.103613480235E+03    0.13193E-03   -0.35898E-04   132   0.576E-02    0.306E-02
DAV:   4    -0.103613484303E+03   -0.40684E-05   -0.10012E-04   132   0.303E-02    0.107E-02
DAV:   5    -0.103613485441E+03   -0.11374E-05   -0.48623E-06   132   0.798E-03    0.610E-03
DAV:   6    -0.103613487248E+03   -0.18071E-05   -0.16385E-06   120   0.436E-03    0.123E-03
DAV:   7    -0.103613488445E+03   -0.11974E-05   -0.38217E-07   108   0.223E-03    0.665E-04
DAV:   8    -0.103613490250E+03   -0.18045E-05   -0.90148E-08   108   0.113E-03    0.233E-04
DAV:   9    -0.103613491480E+03   -0.12300E-05   -0.44672E-08   108   0.738E-04    0.187E-04
DAV:  10    -0.103613493208E+03   -0.17284E-05   -0.67192E-08   108   0.699E-04    0.792E-05
DAV:  11    -0.103613493789E+03   -0.58058E-06   -0.17593E-08   108   0.419E-04
 152 F= -.10361349E+03 E0= -.10361349E+03  d E =-.136140E-10
       N       E                     dE             d eps       ncg     rms          rms(c)
DAV:   1    -0.103614256190E+03   -0.76298E-03   -0.58402E-01    96   0.250E+00    0.296E-01
DAV:   2    -0.103613704686E+03    0.55150E-03   -0.49720E-03   132   0.234E-01    0.147E-01
DAV:   3    -0.103613371042E+03    0.33364E-03   -0.88570E-04   132   0.886E-02    0.493E-02
DAV:   4    -0.103613369106E+03    0.19359E-05   -0.23731E-04   132   0.455E-02    0.200E-02
DAV:   5    -0.103613367063E+03    0.20438E-05   -0.10095E-05   132   0.120E-02    0.874E-03
DAV:   6    -0.103613368399E+03   -0.13363E-05   -0.55425E-06   132   0.824E-03    0.198E-03
DAV:   7    -0.103613370938E+03   -0.25391E-05   -0.15273E-06   132   0.404E-03    0.138E-03
DAV:   8    -0.103613374499E+03   -0.35605E-05   -0.15321E-07   108   0.108E-03    0.501E-04
DAV:   9    -0.103613377689E+03   -0.31902E-05   -0.14157E-07   108   0.104E-03    0.443E-04
DAV:  10    -0.103613382279E+03   -0.45901E-05   -0.28503E-07   108   0.139E-03    0.627E-04
DAV:  11    -0.103613384086E+03   -0.18070E-05   -0.76549E-08   108   0.788E-04    0.174E-04
DAV:  12    -0.103613384883E+03   -0.79696E-06   -0.85371E-09   108   0.374E-04
 153 F= -.10361338E+03 E0= -.10361338E+03  d E =-.127762E-10
       N       E                     dE             d eps       ncg     rms          rms(c)
DAV:   1    -0.103616089534E+03   -0.27054E-02   -0.28478E-01    96   0.176E+00    0.197E-01
DAV:   2    -0.103615837643E+03    0.25189E-03   -0.20495E-03   132   0.147E-01    0.959E-02
DAV:   3    -0.103615701188E+03    0.13646E-03   -0.31039E-04   132   0.492E-02    0.355E-02
DAV:   4    -0.103615695777E+03    0.54104E-05   -0.88607E-05   120   0.266E-02    0.114E-02
DAV:   5    -0.103615697575E+03   -0.17974E-05   -0.55381E-06   132   0.929E-03    0.538E-03
DAV:   6    -0.103615701443E+03   -0.38683E-05   -0.25490E-06   132   0.524E-03    0.160E-03
DAV:   7    -0.103615703828E+03   -0.23850E-05   -0.41878E-07   108   0.239E-03    0.873E-04
DAV:   8    -0.103615708617E+03   -0.47887E-05   -0.25729E-07   108   0.141E-03    0.424E-04
DAV:   9    -0.103615710591E+03   -0.19737E-05   -0.94439E-08   108   0.102E-03    0.406E-04
DAV:  10    -0.103615714122E+03   -0.35318E-05   -0.19510E-07   108   0.115E-03    0.285E-04
DAV:  11    -0.103615715531E+03   -0.14086E-05   -0.93222E-08   108   0.740E-04    0.152E-04
DAV:  12    -0.103615716120E+03   -0.58907E-06   -0.11706E-08    96   0.391E-04
 154 F= -.10361572E+03 E0= -.10361572E+03  d E =-.128842E-10
       N       E                     dE             d eps       ncg     rms          rms(c)
DAV:   1    -0.103616076660E+03   -0.36113E-03   -0.54990E-01    96   0.242E+00    0.204E-01
DAV:   2    -0.103615806046E+03    0.27061E-03   -0.27596E-03   120   0.162E-01    0.113E-01
DAV:   3    -0.103615612567E+03    0.19348E-03   -0.43242E-04   132   0.579E-02    0.296E-02
DAV:   4    -0.103615613472E+03   -0.90459E-06   -0.82211E-05   132   0.265E-02    0.885E-03
DAV:   5    -0.103615612866E+03    0.60639E-06   -0.44837E-06   132   0.752E-03
 155 F= -.10361561E+03 E0= -.10361561E+03  d E =-.143790E-10
       N       E                     dE             d eps       ncg     rms          rms(c)
DAV:   1    -0.103615348137E+03    0.26534E-03   -0.27340E-01    96   0.173E+00    0.147E-01
DAV:   2    -0.103615205391E+03    0.14275E-03   -0.15125E-03   132   0.128E-01    0.821E-02
DAV:   3    -0.103615118434E+03    0.86957E-04   -0.25368E-04   132   0.494E-02    0.183E-02
DAV:   4    -0.103615125193E+03   -0.67591E-05   -0.48312E-05   132   0.215E-02    0.773E-03
DAV:   5    -0.103615126099E+03   -0.90611E-06   -0.17428E-06   132   0.490E-03
 156 F= -.10361513E+03 E0= -.10361513E+03  d E =-.169196E-10
       N       E                     dE             d eps       ncg     rms          rms(c)
DAV:   1    -0.103615788092E+03   -0.66290E-03   -0.54808E-01    96   0.247E+00    0.230E-01
DAV:   2    -0.103615450480E+03    0.33761E-03   -0.31331E-03   132   0.184E-01    0.121E-01
DAV:   3    -0.103615243735E+03    0.20674E-03   -0.47762E-04   132   0.633E-02    0.367E-02
DAV:   4    -0.103615244861E+03   -0.11259E-05   -0.10152E-04   144   0.301E-02    0.114E-02
DAV:   5    -0.103615245264E+03   -0.40294E-06   -0.70323E-06   132   0.978E-03
 157 F= -.10361525E+03 E0= -.10361525E+03  d E =-.104415E-10
