       N       E                     dE             d eps       ncg     rms          rms(c)
DAV:   1     0.243547904158E+03    0.24355E+03   -0.10223E+04   120   0.484E+02
DAV:   2    -0.250783866606E+02   -0.26863E+03   -0.25453E+03   156   0.921E+01
DAV:   3    -0.105170367447E+03   -0.80092E+02   -0.79877E+02   120   0.554E+01
DAV:   4    -0.109115759102E+03   -0.39454E+01   -0.39321E+01   132   0.177E+01
DAV:   5    -0.109187805660E+03   -0.72047E-01   -0.71982E-01   156   0.269E+00    0.161E+01
DAV:   6    -0.105548748458E+03    0.36391E+01   -0.16526E+00   120   0.441E+00    0.934E+00
DAV:   7    -0.103666955651E+03    0.18818E+01   -0.44681E+00   120   0.648E+00    0.133E+00
DAV:   8    -0.103614763680E+03    0.52192E-01   -0.33474E-01   132   0.220E+00    0.703E-01
DAV:   9    -0.103580980443E+03    0.33783E-01   -0.63786E-02   132   0.688E-01    0.369E-01
DAV:  10    -0.103579281535E+03    0.16989E-02   -0.34155E-03   132   0.206E-01    0.157E-01
DAV:  11    -0.103577826849E+03    0.14547E-02   -0.64256E-03   120   0.216E-01    0.104E-01
DAV:  12    -0.103582497260E+03   -0.46704E-02   -0.13806E-03   132   0.102E-01    0.564E-02
DAV:  13    -0.103586746381E+03   -0.42491E-02   -0.21546E-03   120   0.110E-01    0.439E-02
DAV:  14    -0.103589636114E+03   -0.28897E-02   -0.15996E-04   144   0.398E-02    0.240E-02
DAV:  15    -0.103595440871E+03   -0.58048E-02   -0.71015E-04   108   0.646E-02    0.155E-02
DAV:  16    -0.103596666889E+03   -0.12260E-02   -0.66211E-05   120   0.262E-02    0.886E-03
DAV:  17    -0.103598238326E+03   -0.15714E-02   -0.16954E-04   120   0.271E-02    0.766E-03
DAV:  18    -0.103598373776E+03   -0.13545E-03   -0.27297E-06   132   0.432E-03    0.320E-03
DAV:  19    -0.103598705203E+03   -0.33143E-03   -0.15882E-05   108   0.873E-03    0.238E-03
DAV:  20    -0.103598756382E+03   -0.51180E-04   -0.10136E-06   120   0.340E-03    0.108E-03
DAV:  21    -0.103598799966E+03   -0.43583E-04   -0.12509E-06   120   0.265E-03    0.578E-04
DAV:  22    -0.103598809521E+03   -0.95552E-05   -0.14647E-07   108   0.120E-03    0.308E-04
DAV:  23    -0.103598814276E+03   -0.47550E-05   -0.92348E-08   108   0.733E-04    0.238E-04
DAV:  24    -0.103598818533E+03   -0.42569E-05   -0.62424E-08   108   0.604E-04    0.957E-05
DAV:  25    -0.103598819553E+03   -0.10206E-05   -0.88733E-09   108   0.329E-04    0.997E-05
DAV:  26    -0.103598820116E+03   -0.56278E-06    0.26500E-09    96   0.199E-04
   1 F= -.10359882E+03 E0= -.10359882E+03  d E =-.220476E-10
       N       E                     dE             d eps       ncg     rms          rms(c)
DAV:   1    -0.103595460365E+03    0.33592E-02   -0.81553E-02   120   0.813E-01    0.131E-01
DAV:   2    -0.103595803237E+03   -0.34287E-03   -0.39835E-03   132   0.209E-01    0.579E-02
DAV:   3    -0.103595787028E+03    0.16210E-04   -0.15660E-04   132   0.463E-02    0.301E-02
DAV:   4    -0.103595790428E+03   -0.33998E-05   -0.39032E-05   144   0.224E-02    0.942E-03
DAV:   5    -0.103595789617E+03    0.81082E-06   -0.55914E-06   132   0.936E-03
   2 F= -.10359579E+03 E0= -.10359579E+03  d E =-.276627E-10
       N       E                     dE             d eps       ncg     rms          rms(c)
DAV:   1    -0.103594366143E+03    0.14243E-02   -0.32510E-01    96   0.163E+00    0.265E-01
DAV:   2    -0.103595719398E+03   -0.13533E-02   -0.15761E-02   132   0.418E-01    0.116E-01
DAV:   3    -0.103595657384E+03    0.62014E-04   -0.62300E-04   132   0.919E-02    0.615E-02
DAV:   4    -0.103595675152E+03   -0.17768E-04   -0.15556E-04   132   0.447E-02    0.189E-02
DAV:   5    -0.103595672819E+03    0.23336E-05   -0.24075E-05   132   0.192E-02    0.105E-02
DAV:   6    -0.103595672332E+03    0.48622E-06   -0.50028E-06   132   0.774E-03
   3 F= -.10359567E+03 E0= -.10359567E+03  d E =-.288171E-10
       N       E                     dE             d eps       ncg     rms          rms(c)
DAV:   1    -0.103595084872E+03    0.58795E-03   -0.16566E-01    96   0.118E+00    0.193E-01
DAV:   2    -0.103595740370E+03   -0.65550E-03   -0.76941E-03   120   0.295E-01    0.808E-02
DAV:   3    -0.103595713534E+03    0.26836E-04   -0.30803E-04   132   0.644E-02    0.432E-02
DAV:   4    -0.103595723905E+03   -0.10371E-04   -0.68821E-05   120   0.302E-02    0.134E-02
DAV:   5    -0.103595723896E+03    0.94706E-08   -0.11970E-05   132   0.137E-02    0.719E-03
DAV:   6    -0.103595724162E+03   -0.26683E-06   -0.27284E-06   132   0.578E-03
   4 F= -.10359572E+03 E0= -.10359572E+03  d E =-.266158E-10
       N       E                     dE             d eps       ncg     rms          rms(c)
DAV:   1    -0.103594469736E+03    0.12542E-02   -0.32671E-01    96   0.164E+00    0.275E-01
DAV:   2    -0.103595741933E+03   -0.12722E-02   -0.14972E-02   132   0.419E-01    0.115E-01
DAV:   3    -0.103595688565E+03    0.53369E-04   -0.58651E-04   144   0.899E-02    0.625E-02
DAV:   4    -0.103595701810E+03   -0.13245E-04   -0.14120E-04   132   0.443E-02    0.174E-02
DAV:   5    -0.103595698652E+03    0.31575E-05   -0.29271E-05   132   0.207E-02    0.103E-02
DAV:   6    -0.103595698229E+03    0.42322E-06   -0.54278E-06   132   0.807E-03
   5 F= -.10359570E+03 E0= -.10359570E+03  d E =-.305128E-10
       N       E                     dE             d eps       ncg     rms          rms(c)
DAV:   1    -0.103593797245E+03    0.19014E-02   -0.16403E-01    96   0.119E+00    0.189E-01
DAV:   2    -0.103594656641E+03   -0.85940E-03   -0.95605E-03   120   0.333E-01    0.958E-02
DAV:   3    -0.103594606908E+03    0.49733E-04   -0.31923E-04   132   0.704E-02    0.513E-02
DAV:   4    -0.103594613657E+03   -0.67493E-05   -0.12421E-04   132   0.404E-02    0.135E-02
DAV:   5    -0.103594611872E+03    0.17854E-05   -0.18471E-05   132   0.163E-02    0.815E-03
DAV:   6    -0.103594613597E+03   -0.17251E-05   -0.36290E-06   132   0.630E-03    0.498E-03
DAV:   7    -0.103594619076E+03   -0.54790E-05   -0.49693E-07   108   0.261E-03    0.156E-03
DAV:   8    -0.103594623696E+03   -0.46198E-05   -0.34857E-07   108   0.205E-03    0.635E-04
DAV:   9    -0.103594629099E+03   -0.54032E-05   -0.31006E-07   108   0.167E-03    0.544E-04
DAV:  10    -0.103594636388E+03   -0.72891E-05   -0.65950E-07   120   0.176E-03    0.499E-04
DAV:  11    -0.103594637278E+03   -0.89021E-06   -0.31035E-08   108   0.724E-04
   6 F= -.10359464E+03 E0= -.10359464E+03  d E =-.299820E-10
       N       E                     dE             d eps       ncg     rms          rms(c)
DAV:   1    -0.103592070216E+03    0.25662E-02   -0.33096E-01    96   0.169E+00    0.273E-01
DAV:   2    -0.103594418544E+03   -0.23483E-02   -0.25508E-02   120   0.518E-01    0.171E-01
DAV:   3    -0.103594236497E+03    0.18205E-03   -0.70508E-04   132   0.110E-01    0.901E-02
DAV:   4    -0.103594238638E+03   -0.21405E-05   -0.45319E-04   132   0.732E-02    0.175E-02
DAV:   5    -0.103594228466E+03    0.10172E-04   -0.63638E-05   132   0.284E-02    0.127E-02
DAV:   6    -0.103594228017E+03    0.44871E-06   -0.10984E-05   132   0.914E-03    0.834E-03
DAV:   7    -0.103594238370E+03   -0.10353E-04   -0.99102E-07   120   0.356E-03    0.345E-03
DAV:   8    -0.103594255211E+03   -0.16841E-04   -0.19948E-06   132   0.500E-03    0.151E-03
DAV:   9    -0.103594266979E+03   -0.11768E-04   -0.10130E-06   132   0.260E-03    0.163E-03
DAV:  10    -0.103594286450E+03   -0.19471E-04   -0.91141E-07   120   0.208E-03    0.911E-04
DAV:  11    -0.103594292346E+03   -0.58956E-05   -0.23165E-07   108   0.117E-03    0.620E-04
DAV:  12    -0.103594300457E+03   -0.81116E-05   -0.25628E-07   108   0.110E-03    0.259E-04
DAV:  13    -0.103594303468E+03   -0.30107E-05   -0.81899E-08   108   0.595E-04    0.251E-04
DAV:  14    -0.103594305696E+03   -0.22280E-05   -0.20058E-08   108   0.392E-04    0.108E-04
DAV:  15    -0.103594307012E+03   -0.13160E-05   -0.19681E-08   108   0.325E-04    0.832E-05
DAV:  16    -0.103594307593E+03   -0.58086E-06    0.24102E-09   108   0.179E-04
   7 F= -.10359431E+03 E0= -.10359431E+03  d E =-.274562E-10
       N       E                     dE             d eps       ncg     rms          rms(c)
DAV:   1    -0.103593517248E+03    0.78976E-03   -0.19013E-01    96   0.132E+00    0.200E-01
DAV:   2    -0.103594881570E+03   -0.13643E-02   -0.14297E-02   132   0.418E-01    0.120E-01
DAV:   3    -0.103594801024E+03    0.80547E-04   -0.40564E-04   132   0.842E-02    0.656E-02
DAV:   4    -0.103594802580E+03   -0.15569E-05   -0.21504E-04   132   0.553E-02    0.130E-02
DAV:   5    -0.103594797651E+03    0.49299E-05   -0.38934E-05   132   0.222E-02    0.971E-03
DAV:   6    -0.103594798359E+03   -0.70833E-06   -0.39578E-06   144   0.639E-03
   8 F= -.10359480E+03 E0= -.10359480E+03  d E =-.266004E-10
       N       E                     dE             d eps       ncg     rms          rms(c)
DAV:   1    -0.103593005085E+03    0.17926E-02   -0.33669E-01    96   0.174E+00    0.257E-01
DAV:   2    -0.103594980902E+03   -0.19758E-02   -0.20391E-02   120   0.487E-01    0.154E-01
DAV:   3    -0.103594917146E+03    0.63756E-04   -0.56819E-04   132   0.917E-02    0.846E-02
DAV:   4    -0.103594914348E+03    0.27979E-05   -0.21443E-04   132   0.553E-02    0.163E-02
DAV:   5    -0.103594904377E+03    0.99714E-05   -0.39268E-05   144   0.235E-02    0.106E-02
DAV:   6    -0.103594903632E+03    0.74503E-06   -0.74965E-06   132   0.100E-02
   9 F= -.10359490E+03 E0= -.10359490E+03  d E =-.279015E-10
       N       E                     dE             d eps       ncg     rms          rms(c)
DAV:   1    -0.103592833326E+03    0.20711E-02   -0.17016E-01    96   0.124E+00    0.182E-01
DAV:   2    -0.103593968150E+03   -0.11348E-02   -0.11440E-02   132   0.367E-01    0.116E-01
DAV:   3    -0.103593944321E+03    0.23829E-04   -0.28089E-04   132   0.688E-02    0.639E-02
DAV:   4    -0.103593964286E+03   -0.19965E-04   -0.16751E-04   120   0.481E-02    0.120E-02
DAV:   5    -0.103593959829E+03    0.44567E-05   -0.35082E-05   132   0.216E-02    0.879E-03
DAV:   6    -0.103593960334E+03   -0.50519E-06   -0.68512E-06   132   0.772E-03
  10 F= -.10359396E+03 E0= -.10359396E+03  d E =-.425049E-10
       N       E                     dE             d eps       ncg     rms          rms(c)
DAV:   1    -0.103591729731E+03    0.22301E-02   -0.34974E-01    96   0.175E+00    0.284E-01
DAV:   2    -0.103594014848E+03   -0.22851E-02   -0.23471E-02   132   0.532E-01    0.177E-01
DAV:   3    -0.103593902421E+03    0.11243E-03   -0.63396E-04   132   0.109E-01    0.840E-02
DAV:   4    -0.103593933352E+03   -0.30931E-04   -0.42625E-04   120   0.727E-02    0.175E-02
DAV:   5    -0.103593917079E+03    0.16273E-04   -0.58160E-05   132   0.281E-02    0.111E-02
DAV:   6    -0.103593918910E+03   -0.18309E-05   -0.15120E-05   132   0.105E-02    0.535E-03
DAV:   7    -0.103593931445E+03   -0.12534E-04   -0.98482E-07   120   0.323E-03    0.243E-03
DAV:   8    -0.103593950209E+03   -0.18764E-04   -0.26036E-06   120   0.430E-03    0.127E-03
DAV:   9    -0.103593964844E+03   -0.14636E-04   -0.11971E-06   120   0.269E-03    0.108E-03
DAV:  10    -0.103593979798E+03   -0.14953E-04   -0.12746E-06   108   0.241E-03    0.345E-04
DAV:  11    -0.103593983655E+03   -0.38575E-05   -0.95550E-08   108   0.919E-04    0.274E-04
DAV:  12    -0.103593989793E+03   -0.61372E-05   -0.23800E-07    96   0.103E-03    0.131E-04
DAV:  13    -0.103593991810E+03   -0.20179E-05   -0.63918E-08   108   0.545E-04    0.120E-04
DAV:  14    -0.103593993579E+03   -0.17685E-05   -0.22582E-08    96   0.395E-04    0.614E-05
DAV:  15    -0.103593994083E+03   -0.50393E-06   -0.27933E-09   108   0.219E-04
  11 F= -.10359399E+03 E0= -.10359399E+03  d E =-.211014E-10
       N       E                     dE             d eps       ncg     rms          rms(c)
DAV:   1    -0.103594193935E+03   -0.20036E-03   -0.17247E-01    96   0.123E+00    0.191E-01
DAV:   2    -0.103595331266E+03   -0.11373E-02   -0.11806E-02   132   0.376E-01    0.121E-01
DAV:   3    -0.103595267546E+03    0.63720E-04   -0.30554E-04   144   0.733E-02    0.609E-02
DAV:   4    -0.103595271707E+03   -0.41613E-05   -0.19617E-04   132   0.509E-02    0.124E-02
DAV:   5    -0.103595265225E+03    0.64826E-05   -0.36572E-05   132   0.220E-02    0.883E-03
DAV:   6    -0.103595267210E+03   -0.19859E-05   -0.78029E-06   132   0.787E-03    0.516E-03
DAV:   7    -0.103595276611E+03   -0.94009E-05   -0.74875E-07   108   0.316E-03    0.223E-03
DAV:   8    -0.103595290665E+03   -0.14054E-04   -0.17425E-06   120   0.372E-03    0.971E-04
DAV:   9    -0.103595301384E+03   -0.10719E-04   -0.83978E-07   120   0.242E-03    0.102E-03
DAV:  10    -0.103595312438E+03   -0.11053E-04   -0.81540E-07   120   0.197E-03    0.348E-04
DAV:  11    -0.103595315942E+03   -0.35041E-05   -0.11228E-07   108   0.892E-04    0.252E-04
DAV:  12    -0.103595319814E+03   -0.38725E-05   -0.12752E-07   108   0.763E-04    0.114E-04
DAV:  13    -0.103595321893E+03   -0.20784E-05   -0.68826E-08   108   0.531E-04    0.127E-04
DAV:  14    -0.103595323263E+03   -0.13706E-05   -0.23336E-08   108   0.360E-04    0.602E-05
DAV:  15    -0.103595323667E+03   -0.40406E-06   -0.52314E-10   108   0.183E-04
  12 F= -.10359532E+03 E0= -.10359532E+03  d E =-.269432E-10
       N       E                     dE             d eps       ncg     rms          rms(c)
DAV:   1    -0.103593768483E+03    0.15548E-02   -0.33254E-01    96   0.168E+00    0.266E-01
DAV:   2    -0.103595460348E+03   -0.16919E-02   -0.17979E-02   144   0.455E-01    0.134E-01
DAV:   3    -0.103595405703E+03    0.54645E-04   -0.56153E-04   132   0.893E-02    0.714E-02
DAV:   4    -0.103595417021E+03   -0.11318E-04   -0.19670E-04   132   0.551E-02    0.161E-02
DAV:   5    -0.103595410109E+03    0.69123E-05   -0.46179E-05   144   0.257E-02    0.114E-02
DAV:   6    -0.103595410058E+03    0.51343E-07   -0.71165E-06   132   0.882E-03
  13 F= -.10359541E+03 E0= -.10359541E+03  d E =-.335705E-10
       N       E                     dE             d eps       ncg     rms          rms(c)
DAV:   1    -0.103593040141E+03    0.23700E-02   -0.16636E-01    96   0.131E+00    0.192E-01
DAV:   2    -0.103594326379E+03   -0.12862E-02   -0.13291E-02   132   0.404E-01    0.115E-01
DAV:   3    -0.103594274572E+03    0.51807E-04   -0.37294E-04   144   0.792E-02    0.660E-02
DAV:   4    -0.103594294472E+03   -0.19900E-04   -0.18944E-04   132   0.561E-02    0.134E-02
DAV:   5    -0.103594293405E+03    0.10670E-05   -0.50162E-05   144   0.265E-02    0.104E-02
DAV:   6    -0.103594292109E+03    0.12964E-05   -0.57094E-06   132   0.819E-03    0.729E-03
DAV:   7    -0.103594295567E+03   -0.34584E-05   -0.16387E-06   120   0.488E-03    0.277E-03
DAV:   8    -0.103594300533E+03   -0.49660E-05   -0.49385E-07   108   0.325E-03    0.757E-04
DAV:   9    -0.103594306697E+03   -0.61640E-05   -0.54986E-07   108   0.235E-03    0.102E-03
DAV:  10    -0.103594315132E+03   -0.84345E-05   -0.41855E-07   108   0.178E-03    0.326E-04
DAV:  11    -0.103594317513E+03   -0.23820E-05   -0.10450E-07   108   0.898E-04    0.282E-04
DAV:  12    -0.103594320617E+03   -0.31040E-05   -0.73560E-08   108   0.670E-04    0.138E-04
DAV:  13    -0.103594322952E+03   -0.23344E-05   -0.67748E-08   108   0.556E-04    0.119E-04
DAV:  14    -0.103594324334E+03   -0.13821E-05   -0.23008E-08   108   0.342E-04    0.810E-05
DAV:  15    -0.103594325029E+03   -0.69519E-06   -0.47359E-09   108   0.223E-04
  14 F= -.10359433E+03 E0= -.10359433E+03  d E =-.320332E-10
       N       E                     dE             d eps       ncg     rms          rms(c)
DAV:   1    -0.103592067893E+03    0.22564E-02   -0.34097E-01    96   0.180E+00    0.265E-01
DAV:   2    -0.103594382713E+03   -0.23148E-02   -0.24015E-02   132   0.565E-01    0.173E-01
DAV:   3    -0.103594269383E+03    0.11333E-03   -0.60793E-04   144   0.107E-01    0.917E-02
DAV:   4    -0.103594274675E+03   -0.52926E-05   -0.36948E-04   132   0.756E-02    0.178E-02
DAV:   5    -0.103594265902E+03    0.87738E-05   -0.75310E-05   132   0.326E-02    0.125E-02
DAV:   6    -0.103594270357E+03   -0.44551E-05   -0.17307E-05   132   0.126E-02    0.785E-03
DAV:   7    -0.103594289449E+03   -0.19093E-04   -0.25002E-06   132   0.569E-03    0.324E-03
DAV:   8    -0.103594313810E+03   -0.24361E-04   -0.20367E-06   132   0.398E-03    0.109E-03
DAV:   9    -0.103594337251E+03   -0.23441E-04   -0.24256E-06   132   0.383E-03    0.150E-03
DAV:  10    -0.103594359256E+03   -0.22005E-04   -0.20933E-06   120   0.327E-03    0.525E-04
DAV:  11    -0.103594364695E+03   -0.54381E-05   -0.20858E-07   108   0.121E-03    0.312E-04
DAV:  12    -0.103594370316E+03   -0.56218E-05   -0.21624E-07   108   0.990E-04    0.155E-04
DAV:  13    -0.103594372808E+03   -0.24912E-05   -0.88041E-08   108   0.600E-04    0.197E-04
DAV:  14    -0.103594374533E+03   -0.17257E-05   -0.31088E-08   108   0.422E-04    0.739E-05
DAV:  15    -0.103594375027E+03   -0.49363E-06   -0.23926E-09   120   0.211E-04
  15 F= -.10359438E+03 E0= -.10359438E+03  d E =-.258341E-10
       N       E                     dE             d eps       ncg     rms          rms(c)
DAV:   1    -0.103593582687E+03    0.79185E-03   -0.17081E-01    96   0.130E+00    0.182E-01
DAV:   2    -0.103594979557E+03   -0.13969E-02   -0.14231E-02   132   0.421E-01    0.132E-01
DAV:   3    -0.103594894366E+03    0.85192E-04   -0.31155E-04   144   0.775E-02    0.706E-02
DAV:   4    -0.103594896978E+03   -0.26128E-05   -0.24482E-04   120   0.613E-02    0.133E-02
DAV:   5    -0.103594889191E+03    0.77877E-05   -0.57518E-05   132   0.281E-02    0.952E-03
DAV:   6    -0.103594889739E+03   -0.54856E-06   -0.95115E-06   132   0.844E-03
  16 F= -.10359489E+03 E0= -.10359489E+03  d E =-.272121E-10
       N       E                     dE             d eps       ncg     rms          rms(c)
DAV:   1    -0.103592632520E+03    0.22567E-02   -0.33602E-01    96   0.179E+00    0.264E-01
DAV:   2    -0.103594776360E+03   -0.21438E-02   -0.22014E-02   132   0.515E-01    0.158E-01
DAV:   3    -0.103594695029E+03    0.81331E-04   -0.56448E-04   132   0.978E-02    0.852E-02
DAV:   4    -0.103594720025E+03   -0.24996E-04   -0.31234E-04   120   0.695E-02    0.168E-02
DAV:   5    -0.103594712692E+03    0.73331E-05   -0.70174E-05   132   0.314E-02    0.127E-02
DAV:   6    -0.103594709330E+03    0.33621E-05   -0.11935E-05   132   0.114E-02    0.799E-03
DAV:   7    -0.103594713535E+03   -0.42052E-05   -0.26366E-06   132   0.614E-03    0.312E-03
DAV:   8    -0.103594720636E+03   -0.71012E-05   -0.88967E-07   120   0.388E-03    0.109E-03
DAV:   9    -0.103594730269E+03   -0.96323E-05   -0.86025E-07   108   0.289E-03    0.117E-03
DAV:  10    -0.103594742339E+03   -0.12071E-04   -0.71083E-07   108   0.227E-03    0.598E-04
DAV:  11    -0.103594748449E+03   -0.61093E-05   -0.26176E-07   108   0.128E-03    0.261E-04
DAV:  12    -0.103594753427E+03   -0.49783E-05   -0.12724E-07   108   0.813E-04    0.191E-04
DAV:  13    -0.103594755713E+03   -0.22859E-05   -0.40206E-08   108   0.463E-04    0.161E-04
DAV:  14    -0.103594757916E+03   -0.22030E-05   -0.42177E-08    96   0.433E-04    0.562E-05
DAV:  15    -0.103594758443E+03   -0.52740E-06   -0.12218E-09   108   0.205E-04
  17 F= -.10359476E+03 E0= -.10359476E+03  d E =-.286634E-10
       N       E                     dE             d eps       ncg     rms          rms(c)
DAV:   1    -0.103593954779E+03    0.80314E-03   -0.17086E-01    96   0.129E+00    0.181E-01
DAV:   2    -0.103594999480E+03   -0.10447E-02   -0.10871E-02   120   0.366E-01    0.117E-01
DAV:   3    -0.103594947020E+03    0.52460E-04   -0.27006E-04   132   0.676E-02    0.638E-02
DAV:   4    -0.103594932963E+03    0.14057E-04   -0.13642E-04   120   0.443E-02    0.112E-02
DAV:   5    -0.103594928671E+03    0.42922E-05   -0.21357E-05   132   0.175E-02    0.828E-03
DAV:   6    -0.103594932770E+03   -0.40997E-05   -0.59009E-06   132   0.865E-03    0.485E-03
DAV:   7    -0.103594949440E+03   -0.16670E-04   -0.26286E-06   108   0.612E-03    0.159E-03
DAV:   8    -0.103594965896E+03   -0.16456E-04   -0.11911E-06   108   0.385E-03    0.108E-03
DAV:   9    -0.103594981981E+03   -0.16085E-04   -0.11944E-06   120   0.281E-03    0.895E-04
DAV:  10    -0.103594996344E+03   -0.14363E-04   -0.13394E-06   120   0.236E-03    0.407E-04
DAV:  11    -0.103594999496E+03   -0.31519E-05   -0.90464E-08   108   0.919E-04    0.299E-04
DAV:  12    -0.103595004848E+03   -0.53519E-05   -0.34899E-07   108   0.119E-03    0.153E-04
DAV:  13    -0.103595005744E+03   -0.89605E-06   -0.36340E-08   120   0.460E-04
  18 F= -.10359501E+03 E0= -.10359501E+03  d E =-.294931E-10
       N       E                     dE             d eps       ncg     rms          rms(c)
DAV:   1    -0.103593315182E+03    0.16897E-02   -0.33333E-01    96   0.180E+00    0.266E-01
DAV:   2    -0.103595152145E+03   -0.18370E-02   -0.19334E-02   132   0.485E-01    0.144E-01
DAV:   3    -0.103595084166E+03    0.67979E-04   -0.55124E-04   132   0.927E-02    0.759E-02
DAV:   4    -0.103595080621E+03    0.35444E-05   -0.19800E-04   132   0.553E-02    0.155E-02
DAV:   5    -0.103595070633E+03    0.99885E-05   -0.39742E-05   132   0.246E-02    0.108E-02
DAV:   6    -0.103595071344E+03   -0.71136E-06   -0.72762E-06   132   0.941E-03
  19 F= -.10359507E+03 E0= -.10359507E+03  d E =-.277873E-10
       N       E                     dE             d eps       ncg     rms          rms(c)
DAV:   1    -0.103592746990E+03    0.23236E-02   -0.16839E-01    96   0.132E+00    0.185E-01
DAV:   2    -0.103594136722E+03   -0.13897E-02   -0.13868E-02   132   0.419E-01    0.118E-01
DAV:   3    -0.103594102065E+03    0.34658E-04   -0.30904E-04   156   0.719E-02    0.708E-02
DAV:   4    -0.103594129360E+03   -0.27296E-04   -0.18397E-04   132   0.543E-02    0.118E-02
DAV:   5    -0.103594129400E+03   -0.39761E-07   -0.54120E-05   132   0.269E-02    0.965E-03
DAV:   6    -0.103594129210E+03    0.19057E-06   -0.55439E-06   132   0.817E-03
  20 F= -.10359413E+03 E0= -.10359413E+03  d E =-.152746E-10
       N       E                     dE             d eps       ncg     rms          rms(c)
DAV:   1    -0.103591794606E+03    0.23348E-02   -0.35274E-01    96   0.183E+00    0.263E-01
DAV:   2    -0.103594264259E+03   -0.24697E-02   -0.24932E-02   132   0.569E-01    0.177E-01
DAV:   3    -0.103594162708E+03    0.10155E-03   -0.54458E-04   132   0.102E-01    0.974E-02
DAV:   4    -0.103594176744E+03   -0.14036E-04   -0.41378E-04   120   0.797E-02    0.181E-02
DAV:   5    -0.103594163962E+03    0.12782E-04   -0.97692E-05   132   0.366E-02    0.129E-02
DAV:   6    -0.103594162699E+03    0.12623E-05   -0.16959E-05   132   0.117E-02    0.827E-03
DAV:   7    -0.103594175165E+03   -0.12465E-04   -0.15213E-06   120   0.466E-03    0.373E-03
DAV:   8    -0.103594193730E+03   -0.18565E-04   -0.21573E-06   132   0.438E-03    0.996E-04
DAV:   9    -0.103594207990E+03   -0.14261E-04   -0.17056E-06   132   0.344E-03    0.149E-03
DAV:  10    -0.103594225611E+03   -0.17620E-04   -0.15294E-06   108   0.292E-03    0.542E-04
DAV:  11    -0.103594229831E+03   -0.42206E-05   -0.18625E-07   108   0.116E-03    0.412E-04
DAV:  12    -0.103594234312E+03   -0.44806E-05   -0.13872E-07   108   0.835E-04    0.180E-04
DAV:  13    -0.103594237600E+03   -0.32878E-05   -0.14203E-07   108   0.754E-04    0.194E-04
DAV:  14    -0.103594239430E+03   -0.18303E-05   -0.49846E-08   108   0.496E-04    0.137E-04
DAV:  15    -0.103594240059E+03   -0.62916E-06   -0.62967E-09   108   0.256E-04
  21 F= -.10359424E+03 E0= -.10359424E+03  d E =-.537801E-10
       N       E                     dE             d eps       ncg     rms          rms(c)
DAV:   1    -0.103593540342E+03    0.69909E-03   -0.17207E-01    96   0.128E+00    0.179E-01
DAV:   2    -0.103594505040E+03   -0.96470E-03   -0.10050E-02   132   0.354E-01    0.107E-01
DAV:   3    -0.103594466913E+03    0.38126E-04   -0.24826E-04   132   0.629E-02    0.565E-02
DAV:   4    -0.103594462852E+03    0.40610E-05   -0.11047E-04   132   0.403E-02    0.108E-02
DAV:   5    -0.103594456646E+03    0.62061E-05   -0.21868E-05   132   0.179E-02    0.729E-03
DAV:   6    -0.103594456391E+03    0.25481E-06   -0.43557E-06   132   0.715E-03
  22 F= -.10359446E+03 E0= -.10359446E+03  d E =-.331401E-10
       N       E                     dE             d eps       ncg     rms          rms(c)
DAV:   1    -0.103592456466E+03    0.20002E-02   -0.34580E-01    96   0.181E+00    0.262E-01
DAV:   2    -0.103594653881E+03   -0.21974E-02   -0.22243E-02   132   0.541E-01    0.161E-01
DAV:   3    -0.103594591004E+03    0.62877E-04   -0.50779E-04   132   0.924E-02    0.930E-02
DAV:   4    -0.103594578749E+03    0.12255E-04   -0.26753E-04   132   0.645E-02    0.159E-02
DAV:   5    -0.103594570833E+03    0.79161E-05   -0.54529E-05   144   0.279E-02    0.118E-02
DAV:   6    -0.103594574325E+03   -0.34925E-05   -0.10524E-05   132   0.114E-02    0.740E-03
DAV:   7    -0.103594595844E+03   -0.21519E-04   -0.40459E-06   132   0.769E-03    0.254E-03
DAV:   8    -0.103594617328E+03   -0.21483E-04   -0.17804E-06   120   0.481E-03    0.131E-03
DAV:   9    -0.103594637060E+03   -0.19733E-04   -0.15087E-06   108   0.336E-03    0.121E-03
DAV:  10    -0.103594658063E+03   -0.21003E-04   -0.21475E-06   120   0.301E-03    0.600E-04
DAV:  11    -0.103594661360E+03   -0.32970E-05   -0.10884E-07   120   0.114E-03    0.505E-04
DAV:  12    -0.103594669099E+03   -0.77381E-05   -0.45288E-07   108   0.147E-03    0.174E-04
DAV:  13    -0.103594671171E+03   -0.20728E-05   -0.10591E-07   108   0.725E-04    0.220E-04
DAV:  14    -0.103594672659E+03   -0.14872E-05   -0.21721E-08   108   0.466E-04    0.121E-04
DAV:  15    -0.103594673613E+03   -0.95404E-06   -0.24081E-08   108   0.363E-04
  23 F= -.10359467E+03 E0= -.10359467E+03  d E =-.270910E-10
       N       E                     dE             d eps       ncg     rms          rms(c)
DAV:   1    -0.103594519326E+03    0.15333E-03   -0.17085E-01    96   0.127E+00    0.174E-01
DAV:   2    -0.103595363675E+03   -0.84435E-03   -0.87995E-03   132   0.333E-01    0.943E-02
DAV:   3    -0.103595342046E+03    0.21629E-04   -0.26190E-04   132   0.651E-02    0.478E-02
DAV:   4    -0.103595350539E+03   -0.84933E-05   -0.98746E-05   132   0.406E-02    0.108E-02
DAV:   5    -0.103595346928E+03    0.36106E-05   -0.21626E-05   132   0.179E-02    0.771E-03
DAV:   6    -0.103595346957E+03   -0.28222E-07   -0.41959E-06   132   0.656E-03
  24 F= -.10359535E+03 E0= -.10359535E+03  d E =-.255745E-10
       N       E                     dE             d eps       ncg     rms          rms(c)
DAV:   1    -0.103593910656E+03    0.14363E-02   -0.33494E-01    96   0.173E+00    0.216E-01
DAV:   2    -0.103595647723E+03   -0.17371E-02   -0.17742E-02   132   0.461E-01    0.128E-01
DAV:   3    -0.103595632644E+03    0.15079E-04   -0.47236E-04   132   0.868E-02    0.643E-02
DAV:   4    -0.103595653102E+03   -0.20458E-04   -0.16701E-04   132   0.526E-02    0.139E-02
DAV:   5    -0.103595648247E+03    0.48547E-05   -0.35399E-05   132   0.230E-02    0.965E-03
DAV:   6    -0.103595650225E+03   -0.19779E-05   -0.67954E-06   132   0.850E-03    0.603E-03
DAV:   7    -0.103595657950E+03   -0.77247E-05   -0.88669E-07   108   0.456E-03    0.223E-03
DAV:   8    -0.103595667585E+03   -0.96345E-05   -0.15294E-06   120   0.495E-03    0.146E-03
DAV:   9    -0.103595680865E+03   -0.13280E-04   -0.92207E-07   108   0.352E-03    0.879E-04
DAV:  10    -0.103595689713E+03   -0.88482E-05   -0.56577E-07   108   0.221E-03    0.762E-04
DAV:  11    -0.103595693744E+03   -0.40310E-05   -0.12707E-07   108   0.118E-03    0.532E-04
DAV:  12    -0.103595699471E+03   -0.57272E-05   -0.16225E-07   108   0.103E-03    0.255E-04
DAV:  13    -0.103595701590E+03   -0.21183E-05   -0.51513E-08   108   0.564E-04    0.255E-04
DAV:  14    -0.103595703724E+03   -0.21348E-05   -0.29342E-08   108   0.434E-04    0.713E-05
DAV:  15    -0.103595704793E+03   -0.10690E-05   -0.16941E-08   108   0.316E-04    0.596E-05
DAV:  16    -0.103595705405E+03   -0.61159E-06   -0.28566E-10   108   0.197E-04
  25 F= -.10359571E+03 E0= -.10359571E+03  d E =-.419978E-10
       N       E                     dE             d eps       ncg     rms          rms(c)
DAV:   1    -0.103593618927E+03    0.20859E-02   -0.16664E-01    96   0.128E+00    0.153E-01
DAV:   2    -0.103594857038E+03   -0.12381E-02   -0.12838E-02   132   0.391E-01    0.106E-01
DAV:   3    -0.103594805800E+03    0.51238E-04   -0.31466E-04   144   0.721E-02    0.604E-02
DAV:   4    -0.103594793873E+03    0.11927E-04   -0.14555E-04   132   0.493E-02    0.108E-02
DAV:   5    -0.103594788586E+03    0.52874E-05   -0.40740E-05   132   0.236E-02    0.875E-03
DAV:   6    -0.103594788882E+03   -0.29660E-06   -0.49832E-06   144   0.730E-03
  26 F= -.10359479E+03 E0= -.10359479E+03  d E =-.379737E-10
       N       E                     dE             d eps       ncg     rms          rms(c)
DAV:   1    -0.103592127735E+03    0.26609E-02   -0.33776E-01    96   0.172E+00    0.243E-01
DAV:   2    -0.103594521847E+03   -0.23941E-02   -0.25212E-02   132   0.512E-01    0.161E-01
DAV:   3    -0.103594393460E+03    0.12839E-03   -0.65144E-04   132   0.103E-01    0.840E-02
DAV:   4    -0.103594408138E+03   -0.14678E-04   -0.37602E-04   132   0.696E-02    0.162E-02
DAV:   5    -0.103594399622E+03    0.85164E-05   -0.68623E-05   144   0.293E-02    0.117E-02
DAV:   6    -0.103594397696E+03    0.19260E-05   -0.10624E-05   144   0.926E-03    0.761E-03
DAV:   7    -0.103594403492E+03   -0.57960E-05   -0.10436E-06   120   0.370E-03    0.316E-03
DAV:   8    -0.103594414514E+03   -0.11022E-04   -0.15287E-06   120   0.424E-03    0.112E-03
DAV:   9    -0.103594423873E+03   -0.93586E-05   -0.82318E-07   120   0.237E-03    0.135E-03
DAV:  10    -0.103594437457E+03   -0.13585E-04   -0.63766E-07   120   0.181E-03    0.512E-04
DAV:  11    -0.103594442209E+03   -0.47511E-05   -0.16389E-07   108   0.970E-04    0.387E-04
DAV:  12    -0.103594448913E+03   -0.67048E-05   -0.23625E-07   108   0.102E-03    0.196E-04
DAV:  13    -0.103594450717E+03   -0.18034E-05   -0.42135E-08   120   0.467E-04    0.170E-04
DAV:  14    -0.103594452538E+03   -0.18215E-05   -0.19841E-08   108   0.367E-04    0.862E-05
DAV:  15    -0.103594453563E+03   -0.10245E-05   -0.13412E-08   108   0.276E-04    0.649E-05
DAV:  16    -0.103594454146E+03   -0.58355E-06    0.17396E-09   120   0.176E-04
  27 F= -.10359445E+03 E0= -.10359445E+03  d E =-.247083E-10
       N       E                     dE             d eps       ncg     rms          rms(c)
DAV:   1    -0.103594831771E+03   -0.37821E-03   -0.17005E-01    96   0.120E+00    0.160E-01
DAV:   2    -0.103595921208E+03   -0.10894E-02   -0.11480E-02   120   0.357E-01    0.106E-01
DAV:   3    -0.103595868433E+03    0.52775E-04   -0.30918E-04   144   0.710E-02    0.601E-02
DAV:   4    -0.103595864930E+03    0.35031E-05   -0.14525E-04   132   0.448E-02    0.120E-02
DAV:   5    -0.103595861215E+03    0.37151E-05   -0.28777E-05   144   0.191E-02    0.848E-03
DAV:   6    -0.103595861925E+03   -0.70972E-06   -0.38808E-06   132   0.641E-03
  28 F= -.10359586E+03 E0= -.10359586E+03  d E =-.154879E-10
       N       E                     dE             d eps       ncg     rms          rms(c)
DAV:   1    -0.103594290691E+03    0.15705E-02   -0.33592E-01    96   0.166E+00    0.193E-01
DAV:   2    -0.103595824996E+03   -0.15343E-02   -0.15972E-02   132   0.419E-01    0.105E-01
DAV:   3    -0.103595818461E+03    0.65350E-05   -0.49818E-04   144   0.855E-02    0.506E-02
DAV:   4    -0.103595844397E+03   -0.25937E-04   -0.12251E-04   132   0.425E-02    0.141E-02
DAV:   5    -0.103595842900E+03    0.14975E-05   -0.19965E-05   144   0.178E-02    0.785E-03
DAV:   6    -0.103595843793E+03   -0.89330E-06   -0.64772E-06   144   0.853E-03
  29 F= -.10359584E+03 E0= -.10359584E+03  d E =-.829875E-10
       N       E                     dE             d eps       ncg     rms          rms(c)
DAV:   1    -0.103594690368E+03    0.11525E-02   -0.16872E-01    96   0.119E+00    0.146E-01
DAV:   2    -0.103595461095E+03   -0.77073E-03   -0.81058E-03   132   0.296E-01    0.761E-02
DAV:   3    -0.103595453820E+03    0.72750E-05   -0.24140E-04   144   0.588E-02    0.383E-02
DAV:   4    -0.103595469193E+03   -0.15373E-04   -0.68622E-05   132   0.306E-02    0.108E-02
DAV:   5    -0.103595468763E+03    0.42972E-06   -0.11943E-05   132   0.134E-02    0.557E-03
DAV:   6    -0.103595469415E+03   -0.65166E-06   -0.30829E-06   144   0.583E-03
  30 F= -.10359547E+03 E0= -.10359547E+03  d E =-.119485E-10
       N       E                     dE             d eps       ncg     rms          rms(c)
DAV:   1    -0.103594009229E+03    0.14595E-02   -0.34436E-01    96   0.170E+00    0.262E-01
DAV:   2    -0.103595541401E+03   -0.15322E-02   -0.16697E-02   132   0.447E-01    0.123E-01
DAV:   3    -0.103595487459E+03    0.53942E-04   -0.52589E-04   144   0.879E-02    0.709E-02
DAV:   4    -0.103595498832E+03   -0.11373E-04   -0.18124E-04   132   0.505E-02    0.185E-02
DAV:   5    -0.103595494444E+03    0.43887E-05   -0.34531E-05   144   0.219E-02    0.955E-03
DAV:   6    -0.103595494091E+03    0.35289E-06   -0.49784E-06   120   0.755E-03
  31 F= -.10359549E+03 E0= -.10359549E+03  d E =-.731618E-10
       N       E                     dE             d eps       ncg     rms          rms(c)
DAV:   1    -0.103594292319E+03    0.12021E-02   -0.16825E-01    96   0.125E+00    0.173E-01
DAV:   2    -0.103595376443E+03   -0.10841E-02   -0.11538E-02   132   0.362E-01    0.919E-02
DAV:   3    -0.103595334737E+03    0.41705E-04   -0.36221E-04   144   0.734E-02    0.503E-02
DAV:   4    -0.103595345793E+03   -0.11056E-04   -0.11946E-04   132   0.409E-02    0.128E-02
DAV:   5    -0.103595345579E+03    0.21400E-06   -0.22446E-05   132   0.179E-02    0.778E-03
DAV:   6    -0.103595345729E+03   -0.14978E-06   -0.34732E-06   144   0.651E-03
  32 F= -.10359535E+03 E0= -.10359535E+03  d E =-.264654E-10
       N       E                     dE             d eps       ncg     rms          rms(c)
DAV:   1    -0.103593771660E+03    0.15739E-02   -0.33956E-01    96   0.171E+00    0.223E-01
DAV:   2    -0.103595568372E+03   -0.17967E-02   -0.19080E-02   120   0.471E-01    0.132E-01
DAV:   3    -0.103595509699E+03    0.58673E-04   -0.60108E-04   156   0.970E-02    0.730E-02
DAV:   4    -0.103595521686E+03   -0.11987E-04   -0.22230E-04   132   0.566E-02    0.171E-02
DAV:   5    -0.103595515258E+03    0.64275E-05   -0.43126E-05   132   0.246E-02    0.108E-02
DAV:   6    -0.103595514731E+03    0.52788E-06   -0.73404E-06   144   0.885E-03
  33 F= -.10359551E+03 E0= -.10359551E+03  d E =-.315532E-10
       N       E                     dE             d eps       ncg     rms          rms(c)
DAV:   1    -0.103594119709E+03    0.13955E-02   -0.16967E-01    96   0.117E+00    0.176E-01
DAV:   2    -0.103594874300E+03   -0.75459E-03   -0.82174E-03   120   0.306E-01    0.792E-02
DAV:   3    -0.103594857638E+03    0.16662E-04   -0.29729E-04   156   0.643E-02    0.427E-02
DAV:   4    -0.103594870706E+03   -0.13068E-04   -0.74188E-05   132   0.313E-02    0.115E-02
DAV:   5    -0.103594872181E+03   -0.14749E-05   -0.13934E-05   144   0.140E-02    0.685E-03
DAV:   6    -0.103594874043E+03   -0.18625E-05   -0.26795E-06   132   0.561E-03    0.403E-03
DAV:   7    -0.103594877910E+03   -0.38667E-05   -0.41807E-07   108   0.243E-03    0.130E-03
DAV:   8    -0.103594881486E+03   -0.35758E-05   -0.26612E-07   108   0.184E-03    0.525E-04
DAV:   9    -0.103594885743E+03   -0.42574E-05   -0.20956E-07   108   0.151E-03    0.336E-04
DAV:  10    -0.103594889402E+03   -0.36588E-05   -0.25221E-07   108   0.131E-03    0.219E-04
DAV:  11    -0.103594890803E+03   -0.14013E-05   -0.51391E-08   108   0.728E-04    0.196E-04
DAV:  12    -0.103594891997E+03   -0.11936E-05   -0.28082E-08   108   0.437E-04    0.109E-04
DAV:  13    -0.103594892876E+03   -0.87950E-06   -0.16392E-08   108   0.309E-04
  34 F= -.10359489E+03 E0= -.10359489E+03  d E =-.300035E-10
       N       E                     dE             d eps       ncg     rms          rms(c)
DAV:   1    -0.103592577858E+03    0.23141E-02   -0.33841E-01    96   0.173E+00    0.264E-01
DAV:   2    -0.103594724478E+03   -0.21466E-02   -0.23256E-02   120   0.519E-01    0.158E-01
DAV:   3    -0.103594571701E+03    0.15278E-03   -0.67614E-04   132   0.107E-01    0.826E-02
DAV:   4    -0.103594572786E+03   -0.10849E-05   -0.37405E-04   132   0.705E-02    0.175E-02
DAV:   5    -0.103594564959E+03    0.78272E-05   -0.59642E-05   132   0.287E-02    0.122E-02
DAV:   6    -0.103594565486E+03   -0.52698E-06   -0.10149E-05   132   0.961E-03    0.778E-03
DAV:   7    -0.103594575814E+03   -0.10328E-04   -0.11669E-06   108   0.408E-03    0.278E-03
DAV:   8    -0.103594588431E+03   -0.12617E-04   -0.11740E-06   120   0.392E-03    0.109E-03
DAV:   9    -0.103594601299E+03   -0.12868E-04   -0.86187E-07   120   0.256E-03    0.125E-03
DAV:  10    -0.103594619818E+03   -0.18519E-04   -0.10847E-06   120   0.223E-03    0.651E-04
DAV:  11    -0.103594623580E+03   -0.37617E-05   -0.91953E-08   108   0.911E-04    0.432E-04
DAV:  12    -0.103594630674E+03   -0.70949E-05   -0.20012E-07    96   0.100E-03    0.269E-04
DAV:  13    -0.103594633680E+03   -0.30059E-05   -0.81886E-08   108   0.607E-04    0.210E-04
DAV:  14    -0.103594635537E+03   -0.18569E-05   -0.14812E-08   108   0.355E-04    0.123E-04
DAV:  15    -0.103594636658E+03   -0.11206E-05   -0.93753E-09   108   0.266E-04    0.717E-05
DAV:  16    -0.103594637316E+03   -0.65835E-06    0.93824E-10   108   0.186E-04
  35 F= -.10359464E+03 E0= -.10359464E+03  d E =-.281528E-10
       N       E                     dE             d eps       ncg     rms          rms(c)
DAV:   1    -0.103594995209E+03   -0.35855E-03   -0.16906E-01    96   0.122E+00    0.190E-01
DAV:   2    -0.103595873859E+03   -0.87865E-03   -0.96443E-03   132   0.339E-01    0.951E-02
DAV:   3    -0.103595822249E+03    0.51609E-04   -0.30501E-04   132   0.685E-02    0.519E-02
DAV:   4    -0.103595824219E+03   -0.19694E-05   -0.11628E-04   132   0.402E-02    0.124E-02
DAV:   5    -0.103595821206E+03    0.30133E-05   -0.19839E-05   132   0.167E-02    0.797E-03
DAV:   6    -0.103595821638E+03   -0.43232E-06   -0.31075E-06   132   0.604E-03
  36 F= -.10359582E+03 E0= -.10359582E+03  d E =-.251889E-10
       N       E                     dE             d eps       ncg     rms          rms(c)
DAV:   1    -0.103594349059E+03    0.14721E-02   -0.33864E-01    96   0.169E+00    0.267E-01
DAV:   2    -0.103595689602E+03   -0.13405E-02   -0.15192E-02   132   0.428E-01    0.111E-01
DAV:   3    -0.103595649151E+03    0.40450E-04   -0.54947E-04   132   0.870E-02    0.625E-02
DAV:   4    -0.103595669058E+03   -0.19906E-04   -0.12940E-04   132   0.422E-02    0.188E-02
DAV:   5    -0.103595669365E+03   -0.30693E-06   -0.23824E-05   132   0.193E-02    0.949E-03
DAV:   6    -0.103595670658E+03   -0.12934E-05   -0.50177E-06   132   0.783E-03    0.575E-03
DAV:   7    -0.103595674732E+03   -0.40736E-05   -0.46476E-07   108   0.261E-03    0.204E-03
DAV:   8    -0.103595679010E+03   -0.42786E-05   -0.37678E-07   108   0.254E-03    0.851E-04
DAV:   9    -0.103595684548E+03   -0.55372E-05   -0.33487E-07   108   0.232E-03    0.548E-04
DAV:  10    -0.103595689710E+03   -0.51627E-05   -0.37311E-07   108   0.195E-03    0.602E-04
DAV:  11    -0.103595691199E+03   -0.14884E-05   -0.80219E-08   108   0.107E-03    0.396E-04
DAV:  12    -0.103595692638E+03   -0.14398E-05   -0.35656E-08   108   0.583E-04    0.167E-04
DAV:  13    -0.103595693923E+03   -0.12842E-05   -0.28362E-08   108   0.410E-04    0.105E-04
DAV:  14    -0.103595694967E+03   -0.10445E-05   -0.20233E-08   108   0.322E-04    0.120E-04
DAV:  15    -0.103595695423E+03   -0.45620E-06   -0.17280E-09   108   0.196E-04
  37 F= -.10359570E+03 E0= -.10359570E+03  d E =-.303375E-10
       N       E                     dE             d eps       ncg     rms          rms(c)
DAV:   1    -0.103593418626E+03    0.22763E-02   -0.15641E-01    96   0.124E+00    0.171E-01
DAV:   2    -0.103594511364E+03   -0.10927E-02   -0.11660E-02   132   0.368E-01    0.103E-01
DAV:   3    -0.103594467424E+03    0.43940E-04   -0.29738E-04   144   0.673E-02    0.587E-02
DAV:   4    -0.103594455818E+03    0.11606E-04   -0.11530E-04   132   0.413E-02    0.107E-02
DAV:   5    -0.103594450197E+03    0.56210E-05   -0.23306E-05   132   0.182E-02    0.794E-03
DAV:   6    -0.103594449543E+03    0.65336E-06   -0.40579E-06   132   0.725E-03
  38 F= -.10359445E+03 E0= -.10359445E+03  d E =-.216417E-10
       N       E                     dE             d eps       ncg     rms          rms(c)
DAV:   1    -0.103592260512E+03    0.21897E-02   -0.34963E-01    96   0.172E+00    0.241E-01
DAV:   2    -0.103594426221E+03   -0.21657E-02   -0.21761E-02   132   0.496E-01    0.163E-01
DAV:   3    -0.103594379933E+03    0.46289E-04   -0.52908E-04   132   0.887E-02    0.860E-02
DAV:   4    -0.103594366633E+03    0.13300E-04   -0.25854E-04   132   0.551E-02    0.151E-02
DAV:   5    -0.103594353330E+03    0.13303E-04   -0.37830E-05   132   0.214E-02    0.103E-02
DAV:   6    -0.103594355951E+03   -0.26209E-05   -0.13085E-05   132   0.108E-02    0.601E-03
DAV:   7    -0.103594376472E+03   -0.20521E-04   -0.34753E-06   120   0.634E-03    0.211E-03
DAV:   8    -0.103594396922E+03   -0.20450E-04   -0.18265E-06    96   0.415E-03    0.122E-03
DAV:   9    -0.103594420517E+03   -0.23595E-04   -0.24967E-06   108   0.372E-03    0.117E-03
DAV:  10    -0.103594437668E+03   -0.17151E-04   -0.15650E-06   108   0.266E-03    0.474E-04
DAV:  11    -0.103594444669E+03   -0.70015E-05   -0.31792E-07   108   0.129E-03    0.264E-04
DAV:  12    -0.103594449178E+03   -0.45089E-05   -0.23262E-07   108   0.966E-04    0.196E-04
DAV:  13    -0.103594451106E+03   -0.19278E-05   -0.53436E-08   108   0.539E-04    0.894E-05
DAV:  14    -0.103594451779E+03   -0.67308E-06   -0.70188E-09   108   0.283E-04
  39 F= -.10359445E+03 E0= -.10359445E+03  d E =-.416845E-10
       N       E                     dE             d eps       ncg     rms          rms(c)
DAV:   1    -0.103594705590E+03   -0.25448E-03   -0.17310E-01    96   0.119E+00    0.182E-01
DAV:   2    -0.103595697901E+03   -0.99231E-03   -0.10240E-02   132   0.335E-01    0.105E-01
DAV:   3    -0.103595659484E+03    0.38417E-04   -0.25347E-04   132   0.628E-02    0.557E-02
DAV:   4    -0.103595659226E+03    0.25846E-06   -0.13312E-04   132   0.429E-02    0.112E-02
DAV:   5    -0.103595654100E+03    0.51255E-05   -0.29598E-05   132   0.198E-02    0.792E-03
DAV:   6    -0.103595654026E+03    0.74518E-07   -0.52276E-06   132   0.679E-03
  40 F= -.10359565E+03 E0= -.10359565E+03  d E =-.184316E-10
       N       E                     dE             d eps       ncg     rms          rms(c)
DAV:   1    -0.103594165735E+03    0.14884E-02   -0.34193E-01    96   0.159E+00    0.240E-01
DAV:   2    -0.103595761200E+03   -0.15955E-02   -0.16304E-02   132   0.416E-01    0.117E-01
DAV:   3    -0.103595757026E+03    0.41750E-05   -0.47022E-04   132   0.838E-02    0.634E-02
DAV:   4    -0.103595787008E+03   -0.29983E-04   -0.14996E-04   132   0.517E-02    0.146E-02
DAV:   5    -0.103595787456E+03   -0.44812E-06   -0.44456E-05   132   0.251E-02    0.102E-02
DAV:   6    -0.103595788436E+03   -0.97950E-06   -0.58568E-06   132   0.779E-03
  41 F= -.10359579E+03 E0= -.10359579E+03  d E =-.567578E-10
       N       E                     dE             d eps       ncg     rms          rms(c)
DAV:   1    -0.103593030831E+03    0.27566E-02   -0.17344E-01    96   0.120E+00    0.177E-01
DAV:   2    -0.103593956653E+03   -0.92582E-03   -0.95317E-03   120   0.325E-01    0.979E-02
DAV:   3    -0.103593937287E+03    0.19366E-04   -0.28905E-04   144   0.662E-02    0.511E-02
DAV:   4    -0.103593953583E+03   -0.16296E-04   -0.12143E-04   132   0.423E-02    0.110E-02
DAV:   5    -0.103593953212E+03    0.37076E-06   -0.26906E-05   132   0.189E-02    0.831E-03
DAV:   6    -0.103593954406E+03   -0.11935E-05   -0.46720E-06   132   0.671E-03    0.487E-03
DAV:   7    -0.103593958763E+03   -0.43572E-05   -0.76017E-07   108   0.347E-03    0.200E-03
DAV:   8    -0.103593965230E+03   -0.64676E-05   -0.71912E-07   108   0.301E-03    0.761E-04
DAV:   9    -0.103593971909E+03   -0.66782E-05   -0.43116E-07   108   0.211E-03    0.775E-04
DAV:  10    -0.103593978903E+03   -0.69948E-05   -0.35024E-07    96   0.158E-03    0.327E-04
DAV:  11    -0.103593981704E+03   -0.28005E-05   -0.98395E-08   108   0.883E-04    0.230E-04
DAV:  12    -0.103593984613E+03   -0.29097E-05   -0.61511E-08    96   0.597E-04    0.122E-04
DAV:  13    -0.103593986225E+03   -0.16116E-05   -0.32114E-08   108   0.407E-04    0.107E-04
DAV:  14    -0.103593987471E+03   -0.12461E-05   -0.16658E-08    96   0.300E-04    0.617E-05
DAV:  15    -0.103593987932E+03   -0.46046E-06    0.83235E-10   120   0.165E-04
  42 F= -.10359399E+03 E0= -.10359399E+03  d E =-.370612E-10
       N       E                     dE             d eps       ncg     rms          rms(c)
DAV:   1    -0.103591740905E+03    0.22466E-02   -0.35484E-01    96   0.173E+00    0.258E-01
DAV:   2    -0.103594234546E+03   -0.24936E-02   -0.25546E-02   132   0.536E-01    0.178E-01
DAV:   3    -0.103594107470E+03    0.12708E-03   -0.58790E-04   132   0.100E-01    0.931E-02
DAV:   4    -0.103594107525E+03   -0.55203E-07   -0.41184E-04   120   0.734E-02    0.176E-02
DAV:   5    -0.103594097732E+03    0.97932E-05   -0.81808E-05   132   0.318E-02    0.123E-02
DAV:   6    -0.103594104985E+03   -0.72528E-05   -0.16897E-05   144   0.109E-02    0.753E-03
DAV:   7    -0.103594130487E+03   -0.25502E-04   -0.20859E-06   132   0.465E-03    0.321E-03
DAV:   8    -0.103594162456E+03   -0.31969E-04   -0.35447E-06   132   0.499E-03    0.125E-03
DAV:   9    -0.103594187860E+03   -0.25404E-04   -0.27917E-06   132   0.386E-03    0.165E-03
DAV:  10    -0.103594208686E+03   -0.20826E-04   -0.17784E-06   120   0.296E-03    0.646E-04
DAV:  11    -0.103594214548E+03   -0.58618E-05   -0.23160E-07   108   0.122E-03    0.376E-04
DAV:  12    -0.103594221643E+03   -0.70950E-05   -0.36383E-07    96   0.121E-03    0.205E-04
DAV:  13    -0.103594223373E+03   -0.17294E-05   -0.66069E-08   120   0.548E-04    0.283E-04
DAV:  14    -0.103594225169E+03   -0.17969E-05   -0.34693E-08    96   0.458E-04    0.939E-05
DAV:  15    -0.103594225675E+03   -0.50538E-06   -0.50278E-09   120   0.251E-04
  43 F= -.10359423E+03 E0= -.10359423E+03  d E =-.236210E-10
       N       E                     dE             d eps       ncg     rms          rms(c)
DAV:   1    -0.103594531483E+03   -0.30631E-03   -0.18571E-01    96   0.129E+00    0.160E-01
DAV:   2    -0.103595765805E+03   -0.12343E-02   -0.13502E-02   132   0.375E-01    0.104E-01
DAV:   3    -0.103595712601E+03    0.53205E-04   -0.28677E-04   144   0.643E-02    0.595E-02
DAV:   4    -0.103595697583E+03    0.15018E-04   -0.13587E-04   120   0.467E-02    0.946E-03
DAV:   5    -0.103595692013E+03    0.55702E-05   -0.38337E-05   144   0.226E-02    0.820E-03
DAV:   6    -0.103595690481E+03    0.15312E-05   -0.44018E-06   132   0.675E-03    0.607E-03
DAV:   7    -0.103595695728E+03   -0.52470E-05   -0.14068E-06   132   0.452E-03    0.230E-03
DAV:   8    -0.103595705366E+03   -0.96380E-05   -0.10048E-06   108   0.400E-03    0.110E-03
DAV:   9    -0.103595716238E+03   -0.10872E-04   -0.98370E-07   120   0.282E-03    0.138E-03
DAV:  10    -0.103595725988E+03   -0.97494E-05   -0.39921E-07   108   0.186E-03    0.423E-04
DAV:  11    -0.103595730257E+03   -0.42686E-05   -0.17621E-07   108   0.104E-03    0.245E-04
DAV:  12    -0.103595735538E+03   -0.52812E-05   -0.14623E-07    96   0.814E-04    0.156E-04
DAV:  13    -0.103595737242E+03   -0.17043E-05   -0.35604E-08   108   0.420E-04    0.175E-04
DAV:  14    -0.103595738806E+03   -0.15643E-05   -0.16429E-08   108   0.329E-04    0.715E-05
DAV:  15    -0.103595739552E+03   -0.74600E-06   -0.57686E-09   108   0.237E-04
  44 F= -.10359574E+03 E0= -.10359574E+03  d E =-.534644E-11
       N       E                     dE             d eps       ncg     rms          rms(c)
DAV:   1    -0.103594569264E+03    0.11695E-02   -0.41092E-01    96   0.170E+00    0.192E-01
DAV:   2    -0.103595992930E+03   -0.14237E-02   -0.16972E-02   120   0.363E-01    0.946E-02
DAV:   3    -0.103595926216E+03    0.66714E-04   -0.38006E-04   144   0.685E-02    0.496E-02
DAV:   4    -0.103595898797E+03    0.27419E-04   -0.97638E-05   144   0.403E-02    0.118E-02
DAV:   5    -0.103595894556E+03    0.42411E-05   -0.22073E-05   144   0.182E-02    0.784E-03
DAV:   6    -0.103595897952E+03   -0.33964E-05   -0.44156E-06   132   0.722E-03    0.437E-03
DAV:   7    -0.103595907082E+03   -0.91303E-05   -0.10127E-06   120   0.368E-03    0.153E-03
DAV:   8    -0.103595917499E+03   -0.10416E-04   -0.71541E-07   120   0.290E-03    0.973E-04
DAV:   9    -0.103595933598E+03   -0.16099E-04   -0.13094E-06   120   0.308E-03    0.447E-04
DAV:  10    -0.103595942361E+03   -0.87631E-05   -0.70032E-07   120   0.209E-03    0.442E-04
DAV:  11    -0.103595945426E+03   -0.30647E-05   -0.66793E-08   108   0.886E-04    0.256E-04
DAV:  12    -0.103595949268E+03   -0.38422E-05   -0.15282E-07   108   0.871E-04    0.165E-04
DAV:  13    -0.103595950733E+03   -0.14649E-05   -0.38554E-08   108   0.451E-04    0.130E-04
DAV:  14    -0.103595951780E+03   -0.10477E-05   -0.12402E-08   108   0.321E-04    0.434E-05
DAV:  15    -0.103595952266E+03   -0.48562E-06   -0.17051E-09   108   0.206E-04
  45 F= -.10359595E+03 E0= -.10359595E+03  d E =-.103170E-10
       N       E                     dE             d eps       ncg     rms          rms(c)
DAV:   1    -0.103594397639E+03    0.15541E-02   -0.19967E-01    96   0.117E+00    0.140E-01
DAV:   2    -0.103595188874E+03   -0.79123E-03   -0.97117E-03   120   0.272E-01    0.837E-02
DAV:   3    -0.103595128592E+03    0.60282E-04   -0.17693E-04   144   0.487E-02    0.426E-02
DAV:   4    -0.103595103805E+03    0.24787E-04   -0.66908E-05   132   0.308E-02    0.817E-03
DAV:   5    -0.103595097468E+03    0.63373E-05   -0.12338E-05   132   0.130E-02    0.531E-03
DAV:   6    -0.103595098780E+03   -0.13123E-05   -0.33856E-06   132   0.532E-03    0.283E-03
DAV:   7    -0.103595106095E+03   -0.73149E-05   -0.64030E-07   108   0.275E-03    0.119E-03
DAV:   8    -0.103595117589E+03   -0.11494E-04   -0.83392E-07   120   0.236E-03    0.884E-04
DAV:   9    -0.103595128874E+03   -0.11285E-04   -0.53367E-07   108   0.170E-03    0.524E-04
DAV:  10    -0.103595138326E+03   -0.94515E-05   -0.43577E-07   108   0.134E-03    0.305E-04
DAV:  11    -0.103595141239E+03   -0.29133E-05   -0.67468E-08   108   0.643E-04    0.199E-04
DAV:  12    -0.103595145962E+03   -0.47229E-05   -0.14183E-07    96   0.778E-04    0.903E-05
DAV:  13    -0.103595147227E+03   -0.12650E-05   -0.22853E-08   108   0.373E-04    0.749E-05
DAV:  14    -0.103595148499E+03   -0.12723E-05   -0.10565E-08   108   0.288E-04    0.315E-05
DAV:  15    -0.103595148903E+03   -0.40336E-06    0.11993E-09   108   0.163E-04
  46 F= -.10359515E+03 E0= -.10359515E+03  d E =-.287115E-10
       N       E                     dE             d eps       ncg     rms          rms(c)
DAV:   1    -0.103593883727E+03    0.12648E-02   -0.40017E-01    96   0.170E+00    0.223E-01
DAV:   2    -0.103595401555E+03   -0.15178E-02   -0.18552E-02   120   0.385E-01    0.112E-01
DAV:   3    -0.103595298227E+03    0.10333E-03   -0.37941E-04   156   0.688E-02    0.583E-02
DAV:   4    -0.103595253340E+03    0.44887E-04   -0.10457E-04   120   0.396E-02    0.124E-02
DAV:   5    -0.103595245515E+03    0.78249E-05   -0.22371E-05   132   0.178E-02    0.707E-03
DAV:   6    -0.103595252767E+03   -0.72515E-05   -0.53047E-06   132   0.709E-03    0.416E-03
DAV:   7    -0.103595271459E+03   -0.18692E-04   -0.18175E-06   132   0.397E-03    0.158E-03
DAV:   8    -0.103595289636E+03   -0.18178E-04   -0.13255E-06   120   0.294E-03    0.109E-03
DAV:   9    -0.103595308552E+03   -0.18916E-04   -0.14693E-06   120   0.262E-03    0.676E-04
DAV:  10    -0.103595323542E+03   -0.14990E-04   -0.13835E-06   120   0.220E-03    0.401E-04
DAV:  11    -0.103595326613E+03   -0.30708E-05   -0.69469E-08   108   0.778E-04    0.272E-04
DAV:  12    -0.103595332239E+03   -0.56265E-05   -0.24752E-07    96   0.103E-03    0.155E-04
DAV:  13    -0.103595333836E+03   -0.15968E-05   -0.55887E-08   108   0.493E-04    0.123E-04
DAV:  14    -0.103595335043E+03   -0.12072E-05   -0.97760E-09   108   0.330E-04    0.534E-05
DAV:  15    -0.103595335648E+03   -0.60531E-06   -0.61243E-09   108   0.239E-04
  47 F= -.10359534E+03 E0= -.10359534E+03  d E =-.368904E-10
       N       E                     dE             d eps       ncg     rms          rms(c)
DAV:   1    -0.103595112487E+03    0.22256E-03   -0.19952E-01    96   0.120E+00    0.153E-01
DAV:   2    -0.103595881328E+03   -0.76884E-03   -0.93913E-03   132   0.274E-01    0.832E-02
DAV:   3    -0.103595819483E+03    0.61845E-04   -0.16882E-04   132   0.467E-02    0.427E-02
DAV:   4    -0.103595796037E+03    0.23446E-04   -0.66313E-05   132   0.304E-02    0.883E-03
DAV:   5    -0.103595789854E+03    0.61827E-05   -0.11270E-05   132   0.128E-02    0.522E-03
DAV:   6    -0.103595790985E+03   -0.11302E-05   -0.30849E-06   132   0.522E-03    0.285E-03
DAV:   7    -0.103595797872E+03   -0.68875E-05   -0.72775E-07   120   0.284E-03    0.119E-03
DAV:   8    -0.103595808174E+03   -0.10302E-04   -0.57508E-07   120   0.208E-03    0.773E-04
DAV:   9    -0.103595819980E+03   -0.11806E-04   -0.62066E-07   108   0.176E-03    0.472E-04
DAV:  10    -0.103595828894E+03   -0.89138E-05   -0.41781E-07   108   0.133E-03    0.259E-04
DAV:  11    -0.103595832388E+03   -0.34939E-05   -0.80932E-08   108   0.696E-04    0.159E-04
DAV:  12    -0.103595836419E+03   -0.40308E-05   -0.12229E-07    96   0.713E-04    0.866E-05
DAV:  13    -0.103595837433E+03   -0.10147E-05   -0.13010E-08   108   0.314E-04    0.658E-05
DAV:  14    -0.103595838497E+03   -0.10639E-05   -0.75229E-09    96   0.254E-04    0.307E-05
DAV:  15    -0.103595838899E+03   -0.40201E-06    0.21828E-09   108   0.150E-04
  48 F= -.10359584E+03 E0= -.10359584E+03  d E =-.166765E-10
       N       E                     dE             d eps       ncg     rms          rms(c)
DAV:   1    -0.103594398170E+03    0.14403E-02   -0.41008E-01    96   0.169E+00    0.218E-01
DAV:   2    -0.103595782461E+03   -0.13843E-02   -0.16751E-02   132   0.377E-01    0.948E-02
DAV:   3    -0.103595710367E+03    0.72095E-04   -0.34063E-04   132   0.651E-02    0.497E-02
DAV:   4    -0.103595684601E+03    0.25766E-04   -0.94324E-05   144   0.393E-02    0.127E-02
DAV:   5    -0.103595679210E+03    0.53914E-05   -0.21305E-05   132   0.181E-02    0.743E-03
DAV:   6    -0.103595681842E+03   -0.26323E-05   -0.43596E-06   132   0.718E-03    0.420E-03
DAV:   7    -0.103595690108E+03   -0.82658E-05   -0.73446E-07   120   0.323E-03    0.151E-03
DAV:   8    -0.103595699515E+03   -0.94072E-05   -0.59525E-07   120   0.269E-03    0.885E-04
DAV:   9    -0.103595713686E+03   -0.14171E-04   -0.10837E-06   120   0.294E-03    0.503E-04
DAV:  10    -0.103595722033E+03   -0.83473E-05   -0.64529E-07   120   0.205E-03    0.459E-04
DAV:  11    -0.103595724480E+03   -0.24470E-05   -0.52592E-08   108   0.860E-04    0.257E-04
DAV:  12    -0.103595727959E+03   -0.34783E-05   -0.11122E-07   108   0.784E-04    0.157E-04
DAV:  13    -0.103595729565E+03   -0.16064E-05   -0.38874E-08   108   0.447E-04    0.135E-04
DAV:  14    -0.103595730704E+03   -0.11390E-05   -0.16980E-08   108   0.323E-04    0.458E-05
DAV:  15    -0.103595731190E+03   -0.48575E-06   -0.68255E-10   108   0.192E-04
  49 F= -.10359573E+03 E0= -.10359573E+03  d E =-.769295E-10
       N       E                     dE             d eps       ncg     rms          rms(c)
DAV:   1    -0.103594727634E+03    0.10031E-02   -0.20122E-01    96   0.132E+00    0.163E-01
DAV:   2    -0.103595813750E+03   -0.10861E-02   -0.12665E-02   132   0.315E-01    0.727E-02
DAV:   3    -0.103595785334E+03    0.28416E-04   -0.30037E-04   144   0.561E-02    0.404E-02
DAV:   4    -0.103595776799E+03    0.85351E-05   -0.61120E-05   144   0.300E-02    0.113E-02
DAV:   5    -0.103595774133E+03    0.26655E-05   -0.11682E-05   132   0.133E-02    0.608E-03
DAV:   6    -0.103595775185E+03   -0.10520E-05   -0.21486E-06   120   0.579E-03    0.291E-03
DAV:   7    -0.103595779565E+03   -0.43797E-05   -0.89171E-07   108   0.354E-03    0.995E-04
DAV:   8    -0.103595784627E+03   -0.50617E-05   -0.35154E-07   108   0.214E-03    0.626E-04
DAV:   9    -0.103595791191E+03   -0.65644E-05   -0.35208E-07   108   0.171E-03    0.303E-04
DAV:  10    -0.103595795525E+03   -0.43341E-05   -0.25330E-07   108   0.129E-03    0.190E-04
DAV:  11    -0.103595798422E+03   -0.28966E-05   -0.11458E-07   108   0.844E-04    0.146E-04
DAV:  12    -0.103595799776E+03   -0.13545E-05   -0.30947E-08   108   0.485E-04    0.956E-05
DAV:  13    -0.103595800682E+03   -0.90598E-06   -0.15405E-08   108   0.328E-04
  50 F= -.10359580E+03 E0= -.10359580E+03  d E =-.395998E-10
       N       E                     dE             d eps       ncg     rms          rms(c)
DAV:   1    -0.103594209365E+03    0.15904E-02   -0.40965E-01    96   0.184E+00    0.218E-01
DAV:   2    -0.103595774157E+03   -0.15648E-02   -0.18543E-02   132   0.417E-01    0.101E-01
DAV:   3    -0.103595715707E+03    0.58450E-04   -0.42295E-04   144   0.696E-02    0.539E-02
DAV:   4    -0.103595692608E+03    0.23099E-04   -0.91627E-05   132   0.421E-02    0.134E-02
DAV:   5    -0.103595686249E+03    0.63592E-05   -0.30338E-05   132   0.214E-02    0.841E-03
DAV:   6    -0.103595686866E+03   -0.61647E-06   -0.49638E-06   132   0.761E-03
  51 F= -.10359569E+03 E0= -.10359569E+03  d E =-.228194E-10
       N       E                     dE             d eps       ncg     rms          rms(c)
DAV:   1    -0.103594307770E+03    0.13785E-02   -0.20160E-01    96   0.133E+00    0.151E-01
DAV:   2    -0.103595162481E+03   -0.85471E-03   -0.99747E-03   120   0.316E-01    0.852E-02
DAV:   3    -0.103595136145E+03    0.26336E-04   -0.18326E-04   144   0.467E-02    0.458E-02
DAV:   4    -0.103595112278E+03    0.23867E-04   -0.55809E-05   120   0.269E-02    0.842E-03
DAV:   5    -0.103595104799E+03    0.74791E-05   -0.92531E-06   132   0.118E-02    0.489E-03
DAV:   6    -0.103595107471E+03   -0.26717E-05   -0.34805E-06   108   0.656E-03    0.243E-03
DAV:   7    -0.103595116984E+03   -0.95124E-05   -0.18498E-06   132   0.446E-03    0.134E-03
DAV:   8    -0.103595129301E+03   -0.12318E-04   -0.82229E-07   108   0.259E-03    0.677E-04
DAV:   9    -0.103595139305E+03   -0.10003E-04   -0.73895E-07   120   0.206E-03    0.523E-04
DAV:  10    -0.103595148724E+03   -0.94196E-05   -0.75960E-07   108   0.176E-03    0.216E-04
DAV:  11    -0.103595151900E+03   -0.31761E-05   -0.12237E-07   108   0.817E-04    0.169E-04
DAV:  12    -0.103595154705E+03   -0.28048E-05   -0.14127E-07    96   0.752E-04    0.848E-05
DAV:  13    -0.103595155369E+03   -0.66409E-06   -0.19095E-08   108   0.348E-04
  52 F= -.10359516E+03 E0= -.10359516E+03  d E =-.305840E-10
       N       E                     dE             d eps       ncg     rms          rms(c)
DAV:   1    -0.103593450862E+03    0.17038E-02   -0.40377E-01    96   0.189E+00    0.216E-01
DAV:   2    -0.103595051516E+03   -0.16007E-02   -0.19351E-02   132   0.443E-01    0.117E-01
DAV:   3    -0.103594956166E+03    0.95351E-04   -0.35512E-04   132   0.644E-02    0.622E-02
DAV:   4    -0.103594899475E+03    0.56691E-04   -0.10892E-04   132   0.387E-02    0.122E-02
DAV:   5    -0.103594885532E+03    0.13942E-04   -0.17920E-05   132   0.174E-02    0.714E-03
DAV:   6    -0.103594888439E+03   -0.29064E-05   -0.76852E-06   132   0.101E-02    0.370E-03
DAV:   7    -0.103594904086E+03   -0.15647E-04   -0.32281E-06   132   0.662E-03    0.198E-03
DAV:   8    -0.103594925672E+03   -0.21586E-04   -0.13105E-06   120   0.390E-03    0.119E-03
DAV:   9    -0.103594947131E+03   -0.21459E-04   -0.12949E-06   120   0.294E-03    0.789E-04
DAV:  10    -0.103594966172E+03   -0.19041E-04   -0.95929E-07   120   0.212E-03    0.403E-04
DAV:  11    -0.103594975142E+03   -0.89697E-05   -0.20568E-07   108   0.112E-03    0.244E-04
DAV:  12    -0.103594982395E+03   -0.72537E-05   -0.20639E-07   108   0.931E-04    0.169E-04
DAV:  13    -0.103594984764E+03   -0.23685E-05   -0.29996E-08   108   0.451E-04    0.806E-05
DAV:  14    -0.103594986368E+03   -0.16045E-05   -0.13357E-08   108   0.331E-04    0.549E-05
DAV:  15    -0.103594986900E+03   -0.53143E-06    0.36291E-10   108   0.180E-04
  53 F= -.10359499E+03 E0= -.10359499E+03  d E =-.291182E-10
       N       E                     dE             d eps       ncg     rms          rms(c)
DAV:   1    -0.103593560264E+03    0.14261E-02   -0.20093E-01    96   0.130E+00    0.155E-01
DAV:   2    -0.103594444885E+03   -0.88462E-03   -0.10680E-02   132   0.339E-01    0.917E-02
DAV:   3    -0.103594386926E+03    0.57959E-04   -0.19142E-04   132   0.487E-02    0.490E-02
DAV:   4    -0.103594357127E+03    0.29799E-04   -0.74741E-05   132   0.327E-02    0.846E-03
DAV:   5    -0.103594351018E+03    0.61086E-05   -0.14868E-05   132   0.144E-02    0.557E-03
DAV:   6    -0.103594355749E+03   -0.47309E-05   -0.52650E-06   132   0.657E-03    0.324E-03
DAV:   7    -0.103594368012E+03   -0.12263E-04   -0.81121E-07   108   0.294E-03    0.154E-03
DAV:   8    -0.103594386858E+03   -0.18846E-04   -0.20421E-06   120   0.326E-03    0.990E-04
DAV:   9    -0.103594400438E+03   -0.13579E-04   -0.83111E-07   108   0.225E-03    0.647E-04
DAV:  10    -0.103594412080E+03   -0.11643E-04   -0.10365E-06   120   0.195E-03    0.296E-04
DAV:  11    -0.103594416889E+03   -0.48086E-05   -0.15256E-07   108   0.994E-04    0.242E-04
DAV:  12    -0.103594419889E+03   -0.29999E-05   -0.94844E-08   108   0.676E-04    0.166E-04
DAV:  13    -0.103594421419E+03   -0.15303E-05   -0.34685E-08   108   0.425E-04    0.902E-05
DAV:  14    -0.103594422197E+03   -0.77795E-06   -0.35004E-09   108   0.249E-04
  54 F= -.10359442E+03 E0= -.10359442E+03  d E =-.359791E-10
       N       E                     dE             d eps       ncg     rms          rms(c)
DAV:   1    -0.103593158997E+03    0.12624E-02   -0.40162E-01   108   0.186E+00    0.217E-01
DAV:   2    -0.103594681599E+03   -0.15226E-02   -0.18895E-02   132   0.441E-01    0.128E-01
DAV:   3    -0.103594567156E+03    0.11444E-03   -0.35085E-04   132   0.667E-02    0.647E-02
DAV:   4    -0.103594508788E+03    0.58368E-04   -0.12520E-04   132   0.417E-02    0.119E-02
DAV:   5    -0.103594504127E+03    0.46613E-05   -0.20258E-05   132   0.173E-02    0.746E-03
DAV:   6    -0.103594523094E+03   -0.18967E-04   -0.12189E-05   132   0.991E-03    0.363E-03
DAV:   7    -0.103594550156E+03   -0.27062E-04   -0.24880E-06   132   0.500E-03    0.211E-03
DAV:   8    -0.103594590433E+03   -0.40277E-04   -0.42368E-06   108   0.439E-03    0.111E-03
DAV:   9    -0.103594611437E+03   -0.21005E-04   -0.15237E-06   120   0.266E-03    0.835E-04
DAV:  10    -0.103594634906E+03   -0.23469E-04   -0.22758E-06   120   0.284E-03    0.419E-04
DAV:  11    -0.103594641891E+03   -0.69851E-05   -0.28118E-07   108   0.120E-03    0.292E-04
DAV:  12    -0.103594647805E+03   -0.59140E-05   -0.32248E-07   108   0.111E-03    0.214E-04
DAV:  13    -0.103594649050E+03   -0.12446E-05   -0.36009E-08   108   0.477E-04    0.104E-04
DAV:  14    -0.103594650274E+03   -0.12240E-05   -0.17551E-08    96   0.362E-04    0.624E-05
DAV:  15    -0.103594650645E+03   -0.37113E-06    0.47802E-11   108   0.184E-04
  55 F= -.10359465E+03 E0= -.10359465E+03  d E =-.238032E-10
       N       E                     dE             d eps       ncg     rms          rms(c)
DAV:   1    -0.103594561553E+03    0.88720E-04   -0.19817E-01    96   0.131E+00    0.147E-01
DAV:   2    -0.103595735643E+03   -0.11741E-02   -0.13954E-02   120   0.347E-01    0.833E-02
DAV:   3    -0.103595708556E+03    0.27087E-04   -0.25476E-04   156   0.509E-02    0.478E-02
DAV:   4    -0.103595683123E+03    0.25433E-04   -0.56788E-05   144   0.289E-02    0.839E-03
DAV:   5    -0.103595676361E+03    0.67619E-05   -0.11808E-05   132   0.126E-02    0.512E-03
DAV:   6    -0.103595678965E+03   -0.26040E-05   -0.35564E-06   120   0.624E-03    0.284E-03
DAV:   7    -0.103595689298E+03   -0.10333E-04   -0.15994E-06   120   0.410E-03    0.133E-03
DAV:   8    -0.103595705703E+03   -0.16405E-04   -0.94030E-07   108   0.264E-03    0.772E-04
DAV:   9    -0.103595718254E+03   -0.12551E-04   -0.87874E-07   120   0.207E-03    0.655E-04
DAV:  10    -0.103595730203E+03   -0.11948E-04   -0.66945E-07    96   0.179E-03    0.278E-04
DAV:  11    -0.103595734079E+03   -0.38768E-05   -0.17803E-07   108   0.884E-04    0.306E-04
DAV:  12    -0.103595737860E+03   -0.37808E-05   -0.94565E-08   108   0.752E-04    0.966E-05
DAV:  13    -0.103595739460E+03   -0.15994E-05   -0.42384E-08   108   0.474E-04    0.999E-05
DAV:  14    -0.103595740352E+03   -0.89292E-06   -0.56440E-09   108   0.269E-04
  56 F= -.10359574E+03 E0= -.10359574E+03  d E =-.182107E-10
       N       E                     dE             d eps       ncg     rms          rms(c)
DAV:   1    -0.103594105699E+03    0.16338E-02   -0.40706E-01    96   0.176E+00    0.192E-01
DAV:   2    -0.103595736498E+03   -0.16308E-02   -0.19396E-02   120   0.409E-01    0.982E-02
DAV:   3    -0.103595697304E+03    0.39194E-04   -0.40791E-04   156   0.674E-02    0.530E-02
DAV:   4    -0.103595668515E+03    0.28790E-04   -0.76002E-05   132   0.406E-02    0.104E-02
DAV:   5    -0.103595661466E+03    0.70491E-05   -0.30448E-05   132   0.210E-02    0.763E-03
DAV:   6    -0.103595662459E+03   -0.99322E-06   -0.47571E-06   132   0.718E-03
  57 F= -.10359566E+03 E0= -.10359566E+03  d E =-.903668E-10
       N       E                     dE             d eps       ncg     rms          rms(c)
DAV:   1    -0.103594191698E+03    0.14698E-02   -0.20564E-01   120   0.122E+00    0.142E-01
DAV:   2    -0.103594921287E+03   -0.72959E-03   -0.85462E-03   120   0.254E-01    0.612E-02
DAV:   3    -0.103594921896E+03   -0.60847E-06   -0.20786E-04   156   0.489E-02    0.326E-02
DAV:   4    -0.103594928155E+03   -0.62586E-05   -0.32401E-05   132   0.282E-02    0.739E-03
DAV:   5    -0.103594933087E+03   -0.49322E-05   -0.14734E-05   132   0.144E-02    0.583E-03
DAV:   6    -0.103594936025E+03   -0.29381E-05   -0.13691E-06   120   0.396E-03    0.422E-03
DAV:   7    -0.103594942595E+03   -0.65703E-05   -0.49712E-07   108   0.264E-03    0.133E-03
DAV:   8    -0.103594948242E+03   -0.56468E-05   -0.42905E-07   108   0.228E-03    0.831E-04
DAV:   9    -0.103594957807E+03   -0.95654E-05   -0.54003E-07   108   0.264E-03    0.473E-04
DAV:  10    -0.103594960397E+03   -0.25897E-05   -0.20797E-07   108   0.140E-03    0.514E-04
DAV:  11    -0.103594961675E+03   -0.12782E-05   -0.21053E-08   108   0.575E-04    0.363E-04
DAV:  12    -0.103594965040E+03   -0.33651E-05   -0.87464E-08    96   0.690E-04    0.116E-04
DAV:  13    -0.103594966539E+03   -0.14987E-05   -0.28058E-08   108   0.403E-04    0.169E-04
DAV:  14    -0.103594967782E+03   -0.12431E-05   -0.14812E-08   108   0.305E-04    0.649E-05
DAV:  15    -0.103594968199E+03   -0.41700E-06    0.21315E-10   108   0.168E-04
  58 F= -.10359497E+03 E0= -.10359497E+03  d E =-.373970E-10
       N       E                     dE             d eps       ncg     rms          rms(c)
DAV:   1    -0.103593500473E+03    0.14673E-02   -0.40530E-01   108   0.179E+00    0.218E-01
DAV:   2    -0.103595070427E+03   -0.15700E-02   -0.19278E-02   132   0.441E-01    0.117E-01
DAV:   3    -0.103594979103E+03    0.91324E-04   -0.35597E-04   144   0.645E-02    0.620E-02
DAV:   4    -0.103594920655E+03    0.58448E-04   -0.99234E-05   132   0.404E-02    0.118E-02
DAV:   5    -0.103594914813E+03    0.58420E-05   -0.23128E-05   132   0.186E-02    0.769E-03
DAV:   6    -0.103594926251E+03   -0.11438E-04   -0.81418E-06   132   0.894E-03    0.432E-03
DAV:   7    -0.103594949694E+03   -0.23443E-04   -0.27618E-06   132   0.535E-03    0.212E-03
DAV:   8    -0.103594982465E+03   -0.32771E-04   -0.33104E-06   120   0.465E-03    0.124E-03
DAV:   9    -0.103595003159E+03   -0.20693E-04   -0.18000E-06   120   0.327E-03    0.103E-03
DAV:  10    -0.103595021168E+03   -0.18010E-04   -0.14593E-06   120   0.262E-03    0.365E-04
DAV:  11    -0.103595028678E+03   -0.75094E-05   -0.34913E-07   108   0.134E-03    0.360E-04
DAV:  12    -0.103595034274E+03   -0.55969E-05   -0.29454E-07   108   0.109E-03    0.134E-04
DAV:  13    -0.103595035992E+03   -0.17175E-05   -0.54949E-08   108   0.511E-04    0.939E-05
DAV:  14    -0.103595037049E+03   -0.10566E-05   -0.78981E-09   108   0.291E-04    0.475E-05
DAV:  15    -0.103595037566E+03   -0.51758E-06   -0.37763E-09   108   0.212E-04
  59 F= -.10359504E+03 E0= -.10359504E+03  d E =-.323759E-10
       N       E                     dE             d eps       ncg     rms          rms(c)
DAV:   1    -0.103593869394E+03    0.11677E-02   -0.20218E-01    96   0.132E+00    0.157E-01
DAV:   2    -0.103594613240E+03   -0.74385E-03   -0.91937E-03   120   0.311E-01    0.788E-02
DAV:   3    -0.103594568745E+03    0.44496E-04   -0.16482E-04   156   0.428E-02    0.415E-02
DAV:   4    -0.103594534862E+03    0.33883E-04   -0.35502E-05   132   0.227E-02    0.802E-03
DAV:   5    -0.103594526816E+03    0.80459E-05   -0.70868E-06   132   0.111E-02    0.441E-03
DAV:   6    -0.103594528642E+03   -0.18263E-05   -0.31341E-06   120   0.704E-03    0.231E-03
DAV:   7    -0.103594538325E+03   -0.96823E-05   -0.18464E-06   120   0.507E-03    0.138E-03
DAV:   8    -0.103594552585E+03   -0.14260E-04   -0.83547E-07   108   0.315E-03    0.784E-04
DAV:   9    -0.103594564964E+03   -0.12379E-04   -0.75142E-07   108   0.222E-03    0.540E-04
DAV:  10    -0.103594576122E+03   -0.11158E-04   -0.47921E-07   108   0.154E-03    0.251E-04
DAV:  11    -0.103594581753E+03   -0.56314E-05   -0.15664E-07   108   0.879E-04    0.192E-04
DAV:  12    -0.103594586344E+03   -0.45905E-05   -0.90576E-08   108   0.664E-04    0.835E-05
DAV:  13    -0.103594587753E+03   -0.14097E-05   -0.20292E-08   108   0.382E-04    0.598E-05
DAV:  14    -0.103594588750E+03   -0.99652E-06   -0.46703E-09   108   0.254E-04
  60 F= -.10359459E+03 E0= -.10359459E+03  d E =-.552900E-10
       N       E                     dE             d eps       ncg     rms          rms(c)
DAV:   1    -0.103593391136E+03    0.11966E-02   -0.40509E-01    96   0.185E+00    0.207E-01
DAV:   2    -0.103594808100E+03   -0.14170E-02   -0.17896E-02   132   0.428E-01    0.122E-01
DAV:   3    -0.103594693531E+03    0.11457E-03   -0.31576E-04   144   0.609E-02    0.602E-02
DAV:   4    -0.103594624056E+03    0.69475E-04   -0.89015E-05   132   0.353E-02    0.116E-02
DAV:   5    -0.103594621634E+03    0.24224E-05   -0.14751E-05   132   0.156E-02    0.653E-03
DAV:   6    -0.103594647459E+03   -0.25825E-04   -0.11610E-05   120   0.106E-02    0.333E-03
DAV:   7    -0.103594679720E+03   -0.32261E-04   -0.39877E-06   120   0.626E-03    0.219E-03
DAV:   8    -0.103594719718E+03   -0.39998E-04   -0.37266E-06   120   0.439E-03    0.103E-03
DAV:   9    -0.103594746803E+03   -0.27085E-04   -0.26046E-06   120   0.349E-03    0.841E-04
DAV:  10    -0.103594768739E+03   -0.21935E-04   -0.21881E-06   120   0.291E-03    0.316E-04
DAV:  11    -0.103594775221E+03   -0.64823E-05   -0.27773E-07   108   0.123E-03    0.271E-04
DAV:  12    -0.103594779830E+03   -0.46087E-05   -0.19202E-07   108   0.895E-04    0.112E-04
DAV:  13    -0.103594781285E+03   -0.14555E-05   -0.40753E-08   108   0.448E-04    0.664E-05
DAV:  14    -0.103594782416E+03   -0.11310E-05   -0.12469E-08    96   0.327E-04    0.462E-05
DAV:  15    -0.103594782740E+03   -0.32367E-06    0.16879E-09   108   0.162E-04
  61 F= -.10359478E+03 E0= -.10359478E+03  d E =-.171740E-10
       N       E                     dE             d eps       ncg     rms          rms(c)
DAV:   1    -0.103597630468E+03   -0.28481E-02   -0.23301E-01    96   0.162E+00    0.135E-01
DAV:   2    -0.103598053789E+03   -0.42332E-03   -0.62457E-03   132   0.253E-01    0.786E-02
DAV:   3    -0.103597995518E+03    0.58271E-04   -0.16952E-04   132   0.450E-02    0.346E-02
DAV:   4    -0.103597978416E+03    0.17102E-04   -0.57895E-05   132   0.263E-02    0.789E-03
DAV:   5    -0.103597974584E+03    0.38314E-05   -0.72615E-06   132   0.103E-02    0.536E-03
DAV:   6    -0.103597975913E+03   -0.13287E-05   -0.34408E-06   132   0.614E-03    0.196E-03
DAV:   7    -0.103597980491E+03   -0.45774E-05   -0.66416E-07   108   0.327E-03    0.125E-03
DAV:   8    -0.103597989147E+03   -0.86566E-05   -0.52703E-07   108   0.218E-03    0.676E-04
DAV:   9    -0.103597997816E+03   -0.86689E-05   -0.50448E-07   108   0.183E-03    0.411E-04
DAV:  10    -0.103598005977E+03   -0.81611E-05   -0.42010E-07   108   0.142E-03    0.277E-04
DAV:  11    -0.103598010097E+03   -0.41198E-05   -0.10945E-07   108   0.802E-04    0.172E-04
DAV:  12    -0.103598012708E+03   -0.26114E-05   -0.51166E-08   108   0.525E-04    0.120E-04
DAV:  13    -0.103598013465E+03   -0.75648E-06   -0.66367E-09   108   0.261E-04
  62 F= -.10359801E+03 E0= -.10359801E+03  d E =-.267513E-10
       N       E                     dE             d eps       ncg     rms          rms(c)
DAV:   1    -0.103598240947E+03   -0.22824E-03   -0.52808E-01    96   0.254E+00    0.174E-01
DAV:   2    -0.103598105258E+03    0.13569E-03   -0.26969E-03   120   0.183E-01    0.972E-02
DAV:   3    -0.103597972201E+03    0.13306E-03   -0.40235E-04   132   0.617E-02    0.200E-02
DAV:   4    -0.103597974851E+03   -0.26501E-05   -0.66830E-05   120   0.263E-02    0.102E-02
DAV:   5    -0.103597975690E+03   -0.83893E-06   -0.28546E-06   132   0.614E-03
  63 F= -.10359798E+03 E0= -.10359798E+03  d E =-.294848E-10
       N       E                     dE             d eps       ncg     rms          rms(c)
DAV:   1    -0.103596939884E+03    0.10350E-02   -0.27248E-01    96   0.183E+00    0.147E-01
DAV:   2    -0.103596887916E+03    0.51968E-04   -0.21178E-03   108   0.160E-01    0.796E-02
DAV:   3    -0.103596802825E+03    0.85091E-04   -0.28682E-04   132   0.489E-02    0.213E-02
DAV:   4    -0.103596801513E+03    0.13119E-05   -0.55410E-05   132   0.221E-02    0.906E-03
DAV:   5    -0.103596799988E+03    0.15245E-05   -0.25757E-06   120   0.668E-03    0.464E-03
DAV:   6    -0.103596800129E+03   -0.14028E-06   -0.25596E-06   132   0.592E-03
  64 F= -.10359680E+03 E0= -.10359680E+03  d E =-.361391E-10
       N       E                     dE             d eps       ncg     rms          rms(c)
DAV:   1    -0.103597193767E+03   -0.39378E-03   -0.53742E-01    96   0.258E+00    0.199E-01
DAV:   2    -0.103597070675E+03    0.12309E-03   -0.39466E-03   120   0.215E-01    0.108E-01
DAV:   3    -0.103596889320E+03    0.18136E-03   -0.50562E-04   120   0.622E-02    0.286E-02
DAV:   4    -0.103596877850E+03    0.11470E-04   -0.78410E-05   132   0.265E-02    0.116E-02
DAV:   5    -0.103596877390E+03    0.45986E-06   -0.56821E-06   132   0.938E-03
  65 F= -.10359688E+03 E0= -.10359688E+03  d E =-.219661E-10
       N       E                     dE             d eps       ncg     rms          rms(c)
DAV:   1    -0.103598089750E+03   -0.12119E-02   -0.27179E-01    96   0.181E+00    0.145E-01
DAV:   2    -0.103598057311E+03    0.32439E-04   -0.22451E-03   132   0.163E-01    0.785E-02
DAV:   3    -0.103597975113E+03    0.82198E-04   -0.27425E-04   132   0.511E-02    0.217E-02
DAV:   4    -0.103597978322E+03   -0.32093E-05   -0.66588E-05   132   0.247E-02    0.845E-03
DAV:   5    -0.103597977830E+03    0.49254E-06   -0.23808E-06   132   0.609E-03
  66 F= -.10359798E+03 E0= -.10359798E+03  d E =-.271166E-10
       N       E                     dE             d eps       ncg     rms          rms(c)
DAV:   1    -0.103598338397E+03   -0.36007E-03   -0.53533E-01    96   0.254E+00    0.170E-01
DAV:   2    -0.103598198554E+03    0.13984E-03   -0.27583E-03   132   0.182E-01    0.973E-02
DAV:   3    -0.103598058059E+03    0.14050E-03   -0.44819E-04   132   0.680E-02    0.175E-02
DAV:   4    -0.103598064048E+03   -0.59894E-05   -0.90493E-05   132   0.306E-02    0.974E-03
DAV:   5    -0.103598063017E+03    0.10313E-05   -0.22121E-06   132   0.549E-03    0.633E-03
DAV:   6    -0.103598063002E+03    0.14338E-07   -0.24070E-06   132   0.541E-03
  67 F= -.10359806E+03 E0= -.10359806E+03  d E =-.313222E-10
       N       E                     dE             d eps       ncg     rms          rms(c)
DAV:   1    -0.103598602550E+03   -0.53953E-03   -0.26565E-01    96   0.189E+00    0.118E-01
DAV:   2    -0.103598581509E+03    0.21041E-04   -0.13776E-03   120   0.132E-01    0.685E-02
DAV:   3    -0.103598526024E+03    0.55485E-04   -0.14621E-04   132   0.380E-02    0.101E-02
DAV:   4    -0.103598527780E+03   -0.17567E-05   -0.23008E-05   132   0.155E-02    0.503E-03
DAV:   5    -0.103598527882E+03   -0.10186E-06   -0.51766E-07   108   0.288E-03
  68 F= -.10359853E+03 E0= -.10359853E+03  d E =-.270648E-10
       N       E                     dE             d eps       ncg     rms          rms(c)
DAV:   1    -0.103598730539E+03   -0.20276E-03   -0.52581E-01    96   0.257E+00    0.159E-01
DAV:   2    -0.103598607238E+03    0.12330E-03   -0.20967E-03   132   0.163E-01    0.925E-02
DAV:   3    -0.103598508498E+03    0.98740E-04   -0.35880E-04   144   0.645E-02    0.120E-02
DAV:   4    -0.103598515108E+03   -0.66106E-05   -0.62905E-05   120   0.267E-02    0.917E-03
DAV:   5    -0.103598515340E+03   -0.23213E-06   -0.15905E-06   120   0.452E-03
  69 F= -.10359852E+03 E0= -.10359852E+03  d E =-.318426E-10
       N       E                     dE             d eps       ncg     rms          rms(c)
DAV:   1    -0.103598550222E+03   -0.35114E-04   -0.26634E-01    96   0.182E+00    0.113E-01
DAV:   2    -0.103598487951E+03    0.62272E-04   -0.10686E-03   132   0.111E-01    0.652E-02
DAV:   3    -0.103598436110E+03    0.51841E-04   -0.18224E-04   132   0.416E-02    0.935E-03
DAV:   4    -0.103598437831E+03   -0.17210E-05   -0.26988E-05   132   0.172E-02    0.558E-03
DAV:   5    -0.103598437572E+03    0.25818E-06   -0.71863E-07   108   0.323E-03
  70 F= -.10359844E+03 E0= -.10359844E+03  d E =-.326402E-10
       N       E                     dE             d eps       ncg     rms          rms(c)
DAV:   1    -0.103598610246E+03   -0.17242E-03   -0.53064E-01    96   0.257E+00    0.162E-01
DAV:   2    -0.103598488454E+03    0.12179E-03   -0.21877E-03   132   0.158E-01    0.929E-02
DAV:   3    -0.103598374922E+03    0.11353E-03   -0.33866E-04   132   0.563E-02    0.152E-02
DAV:   4    -0.103598377092E+03   -0.21705E-05   -0.47948E-05   132   0.231E-02    0.803E-03
DAV:   5    -0.103598377156E+03   -0.64404E-07   -0.21341E-06   132   0.515E-03
  71 F= -.10359838E+03 E0= -.10359838E+03  d E =-.246103E-10
       N       E                     dE             d eps       ncg     rms          rms(c)
DAV:   1    -0.103596225244E+03    0.21518E-02   -0.26702E-01    96   0.182E+00    0.123E-01
DAV:   2    -0.103596167281E+03    0.57963E-04   -0.16359E-03   132   0.141E-01    0.696E-02
DAV:   3    -0.103596092718E+03    0.74563E-04   -0.21329E-04   132   0.472E-02    0.150E-02
DAV:   4    -0.103596095447E+03   -0.27296E-05   -0.48250E-05   132   0.220E-02    0.723E-03
DAV:   5    -0.103596096492E+03   -0.10446E-05   -0.11916E-06   108   0.440E-03    0.468E-03
DAV:   6    -0.103596100159E+03   -0.36673E-05   -0.18798E-06   120   0.492E-03    0.848E-04
DAV:   7    -0.103596102365E+03   -0.22053E-05   -0.58380E-07   108   0.262E-03    0.653E-04
DAV:   8    -0.103596105433E+03   -0.30687E-05   -0.17526E-07   108   0.121E-03    0.289E-04
DAV:   9    -0.103596107898E+03   -0.24644E-05   -0.12956E-07   108   0.874E-04    0.196E-04
DAV:  10    -0.103596109995E+03   -0.20972E-05   -0.10950E-07   108   0.738E-04    0.108E-04
DAV:  11    -0.103596111089E+03   -0.10945E-05   -0.45775E-08   108   0.477E-04    0.797E-05
DAV:  12    -0.103596111651E+03   -0.56128E-06   -0.10899E-08   108   0.281E-04
  72 F= -.10359611E+03 E0= -.10359611E+03  d E =-.256712E-10
       N       E                     dE             d eps       ncg     rms          rms(c)
[...]
DAV:   4    -0.103598466072E+03   -0.64739E-05   -0.70229E-05   132   0.272E-02    0.861E-03
DAV:   5    -0.103598466829E+03   -0.75700E-06   -0.34211E-06   132   0.668E-03
 131 F= -.10359847E+03 E0= -.10359847E+03  d E =-.202769E-10
       N       E                     dE             d eps       ncg     rms          rms(c)
DAV:   1    -0.103598146663E+03    0.31941E-03   -0.27107E-01    96   0.162E+00    0.140E-01
DAV:   2    -0.103598032820E+03    0.11384E-03   -0.15392E-03   120   0.124E-01    0.779E-02
DAV:   3    -0.103597957480E+03    0.75339E-04   -0.21191E-04   132   0.441E-02    0.188E-02
DAV:   4    -0.103597960350E+03   -0.28701E-05   -0.34723E-05   132   0.187E-02    0.607E-03
DAV:   5    -0.103597960995E+03   -0.64504E-06   -0.17796E-06   120   0.500E-03
 132 F= -.10359796E+03 E0= -.10359796E+03  d E =-.383231E-10
       N       E                     dE             d eps       ncg     rms          rms(c)
DAV:   1    -0.103598560982E+03   -0.60063E-03   -0.55082E-01    96   0.230E+00    0.224E-01
DAV:   2    -0.103598277755E+03    0.28323E-03   -0.33636E-03   120   0.184E-01    0.118E-01
DAV:   3    -0.103598097911E+03    0.17984E-03   -0.47581E-04   132   0.647E-02    0.372E-02
DAV:   4    -0.103598098549E+03   -0.63772E-06   -0.10434E-04   120   0.305E-02    0.113E-02
DAV:   5    -0.103598097678E+03    0.87027E-06   -0.63188E-06   132   0.958E-03
 133 F= -.10359810E+03 E0= -.10359810E+03  d E =-.229985E-10
       N       E                     dE             d eps       ncg     rms          rms(c)
DAV:   1    -0.103598030322E+03    0.68227E-04   -0.27635E-01    96   0.193E+00    0.160E-01
DAV:   2    -0.103597941866E+03    0.88456E-04   -0.21109E-03   132   0.162E-01    0.856E-02
DAV:   3    -0.103597850198E+03    0.91668E-04   -0.21371E-04   132   0.466E-02    0.292E-02
DAV:   4    -0.103597849656E+03    0.54215E-06   -0.63837E-05   132   0.243E-02    0.849E-03
DAV:   5    -0.103597848895E+03    0.76124E-06   -0.43845E-06   144   0.798E-03
 134 F= -.10359785E+03 E0= -.10359785E+03  d E =-.303137E-10
       N       E                     dE             d eps       ncg     rms          rms(c)
DAV:   1    -0.103598422999E+03   -0.57334E-03   -0.55336E-01    96   0.243E+00    0.233E-01
DAV:   2    -0.103598087023E+03    0.33598E-03   -0.31864E-03   120   0.188E-01    0.120E-01
DAV:   3    -0.103597879134E+03    0.20789E-03   -0.43737E-04   132   0.599E-02    0.400E-02
DAV:   4    -0.103597872001E+03    0.71332E-05   -0.11797E-04   132   0.314E-02    0.121E-02
DAV:   5    -0.103597872588E+03   -0.58684E-06   -0.82188E-06   132   0.110E-02
 135 F= -.10359787E+03 E0= -.10359787E+03  d E =-.262655E-10
       N       E                     dE             d eps       ncg     rms          rms(c)
DAV:   1    -0.103597232008E+03    0.63999E-03   -0.29038E-01    96   0.175E+00    0.209E-01
DAV:   2    -0.103596971023E+03    0.26098E-03   -0.22892E-03   132   0.160E-01    0.102E-01
DAV:   3    -0.103596827286E+03    0.14374E-03   -0.38739E-04   132   0.601E-02    0.364E-02
DAV:   4    -0.103596827474E+03   -0.18821E-06   -0.11803E-04   132   0.319E-02    0.137E-02
DAV:   5    -0.103596826111E+03    0.13628E-05   -0.51249E-06   132   0.924E-03    0.586E-03
DAV:   6    -0.103596826306E+03   -0.19547E-06   -0.27251E-06   132   0.566E-03
 136 F= -.10359683E+03 E0= -.10359683E+03  d E =-.280456E-10
       N       E                     dE             d eps       ncg     rms          rms(c)
DAV:   1    -0.103597648018E+03   -0.82191E-03   -0.57376E-01    96   0.246E+00    0.276E-01
DAV:   2    -0.103597073061E+03    0.57496E-03   -0.42898E-03   132   0.227E-01    0.137E-01
DAV:   3    -0.103596781499E+03    0.29156E-03   -0.77765E-04   132   0.843E-02    0.462E-02
DAV:   4    -0.103596779136E+03    0.23636E-05   -0.18282E-04   132   0.414E-02    0.175E-02
DAV:   5    -0.103596778903E+03    0.23253E-06   -0.87130E-06   132   0.109E-02
 137 F= -.10359678E+03 E0= -.10359678E+03  d E =-.296592E-10
       N       E                     dE             d eps       ncg     rms          rms(c)
DAV:   1    -0.103598348129E+03   -0.15690E-02   -0.28912E-01    96   0.173E+00    0.205E-01
DAV:   2    -0.103598078478E+03    0.26965E-03   -0.23363E-03   132   0.162E-01    0.101E-01
DAV:   3    -0.103597937028E+03    0.14145E-03   -0.41467E-04   132   0.613E-02    0.347E-02
DAV:   4    -0.103597938856E+03   -0.18277E-05   -0.11100E-04   132   0.313E-02    0.142E-02
DAV:   5    -0.103597937904E+03    0.95223E-06   -0.47057E-06   132   0.869E-03
 138 F= -.10359794E+03 E0= -.10359794E+03  d E =-.348926E-10
       N       E                     dE             d eps       ncg     rms          rms(c)
DAV:   1    -0.103598435819E+03   -0.49696E-03   -0.54811E-01    96   0.239E+00    0.229E-01
DAV:   2    -0.103598102927E+03    0.33289E-03   -0.31346E-03   132   0.187E-01    0.120E-01
DAV:   3    -0.103597901245E+03    0.20168E-03   -0.49161E-04   144   0.657E-02    0.365E-02
DAV:   4    -0.103597902711E+03   -0.14662E-05   -0.10063E-04   132   0.307E-02    0.132E-02
DAV:   5    -0.103597902798E+03   -0.87364E-07   -0.57541E-06   132   0.927E-03
 139 F= -.10359790E+03 E0= -.10359790E+03  d E =-.250677E-10
       N       E                     dE             d eps       ncg     rms          rms(c)
DAV:   1    -0.103597800272E+03    0.10244E-03   -0.27691E-01    96   0.183E+00    0.166E-01
DAV:   2    -0.103597674592E+03    0.12568E-03   -0.17015E-03   132   0.139E-01    0.877E-02
DAV:   3    -0.103597582253E+03    0.92339E-04   -0.28510E-04   132   0.460E-02    0.255E-02
DAV:   4    -0.103597580083E+03    0.21703E-05   -0.40862E-05   144   0.188E-02    0.112E-02
DAV:   5    -0.103597578487E+03    0.15956E-05   -0.24291E-06   132   0.675E-03    0.581E-03
DAV:   6    -0.103597578341E+03    0.14558E-06   -0.23535E-06   132   0.589E-03
 140 F= -.10359758E+03 E0= -.10359758E+03  d E =-.302772E-10
       N       E                     dE             d eps       ncg     rms          rms(c)
DAV:   1    -0.103598200012E+03   -0.62153E-03   -0.55728E-01    96   0.251E+00    0.248E-01
DAV:   2    -0.103597822735E+03    0.37728E-03   -0.34155E-03   132   0.198E-01    0.124E-01
DAV:   3    -0.103597602815E+03    0.21992E-03   -0.48071E-04   132   0.620E-02    0.432E-02
DAV:   4    -0.103597593028E+03    0.97866E-05   -0.13208E-04   132   0.329E-02    0.126E-02
DAV:   5    -0.103597593395E+03   -0.36672E-06   -0.88528E-06   132   0.118E-02
 141 F= -.10359759E+03 E0= -.10359759E+03  d E =-.258245E-10
       N       E                     dE             d eps       ncg     rms          rms(c)
DAV:   1    -0.103596739518E+03    0.85351E-03   -0.27318E-01    96   0.175E+00    0.139E-01
DAV:   2    -0.103596603087E+03    0.13643E-03   -0.14292E-03   132   0.126E-01    0.785E-02
DAV:   3    -0.103596517497E+03    0.85591E-04   -0.27653E-04   132   0.504E-02    0.155E-02
DAV:   4    -0.103596522715E+03   -0.52185E-05   -0.47820E-05   132   0.220E-02    0.832E-03
DAV:   5    -0.103596523390E+03   -0.67471E-06   -0.12834E-06   120   0.425E-03
 142 F= -.10359652E+03 E0= -.10359652E+03  d E =-.255626E-10
       N       E                     dE             d eps       ncg     rms          rms(c)
DAV:   1    -0.103597330846E+03   -0.80813E-03   -0.58090E-01    96   0.252E+00    0.285E-01
DAV:   2    -0.103596805520E+03    0.52533E-03   -0.48186E-03   132   0.237E-01    0.143E-01
DAV:   3    -0.103596488745E+03    0.31677E-03   -0.84053E-04   132   0.914E-02    0.479E-02
DAV:   4    -0.103596491355E+03   -0.26098E-05   -0.25168E-04   120   0.481E-02    0.197E-02
DAV:   5    -0.103596489151E+03    0.22043E-05   -0.99828E-06   120   0.124E-02    0.871E-03
DAV:   6    -0.103596489384E+03   -0.23276E-06   -0.53283E-06   132   0.819E-03
 143 F= -.10359649E+03 E0= -.10359649E+03  d E =-.332851E-10
       N       E                     dE             d eps       ncg     rms          rms(c)
DAV:   1    -0.103598817746E+03   -0.23286E-02   -0.28165E-01    96   0.178E+00    0.168E-01
DAV:   2    -0.103598594955E+03    0.22279E-03   -0.18095E-03   132   0.147E-01    0.893E-02
DAV:   3    -0.103598481563E+03    0.11339E-03   -0.33377E-04   132   0.566E-02    0.253E-02
DAV:   4    -0.103598486242E+03   -0.46789E-05   -0.73174E-05   132   0.266E-02    0.108E-02
DAV:   5    -0.103598486470E+03   -0.22840E-06   -0.27467E-06   132   0.646E-03
 144 F= -.10359849E+03 E0= -.10359849E+03  d E =-.320589E-10
       N       E                     dE             d eps       ncg     rms          rms(c)
DAV:   1    -0.103598925053E+03   -0.43881E-03   -0.54140E-01    96   0.248E+00    0.201E-01
DAV:   2    -0.103598644160E+03    0.28089E-03   -0.27460E-03   132   0.173E-01    0.112E-01
DAV:   3    -0.103598476254E+03    0.16791E-03   -0.43376E-04   144   0.639E-02    0.249E-02
DAV:   4    -0.103598481312E+03   -0.50580E-05   -0.71497E-05   132   0.267E-02    0.956E-03
DAV:   5    -0.103598481725E+03   -0.41292E-06   -0.31588E-06   132   0.648E-03
 145 F= -.10359848E+03 E0= -.10359848E+03  d E =-.261864E-10
       N       E                     dE             d eps       ncg     rms          rms(c)
DAV:   1    -0.103597835042E+03    0.64627E-03   -0.27687E-01    96   0.198E+00    0.156E-01
DAV:   2    -0.103597698946E+03    0.13610E-03   -0.19834E-03   132   0.164E-01    0.858E-02
DAV:   3    -0.103597600609E+03    0.98337E-04   -0.28302E-04   132   0.580E-02    0.246E-02
DAV:   4    -0.103597605582E+03   -0.49724E-05   -0.77146E-05   132   0.291E-02    0.110E-02
DAV:   5    -0.103597605268E+03    0.31364E-06   -0.23475E-06   144   0.638E-03
 146 F= -.10359761E+03 E0= -.10359761E+03  d E =-.316935E-10
       N       E                     dE             d eps       ncg     rms          rms(c)
DAV:   1    -0.103598231467E+03   -0.62589E-03   -0.56134E-01    96   0.271E+00    0.239E-01
DAV:   2    -0.103597815605E+03    0.41586E-03   -0.39848E-03   132   0.232E-01    0.127E-01
DAV:   3    -0.103597568745E+03    0.24686E-03   -0.67639E-04   132   0.866E-02    0.372E-02
DAV:   4    -0.103597573418E+03   -0.46732E-05   -0.15918E-04   132   0.420E-02    0.169E-02
DAV:   5    -0.103597572590E+03    0.82826E-06   -0.59432E-06   132   0.971E-03
 147 F= -.10359757E+03 E0= -.10359757E+03  d E =-.261281E-10
       N       E                     dE             d eps       ncg     rms          rms(c)
DAV:   1    -0.103596748864E+03    0.82455E-03   -0.27236E-01    96   0.188E+00    0.142E-01
DAV:   2    -0.103596618652E+03    0.13021E-03   -0.14338E-03   120   0.134E-01    0.781E-02
DAV:   3    -0.103596529816E+03    0.88837E-04   -0.21203E-04   132   0.452E-02    0.195E-02
DAV:   4    -0.103596531887E+03   -0.20714E-05   -0.37146E-05   132   0.198E-02    0.659E-03
DAV:   5    -0.103596533079E+03   -0.11924E-05   -0.18034E-06   120   0.521E-03    0.434E-03
DAV:   6    -0.103596535501E+03   -0.24218E-05   -0.10963E-06   120   0.356E-03    0.958E-04
DAV:   7    -0.103596536966E+03   -0.14653E-05   -0.20109E-07   108   0.175E-03    0.581E-04
DAV:   8    -0.103596539177E+03   -0.22106E-05   -0.96853E-08    96   0.122E-03    0.301E-04
DAV:   9    -0.103596541282E+03   -0.21052E-05   -0.11288E-07   108   0.107E-03    0.195E-04
DAV:  10    -0.103596543425E+03   -0.21430E-05   -0.11761E-07   108   0.843E-04    0.124E-04
DAV:  11    -0.103596544085E+03   -0.65964E-06   -0.17844E-08   108   0.405E-04
 148 F= -.10359654E+03 E0= -.10359654E+03  d E =-.268445E-10
       N       E                     dE             d eps       ncg     rms          rms(c)
DAV:   1    -0.103597153910E+03   -0.61048E-03   -0.57734E-01    96   0.279E+00    0.294E-01
DAV:   2    -0.103596682197E+03    0.47171E-03   -0.44970E-03   132   0.243E-01    0.141E-01
DAV:   3    -0.103596392391E+03    0.28981E-03   -0.71400E-04   132   0.824E-02    0.502E-02
DAV:   4    -0.103596378591E+03    0.13799E-04   -0.19015E-04   132   0.420E-02    0.175E-02
DAV:   5    -0.103596375474E+03    0.31177E-05   -0.96301E-06   132   0.136E-02    0.680E-03
DAV:   6    -0.103596377405E+03   -0.19312E-05   -0.54165E-06   132   0.823E-03    0.268E-03
DAV:   7    -0.103596380044E+03   -0.26389E-05   -0.10262E-06   132   0.376E-03    0.130E-03
DAV:   8    -0.103596384164E+03   -0.41202E-05   -0.22951E-07   108   0.175E-03    0.523E-04
DAV:   9    -0.103596387652E+03   -0.34878E-05   -0.21001E-07   108   0.149E-03    0.536E-04
DAV:  10    -0.103596393868E+03   -0.62162E-05   -0.38714E-07   108   0.166E-03    0.410E-04
DAV:  11    -0.103596395423E+03   -0.15552E-05   -0.82011E-08   120   0.863E-04    0.292E-04
DAV:  12    -0.103596396256E+03   -0.83295E-06   -0.76864E-09   108   0.390E-04
 149 F= -.10359640E+03 E0= -.10359640E+03  d E =-.314211E-10
       N       E                     dE             d eps       ncg     rms          rms(c)
DAV:   1    -0.103598838280E+03   -0.24429E-02   -0.27819E-01    96   0.188E+00    0.171E-01
DAV:   2    -0.103598641763E+03    0.19652E-03   -0.18680E-03   132   0.159E-01    0.892E-02
DAV:   3    -0.103598528488E+03    0.11327E-03   -0.28579E-04   132   0.535E-02    0.268E-02
DAV:   4    -0.103598530166E+03   -0.16783E-05   -0.61388E-05   144   0.250E-02    0.101E-02
DAV:   5    -0.103598530986E+03   -0.81971E-06   -0.33742E-06   132   0.743E-03
 150 F= -.10359853E+03 E0= -.10359853E+03  d E =-.278071E-10
       N       E                     dE             d eps       ncg     rms          rms(c)
DAV:   1    -0.103598884970E+03   -0.35480E-03   -0.54262E-01    96   0.265E+00    0.201E-01
DAV:   2    -0.103598609587E+03    0.27538E-03   -0.29082E-03   132   0.197E-01    0.112E-01
DAV:   3    -0.103598435520E+03    0.17407E-03   -0.44651E-04   132   0.672E-02    0.244E-02
DAV:   4    -0.103598441728E+03   -0.62077E-05   -0.69966E-05   132   0.275E-02    0.877E-03
DAV:   5    -0.103598443141E+03   -0.14131E-05   -0.33271E-06   132   0.665E-03    0.601E-03
DAV:   6    -0.103598446559E+03   -0.34184E-05   -0.14446E-06   108   0.410E-03    0.109E-03
DAV:   7    -0.103598448744E+03   -0.21845E-05   -0.37301E-07   108   0.218E-03    0.884E-04
DAV:   8    -0.103598452259E+03   -0.35156E-05   -0.16501E-07   108   0.179E-03    0.316E-04
DAV:   9    -0.103598455362E+03   -0.31021E-05   -0.20837E-07   108   0.154E-03    0.394E-04
DAV:  10    -0.103598457303E+03   -0.19415E-05   -0.83026E-08   108   0.914E-04    0.212E-04
DAV:  11    -0.103598458583E+03   -0.12796E-05   -0.40214E-08   108   0.516E-04    0.134E-04
DAV:  12    -0.103598459265E+03   -0.68259E-06   -0.13133E-08   108   0.333E-04
 151 F= -.10359846E+03 E0= -.10359846E+03  d E =-.260999E-10
       N       E                     dE             d eps       ncg     rms          rms(c)
DAV:   1    -0.103596525207E+03    0.19334E-02   -0.28046E-01   108   0.198E+00    0.181E-01
DAV:   2    -0.103596315959E+03    0.20925E-03   -0.23770E-03   132   0.183E-01    0.902E-02
DAV:   3    -0.103596181748E+03    0.13421E-03   -0.33219E-04   132   0.622E-02    0.316E-02
DAV:   4    -0.103596184657E+03   -0.29090E-05   -0.10232E-04   132   0.326E-02    0.102E-02
DAV:   5    -0.103596185843E+03   -0.11856E-05   -0.58185E-06   132   0.907E-03    0.590E-03
DAV:   6    -0.103596187551E+03   -0.17086E-05   -0.15469E-06   120   0.445E-03    0.129E-03
DAV:   7    -0.103596188719E+03   -0.11680E-05   -0.31524E-07   108   0.219E-03    0.619E-04
DAV:   8    -0.103596190517E+03   -0.17982E-05   -0.89296E-08   108   0.112E-03    0.255E-04
DAV:   9    -0.103596191725E+03   -0.12077E-05   -0.43267E-08   108   0.739E-04    0.186E-04
DAV:  10    -0.103596193466E+03   -0.17405E-05   -0.66680E-08   108   0.700E-04    0.111E-04
DAV:  11    -0.103596194039E+03   -0.57329E-06   -0.16505E-08   108   0.408E-04
 152 F= -.10359619E+03 E0= -.10359619E+03  d E =-.314941E-10
       N       E                     dE             d eps       ncg     rms          rms(c)
DAV:   1    -0.103597078978E+03   -0.88551E-03   -0.58338E-01   108   0.273E+00    0.295E-01
DAV:   2    -0.103596559708E+03    0.51927E-03   -0.51460E-03   132   0.263E-01    0.146E-01
DAV:   3    -0.103596224150E+03    0.33556E-03   -0.87148E-04   132   0.974E-02    0.505E-02
DAV:   4    -0.103596221286E+03    0.28635E-05   -0.25125E-04   132   0.503E-02    0.211E-02
DAV:   5    -0.103596219437E+03    0.18489E-05   -0.11097E-05   132   0.133E-02    0.902E-03
DAV:   6    -0.103596220829E+03   -0.13916E-05   -0.56027E-06   132   0.913E-03    0.204E-03
DAV:   7    -0.103596223411E+03   -0.25817E-05   -0.16401E-06   132   0.455E-03    0.139E-03
DAV:   8    -0.103596226590E+03   -0.31791E-05   -0.12874E-07   108   0.106E-03    0.539E-04
DAV:   9    -0.103596230251E+03   -0.36610E-05   -0.17211E-07   108   0.112E-03    0.528E-04
DAV:  10    -0.103596234305E+03   -0.40549E-05   -0.21728E-07   108   0.131E-03    0.624E-04
DAV:  11    -0.103596236619E+03   -0.23139E-05   -0.99434E-08   108   0.807E-04    0.367E-04
DAV:  12    -0.103596237365E+03   -0.74559E-06   -0.59332E-09   120   0.417E-04
 153 F= -.10359624E+03 E0= -.10359624E+03  d E =-.259488E-10
       N       E                     dE             d eps       ncg     rms          rms(c)
DAV:   1    -0.103598779450E+03   -0.25428E-02   -0.28494E-01    96   0.192E+00    0.195E-01
DAV:   2    -0.103598551152E+03    0.22830E-03   -0.21785E-03   120   0.170E-01    0.963E-02
DAV:   3    -0.103598411009E+03    0.14014E-03   -0.31023E-04   132   0.546E-02    0.349E-02
DAV:   4    -0.103598405950E+03    0.50591E-05   -0.89257E-05   144   0.289E-02    0.121E-02
DAV:   5    -0.103598407797E+03   -0.18463E-05   -0.56071E-06   132   0.101E-02    0.526E-03
DAV:   6    -0.103598411580E+03   -0.37836E-05   -0.25305E-06   132   0.550E-03    0.169E-03
DAV:   7    -0.103598414232E+03   -0.26522E-05   -0.37286E-07   108   0.237E-03    0.830E-04
DAV:   8    -0.103598418872E+03   -0.46399E-05   -0.22986E-07   108   0.153E-03    0.385E-04
DAV:   9    -0.103598420880E+03   -0.20075E-05   -0.99878E-08   108   0.100E-03    0.392E-04
DAV:  10    -0.103598424805E+03   -0.39256E-05   -0.22268E-07   108   0.116E-03    0.174E-04
DAV:  11    -0.103598425889E+03   -0.10838E-05   -0.70025E-08   108   0.660E-04    0.130E-04
DAV:  12    -0.103598426507E+03   -0.61768E-06   -0.83435E-09   108   0.343E-04
 154 F= -.10359843E+03 E0= -.10359843E+03  d E =-.270856E-10
       N       E                     dE             d eps       ncg     rms          rms(c)
DAV:   1    -0.103598867403E+03   -0.44151E-03   -0.54973E-01    96   0.265E+00    0.203E-01
DAV:   2    -0.103598603334E+03    0.26407E-03   -0.28360E-03   120   0.179E-01    0.113E-01
DAV:   3    -0.103598409797E+03    0.19354E-03   -0.44437E-04   132   0.638E-02    0.285E-02
DAV:   4    -0.103598411629E+03   -0.18314E-05   -0.79703E-05   132   0.283E-02    0.926E-03
DAV:   5    -0.103598410925E+03    0.70327E-06   -0.38029E-06   132   0.745E-03
 155 F= -.10359841E+03 E0= -.10359841E+03  d E =-.337286E-10
       N       E                     dE             d eps       ncg     rms          rms(c)
DAV:   1    -0.103598190176E+03    0.22145E-03   -0.27346E-01    96   0.189E+00    0.147E-01
DAV:   2    -0.103598057022E+03    0.13315E-03   -0.16238E-03   132   0.143E-01    0.821E-02
DAV:   3    -0.103597969589E+03    0.87432E-04   -0.24682E-04   132   0.518E-02    0.186E-02
DAV:   4    -0.103597976554E+03   -0.69649E-05   -0.49558E-05   132   0.229E-02    0.781E-03
DAV:   5    -0.103597977430E+03   -0.87591E-06   -0.17051E-06   120   0.515E-03
 156 F= -.10359798E+03 E0= -.10359798E+03  d E =-.394716E-10
       N       E                     dE             d eps       ncg     rms          rms(c)
DAV:   1    -0.103598395177E+03   -0.41862E-03   -0.54805E-01    96   0.267E+00    0.229E-01
DAV:   2    -0.103598104216E+03    0.29096E-03   -0.35681E-03   132   0.217E-01    0.121E-01
DAV:   3    -0.103597896226E+03    0.20799E-03   -0.46101E-04   132   0.671E-02    0.376E-02
DAV:   4    -0.103597896876E+03   -0.65002E-06   -0.10609E-04   132   0.322E-02    0.116E-02
DAV:   5    -0.103597897469E+03   -0.59348E-06   -0.71604E-06   132   0.103E-02
 157 F= -.10359790E+03 E0= -.10359790E+03  d E =-.218411E-10
