       N       E                     dE             d eps       ncg     rms          rms(c)
DAV:   1     0.242822149390E+03    0.24282E+03   -0.10244E+04   120   0.484E+02
DAV:   2    -0.262957632345E+02   -0.26912E+03   -0.25438E+03   156   0.920E+01
DAV:   3    -0.106745990532E+03   -0.80450E+02   -0.80231E+02   120   0.551E+01
DAV:   4    -0.110736425808E+03   -0.39904E+01   -0.39755E+01   120   0.177E+01
DAV:   5    -0.110835975838E+03   -0.99550E-01   -0.99426E-01   168   0.315E+00    0.167E+01
DAV:   6    -0.107025505441E+03    0.38105E+01   -0.17320E+00   120   0.449E+00    0.966E+00
DAV:   7    -0.105054084608E+03    0.19714E+01   -0.47079E+00   132   0.661E+00    0.136E+00
DAV:   8    -0.105002394727E+03    0.51690E-01   -0.34557E-01   132   0.222E+00    0.721E-01
DAV:   9    -0.104967422319E+03    0.34972E-01   -0.66739E-02   156   0.707E-01    0.415E-01
DAV:  10    -0.104966576408E+03    0.84591E-03   -0.36492E-03   132   0.220E-01    0.160E-01
DAV:  11    -0.104963970770E+03    0.26056E-02   -0.78725E-03   132   0.230E-01    0.108E-01
DAV:  12    -0.104969745730E+03   -0.57750E-02   -0.11904E-03    96   0.101E-01    0.507E-02
DAV:  13    -0.104973126846E+03   -0.33811E-02   -0.25719E-03   120   0.118E-01    0.468E-02
DAV:  14    -0.104976395716E+03   -0.32689E-02   -0.17590E-04   144   0.419E-02    0.234E-02
DAV:  15    -0.104982035335E+03   -0.56396E-02   -0.68641E-04    96   0.625E-02    0.168E-02
DAV:  16    -0.104983581332E+03   -0.15460E-02   -0.10073E-04   132   0.300E-02    0.102E-02
DAV:  17    -0.104984906030E+03   -0.13247E-02   -0.12723E-04   120   0.250E-02    0.810E-03
DAV:  18    -0.104985182226E+03   -0.27620E-03   -0.63079E-06   132   0.630E-03    0.283E-03
DAV:  19    -0.104985450185E+03   -0.26796E-03   -0.11916E-05   132   0.805E-03    0.249E-03
DAV:  20    -0.104985516561E+03   -0.66376E-04   -0.14716E-06   120   0.369E-03    0.953E-04
DAV:  21    -0.104985545805E+03   -0.29244E-04   -0.72621E-07   108   0.218E-03    0.478E-04
DAV:  22    -0.104985554578E+03   -0.87725E-05   -0.19650E-07   108   0.109E-03    0.438E-04
DAV:  23    -0.104985559429E+03   -0.48511E-05   -0.95839E-08   108   0.797E-04    0.119E-04
DAV:  24    -0.104985561665E+03   -0.22361E-05   -0.27889E-08   108   0.476E-04    0.823E-05
DAV:  25    -0.104985562842E+03   -0.11769E-05   -0.92747E-09   108   0.303E-04    0.429E-05
DAV:  26    -0.104985563146E+03   -0.30459E-06    0.32991E-09   108   0.156E-04
   1 F= -.10498556E+03 E0= -.10498556E+03  d E =-.525776E-10
       N       E                     dE             d eps       ncg     rms          rms(c)
DAV:   1    -0.104982312848E+03    0.32500E-02   -0.82743E-02    96   0.821E-01    0.133E-01
DAV:   2    -0.104982656798E+03   -0.34395E-03   -0.39740E-03   120   0.213E-01    0.578E-02
DAV:   3    -0.104982639915E+03    0.16883E-04   -0.15759E-04   144   0.463E-02    0.304E-02
DAV:   4    -0.104982643000E+03   -0.30851E-05   -0.40250E-05   132   0.229E-02    0.917E-03
DAV:   5    -0.104982642048E+03    0.95178E-06   -0.65941E-06   132   0.986E-03
   2 F= -.10498264E+03 E0= -.10498264E+03  d E =-.539956E-10
       N       E                     dE             d eps       ncg     rms          rms(c)
DAV:   1    -0.104980973656E+03    0.16693E-02   -0.32765E-01    96   0.162E+00    0.267E-01
DAV:   2    -0.104982367978E+03   -0.13943E-02   -0.16045E-02   132   0.426E-01    0.117E-01
DAV:   3    -0.104982299337E+03    0.68641E-04   -0.64555E-04   132   0.926E-02    0.621E-02
DAV:   4    -0.104982316874E+03   -0.17537E-04   -0.16403E-04   144   0.455E-02    0.189E-02
DAV:   5    -0.104982314314E+03    0.25592E-05   -0.25147E-05   132   0.190E-02    0.104E-02
DAV:   6    -0.104982313823E+03    0.49189E-06   -0.51184E-06   132   0.773E-03
   3 F= -.10498231E+03 E0= -.10498231E+03  d E =-.526734E-10
       N       E                     dE             d eps       ncg     rms          rms(c)
DAV:   1    -0.104981884533E+03    0.42978E-03   -0.16954E-01    96   0.119E+00    0.196E-01
DAV:   2    -0.104982531344E+03   -0.64681E-03   -0.76003E-03   132   0.299E-01    0.806E-02
DAV:   3    -0.104982502733E+03    0.28611E-04   -0.30853E-04   120   0.642E-02    0.438E-02
DAV:   4    -0.104982513030E+03   -0.10297E-04   -0.72962E-05   132   0.307E-02    0.133E-02
DAV:   5    -0.104982513134E+03   -0.10329E-06   -0.12298E-05   132   0.137E-02    0.732E-03
DAV:   6    -0.104982513358E+03   -0.22432E-06   -0.26775E-06   132   0.574E-03
   4 F= -.10498251E+03 E0= -.10498251E+03  d E =-.523090E-10
       N       E                     dE             d eps       ncg     rms          rms(c)
DAV:   1    -0.104981141232E+03    0.13719E-02   -0.33336E-01    96   0.171E+00    0.274E-01
DAV:   2    -0.104982398613E+03   -0.12574E-02   -0.14854E-02   132   0.430E-01    0.117E-01
DAV:   3    -0.104982336068E+03    0.62544E-04   -0.58594E-04   132   0.917E-02    0.618E-02
DAV:   4    -0.104982351236E+03   -0.15168E-04   -0.16383E-04   132   0.469E-02    0.182E-02
DAV:   5    -0.104982347665E+03    0.35713E-05   -0.28560E-05   132   0.211E-02    0.104E-02
DAV:   6    -0.104982347440E+03    0.22435E-06   -0.58328E-06   132   0.841E-03
   5 F= -.10498235E+03 E0= -.10498235E+03  d E =-.546694E-10
       N       E                     dE             d eps       ncg     rms          rms(c)
DAV:   1    -0.104980195623E+03    0.21520E-02   -0.16624E-01    96   0.123E+00    0.194E-01
DAV:   2    -0.104981031622E+03   -0.83600E-03   -0.93780E-03   132   0.335E-01    0.948E-02
DAV:   3    -0.104980980855E+03    0.50767E-04   -0.32005E-04   132   0.701E-02    0.508E-02
DAV:   4    -0.104980988212E+03   -0.73564E-05   -0.12952E-04   132   0.411E-02    0.132E-02
DAV:   5    -0.104980986713E+03    0.14983E-05   -0.20619E-05   132   0.172E-02    0.826E-03
DAV:   6    -0.104980988445E+03   -0.17317E-05   -0.35195E-06   132   0.622E-03    0.522E-03
DAV:   7    -0.104980994087E+03   -0.56419E-05   -0.47742E-07   108   0.260E-03    0.154E-03
DAV:   8    -0.104980998602E+03   -0.45149E-05   -0.39340E-07   108   0.223E-03    0.679E-04
DAV:   9    -0.104981004423E+03   -0.58217E-05   -0.34455E-07   108   0.181E-03    0.522E-04
DAV:  10    -0.104981011262E+03   -0.68387E-05   -0.55892E-07   108   0.171E-03    0.531E-04
DAV:  11    -0.104981012255E+03   -0.99267E-06   -0.57433E-08   108   0.800E-04
   6 F= -.10498101E+03 E0= -.10498101E+03  d E =-.746491E-10
       N       E                     dE             d eps       ncg     rms          rms(c)
DAV:   1    -0.104979189207E+03    0.18221E-02   -0.33522E-01    96   0.169E+00    0.274E-01
DAV:   2    -0.104981514437E+03   -0.23252E-02   -0.25287E-02   132   0.515E-01    0.171E-01
DAV:   3    -0.104981328914E+03    0.18552E-03   -0.70183E-04   132   0.108E-01    0.889E-02
DAV:   4    -0.104981332276E+03   -0.33624E-05   -0.47550E-04   120   0.739E-02    0.175E-02
DAV:   5    -0.104981321353E+03    0.10923E-04   -0.65433E-05   132   0.291E-02    0.125E-02
DAV:   6    -0.104981321531E+03   -0.17802E-06   -0.11333E-05   144   0.911E-03    0.827E-03
DAV:   7    -0.104981332053E+03   -0.10522E-04   -0.90094E-07   108   0.347E-03    0.351E-03
DAV:   8    -0.104981349006E+03   -0.16953E-04   -0.23546E-06   132   0.530E-03    0.167E-03
DAV:   9    -0.104981360364E+03   -0.11358E-04   -0.10566E-06   132   0.271E-03    0.171E-03
DAV:  10    -0.104981378136E+03   -0.17772E-04   -0.73066E-07   120   0.195E-03    0.103E-03
DAV:  11    -0.104981386100E+03   -0.79637E-05   -0.36205E-07   108   0.132E-03    0.740E-04
DAV:  12    -0.104981393808E+03   -0.77082E-05   -0.24463E-07   108   0.113E-03    0.289E-04
DAV:  13    -0.104981397324E+03   -0.35161E-05   -0.89886E-08   108   0.636E-04    0.243E-04
DAV:  14    -0.104981399364E+03   -0.20397E-05   -0.16572E-08   108   0.355E-04    0.157E-04
DAV:  15    -0.104981401122E+03   -0.17580E-05   -0.30402E-08   108   0.378E-04    0.983E-05
DAV:  16    -0.104981401666E+03   -0.54330E-06    0.20122E-09   120   0.181E-04
   7 F= -.10498140E+03 E0= -.10498140E+03  d E =-.444350E-10
       N       E                     dE             d eps       ncg     rms          rms(c)
DAV:   1    -0.104980320841E+03    0.10803E-02   -0.19131E-01    96   0.129E+00    0.194E-01
DAV:   2    -0.104981714291E+03   -0.13934E-02   -0.14573E-02   132   0.407E-01    0.120E-01
DAV:   3    -0.104981630647E+03    0.83644E-04   -0.41607E-04   144   0.839E-02    0.640E-02
DAV:   4    -0.104981633112E+03   -0.24647E-05   -0.22743E-04   132   0.546E-02    0.129E-02
DAV:   5    -0.104981627420E+03    0.56914E-05   -0.37725E-05   120   0.217E-02    0.958E-03
DAV:   6    -0.104981628386E+03   -0.96545E-06   -0.41342E-06   144   0.623E-03
   8 F= -.10498163E+03 E0= -.10498163E+03  d E =-.496942E-10
       N       E                     dE             d eps       ncg     rms          rms(c)
DAV:   1    -0.104979707489E+03    0.19199E-02   -0.33846E-01    96   0.159E+00    0.259E-01
DAV:   2    -0.104981531104E+03   -0.18236E-02   -0.19012E-02   132   0.434E-01    0.153E-01
DAV:   3    -0.104981475764E+03    0.55340E-04   -0.56711E-04   132   0.866E-02    0.853E-02
DAV:   4    -0.104981474287E+03    0.14768E-05   -0.19597E-04   120   0.503E-02    0.178E-02
DAV:   5    -0.104981463311E+03    0.10976E-04   -0.34119E-05   144   0.218E-02    0.995E-03
DAV:   6    -0.104981464319E+03   -0.10079E-05   -0.72242E-06   132   0.882E-03    0.626E-03
DAV:   7    -0.104981478521E+03   -0.14202E-04   -0.24315E-06   132   0.606E-03    0.177E-03
DAV:   8    -0.104981491446E+03   -0.12925E-04   -0.10679E-06   120   0.395E-03    0.132E-03
DAV:   9    -0.104981506299E+03   -0.14853E-04   -0.69219E-07   108   0.253E-03    0.105E-03
DAV:  10    -0.104981525196E+03   -0.18897E-04   -0.14646E-06   120   0.248E-03    0.544E-04
DAV:  11    -0.104981528320E+03   -0.31243E-05   -0.87784E-08   120   0.112E-03    0.383E-04
DAV:  12    -0.104981535445E+03   -0.71245E-05   -0.17831E-07    96   0.101E-03    0.247E-04
DAV:  13    -0.104981538942E+03   -0.34966E-05   -0.76620E-08   108   0.614E-04    0.185E-04
DAV:  14    -0.104981541658E+03   -0.27164E-05   -0.30301E-08   108   0.448E-04    0.101E-04
DAV:  15    -0.104981542926E+03   -0.12681E-05   -0.16758E-08   108   0.313E-04    0.617E-05
DAV:  16    -0.104981543611E+03   -0.68528E-06    0.44672E-10   120   0.198E-04
   9 F= -.10498154E+03 E0= -.10498154E+03  d E =-.549634E-10
       N       E                     dE             d eps       ncg     rms          rms(c)
DAV:   1    -0.104979609476E+03    0.19334E-02   -0.16972E-01    96   0.114E+00    0.182E-01
DAV:   2    -0.104980714912E+03   -0.11054E-02   -0.11491E-02   132   0.345E-01    0.115E-01
DAV:   3    -0.104980664037E+03    0.50875E-04   -0.30041E-04   132   0.693E-02    0.611E-02
DAV:   4    -0.104980661494E+03    0.25425E-05   -0.16015E-04   132   0.449E-02    0.125E-02
DAV:   5    -0.104980655962E+03    0.55324E-05   -0.28776E-05   132   0.194E-02    0.824E-03
DAV:   6    -0.104980659272E+03   -0.33102E-05   -0.67952E-06   132   0.734E-03    0.515E-03
DAV:   7    -0.104980671041E+03   -0.11769E-04   -0.81888E-07   108   0.331E-03    0.213E-03
DAV:   8    -0.104980685334E+03   -0.14293E-04   -0.15259E-06   132   0.350E-03    0.948E-04
DAV:   9    -0.104980696578E+03   -0.11244E-04   -0.97165E-07   120   0.263E-03    0.103E-03
DAV:  10    -0.104980709086E+03   -0.12509E-04   -0.10719E-06   108   0.228E-03    0.493E-04
DAV:  11    -0.104980712124E+03   -0.30377E-05   -0.11557E-07   108   0.951E-04    0.365E-04
DAV:  12    -0.104980715336E+03   -0.32124E-05   -0.94567E-08    96   0.732E-04    0.168E-04
DAV:  13    -0.104980717868E+03   -0.25317E-05   -0.10142E-07    96   0.667E-04    0.174E-04
DAV:  14    -0.104980719138E+03   -0.12700E-05   -0.28489E-08   108   0.399E-04    0.120E-04
DAV:  15    -0.104980719676E+03   -0.53757E-06   -0.51773E-09    96   0.237E-04
  10 F= -.10498072E+03 E0= -.10498072E+03  d E =-.527208E-10
       N       E                     dE             d eps       ncg     rms          rms(c)
DAV:   1    -0.104978052143E+03    0.26670E-02   -0.34382E-01    96   0.162E+00    0.270E-01
DAV:   2    -0.104980822068E+03   -0.27699E-02   -0.28371E-02   132   0.526E-01    0.185E-01
DAV:   3    -0.104980656962E+03    0.16511E-03   -0.68331E-04   144   0.106E-01    0.947E-02
DAV:   4    -0.104980674395E+03   -0.17433E-04   -0.48709E-04   120   0.758E-02    0.181E-02
DAV:   5    -0.104980659215E+03    0.15180E-04   -0.87295E-05   132   0.321E-02    0.121E-02
DAV:   6    -0.104980663697E+03   -0.44820E-05   -0.15121E-05   132   0.994E-03    0.732E-03
DAV:   7    -0.104980683587E+03   -0.19890E-04   -0.13380E-06   132   0.323E-03    0.344E-03
DAV:   8    -0.104980710921E+03   -0.27334E-04   -0.42021E-06   132   0.568E-03    0.187E-03
DAV:   9    -0.104980726874E+03   -0.15953E-04   -0.14954E-06   132   0.312E-03    0.167E-03
DAV:  10    -0.104980750339E+03   -0.23465E-04   -0.20215E-06   120   0.292E-03    0.726E-04
DAV:  11    -0.104980755007E+03   -0.46686E-05   -0.13708E-07   108   0.108E-03    0.455E-04
DAV:  12    -0.104980763176E+03   -0.81680E-05   -0.26008E-07    96   0.110E-03    0.228E-04
DAV:  13    -0.104980766331E+03   -0.31558E-05   -0.10400E-07   108   0.622E-04    0.214E-04
DAV:  14    -0.104980768795E+03   -0.24637E-05   -0.30890E-08    96   0.459E-04    0.131E-04
DAV:  15    -0.104980769661E+03   -0.86642E-06   -0.12412E-08   108   0.287E-04
  11 F= -.10498077E+03 E0= -.10498077E+03  d E =-.522849E-10
       N       E                     dE             d eps       ncg     rms          rms(c)
DAV:   1    -0.104980929956E+03   -0.16116E-03   -0.17039E-01    96   0.116E+00    0.188E-01
DAV:   2    -0.104982187499E+03   -0.12575E-02   -0.13022E-02   132   0.356E-01    0.123E-01
DAV:   3    -0.104982118706E+03    0.68793E-04   -0.32810E-04   132   0.732E-02    0.638E-02
DAV:   4    -0.104982124150E+03   -0.54446E-05   -0.20682E-04   132   0.511E-02    0.127E-02
DAV:   5    -0.104982117439E+03    0.67112E-05   -0.38991E-05   132   0.222E-02    0.877E-03
DAV:   6    -0.104982119530E+03   -0.20910E-05   -0.73149E-06   132   0.731E-03    0.556E-03
DAV:   7    -0.104982129232E+03   -0.97020E-05   -0.58525E-07   108   0.269E-03    0.250E-03
DAV:   8    -0.104982142893E+03   -0.13661E-04   -0.17342E-06   120   0.367E-03    0.101E-03
DAV:   9    -0.104982153522E+03   -0.10629E-04   -0.91223E-07   120   0.252E-03    0.102E-03
DAV:  10    -0.104982165034E+03   -0.11512E-04   -0.86328E-07   120   0.205E-03    0.537E-04
DAV:  11    -0.104982168235E+03   -0.32006E-05   -0.10236E-07   108   0.906E-04    0.400E-04
DAV:  12    -0.104982171557E+03   -0.33222E-05   -0.90077E-08    96   0.713E-04    0.174E-04
DAV:  13    -0.104982174206E+03   -0.26486E-05   -0.96504E-08   108   0.661E-04    0.169E-04
DAV:  14    -0.104982175615E+03   -0.14090E-05   -0.29628E-08    96   0.410E-04    0.123E-04
DAV:  15    -0.104982176136E+03   -0.52137E-06   -0.44929E-09   108   0.230E-04
  12 F= -.10498218E+03 E0= -.10498218E+03  d E =-.530041E-10
       N       E                     dE             d eps       ncg     rms          rms(c)
DAV:   1    -0.104980557173E+03    0.16184E-02   -0.33310E-01    96   0.155E+00    0.265E-01
DAV:   2    -0.104982165833E+03   -0.16087E-02   -0.17278E-02   132   0.413E-01    0.133E-01
DAV:   3    -0.104982122635E+03    0.43198E-04   -0.56935E-04   132   0.880E-02    0.722E-02
DAV:   4    -0.104982132907E+03   -0.10272E-04   -0.18535E-04   120   0.544E-02    0.166E-02
DAV:   5    -0.104982126332E+03    0.65750E-05   -0.46661E-05   132   0.261E-02    0.114E-02
DAV:   6    -0.104982126508E+03   -0.17618E-06   -0.75430E-06   132   0.889E-03
  13 F= -.10498213E+03 E0= -.10498213E+03  d E =-.570838E-10
       N       E                     dE             d eps       ncg     rms          rms(c)
DAV:   1    -0.104979866741E+03    0.22596E-02   -0.16821E-01    96   0.130E+00    0.194E-01
DAV:   2    -0.104981148394E+03   -0.12817E-02   -0.13289E-02   132   0.411E-01    0.114E-01
DAV:   3    -0.104981099014E+03    0.49380E-04   -0.37396E-04   144   0.794E-02    0.656E-02
DAV:   4    -0.104981119902E+03   -0.20888E-04   -0.18160E-04   132   0.550E-02    0.138E-02
DAV:   5    -0.104981119171E+03    0.73085E-06   -0.46183E-05   132   0.255E-02    0.104E-02
DAV:   6    -0.104981118043E+03    0.11281E-05   -0.54523E-06   132   0.814E-03    0.716E-03
DAV:   7    -0.104981121859E+03   -0.38160E-05   -0.14498E-06   108   0.484E-03    0.279E-03
DAV:   8    -0.104981127314E+03   -0.54548E-05   -0.87334E-07   108   0.372E-03    0.788E-04
DAV:   9    -0.104981134231E+03   -0.69172E-05   -0.55826E-07   108   0.251E-03    0.971E-04
DAV:  10    -0.104981142096E+03   -0.78647E-05   -0.44464E-07   108   0.177E-03    0.367E-04
DAV:  11    -0.104981144929E+03   -0.28330E-05   -0.13101E-07   108   0.951E-04    0.302E-04
DAV:  12    -0.104981148555E+03   -0.36262E-05   -0.10880E-07   108   0.777E-04    0.124E-04
DAV:  13    -0.104981150248E+03   -0.16927E-05   -0.47607E-08   108   0.493E-04    0.137E-04
DAV:  14    -0.104981151655E+03   -0.14076E-05   -0.23009E-08    96   0.365E-04    0.107E-04
DAV:  15    -0.104981152273E+03   -0.61792E-06   -0.50371E-09   108   0.232E-04
  14 F= -.10498115E+03 E0= -.10498115E+03  d E =-.580617E-10
       N       E                     dE             d eps       ncg     rms          rms(c)
DAV:   1    -0.104978706560E+03    0.24451E-02   -0.35465E-01    96   0.184E+00    0.266E-01
DAV:   2    -0.104980915646E+03   -0.22091E-02   -0.22776E-02   132   0.558E-01    0.169E-01
DAV:   3    -0.104980815250E+03    0.10040E-03   -0.61136E-04   144   0.106E-01    0.855E-02
DAV:   4    -0.104980823497E+03   -0.82475E-05   -0.33365E-04   120   0.689E-02    0.179E-02
DAV:   5    -0.104980813791E+03    0.97061E-05   -0.53355E-05   132   0.275E-02    0.110E-02
DAV:   6    -0.104980821936E+03   -0.81442E-05   -0.13767E-05   132   0.110E-02    0.627E-03
DAV:   7    -0.104980844162E+03   -0.22227E-04   -0.15817E-06   120   0.435E-03    0.265E-03
DAV:   8    -0.104980872905E+03   -0.28743E-04   -0.30051E-06   108   0.487E-03    0.123E-03
DAV:   9    -0.104980892453E+03   -0.19548E-04   -0.18058E-06   120   0.352E-03    0.144E-03
DAV:  10    -0.104980912485E+03   -0.20031E-04   -0.16882E-06   108   0.299E-03    0.505E-04
DAV:  11    -0.104980917763E+03   -0.52776E-05   -0.20269E-07   108   0.128E-03    0.353E-04
DAV:  12    -0.104980923102E+03   -0.53390E-05   -0.16111E-07    96   0.966E-04    0.173E-04
DAV:  13    -0.104980926506E+03   -0.34043E-05   -0.14556E-07   108   0.791E-04    0.200E-04
DAV:  14    -0.104980928300E+03   -0.17941E-05   -0.36662E-08   108   0.470E-04    0.903E-05
DAV:  15    -0.104980928809E+03   -0.50920E-06   -0.42477E-09   108   0.241E-04
  15 F= -.10498093E+03 E0= -.10498093E+03  d E =-.539711E-10
       N       E                     dE             d eps       ncg     rms          rms(c)
DAV:   1    -0.104980528991E+03    0.39931E-03   -0.17749E-01    96   0.130E+00    0.203E-01
DAV:   2    -0.104981744377E+03   -0.12154E-02   -0.12556E-02   132   0.402E-01    0.125E-01
DAV:   3    -0.104981678646E+03    0.65731E-04   -0.32235E-04   144   0.783E-02    0.633E-02
DAV:   4    -0.104981684322E+03   -0.56756E-05   -0.20272E-04   120   0.529E-02    0.123E-02
DAV:   5    -0.104981677201E+03    0.71205E-05   -0.33810E-05   132   0.214E-02    0.785E-03
DAV:   6    -0.104981680068E+03   -0.28670E-05   -0.69505E-06   144   0.734E-03    0.435E-03
DAV:   7    -0.104981691546E+03   -0.11477E-04   -0.63638E-07   108   0.266E-03    0.190E-03
DAV:   8    -0.104981710541E+03   -0.18995E-04   -0.26921E-06   120   0.424E-03    0.147E-03
DAV:   9    -0.104981720415E+03   -0.98748E-05   -0.62928E-07   108   0.231E-03    0.109E-03
DAV:  10    -0.104981732813E+03   -0.12397E-04   -0.99053E-07   108   0.211E-03    0.341E-04
DAV:  11    -0.104981736323E+03   -0.35105E-05   -0.11035E-07   108   0.934E-04    0.260E-04
DAV:  12    -0.104981740014E+03   -0.36910E-05   -0.99271E-08    96   0.722E-04    0.136E-04
DAV:  13    -0.104981741629E+03   -0.16150E-05   -0.36038E-08   108   0.428E-04    0.115E-04
DAV:  14    -0.104981742990E+03   -0.13609E-05   -0.16432E-08    96   0.327E-04    0.509E-05
DAV:  15    -0.104981743307E+03   -0.31669E-06    0.15740E-09   108   0.166E-04
  16 F= -.10498174E+03 E0= -.10498174E+03  d E =-.736987E-10
       N       E                     dE             d eps       ncg     rms          rms(c)
DAV:   1    -0.104979378166E+03    0.23648E-02   -0.34758E-01    96   0.181E+00    0.260E-01
DAV:   2    -0.104981421506E+03   -0.20433E-02   -0.21060E-02   132   0.516E-01    0.152E-01
DAV:   3    -0.104981332137E+03    0.89369E-04   -0.51451E-04   132   0.941E-02    0.803E-02
DAV:   4    -0.104981337651E+03   -0.55140E-05   -0.29996E-04   132   0.659E-02    0.165E-02
DAV:   5    -0.104981326498E+03    0.11153E-04   -0.62757E-05   132   0.300E-02    0.117E-02
DAV:   6    -0.104981326902E+03   -0.40364E-06   -0.12017E-05   132   0.104E-02    0.721E-03
DAV:   7    -0.104981336639E+03   -0.97373E-05   -0.11338E-06   120   0.457E-03    0.307E-03
DAV:   8    -0.104981352130E+03   -0.15491E-04   -0.19877E-06   132   0.501E-03    0.135E-03
DAV:   9    -0.104981366164E+03   -0.14035E-04   -0.88681E-07   108   0.307E-03    0.123E-03
DAV:  10    -0.104981383990E+03   -0.17825E-04   -0.11676E-06   120   0.255E-03    0.682E-04
DAV:  11    -0.104981389725E+03   -0.57354E-05   -0.16999E-07   108   0.127E-03    0.486E-04
DAV:  12    -0.104981396516E+03   -0.67914E-05   -0.16120E-07    96   0.964E-04    0.225E-04
DAV:  13    -0.104981400493E+03   -0.39761E-05   -0.97924E-08   108   0.685E-04    0.270E-04
DAV:  14    -0.104981403101E+03   -0.26082E-05   -0.35531E-08   108   0.462E-04    0.119E-04
DAV:  15    -0.104981404108E+03   -0.10072E-05   -0.98267E-09   108   0.287E-04    0.526E-05
DAV:  16    -0.104981404752E+03   -0.64409E-06    0.98314E-10   108   0.186E-04
  17 F= -.10498140E+03 E0= -.10498140E+03  d E =-.447001E-10
       N       E                     dE             d eps       ncg     rms          rms(c)
DAV:   1    -0.104980698776E+03    0.70533E-03   -0.17378E-01    96   0.129E+00    0.171E-01
DAV:   2    -0.104981869537E+03   -0.11708E-02   -0.12065E-02   120   0.377E-01    0.117E-01
DAV:   3    -0.104981819108E+03    0.50429E-04   -0.25459E-04   132   0.640E-02    0.664E-02
DAV:   4    -0.104981800954E+03    0.18154E-04   -0.14473E-04   120   0.444E-02    0.108E-02
DAV:   5    -0.104981798229E+03    0.27251E-05   -0.27206E-05   132   0.186E-02    0.816E-03
DAV:   6    -0.104981802383E+03   -0.41541E-05   -0.71538E-06   132   0.885E-03    0.481E-03
DAV:   7    -0.104981818526E+03   -0.16143E-04   -0.27296E-06   108   0.590E-03    0.181E-03
DAV:   8    -0.104981838003E+03   -0.19477E-04   -0.14511E-06   108   0.402E-03    0.980E-04
DAV:   9    -0.104981856313E+03   -0.18311E-04   -0.17169E-06   120   0.336E-03    0.102E-03
DAV:  10    -0.104981870603E+03   -0.14289E-04   -0.12580E-06   120   0.247E-03    0.408E-04
DAV:  11    -0.104981875077E+03   -0.44746E-05   -0.16757E-07   108   0.101E-03    0.208E-04
DAV:  12    -0.104981878870E+03   -0.37928E-05   -0.19366E-07   108   0.916E-04    0.127E-04
DAV:  13    -0.104981880337E+03   -0.14667E-05   -0.44126E-08   108   0.492E-04    0.911E-05
DAV:  14    -0.104981881191E+03   -0.85443E-06   -0.11192E-08    96   0.301E-04
  18 F= -.10498188E+03 E0= -.10498188E+03  d E =-.479286E-10
       N       E                     dE             d eps       ncg     rms          rms(c)
DAV:   1    -0.104980110744E+03    0.17696E-02   -0.33386E-01    96   0.178E+00    0.211E-01
DAV:   2    -0.104981989401E+03   -0.18787E-02   -0.19294E-02   120   0.485E-01    0.139E-01
DAV:   3    -0.104981957116E+03    0.32285E-04   -0.51767E-04   144   0.907E-02    0.712E-02
DAV:   4    -0.104981950447E+03    0.66689E-05   -0.16435E-04   132   0.509E-02    0.135E-02
DAV:   5    -0.104981940751E+03    0.96958E-05   -0.33256E-05   132   0.228E-02    0.906E-03
DAV:   6    -0.104981942254E+03   -0.15032E-05   -0.83200E-06   132   0.973E-03    0.557E-03
DAV:   7    -0.104981954654E+03   -0.12400E-04   -0.18368E-06   120   0.603E-03    0.217E-03
DAV:   8    -0.104981971843E+03   -0.17189E-04   -0.19675E-06   120   0.558E-03    0.152E-03
DAV:   9    -0.104981989841E+03   -0.17999E-04   -0.12110E-06   120   0.353E-03    0.120E-03
DAV:  10    -0.104982003020E+03   -0.13178E-04   -0.54509E-07   108   0.179E-03    0.591E-04
DAV:  11    -0.104982012226E+03   -0.92068E-05   -0.36019E-07   108   0.137E-03    0.327E-04
DAV:  12    -0.104982020938E+03   -0.87115E-05   -0.29687E-07   108   0.111E-03    0.171E-04
DAV:  13    -0.104982024341E+03   -0.34031E-05   -0.81200E-08   108   0.585E-04    0.159E-04
DAV:  14    -0.104982026830E+03   -0.24891E-05   -0.32000E-08    96   0.423E-04    0.531E-05
DAV:  15    -0.104982027739E+03   -0.90884E-06   -0.10153E-08   108   0.253E-04
  19 F= -.10498203E+03 E0= -.10498203E+03  d E =-.710751E-10
       N       E                     dE             d eps       ncg     rms          rms(c)
DAV:   1    -0.104979646208E+03    0.23806E-02   -0.17006E-01    96   0.131E+00    0.164E-01
DAV:   2    -0.104981051854E+03   -0.14056E-02   -0.14325E-02   132   0.423E-01    0.117E-01
DAV:   3    -0.104981002401E+03    0.49453E-04   -0.28658E-04   144   0.698E-02    0.713E-02
DAV:   4    -0.104980991497E+03    0.10904E-04   -0.16708E-04   132   0.528E-02    0.110E-02
DAV:   5    -0.104980987838E+03    0.36591E-05   -0.50172E-05   132   0.258E-02    0.858E-03
DAV:   6    -0.104980988292E+03   -0.45444E-06   -0.52863E-06   132   0.795E-03
  20 F= -.10498099E+03 E0= -.10498099E+03  d E =-.466976E-10
       N       E                     dE             d eps       ncg     rms          rms(c)
DAV:   1    -0.104978494099E+03    0.24937E-02   -0.35534E-01    96   0.185E+00    0.268E-01
DAV:   2    -0.104980772582E+03   -0.22785E-02   -0.23100E-02   132   0.566E-01    0.172E-01
DAV:   3    -0.104980691185E+03    0.81397E-04   -0.62646E-04   144   0.110E-01    0.846E-02
DAV:   4    -0.104980719814E+03   -0.28629E-04   -0.35700E-04   120   0.707E-02    0.179E-02
DAV:   5    -0.104980706489E+03    0.13325E-04   -0.50631E-05   132   0.268E-02    0.105E-02
DAV:   6    -0.104980711237E+03   -0.47479E-05   -0.13473E-05   132   0.108E-02    0.561E-03
DAV:   7    -0.104980727792E+03   -0.16555E-04   -0.11475E-06   108   0.382E-03    0.238E-03
DAV:   8    -0.104980748342E+03   -0.20550E-04   -0.24245E-06    96   0.428E-03    0.115E-03
DAV:   9    -0.104980764127E+03   -0.15785E-04   -0.14139E-06   120   0.311E-03    0.122E-03
DAV:  10    -0.104980778830E+03   -0.14703E-04   -0.10517E-06    96   0.242E-03    0.426E-04
DAV:  11    -0.104980783181E+03   -0.43514E-05   -0.26851E-07   108   0.119E-03    0.298E-04
DAV:  12    -0.104980787439E+03   -0.42579E-05   -0.12738E-07    96   0.844E-04    0.150E-04
DAV:  13    -0.104980790659E+03   -0.32195E-05   -0.15769E-07   108   0.793E-04    0.163E-04
DAV:  14    -0.104980792278E+03   -0.16193E-05   -0.43978E-08   108   0.460E-04    0.862E-05
DAV:  15    -0.104980792776E+03   -0.49780E-06   -0.13409E-09   108   0.225E-04
  21 F= -.10498079E+03 E0= -.10498079E+03  d E =-.520162E-10
       N       E                     dE             d eps       ncg     rms          rms(c)
DAV:   1    -0.104980241061E+03    0.55122E-03   -0.17235E-01    96   0.129E+00    0.185E-01
DAV:   2    -0.104981193790E+03   -0.95273E-03   -0.99098E-03   132   0.353E-01    0.106E-01
DAV:   3    -0.104981156744E+03    0.37046E-04   -0.24920E-04   132   0.630E-02    0.582E-02
DAV:   4    -0.104981152499E+03    0.42454E-05   -0.11274E-04   132   0.400E-02    0.118E-02
DAV:   5    -0.104981146076E+03    0.64234E-05   -0.21451E-05   132   0.175E-02    0.757E-03
DAV:   6    -0.104981146080E+03   -0.43065E-08   -0.48155E-06   132   0.725E-03
  22 F= -.10498115E+03 E0= -.10498115E+03  d E =-.499542E-10
       N       E                     dE             d eps       ncg     rms          rms(c)
DAV:   1    -0.104979234091E+03    0.19120E-02   -0.34921E-01    96   0.182E+00    0.261E-01
DAV:   2    -0.104981465947E+03   -0.22319E-02   -0.22535E-02   132   0.523E-01    0.162E-01
DAV:   3    -0.104981403681E+03    0.62266E-04   -0.50511E-04   132   0.895E-02    0.960E-02
DAV:   4    -0.104981389730E+03    0.13951E-04   -0.27637E-04   132   0.625E-02    0.154E-02
DAV:   5    -0.104981382357E+03    0.73732E-05   -0.56694E-05   144   0.271E-02    0.118E-02
DAV:   6    -0.104981385117E+03   -0.27598E-05   -0.11465E-05   132   0.112E-02    0.737E-03
DAV:   7    -0.104981405217E+03   -0.20100E-04   -0.41796E-06   120   0.741E-03    0.267E-03
DAV:   8    -0.104981427852E+03   -0.22635E-04   -0.18971E-06   108   0.476E-03    0.125E-03
DAV:   9    -0.104981448735E+03   -0.20883E-04   -0.17734E-06   120   0.351E-03    0.128E-03
DAV:  10    -0.104981468265E+03   -0.19531E-04   -0.18091E-06   120   0.281E-03    0.571E-04
DAV:  11    -0.104981473161E+03   -0.48960E-05   -0.17572E-07   108   0.119E-03    0.413E-04
DAV:  12    -0.104981480639E+03   -0.74775E-05   -0.49931E-07   108   0.145E-03    0.169E-04
DAV:  13    -0.104981482106E+03   -0.14673E-05   -0.66052E-08   108   0.620E-04    0.188E-04
DAV:  14    -0.104981483344E+03   -0.12384E-05   -0.20984E-08   108   0.420E-04    0.118E-04
DAV:  15    -0.104981484221E+03   -0.87657E-06   -0.18967E-08   108   0.335E-04
  23 F= -.10498148E+03 E0= -.10498148E+03  d E =-.632133E-10
       N       E                     dE             d eps       ncg     rms          rms(c)
DAV:   1    -0.104981257571E+03    0.22577E-03   -0.17099E-01    96   0.125E+00    0.172E-01
DAV:   2    -0.104982161567E+03   -0.90400E-03   -0.93889E-03   132   0.341E-01    0.951E-02
DAV:   3    -0.104982136062E+03    0.25505E-04   -0.25646E-04   132   0.654E-02    0.497E-02
DAV:   4    -0.104982144583E+03   -0.85213E-05   -0.11240E-04   132   0.429E-02    0.111E-02
DAV:   5    -0.104982140858E+03    0.37254E-05   -0.26959E-05   132   0.197E-02    0.814E-03
DAV:   6    -0.104982140762E+03    0.95606E-07   -0.44307E-06   132   0.663E-03
  24 F= -.10498214E+03 E0= -.10498214E+03  d E =-.420254E-10
       N       E                     dE             d eps       ncg     rms          rms(c)
DAV:   1    -0.104980633098E+03    0.15078E-02   -0.33532E-01    96   0.174E+00    0.215E-01
DAV:   2    -0.104982377448E+03   -0.17443E-02   -0.17865E-02   132   0.463E-01    0.127E-01
DAV:   3    -0.104982364759E+03    0.12689E-04   -0.46758E-04   132   0.871E-02    0.657E-02
DAV:   4    -0.104982383041E+03   -0.18283E-04   -0.15976E-04   132   0.521E-02    0.141E-02
DAV:   5    -0.104982378623E+03    0.44182E-05   -0.37298E-05   132   0.237E-02    0.971E-03
DAV:   6    -0.104982380352E+03   -0.17285E-05   -0.70458E-06   132   0.883E-03    0.638E-03
DAV:   7    -0.104982387698E+03   -0.73462E-05   -0.91162E-07   108   0.440E-03    0.266E-03
DAV:   8    -0.104982397925E+03   -0.10227E-04   -0.14364E-06   120   0.484E-03    0.135E-03
DAV:   9    -0.104982410336E+03   -0.12411E-04   -0.88746E-07   108   0.346E-03    0.932E-04
DAV:  10    -0.104982420016E+03   -0.96804E-05   -0.59545E-07   108   0.233E-03    0.794E-04
DAV:  11    -0.104982424507E+03   -0.44913E-05   -0.16154E-07   108   0.131E-03    0.569E-04
DAV:  12    -0.104982429979E+03   -0.54711E-05   -0.14992E-07   108   0.102E-03    0.203E-04
DAV:  13    -0.104982432372E+03   -0.23930E-05   -0.59856E-08   108   0.590E-04    0.253E-04
DAV:  14    -0.104982434530E+03   -0.21581E-05   -0.30727E-08    96   0.447E-04    0.712E-05
DAV:  15    -0.104982435369E+03   -0.83938E-06   -0.10692E-08   108   0.285E-04
  25 F= -.10498244E+03 E0= -.10498244E+03  d E =-.792487E-10
       N       E                     dE             d eps       ncg     rms          rms(c)
DAV:   1    -0.104980088712E+03    0.23458E-02   -0.16554E-01    96   0.129E+00    0.167E-01
DAV:   2    -0.104981317004E+03   -0.12283E-02   -0.12846E-02   132   0.395E-01    0.107E-01
DAV:   3    -0.104981259764E+03    0.57240E-04   -0.34210E-04   132   0.751E-02    0.598E-02
DAV:   4    -0.104981251849E+03    0.79151E-05   -0.15364E-04   132   0.486E-02    0.117E-02
DAV:   5    -0.104981245410E+03    0.64388E-05   -0.34519E-05   132   0.218E-02    0.883E-03
DAV:   6    -0.104981245932E+03   -0.52152E-06   -0.49484E-06   144   0.741E-03
  26 F= -.10498125E+03 E0= -.10498125E+03  d E =-.504086E-10
       N       E                     dE             d eps       ncg     rms          rms(c)
DAV:   1    -0.104979340167E+03    0.19052E-02   -0.33195E-01    96   0.171E+00    0.272E-01
DAV:   2    -0.104981589643E+03   -0.22495E-02   -0.24331E-02   132   0.508E-01    0.165E-01
DAV:   3    -0.104981428726E+03    0.16092E-03   -0.72359E-04   132   0.108E-01    0.867E-02
DAV:   4    -0.104981451333E+03   -0.22607E-04   -0.44137E-04   132   0.709E-02    0.181E-02
DAV:   5    -0.104981442716E+03    0.86169E-05   -0.59218E-05   132   0.279E-02    0.125E-02
DAV:   6    -0.104981441715E+03    0.10015E-05   -0.96316E-06   132   0.874E-03    0.813E-03
DAV:   7    -0.104981447799E+03   -0.60848E-05   -0.83836E-07    96   0.357E-03    0.303E-03
DAV:   8    -0.104981456363E+03   -0.85639E-05   -0.15550E-06   132   0.435E-03    0.130E-03
DAV:   9    -0.104981463707E+03   -0.73442E-05   -0.67125E-07   120   0.236E-03    0.131E-03
DAV:  10    -0.104981478119E+03   -0.14411E-04   -0.86461E-07   108   0.209E-03    0.106E-03
DAV:  11    -0.104981481266E+03   -0.31477E-05   -0.11058E-07   108   0.101E-03    0.632E-04
DAV:  12    -0.104981485719E+03   -0.44523E-05   -0.10566E-07   108   0.885E-04    0.353E-04
DAV:  13    -0.104981489515E+03   -0.37969E-05   -0.11243E-07   108   0.719E-04    0.218E-04
DAV:  14    -0.104981491776E+03   -0.22606E-05   -0.38550E-08   108   0.446E-04    0.160E-04
DAV:  15    -0.104981492671E+03   -0.89537E-06   -0.91959E-09   108   0.280E-04
  27 F= -.10498149E+03 E0= -.10498149E+03  d E =-.473562E-10
       N       E                     dE             d eps       ncg     rms          rms(c)
DAV:   1    -0.104981464286E+03    0.27490E-04   -0.16951E-01    96   0.122E+00    0.196E-01
DAV:   2    -0.104982447832E+03   -0.98355E-03   -0.10871E-02   132   0.356E-01    0.107E-01
DAV:   3    -0.104982374823E+03    0.73009E-04   -0.34569E-04   132   0.742E-02    0.576E-02
DAV:   4    -0.104982376099E+03   -0.12767E-05   -0.16892E-04   132   0.462E-02    0.139E-02
DAV:   5    -0.104982371287E+03    0.48122E-05   -0.24405E-05   132   0.183E-02    0.874E-03
DAV:   6    -0.104982372458E+03   -0.11711E-05   -0.43451E-06   132   0.653E-03    0.557E-03
DAV:   7    -0.104982379741E+03   -0.72830E-05   -0.58214E-07   108   0.281E-03    0.168E-03
DAV:   8    -0.104982385594E+03   -0.58527E-05   -0.48666E-07   108   0.245E-03    0.756E-04
DAV:   9    -0.104982392822E+03   -0.72282E-05   -0.53056E-07   120   0.203E-03    0.721E-04
DAV:  10    -0.104982402341E+03   -0.95186E-05   -0.77412E-07   120   0.195E-03    0.557E-04
DAV:  11    -0.104982403716E+03   -0.13756E-05   -0.46217E-08   108   0.772E-04    0.378E-04
DAV:  12    -0.104982405575E+03   -0.18589E-05   -0.39858E-08   108   0.546E-04    0.231E-04
DAV:  13    -0.104982407738E+03   -0.21627E-05   -0.76131E-08   108   0.591E-04    0.113E-04
DAV:  14    -0.104982408774E+03   -0.10365E-05   -0.24729E-08   108   0.356E-04    0.139E-04
DAV:  15    -0.104982409249E+03   -0.47499E-06   -0.86109E-10   108   0.204E-04
  28 F= -.10498241E+03 E0= -.10498241E+03  d E =-.600656E-10
       N       E                     dE             d eps       ncg     rms          rms(c)
DAV:   1    -0.104981323279E+03    0.10855E-02   -0.33423E-01    96   0.171E+00    0.275E-01
DAV:   2    -0.104982568529E+03   -0.12452E-02   -0.14804E-02   132   0.422E-01    0.115E-01
DAV:   3    -0.104982502399E+03    0.66130E-04   -0.58431E-04   132   0.909E-02    0.615E-02
DAV:   4    -0.104982513798E+03   -0.11399E-04   -0.15161E-04   132   0.456E-02    0.181E-02
DAV:   5    -0.104982512042E+03    0.17566E-05   -0.28436E-05   132   0.212E-02    0.105E-02
DAV:   6    -0.104982512744E+03   -0.70216E-06   -0.58578E-06   132   0.853E-03
  29 F= -.10498251E+03 E0= -.10498251E+03  d E =-.515623E-10
       N       E                     dE             d eps       ncg     rms          rms(c)
DAV:   1    -0.104981925661E+03    0.58638E-03   -0.16638E-01    96   0.121E+00    0.194E-01
DAV:   2    -0.104982602549E+03   -0.67689E-03   -0.78460E-03   132   0.302E-01    0.827E-02
DAV:   3    -0.104982573379E+03    0.29169E-04   -0.31045E-04   144   0.652E-02    0.450E-02
DAV:   4    -0.104982586656E+03   -0.13276E-04   -0.82459E-05   144   0.332E-02    0.134E-02
DAV:   5    -0.104982588012E+03   -0.13564E-05   -0.14672E-05   132   0.145E-02    0.766E-03
DAV:   6    -0.104982588983E+03   -0.97127E-06   -0.26462E-06   132   0.585E-03
  30 F= -.10498259E+03 E0= -.10498259E+03  d E =-.480154E-10
       N       E                     dE             d eps       ncg     rms          rms(c)
DAV:   1    -0.104980512479E+03    0.20755E-02   -0.33137E-01    96   0.164E+00    0.276E-01
DAV:   2    -0.104981989083E+03   -0.14766E-02   -0.16916E-02   132   0.452E-01    0.127E-01
DAV:   3    -0.104981911411E+03    0.77671E-04   -0.61202E-04   144   0.929E-02    0.725E-02
DAV:   4    -0.104981925882E+03   -0.14471E-04   -0.19726E-04   132   0.503E-02    0.205E-02
DAV:   5    -0.104981921330E+03    0.45522E-05   -0.30978E-05   132   0.207E-02    0.106E-02
DAV:   6    -0.104981920646E+03    0.68358E-06   -0.52284E-06   144   0.795E-03
  31 F= -.10498192E+03 E0= -.10498192E+03  d E =-.621865E-10
       N       E                     dE             d eps       ncg     rms          rms(c)
DAV:   1    -0.104980108786E+03    0.18125E-02   -0.16862E-01    96   0.124E+00    0.178E-01
DAV:   2    -0.104981319296E+03   -0.12105E-02   -0.12656E-02   120   0.373E-01    0.107E-01
DAV:   3    -0.104981267705E+03    0.51590E-04   -0.34793E-04   144   0.714E-02    0.597E-02
DAV:   4    -0.104981270203E+03   -0.24981E-05   -0.14331E-04   132   0.431E-02    0.115E-02
DAV:   5    -0.104981264930E+03    0.52738E-05   -0.27596E-05   144   0.188E-02    0.818E-03
DAV:   6    -0.104981263894E+03    0.10353E-05   -0.42223E-06   120   0.660E-03    0.552E-03
DAV:   7    -0.104981268589E+03   -0.46945E-05   -0.11084E-06   120   0.427E-03    0.172E-03
DAV:   8    -0.104981274661E+03   -0.60719E-05   -0.11973E-06   120   0.395E-03    0.124E-03
DAV:   9    -0.104981283166E+03   -0.85054E-05   -0.54298E-07   108   0.241E-03    0.862E-04
DAV:  10    -0.104981289613E+03   -0.64470E-05   -0.32934E-07    96   0.143E-03    0.522E-04
DAV:  11    -0.104981293597E+03   -0.39835E-05   -0.11366E-07   108   0.856E-04    0.320E-04
DAV:  12    -0.104981297973E+03   -0.43760E-05   -0.13010E-07    96   0.765E-04    0.134E-04
DAV:  13    -0.104981299278E+03   -0.13055E-05   -0.15515E-08   120   0.366E-04    0.133E-04
DAV:  14    -0.104981300904E+03   -0.16261E-05   -0.21766E-08    96   0.344E-04    0.699E-05
DAV:  15    -0.104981301444E+03   -0.54014E-06   -0.16814E-09   108   0.192E-04
  32 F= -.10498130E+03 E0= -.10498130E+03  d E =-.472659E-11
       N       E                     dE             d eps       ncg     rms          rms(c)
DAV:   1    -0.104978790515E+03    0.25104E-02   -0.34945E-01    96   0.156E+00    0.226E-01
DAV:   2    -0.104981048410E+03   -0.22579E-02   -0.23066E-02   120   0.462E-01    0.163E-01
DAV:   3    -0.104980968003E+03    0.80407E-04   -0.47989E-04   144   0.809E-02    0.911E-02
DAV:   4    -0.104980938397E+03    0.29606E-04   -0.25774E-04   132   0.545E-02    0.152E-02
DAV:   5    -0.104980936708E+03    0.16888E-05   -0.46485E-05   132   0.227E-02    0.106E-02
DAV:   6    -0.104980949691E+03   -0.12982E-04   -0.14673E-05   120   0.107E-02    0.604E-03
DAV:   7    -0.104980980555E+03   -0.30864E-04   -0.43604E-06   120   0.630E-03    0.238E-03
DAV:   8    -0.104981018339E+03   -0.37784E-04   -0.33740E-06   108   0.475E-03    0.128E-03
DAV:   9    -0.104981052971E+03   -0.34632E-04   -0.40518E-06   132   0.437E-03    0.129E-03
DAV:  10    -0.104981075599E+03   -0.22629E-04   -0.20430E-06   108   0.296E-03    0.474E-04
DAV:  11    -0.104981082470E+03   -0.68704E-05   -0.26985E-07   120   0.121E-03    0.303E-04
DAV:  12    -0.104981087840E+03   -0.53699E-05   -0.21396E-07   108   0.934E-04    0.160E-04
DAV:  13    -0.104981090088E+03   -0.22486E-05   -0.58720E-08   108   0.530E-04    0.111E-04
DAV:  14    -0.104981091515E+03   -0.14266E-05   -0.19661E-08   108   0.360E-04    0.469E-05
DAV:  15    -0.104981092083E+03   -0.56864E-06   -0.18282E-09   108   0.203E-04
  33 F= -.10498109E+03 E0= -.10498109E+03  d E =-.428945E-10
       N       E                     dE             d eps       ncg     rms          rms(c)
DAV:   1    -0.104981523399E+03   -0.43188E-03   -0.17279E-01    96   0.110E+00    0.150E-01
DAV:   2    -0.104982524850E+03   -0.10015E-02   -0.10235E-02   120   0.314E-01    0.102E-01
DAV:   3    -0.104982503668E+03    0.21182E-04   -0.25389E-04   156   0.615E-02    0.539E-02
DAV:   4    -0.104982502324E+03    0.13443E-05   -0.11453E-04   132   0.409E-02    0.104E-02
DAV:   5    -0.104982497874E+03    0.44497E-05   -0.27563E-05   132   0.191E-02    0.764E-03
DAV:   6    -0.104982497565E+03    0.30893E-06   -0.51910E-06   144   0.673E-03
  34 F= -.10498250E+03 E0= -.10498250E+03  d E =-.830961E-10
       N       E                     dE             d eps       ncg     rms          rms(c)
DAV:   1    -0.104981027570E+03    0.14703E-02   -0.34209E-01    96   0.150E+00    0.191E-01
DAV:   2    -0.104982465269E+03   -0.14377E-02   -0.14418E-02   132   0.358E-01    0.111E-01
DAV:   3    -0.104982499772E+03   -0.34503E-04   -0.41693E-04   132   0.815E-02    0.529E-02
DAV:   4    -0.104982530999E+03   -0.31226E-04   -0.13492E-04   132   0.498E-02    0.134E-02
DAV:   5    -0.104982530818E+03    0.18030E-06   -0.30092E-05   132   0.203E-02    0.995E-03
DAV:   6    -0.104982532421E+03   -0.16022E-05   -0.58052E-06   132   0.753E-03    0.481E-03
DAV:   7    -0.104982536246E+03   -0.38257E-05   -0.83557E-07   108   0.402E-03    0.154E-03
DAV:   8    -0.104982541624E+03   -0.53773E-05   -0.63740E-07   108   0.336E-03    0.108E-03
DAV:   9    -0.104982551455E+03   -0.98311E-05   -0.73031E-07   108   0.374E-03    0.342E-04
DAV:  10    -0.104982555347E+03   -0.38925E-05   -0.44287E-07   108   0.211E-03    0.506E-04
DAV:  11    -0.104982556497E+03   -0.11496E-05   -0.40967E-08   120   0.794E-04    0.426E-04
DAV:  12    -0.104982559854E+03   -0.33569E-05   -0.70986E-08   108   0.763E-04    0.160E-04
DAV:  13    -0.104982562815E+03   -0.29616E-05   -0.11285E-07   108   0.741E-04    0.185E-04
DAV:  14    -0.104982563854E+03   -0.10382E-05   -0.13544E-08   108   0.396E-04    0.554E-05
DAV:  15    -0.104982564433E+03   -0.57958E-06   -0.52513E-09   108   0.246E-04
  35 F= -.10498256E+03 E0= -.10498256E+03  d E =-.915559E-10
       N       E                     dE             d eps       ncg     rms          rms(c)
DAV:   1    -0.104979844721E+03    0.27191E-02   -0.17258E-01    96   0.111E+00    0.144E-01
DAV:   2    -0.104980785238E+03   -0.94052E-03   -0.96127E-03   132   0.305E-01    0.953E-02
DAV:   3    -0.104980770638E+03    0.14600E-04   -0.22540E-04   132   0.616E-02    0.476E-02
DAV:   4    -0.104980778330E+03   -0.76914E-05   -0.11220E-04   132   0.420E-02    0.105E-02
DAV:   5    -0.104980774545E+03    0.37843E-05   -0.25287E-05   120   0.187E-02    0.793E-03
DAV:   6    -0.104980774465E+03    0.79821E-07   -0.50441E-06   132   0.660E-03
  36 F= -.10498077E+03 E0= -.10498077E+03  d E =-.797442E-10
       N       E                     dE             d eps       ncg     rms          rms(c)
DAV:   1    -0.104978340417E+03    0.24341E-02   -0.35915E-01    96   0.160E+00    0.248E-01
DAV:   2    -0.104980873369E+03   -0.25330E-02   -0.25489E-02   132   0.512E-01    0.176E-01
DAV:   3    -0.104980780512E+03    0.92857E-04   -0.58333E-04   120   0.965E-02    0.919E-02
DAV:   4    -0.104980786378E+03   -0.58661E-05   -0.38876E-04   132   0.674E-02    0.171E-02
DAV:   5    -0.104980773489E+03    0.12889E-04   -0.68777E-05   144   0.276E-02    0.114E-02
DAV:   6    -0.104980776535E+03   -0.30457E-05   -0.13159E-05   132   0.918E-03    0.660E-03
DAV:   7    -0.104980797008E+03   -0.20473E-04   -0.17670E-06   132   0.397E-03    0.274E-03
DAV:   8    -0.104980824538E+03   -0.27530E-04   -0.40950E-06    96   0.514E-03    0.160E-03
DAV:   9    -0.104980841605E+03   -0.17066E-04   -0.17562E-06   120   0.309E-03    0.171E-03
DAV:  10    -0.104980858220E+03   -0.16615E-04   -0.12902E-06   120   0.256E-03    0.480E-04
DAV:  11    -0.104980863808E+03   -0.55876E-05   -0.27742E-07   108   0.133E-03    0.336E-04
DAV:  12    -0.104980869555E+03   -0.57477E-05   -0.25378E-07    96   0.106E-03    0.186E-04
DAV:  13    -0.104980871436E+03   -0.18806E-05   -0.66188E-08   108   0.538E-04    0.171E-04
DAV:  14    -0.104980873129E+03   -0.16928E-05   -0.34507E-08    84   0.435E-04    0.786E-05
DAV:  15    -0.104980873610E+03   -0.48137E-06   -0.49203E-09   108   0.237E-04
  37 F= -.10498087E+03 E0= -.10498087E+03  d E =-.511513E-10
       N       E                     dE             d eps       ncg     rms          rms(c)
DAV:   1    -0.104980997592E+03   -0.12446E-03   -0.17284E-01    96   0.130E+00    0.162E-01
DAV:   2    -0.104982290295E+03   -0.12927E-02   -0.13329E-02   132   0.408E-01    0.111E-01
DAV:   3    -0.104982241461E+03    0.48834E-04   -0.30972E-04   144   0.725E-02    0.634E-02
DAV:   4    -0.104982229985E+03    0.11475E-04   -0.17331E-04   120   0.524E-02    0.108E-02
DAV:   5    -0.104982224638E+03    0.53471E-05   -0.50120E-05   144   0.257E-02    0.932E-03
DAV:   6    -0.104982223187E+03    0.14511E-05   -0.60571E-06   132   0.779E-03    0.664E-03
DAV:   7    -0.104982230087E+03   -0.68995E-05   -0.16484E-06   120   0.523E-03    0.266E-03
DAV:   8    -0.104982243779E+03   -0.13693E-04   -0.19096E-06   120   0.539E-03    0.134E-03
DAV:   9    -0.104982258417E+03   -0.14638E-04   -0.11981E-06   108   0.357E-03    0.140E-03
DAV:  10    -0.104982267588E+03   -0.91706E-05   -0.48035E-07   108   0.193E-03    0.791E-04
DAV:  11    -0.104982275383E+03   -0.77952E-05   -0.31383E-07    96   0.135E-03    0.224E-04
DAV:  12    -0.104982278956E+03   -0.35734E-05   -0.11424E-07   108   0.796E-04    0.243E-04
DAV:  13    -0.104982281936E+03   -0.29791E-05   -0.79950E-08    96   0.611E-04    0.163E-04
DAV:  14    -0.104982282961E+03   -0.10249E-05   -0.13063E-08   108   0.326E-04    0.648E-05
DAV:  15    -0.104982283800E+03   -0.83950E-06   -0.78982E-09    96   0.257E-04
  38 F= -.10498228E+03 E0= -.10498228E+03  d E =-.493879E-10
       N       E                     dE             d eps       ncg     rms          rms(c)
DAV:   1    -0.104980467111E+03    0.18158E-02   -0.34408E-01    96   0.172E+00    0.224E-01
DAV:   2    -0.104982196082E+03   -0.17290E-02   -0.17803E-02   132   0.466E-01    0.128E-01
DAV:   3    -0.104982171433E+03    0.24649E-04   -0.47976E-04   132   0.895E-02    0.651E-02
DAV:   4    -0.104982186063E+03   -0.14630E-04   -0.17974E-04   132   0.547E-02    0.144E-02
DAV:   5    -0.104982179075E+03    0.69883E-05   -0.41024E-05   132   0.246E-02    0.105E-02
DAV:   6    -0.104982179342E+03   -0.26747E-06   -0.78262E-06   144   0.898E-03
  39 F= -.10498218E+03 E0= -.10498218E+03  d E =-.796506E-10
       N       E                     dE             d eps       ncg     rms          rms(c)
DAV:   1    -0.104980379272E+03    0.17998E-02   -0.17225E-01    96   0.128E+00    0.160E-01
DAV:   2    -0.104981516994E+03   -0.11377E-02   -0.11391E-02   132   0.368E-01    0.114E-01
DAV:   3    -0.104981499892E+03    0.17102E-04   -0.23703E-04   132   0.630E-02    0.624E-02
DAV:   4    -0.104981503208E+03   -0.33159E-05   -0.14359E-04   120   0.435E-02    0.107E-02
DAV:   5    -0.104981498153E+03    0.50546E-05   -0.26483E-05   144   0.184E-02    0.799E-03
DAV:   6    -0.104981498149E+03    0.43519E-08   -0.64881E-06   108   0.787E-03
  40 F= -.10498150E+03 E0= -.10498150E+03  d E =-.494443E-10
       N       E                     dE             d eps       ncg     rms          rms(c)
DAV:   1    -0.104979260479E+03    0.22377E-02   -0.34549E-01    96   0.179E+00    0.256E-01
DAV:   2    -0.104981357322E+03   -0.20968E-02   -0.21337E-02   132   0.517E-01    0.156E-01
DAV:   3    -0.104981292907E+03    0.64414E-04   -0.50600E-04   132   0.910E-02    0.834E-02
DAV:   4    -0.104981295526E+03   -0.26190E-05   -0.27276E-04   132   0.612E-02    0.156E-02
DAV:   5    -0.104981281065E+03    0.14461E-04   -0.48727E-05   144   0.266E-02    0.110E-02
DAV:   6    -0.104981276730E+03    0.43353E-05   -0.99087E-06   132   0.103E-02    0.666E-03
DAV:   7    -0.104981282492E+03   -0.57622E-05   -0.21893E-06   132   0.628E-03    0.232E-03
DAV:   8    -0.104981291051E+03   -0.85586E-05   -0.12073E-06   120   0.471E-03    0.130E-03
DAV:   9    -0.104981304370E+03   -0.13319E-04   -0.12042E-06   108   0.324E-03    0.121E-03
DAV:  10    -0.104981318638E+03   -0.14268E-04   -0.80525E-07   108   0.225E-03    0.473E-04
DAV:  11    -0.104981323900E+03   -0.52625E-05   -0.20710E-07   108   0.116E-03    0.332E-04
DAV:  12    -0.104981331833E+03   -0.79327E-05   -0.25418E-07   108   0.108E-03    0.175E-04
DAV:  13    -0.104981334505E+03   -0.26716E-05   -0.71911E-08   108   0.592E-04    0.201E-04
DAV:  14    -0.104981336723E+03   -0.22188E-05   -0.26686E-08    96   0.411E-04    0.113E-04
DAV:  15    -0.104981337823E+03   -0.10994E-05   -0.11100E-08   108   0.297E-04    0.557E-05
DAV:  16    -0.104981338379E+03   -0.55609E-06    0.99122E-10   108   0.171E-04
  41 F= -.10498134E+03 E0= -.10498134E+03  d E =-.484879E-10
       N       E                     dE             d eps       ncg     rms          rms(c)
DAV:   1    -0.104979655249E+03    0.16826E-02   -0.17632E-01    96   0.126E+00    0.186E-01
DAV:   2    -0.104980996278E+03   -0.13410E-02   -0.13727E-02   132   0.415E-01    0.126E-01
DAV:   3    -0.104980926277E+03    0.70001E-04   -0.29049E-04   156   0.734E-02    0.715E-02
DAV:   4    -0.104980923592E+03    0.26848E-05   -0.22075E-04   132   0.588E-02    0.124E-02
DAV:   5    -0.104980918527E+03    0.50648E-05   -0.58030E-05   132   0.278E-02    0.949E-03
DAV:   6    -0.104980919038E+03   -0.51090E-06   -0.76564E-06   132   0.811E-03
  42 F= -.10498092E+03 E0= -.10498092E+03  d E =-.565165E-10
       N       E                     dE             d eps       ncg     rms          rms(c)
DAV:   1    -0.104978235078E+03    0.26834E-02   -0.35133E-01    96   0.184E+00    0.262E-01
DAV:   2    -0.104980740381E+03   -0.25053E-02   -0.25392E-02   132   0.565E-01    0.175E-01
DAV:   3    -0.104980651244E+03    0.89137E-04   -0.64561E-04   144   0.110E-01    0.891E-02
DAV:   4    -0.104980671976E+03   -0.20732E-04   -0.36886E-04   132   0.724E-02    0.171E-02
DAV:   5    -0.104980662428E+03    0.95484E-05   -0.64952E-05   132   0.298E-02    0.110E-02
DAV:   6    -0.104980668876E+03   -0.64483E-05   -0.13113E-05   132   0.104E-02    0.597E-03
DAV:   7    -0.104980688983E+03   -0.20107E-04   -0.14858E-06   108   0.415E-03    0.267E-03
DAV:   8    -0.104980716651E+03   -0.27669E-04   -0.39510E-06   108   0.574E-03    0.155E-03
DAV:   9    -0.104980732359E+03   -0.15708E-04   -0.16898E-06   120   0.344E-03    0.156E-03
DAV:  10    -0.104980747140E+03   -0.14781E-04   -0.11116E-06   108   0.255E-03    0.529E-04
DAV:  11    -0.104980753153E+03   -0.60130E-05   -0.33664E-07   108   0.149E-03    0.341E-04
DAV:  12    -0.104980758777E+03   -0.56247E-05   -0.28690E-07   108   0.117E-03    0.179E-04
DAV:  13    -0.104980760456E+03   -0.16790E-05   -0.60447E-08   108   0.558E-04    0.166E-04
DAV:  14    -0.104980762077E+03   -0.16210E-05   -0.33428E-08   108   0.463E-04    0.634E-05
DAV:  15    -0.104980762546E+03   -0.46908E-06   -0.77014E-09   108   0.258E-04
  43 F= -.10498076E+03 E0= -.10498076E+03  d E =-.445009E-10
       N       E                     dE             d eps       ncg     rms          rms(c)
DAV:   1    -0.104980748529E+03    0.13548E-04   -0.16898E-01    96   0.132E+00    0.164E-01
DAV:   2    -0.104982148954E+03   -0.14004E-02   -0.14072E-02   132   0.421E-01    0.114E-01
DAV:   3    -0.104982108856E+03    0.40098E-04   -0.28219E-04   156   0.716E-02    0.666E-02
DAV:   4    -0.104982104806E+03    0.40496E-05   -0.18110E-04   132   0.546E-02    0.109E-02
DAV:   5    -0.104982100386E+03    0.44197E-05   -0.52030E-05   132   0.268E-02    0.898E-03
DAV:   6    -0.104982099984E+03    0.40293E-06   -0.54107E-06   132   0.733E-03
  44 F= -.10498210E+03 E0= -.10498210E+03  d E =-.424328E-10
       N       E                     dE             d eps       ncg     rms          rms(c)
DAV:   1    -0.104980203418E+03    0.18970E-02   -0.34435E-01    96   0.174E+00    0.223E-01
DAV:   2    -0.104982028167E+03   -0.18247E-02   -0.18546E-02   132   0.477E-01    0.134E-01
DAV:   3    -0.104982012498E+03    0.15668E-04   -0.49045E-04   132   0.912E-02    0.661E-02
DAV:   4    -0.104982039061E+03   -0.26562E-04   -0.19972E-04   132   0.559E-02    0.149E-02
DAV:   5    -0.104982032623E+03    0.64380E-05   -0.39315E-05   144   0.242E-02    0.102E-02
DAV:   6    -0.104982032881E+03   -0.25802E-06   -0.83599E-06   132   0.930E-03
  45 F= -.10498203E+03 E0= -.10498203E+03  d E =-.756652E-10
       N       E                     dE             d eps       ncg     rms          rms(c)
DAV:   1    -0.104980414006E+03    0.16186E-02   -0.17044E-01    96   0.122E+00    0.165E-01
DAV:   2    -0.104981163577E+03   -0.74957E-03   -0.76992E-03   132   0.298E-01    0.823E-02
DAV:   3    -0.104981166884E+03   -0.33071E-05   -0.23532E-04   132   0.599E-02    0.430E-02
DAV:   4    -0.104981188768E+03   -0.21883E-04   -0.73151E-05   132   0.352E-02    0.103E-02
DAV:   5    -0.104981191479E+03   -0.27116E-05   -0.18346E-05   132   0.160E-02    0.738E-03
DAV:   6    -0.104981193704E+03   -0.22251E-05   -0.27451E-06   120   0.543E-03    0.476E-03
DAV:   7    -0.104981197905E+03   -0.42005E-05   -0.44456E-07   108   0.262E-03    0.184E-03
DAV:   8    -0.104981202337E+03   -0.44326E-05   -0.51513E-07   108   0.262E-03    0.789E-04
DAV:   9    -0.104981208653E+03   -0.63157E-05   -0.35933E-07   108   0.230E-03    0.428E-04
DAV:  10    -0.104981211601E+03   -0.29479E-05   -0.21632E-07   108   0.146E-03    0.486E-04
DAV:  11    -0.104981212989E+03   -0.13881E-05   -0.41697E-08   108   0.764E-04    0.330E-04
DAV:  12    -0.104981215255E+03   -0.22657E-05   -0.55868E-08   108   0.605E-04    0.111E-04
DAV:  13    -0.104981216317E+03   -0.10626E-05   -0.16871E-08   108   0.346E-04    0.145E-04
DAV:  14    -0.104981217460E+03   -0.11425E-05   -0.15214E-08   108   0.300E-04    0.578E-05
DAV:  15    -0.104981217868E+03   -0.40800E-06   -0.15898E-10   108   0.177E-04
  46 F= -.10498122E+03 E0= -.10498122E+03  d E =-.452177E-10
       N       E                     dE             d eps       ncg     rms          rms(c)
DAV:   1    -0.104979264269E+03    0.19532E-02   -0.34918E-01    96   0.180E+00    0.264E-01
DAV:   2    -0.104981624273E+03   -0.23600E-02   -0.24145E-02   132   0.544E-01    0.163E-01
DAV:   3    -0.104981521473E+03    0.10280E-03   -0.52300E-04   132   0.944E-02    0.979E-02
DAV:   4    -0.104981510700E+03    0.10773E-04   -0.33052E-04   132   0.723E-02    0.164E-02
DAV:   5    -0.104981505629E+03    0.50704E-05   -0.85561E-05   132   0.340E-02    0.132E-02
DAV:   6    -0.104981508464E+03   -0.28348E-05   -0.12173E-05   132   0.114E-02    0.870E-03
DAV:   7    -0.104981527697E+03   -0.19233E-04   -0.38928E-06   132   0.697E-03    0.328E-03
DAV:   8    -0.104981552442E+03   -0.24745E-04   -0.22283E-06   120   0.487E-03    0.120E-03
DAV:   9    -0.104981575602E+03   -0.23160E-04   -0.21588E-06   120   0.378E-03    0.151E-03
DAV:  10    -0.104981594646E+03   -0.19044E-04   -0.17459E-06   120   0.300E-03    0.612E-04
DAV:  11    -0.104981600749E+03   -0.61030E-05   -0.24903E-07   108   0.139E-03    0.292E-04
DAV:  12    -0.104981606568E+03   -0.58183E-05   -0.31748E-07   108   0.117E-03    0.201E-04
DAV:  13    -0.104981608480E+03   -0.19121E-05   -0.57821E-08   108   0.555E-04    0.185E-04
DAV:  14    -0.104981610128E+03   -0.16479E-05   -0.36027E-08   108   0.455E-04    0.818E-05
DAV:  15    -0.104981610593E+03   -0.46586E-06   -0.26507E-09   108   0.225E-04
  47 F= -.10498161E+03 E0= -.10498161E+03  d E =-.729533E-10
       N       E                     dE             d eps       ncg     rms          rms(c)
DAV:   1    -0.104980093185E+03    0.15169E-02   -0.17242E-01    96   0.128E+00    0.183E-01
DAV:   2    -0.104981085398E+03   -0.99221E-03   -0.10349E-02   120   0.363E-01    0.108E-01
DAV:   3    -0.104981044833E+03    0.40565E-04   -0.25916E-04   132   0.646E-02    0.576E-02
DAV:   4    -0.104981033764E+03    0.11069E-04   -0.10924E-04   132   0.391E-02    0.110E-02
DAV:   5    -0.104981026810E+03    0.69548E-05   -0.19393E-05   132   0.169E-02    0.722E-03
DAV:   6    -0.104981027355E+03   -0.54570E-06   -0.42767E-06   132   0.712E-03
  48 F= -.10498103E+03 E0= -.10498103E+03  d E =-.620308E-10
       N       E                     dE             d eps       ncg     rms          rms(c)
DAV:   1    -0.104978772682E+03    0.22541E-02   -0.35049E-01    96   0.181E+00    0.255E-01
DAV:   2    -0.104980952466E+03   -0.21798E-02   -0.22096E-02   132   0.533E-01    0.166E-01
DAV:   3    -0.104980903811E+03    0.48655E-04   -0.58331E-04   144   0.100E-01    0.832E-02
DAV:   4    -0.104980898988E+03    0.48231E-05   -0.28128E-04   132   0.613E-02    0.168E-02
DAV:   5    -0.104980887544E+03    0.11444E-04   -0.43433E-05   132   0.246E-02    0.105E-02
DAV:   6    -0.104980893868E+03   -0.63247E-05   -0.13886E-05   132   0.110E-02    0.544E-03
DAV:   7    -0.104980915796E+03   -0.21928E-04   -0.21944E-06   120   0.522E-03    0.229E-03
DAV:   8    -0.104980942567E+03   -0.26771E-04   -0.27308E-06   108   0.482E-03    0.110E-03
DAV:   9    -0.104980964367E+03   -0.21799E-04   -0.23087E-06   108   0.367E-03    0.124E-03
DAV:  10    -0.104980983932E+03   -0.19565E-04   -0.18640E-06   120   0.304E-03    0.352E-04
DAV:  11    -0.104980988465E+03   -0.45335E-05   -0.17512E-07   120   0.115E-03    0.313E-04
DAV:  12    -0.104980993907E+03   -0.54412E-05   -0.27031E-07   108   0.110E-03    0.154E-04
DAV:  13    -0.104980995304E+03   -0.13972E-05   -0.47139E-08   108   0.509E-04    0.116E-04
DAV:  14    -0.104980996501E+03   -0.11969E-05   -0.16626E-08   108   0.368E-04    0.536E-05
DAV:  15    -0.104980997082E+03   -0.58150E-06   -0.50205E-09   108   0.239E-04
  49 F= -.10498100E+03 E0= -.10498100E+03  d E =-.480420E-10
       N       E                     dE             d eps       ncg     rms          rms(c)
DAV:   1    -0.104981324088E+03   -0.32759E-03   -0.18637E-01    96   0.134E+00    0.168E-01
DAV:   2    -0.104982542146E+03   -0.12181E-02   -0.13200E-02   132   0.396E-01    0.102E-01
DAV:   3    -0.104982490775E+03    0.51371E-04   -0.30216E-04   144   0.692E-02    0.562E-02
DAV:   4    -0.104982477721E+03    0.13054E-04   -0.12663E-04   132   0.448E-02    0.109E-02
DAV:   5    -0.104982472579E+03    0.51422E-05   -0.25750E-05   144   0.192E-02    0.764E-03
DAV:   6    -0.104982472003E+03    0.57556E-06   -0.36954E-06   132   0.682E-03
  50 F= -.10498247E+03 E0= -.10498247E+03  d E =-.516120E-10
       N       E                     dE             d eps       ncg     rms          rms(c)
DAV:   1    -0.104980813034E+03    0.16595E-02   -0.41003E-01    96   0.177E+00    0.220E-01
DAV:   2    -0.104982299201E+03   -0.14862E-02   -0.17640E-02   132   0.398E-01    0.105E-01
DAV:   3    -0.104982217677E+03    0.81524E-04   -0.39235E-04   132   0.703E-02    0.549E-02
DAV:   4    -0.104982197149E+03    0.20527E-04   -0.13662E-04   144   0.436E-02    0.140E-02
DAV:   5    -0.104982192436E+03    0.47132E-05   -0.22612E-05   132   0.184E-02    0.829E-03
DAV:   6    -0.104982195999E+03   -0.35631E-05   -0.50385E-06   132   0.779E-03    0.421E-03
DAV:   7    -0.104982205623E+03   -0.96240E-05   -0.11658E-06   120   0.391E-03    0.135E-03
DAV:   8    -0.104982214846E+03   -0.92223E-05   -0.47490E-07   108   0.248E-03    0.879E-04
DAV:   9    -0.104982228482E+03   -0.13636E-04   -0.99506E-07   120   0.257E-03    0.469E-04
DAV:  10    -0.104982238087E+03   -0.96053E-05   -0.76416E-07   120   0.205E-03    0.354E-04
DAV:  11    -0.104982240708E+03   -0.26206E-05   -0.67800E-08   108   0.903E-04    0.228E-04
DAV:  12    -0.104982243700E+03   -0.29923E-05   -0.10110E-07    96   0.734E-04    0.122E-04
DAV:  13    -0.104982245429E+03   -0.17294E-05   -0.47715E-08   108   0.481E-04    0.866E-05
DAV:  14    -0.104982246470E+03   -0.10409E-05   -0.15578E-08   108   0.310E-04    0.403E-05
DAV:  15    -0.104982246933E+03   -0.46254E-06   -0.47622E-10   108   0.190E-04
  51 F= -.10498225E+03 E0= -.10498225E+03  d E =-.598645E-11
       N       E                     dE             d eps       ncg     rms          rms(c)
DAV:   1    -0.104981147008E+03    0.10995E-02   -0.20754E-01    96   0.127E+00    0.158E-01
DAV:   2    -0.104981786060E+03   -0.63905E-03   -0.78355E-03   132   0.262E-01    0.651E-02
DAV:   3    -0.104981748464E+03    0.37595E-04   -0.20458E-04   144   0.479E-02    0.339E-02
DAV:   4    -0.104981739571E+03    0.88931E-05   -0.45270E-05   144   0.258E-02    0.106E-02
DAV:   5    -0.104981736806E+03    0.27654E-05   -0.86507E-06   132   0.120E-02    0.544E-03
DAV:   6    -0.104981736947E+03   -0.14094E-06   -0.23716E-06   132   0.553E-03
  52 F= -.10498174E+03 E0= -.10498174E+03  d E =-.460110E-10
       N       E                     dE             d eps       ncg     rms          rms(c)
DAV:   1    -0.104980486833E+03    0.12500E-02   -0.40486E-01    96   0.175E+00    0.220E-01
DAV:   2    -0.104982033412E+03   -0.15466E-02   -0.18662E-02   132   0.397E-01    0.119E-01
DAV:   3    -0.104981914645E+03    0.11877E-03   -0.36595E-04   132   0.689E-02    0.612E-02
DAV:   4    -0.104981878645E+03    0.36000E-04   -0.15156E-04   132   0.449E-02    0.131E-02
DAV:   5    -0.104981866799E+03    0.11846E-04   -0.23168E-05   132   0.183E-02    0.792E-03
DAV:   6    -0.104981867267E+03   -0.46812E-06   -0.65188E-06   132   0.789E-03
  53 F= -.10498187E+03 E0= -.10498187E+03  d E =-.898436E-10
       N       E                     dE             d eps       ncg     rms          rms(c)
DAV:   1    -0.104982127312E+03   -0.26051E-03   -0.20695E-01    96   0.124E+00    0.158E-01
DAV:   2    -0.104982847635E+03   -0.72032E-03   -0.84682E-03   132   0.276E-01    0.733E-02
DAV:   3    -0.104982820452E+03    0.27183E-04   -0.18649E-04   132   0.478E-02    0.386E-02
DAV:   4    -0.104982828892E+03   -0.84398E-05   -0.61241E-05   144   0.291E-02    0.990E-03
DAV:   5    -0.104982830731E+03   -0.18392E-05   -0.10104E-05   132   0.125E-02    0.576E-03
DAV:   6    -0.104982832160E+03   -0.14293E-05   -0.24742E-06   120   0.561E-03    0.284E-03
DAV:   7    -0.104982834432E+03   -0.22725E-05   -0.48602E-07   108   0.274E-03    0.897E-04
DAV:   8    -0.104982836308E+03   -0.18759E-05   -0.18648E-07   108   0.173E-03    0.514E-04
DAV:   9    -0.104982839084E+03   -0.27755E-05   -0.16647E-07    96   0.143E-03    0.266E-04
DAV:  10    -0.104982841328E+03   -0.22442E-05   -0.14960E-07   108   0.110E-03    0.180E-04
DAV:  11    -0.104982842241E+03   -0.91338E-06   -0.27057E-08   108   0.579E-04
  54 F= -.10498284E+03 E0= -.10498284E+03  d E =-.565665E-10
       N       E                     dE             d eps       ncg     rms          rms(c)
DAV:   1    -0.104981579560E+03    0.12618E-02   -0.41800E-01    96   0.177E+00    0.219E-01
DAV:   2    -0.104982753415E+03   -0.11739E-02   -0.14450E-02   132   0.368E-01    0.899E-02
DAV:   3    -0.104982684503E+03    0.68912E-04   -0.38860E-04   144   0.680E-02    0.461E-02
DAV:   4    -0.104982671221E+03    0.13282E-04   -0.85449E-05   144   0.371E-02    0.145E-02
DAV:   5    -0.104982668150E+03    0.30714E-05   -0.17093E-05   144   0.169E-02    0.799E-03
DAV:   6    -0.104982668938E+03   -0.78861E-06   -0.40733E-06   132   0.744E-03
  55 F= -.10498267E+03 E0= -.10498267E+03  d E =-.893010E-10
       N       E                     dE             d eps       ncg     rms          rms(c)
DAV:   1    -0.104981668119E+03    0.10000E-02   -0.20326E-01    96   0.128E+00    0.164E-01
DAV:   2    -0.104982637211E+03   -0.96909E-03   -0.11181E-02   144   0.286E-01    0.697E-02
DAV:   3    -0.104982611684E+03    0.25528E-04   -0.26891E-04   132   0.504E-02    0.375E-02
DAV:   4    -0.104982610330E+03    0.13538E-05   -0.54706E-05   144   0.254E-02    0.113E-02
DAV:   5    -0.104982609082E+03    0.12476E-05   -0.72014E-06   132   0.107E-02    0.576E-03
DAV:   6    -0.104982609616E+03   -0.53346E-06   -0.22303E-06   120   0.575E-03
  56 F= -.10498261E+03 E0= -.10498261E+03  d E =-.536968E-10
       N       E                     dE             d eps       ncg     rms          rms(c)
DAV:   1    -0.104981013379E+03    0.15957E-02   -0.41195E-01    96   0.177E+00    0.220E-01
DAV:   2    -0.104982450516E+03   -0.14371E-02   -0.17115E-02   132   0.392E-01    0.100E-01
DAV:   3    -0.104982372839E+03    0.77677E-04   -0.40334E-04   144   0.698E-02    0.528E-02
DAV:   4    -0.104982351698E+03    0.21141E-04   -0.11534E-04   144   0.412E-02    0.139E-02
DAV:   5    -0.104982343832E+03    0.78666E-05   -0.22028E-05   132   0.184E-02    0.790E-03
DAV:   6    -0.104982344003E+03   -0.17094E-06   -0.46819E-06   132   0.761E-03
  57 F= -.10498234E+03 E0= -.10498234E+03  d E =-.552221E-11
       N       E                     dE             d eps       ncg     rms          rms(c)
DAV:   1    -0.104981325837E+03    0.10180E-02   -0.20075E-01    96   0.125E+00    0.153E-01
DAV:   2    -0.104982113950E+03   -0.78811E-03   -0.94057E-03   132   0.287E-01    0.868E-02
DAV:   3    -0.104982060387E+03    0.53563E-04   -0.17916E-04   132   0.500E-02    0.443E-02
DAV:   4    -0.104982049143E+03    0.11244E-04   -0.83230E-05   120   0.334E-02    0.910E-03
DAV:   5    -0.104982042919E+03    0.62238E-05   -0.12786E-05   132   0.136E-02    0.574E-03
DAV:   6    -0.104982041680E+03    0.12390E-05   -0.31732E-06   144   0.537E-03    0.316E-03
DAV:   7    -0.104982044067E+03   -0.23871E-05   -0.62940E-07    96   0.289E-03    0.108E-03
DAV:   8    -0.104982048512E+03   -0.44451E-05   -0.43964E-07   108   0.208E-03    0.780E-04
DAV:   9    -0.104982055586E+03   -0.70737E-05   -0.40009E-07    84   0.159E-03    0.433E-04
DAV:  10    -0.104982061507E+03   -0.59209E-05   -0.33611E-07    96   0.119E-03    0.301E-04
DAV:  11    -0.104982063512E+03   -0.20053E-05   -0.38072E-08   108   0.581E-04    0.169E-04
DAV:  12    -0.104982067054E+03   -0.35416E-05   -0.11354E-07    96   0.700E-04    0.950E-05
DAV:  13    -0.104982068006E+03   -0.95239E-06   -0.16103E-08   108   0.328E-04
  58 F= -.10498207E+03 E0= -.10498207E+03  d E =-.472646E-11
       N       E                     dE             d eps       ncg     rms          rms(c)
DAV:   1    -0.104980385273E+03    0.16818E-02   -0.40678E-01    96   0.174E+00    0.223E-01
DAV:   2    -0.104981944747E+03   -0.15595E-02   -0.18854E-02   132   0.401E-01    0.117E-01
DAV:   3    -0.104981826433E+03    0.11831E-03   -0.38070E-04   144   0.685E-02    0.610E-02
DAV:   4    -0.104981783317E+03    0.43116E-04   -0.12136E-04   132   0.413E-02    0.131E-02
DAV:   5    -0.104981774244E+03    0.90727E-05   -0.22896E-05   132   0.181E-02    0.740E-03
DAV:   6    -0.104981781452E+03   -0.72077E-05   -0.59583E-06   132   0.771E-03    0.426E-03
DAV:   7    -0.104981799991E+03   -0.18539E-04   -0.20819E-06   132   0.442E-03    0.152E-03
DAV:   8    -0.104981816542E+03   -0.16551E-04   -0.11335E-06   120   0.292E-03    0.112E-03
DAV:   9    -0.104981835040E+03   -0.18498E-04   -0.13859E-06   132   0.255E-03    0.663E-04
DAV:  10    -0.104981850282E+03   -0.15242E-04   -0.14420E-06   120   0.220E-03    0.436E-04
DAV:  11    -0.104981852992E+03   -0.27097E-05   -0.59383E-08   108   0.744E-04    0.275E-04
DAV:  12    -0.104981858764E+03   -0.57718E-05   -0.26931E-07    96   0.105E-03    0.149E-04
DAV:  13    -0.104981860480E+03   -0.17158E-05   -0.60565E-08   108   0.509E-04    0.121E-04
DAV:  14    -0.104981861774E+03   -0.12944E-05   -0.11977E-08   108   0.357E-04    0.725E-05
DAV:  15    -0.104981862412E+03   -0.63805E-06   -0.96582E-09    96   0.268E-04
  59 F= -.10498186E+03 E0= -.10498186E+03  d E =-.477639E-10
       N       E                     dE             d eps       ncg     rms          rms(c)
DAV:   1    -0.104981926191E+03   -0.64417E-04   -0.20183E-01    96   0.124E+00    0.155E-01
DAV:   2    -0.104982697917E+03   -0.77173E-03   -0.93895E-03   132   0.287E-01    0.851E-02
DAV:   3    -0.104982633387E+03    0.64530E-04   -0.18374E-04   132   0.493E-02    0.439E-02
DAV:   4    -0.104982609761E+03    0.23626E-04   -0.75477E-05   132   0.322E-02    0.911E-03
DAV:   5    -0.104982603206E+03    0.65548E-05   -0.12651E-05   132   0.136E-02    0.568E-03
DAV:   6    -0.104982604191E+03   -0.98500E-06   -0.32993E-06   132   0.563E-03
  60 F= -.10498260E+03 E0= -.10498260E+03  d E =-.595466E-10
       N       E                     dE             d eps       ncg     rms          rms(c)
DAV:   1    -0.104981153576E+03    0.14496E-02   -0.41380E-01    96   0.177E+00    0.221E-01
DAV:   2    -0.104982450579E+03   -0.12970E-02   -0.15660E-02   132   0.388E-01    0.983E-02
DAV:   3    -0.104982387495E+03    0.63084E-04   -0.37885E-04   144   0.691E-02    0.506E-02
DAV:   4    -0.104982384384E+03    0.31115E-05   -0.10183E-04   132   0.403E-02    0.134E-02
DAV:   5    -0.104982379367E+03    0.50168E-05   -0.20687E-05   132   0.178E-02    0.801E-03
DAV:   6    -0.104982378145E+03    0.12220E-05   -0.42676E-06   132   0.735E-03    0.440E-03
DAV:   7    -0.104982380945E+03   -0.27996E-05   -0.67476E-07   108   0.347E-03    0.126E-03
DAV:   8    -0.104982384426E+03   -0.34811E-05   -0.35122E-07   108   0.248E-03    0.819E-04
DAV:   9    -0.104982392273E+03   -0.78475E-05   -0.54221E-07   108   0.258E-03    0.382E-04
DAV:  10    -0.104982396418E+03   -0.41454E-05   -0.34972E-07   108   0.170E-03    0.386E-04
DAV:  11    -0.104982398011E+03   -0.15923E-05   -0.49243E-08   108   0.802E-04    0.288E-04
DAV:  12    -0.104982400224E+03   -0.22135E-05   -0.56062E-08   108   0.623E-04    0.116E-04
DAV:  13    -0.104982402068E+03   -0.18434E-05   -0.64029E-08    84   0.539E-04    0.156E-04
DAV:  14    -0.104982403080E+03   -0.10126E-05   -0.17608E-08   108   0.360E-04    0.456E-05
DAV:  15    -0.104982403559E+03   -0.47882E-06   -0.28176E-09    84   0.221E-04
  61 F= -.10498240E+03 E0= -.10498240E+03  d E =-.783618E-10
       N       E                     dE             d eps       ncg     rms          rms(c)
DAV:   1    -0.104984289560E+03   -0.18865E-02   -0.24028E-01    96   0.173E+00    0.162E-01
DAV:   2    -0.104984648210E+03   -0.35865E-03   -0.59914E-03   144   0.253E-01    0.807E-02
DAV:   3    -0.104984574145E+03    0.74064E-04   -0.21777E-04   132   0.520E-02    0.375E-02
DAV:   4    -0.104984564884E+03    0.92608E-05   -0.76930E-05   120   0.300E-02    0.100E-02
DAV:   5    -0.104984562653E+03    0.22314E-05   -0.80248E-06   132   0.111E-02    0.634E-03
DAV:   6    -0.104984562880E+03   -0.22692E-06   -0.22656E-06   132   0.567E-03
  62 F= -.10498456E+03 E0= -.10498456E+03  d E =-.615540E-10
       N       E                     dE             d eps       ncg     rms          rms(c)
DAV:   1    -0.104985210559E+03   -0.64791E-03   -0.54938E-01    96   0.267E+00    0.229E-01
DAV:   2    -0.104984910848E+03    0.29971E-03   -0.35976E-03   132   0.211E-01    0.122E-01
DAV:   3    -0.104984698091E+03    0.21276E-03   -0.49922E-04   132   0.719E-02    0.373E-02
DAV:   4    -0.104984701129E+03   -0.30379E-05   -0.12308E-04   132   0.348E-02    0.132E-02
DAV:   5    -0.104984702304E+03   -0.11744E-05   -0.75496E-06   132   0.108E-02    0.730E-03
DAV:   6    -0.104984705449E+03   -0.31452E-05   -0.34967E-06   132   0.639E-03    0.169E-03
DAV:   7    -0.104984707453E+03   -0.20037E-05   -0.50588E-07   108   0.280E-03    0.937E-04
DAV:   8    -0.104984710227E+03   -0.27746E-05   -0.12050E-07   108   0.128E-03    0.369E-04
DAV:   9    -0.104984712596E+03   -0.23684E-05   -0.87316E-08   108   0.994E-04    0.263E-04
DAV:  10    -0.104984715368E+03   -0.27721E-05   -0.12236E-07   108   0.944E-04    0.115E-04
DAV:  11    -0.104984716461E+03   -0.10931E-05   -0.44752E-08   108   0.597E-04    0.947E-05
DAV:  12    -0.104984717038E+03   -0.57727E-06   -0.52827E-09   108   0.309E-04
  63 F= -.10498472E+03 E0= -.10498472E+03  d E =-.446694E-10
       N       E                     dE             d eps       ncg     rms          rms(c)
DAV:   1    -0.104983896349E+03    0.82011E-03   -0.29090E-01    96   0.192E+00    0.213E-01
DAV:   2    -0.104983653275E+03    0.24307E-03   -0.24727E-03   132   0.175E-01    0.103E-01
DAV:   3    -0.104983502862E+03    0.15041E-03   -0.38862E-04   132   0.618E-02    0.373E-02
DAV:   4    -0.104983495460E+03    0.74021E-05   -0.11086E-04   132   0.324E-02    0.144E-02
DAV:   5    -0.104983493826E+03    0.16344E-05   -0.49349E-06   132   0.950E-03    0.577E-03
DAV:   6    -0.104983494785E+03   -0.95889E-06   -0.26813E-06   132   0.629E-03
  64 F= -.10498349E+03 E0= -.10498349E+03  d E =-.577332E-10
       N       E                     dE             d eps       ncg     rms          rms(c)
DAV:   1    -0.104984189238E+03   -0.69541E-03   -0.56849E-01    96   0.272E+00    0.282E-01
DAV:   2    -0.104983755710E+03    0.43353E-03   -0.43905E-03   132   0.229E-01    0.136E-01
DAV:   3    -0.104983486308E+03    0.26940E-03   -0.63758E-04   120   0.753E-02    0.502E-02
DAV:   4    -0.104983469491E+03    0.16817E-04   -0.17616E-04   132   0.398E-02    0.161E-02
DAV:   5    -0.104983468891E+03    0.59956E-06   -0.10683E-05   132   0.136E-02    0.775E-03
DAV:   6    -0.104983472160E+03   -0.32683E-05   -0.49645E-06   132   0.768E-03    0.262E-03
DAV:   7    -0.104983474983E+03   -0.28233E-05   -0.84273E-07   108   0.347E-03    0.131E-03
DAV:   8    -0.104983479968E+03   -0.49846E-05   -0.30752E-07   108   0.200E-03    0.580E-04
DAV:   9    -0.104983482198E+03   -0.22302E-05   -0.16165E-07   108   0.146E-03    0.610E-04
DAV:  10    -0.104983486626E+03   -0.44284E-05   -0.24219E-07    96   0.141E-03    0.369E-04
DAV:  11    -0.104983488683E+03   -0.20568E-05   -0.14046E-07   108   0.940E-04    0.257E-04
DAV:  12    -0.104983489491E+03   -0.80761E-06   -0.19463E-08    96   0.494E-04
  65 F= -.10498349E+03 E0= -.10498349E+03  d E =-.492408E-10
       N       E                     dE             d eps       ncg     rms          rms(c)
DAV:   1    -0.104985139696E+03   -0.16510E-02   -0.29034E-01    96   0.184E+00    0.207E-01
DAV:   2    -0.104984850062E+03    0.28963E-03   -0.22941E-03   132   0.173E-01    0.101E-01
DAV:   3    -0.104984699995E+03    0.15007E-03   -0.42542E-04   132   0.654E-02    0.346E-02
DAV:   4    -0.104984698029E+03    0.19661E-05   -0.10985E-04   132   0.333E-02    0.133E-02
DAV:   5    -0.104984697263E+03    0.76563E-06   -0.46912E-06   132   0.880E-03
  66 F= -.10498470E+03 E0= -.10498470E+03  d E =-.531446E-10
       N       E                     dE             d eps       ncg     rms          rms(c)
DAV:   1    -0.104985218915E+03   -0.52089E-03   -0.55846E-01    96   0.264E+00    0.224E-01
DAV:   2    -0.104984851902E+03    0.36701E-03   -0.37410E-03   132   0.216E-01    0.122E-01
DAV:   3    -0.104984625550E+03    0.22635E-03   -0.63835E-04   132   0.837E-02    0.327E-02
DAV:   4    -0.104984632845E+03   -0.72952E-05   -0.13936E-04   132   0.398E-02    0.149E-02
DAV:   5    -0.104984632302E+03    0.54318E-06   -0.46554E-06   132   0.832E-03
  67 F= -.10498463E+03 E0= -.10498463E+03  d E =-.615778E-10
       N       E                     dE             d eps       ncg     rms          rms(c)
DAV:   1    -0.104985250689E+03   -0.61784E-03   -0.27535E-01    96   0.200E+00    0.149E-01
DAV:   2    -0.104985181182E+03    0.69506E-04   -0.18712E-03   132   0.155E-01    0.852E-02
DAV:   3    -0.104985096629E+03    0.84554E-04   -0.17947E-04   132   0.450E-02    0.196E-02
DAV:   4    -0.104985098029E+03   -0.14001E-05   -0.37578E-05   132   0.196E-02    0.665E-03
DAV:   5    -0.104985098188E+03   -0.15936E-06   -0.11587E-06   108   0.449E-03
  68 F= -.10498510E+03 E0= -.10498510E+03  d E =-.543109E-10
       N       E                     dE             d eps       ncg     rms          rms(c)
DAV:   1    -0.104985809733E+03   -0.71170E-03   -0.54385E-01    96   0.272E+00    0.201E-01
DAV:   2    -0.104985506579E+03    0.30315E-03   -0.27290E-03   120   0.193E-01    0.113E-01
DAV:   3    -0.104985336193E+03    0.17039E-03   -0.49607E-04   132   0.739E-02    0.240E-02
DAV:   4    -0.104985345489E+03   -0.92960E-05   -0.94182E-05   120   0.320E-02    0.104E-02
DAV:   5    -0.104985345629E+03   -0.14002E-06   -0.33303E-06   132   0.693E-03
  69 F= -.10498535E+03 E0= -.10498535E+03  d E =-.535990E-10
       N       E                     dE             d eps       ncg     rms          rms(c)
DAV:   1    -0.104985393054E+03   -0.47565E-04   -0.27614E-01    96   0.197E+00    0.143E-01
DAV:   2    -0.104985245488E+03    0.14757E-03   -0.14116E-03   132   0.130E-01    0.799E-02
DAV:   3    -0.104985157333E+03    0.88155E-04   -0.24281E-04   132   0.473E-02    0.182E-02
DAV:   4    -0.104985159253E+03   -0.19203E-05   -0.41087E-05   132   0.208E-02    0.665E-03
DAV:   5    -0.104985158877E+03    0.37670E-06   -0.15796E-06   120   0.475E-03
  70 F= -.10498516E+03 E0= -.10498516E+03  d E =-.581341E-10
       N       E                     dE             d eps       ncg     rms          rms(c)
DAV:   1    -0.104985519593E+03   -0.36034E-03   -0.54990E-01    96   0.261E+00    0.207E-01
DAV:   2    -0.104985229808E+03    0.28978E-03   -0.28431E-03   132   0.189E-01    0.113E-01
DAV:   3    -0.104985042098E+03    0.18771E-03   -0.45012E-04   132   0.647E-02    0.280E-02
DAV:   4    -0.104985043578E+03   -0.14801E-05   -0.80753E-05   132   0.287E-02    0.990E-03
DAV:   5    -0.104985043654E+03   -0.75649E-07   -0.39580E-06   132   0.753E-03
  71 F= -.10498504E+03 E0= -.10498504E+03  d E =-.455900E-10
       N       E                     dE             d eps       ncg     rms          rms(c)
DAV:   1    -0.104982756778E+03    0.22868E-02   -0.27898E-01    96   0.195E+00    0.166E-01
DAV:   2    -0.104982575105E+03    0.18167E-03   -0.19434E-03   144   0.158E-01    0.871E-02
DAV:   3    -0.104982457742E+03    0.11736E-03   -0.30105E-04   132   0.568E-02    0.267E-02
DAV:   4    -0.104982460317E+03   -0.25741E-05   -0.77572E-05   132   0.285E-02    0.107E-02
DAV:   5    -0.104982461697E+03   -0.13800E-05   -0.31490E-06   132   0.689E-03    0.578E-03
DAV:   6    -0.104982464353E+03   -0.26564E-05   -0.17903E-06   132   0.482E-03    0.906E-04
DAV:   7    -0.104982465786E+03   -0.14327E-05   -0.39194E-07   108   0.238E-03    0.677E-04
DAV:   8    -0.104982467808E+03   -0.20224E-05   -0.90313E-08    96   0.964E-04    0.257E-04
DAV:   9    -0.104982469543E+03   -0.17353E-05   -0.68848E-08   108   0.690E-04    0.205E-04
DAV:  10    -0.104982471089E+03   -0.15453E-05   -0.59966E-08   108   0.619E-04    0.123E-04
DAV:  11    -0.104982472220E+03   -0.11310E-05   -0.52889E-08   108   0.510E-04    0.698E-05
DAV:  12    -0.104982472701E+03   -0.48096E-06   -0.69952E-09   108   0.283E-04
  72 F= -.10498247E+03 E0= -.10498247E+03  d E =-.479099E-10
       N       E                     dE             d eps       ncg     rms          rms(c)
DAV:   1    -0.104983393198E+03   -0.92098E-03   -0.59021E-01    96   0.281E+00    0.320E-01
DAV:   2    -0.104982846519E+03    0.54668E-03   -0.56593E-03   132   0.262E-01    0.152E-01
DAV:   3    -0.104982488613E+03    0.35791E-03   -0.88212E-04   132   0.959E-02    0.547E-02
DAV:   4    -0.104982476397E+03    0.12216E-04   -0.27701E-04   120   0.524E-02    0.205E-02
DAV:   5    -0.104982474134E+03    0.22623E-05   -0.13625E-05   132   0.144E-02    0.977E-03
DAV:   6    -0.104982475528E+03   -0.13941E-05   -0.58126E-06   132   0.971E-03    0.254E-03
DAV:   7    -0.104982478664E+03   -0.31359E-05   -0.21618E-06   132   0.507E-03    0.155E-03
[...]
DAV:   5    -0.104985257704E+03   -0.53079E-06   -0.28791E-06   132   0.616E-03
 131 F= -.10498526E+03 E0= -.10498526E+03  d E =-.548966E-10
       N       E                     dE             d eps       ncg     rms          rms(c)
DAV:   1    -0.104985011481E+03    0.24569E-03   -0.27078E-01    96   0.146E+00    0.139E-01
DAV:   2    -0.104984890583E+03    0.12090E-03   -0.13858E-03   132   0.119E-01    0.778E-02
DAV:   3    -0.104984815167E+03    0.75415E-04   -0.21012E-04   132   0.448E-02    0.179E-02
DAV:   4    -0.104984818245E+03   -0.30779E-05   -0.34414E-05   132   0.188E-02    0.733E-03
DAV:   5    -0.104984818607E+03   -0.36189E-06   -0.13618E-06   108   0.463E-03
 132 F= -.10498482E+03 E0= -.10498482E+03  d E =-.535452E-10
       N       E                     dE             d eps       ncg     rms          rms(c)
DAV:   1    -0.104985219516E+03   -0.40127E-03   -0.55109E-01    96   0.203E+00    0.223E-01
DAV:   2    -0.104984921230E+03    0.29829E-03   -0.31937E-03   120   0.173E-01    0.117E-01
DAV:   3    -0.104984744331E+03    0.17690E-03   -0.46448E-04   132   0.622E-02    0.353E-02
DAV:   4    -0.104984746057E+03   -0.17260E-05   -0.97160E-05   120   0.288E-02    0.113E-02
DAV:   5    -0.104984745164E+03    0.89350E-06   -0.52019E-06   132   0.887E-03
 133 F= -.10498475E+03 E0= -.10498475E+03  d E =-.539267E-10
       N       E                     dE             d eps       ncg     rms          rms(c)
DAV:   1    -0.104984852391E+03   -0.10633E-03   -0.27671E-01    96   0.181E+00    0.160E-01
DAV:   2    -0.104984744577E+03    0.10781E-03   -0.19935E-03   120   0.149E-01    0.852E-02
DAV:   3    -0.104984655839E+03    0.88737E-04   -0.22375E-04   132   0.456E-02    0.271E-02
DAV:   4    -0.104984655853E+03   -0.13791E-07   -0.56608E-05   132   0.222E-02    0.844E-03
DAV:   5    -0.104984655138E+03    0.71533E-06   -0.32819E-06   132   0.684E-03
 134 F= -.10498466E+03 E0= -.10498466E+03  d E =-.571433E-10
       N       E                     dE             d eps       ncg     rms          rms(c)
DAV:   1    -0.104985081891E+03   -0.42604E-03   -0.55439E-01    96   0.217E+00    0.232E-01
DAV:   2    -0.104984708465E+03    0.37343E-03   -0.30062E-03   132   0.162E-01    0.120E-01
DAV:   3    -0.104984502108E+03    0.20636E-03   -0.49258E-04   120   0.580E-02    0.362E-02
DAV:   4    -0.104984497066E+03    0.50425E-05   -0.97536E-05   144   0.275E-02    0.121E-02
DAV:   5    -0.104984497337E+03   -0.27113E-06   -0.53754E-06   132   0.881E-03
 135 F= -.10498450E+03 E0= -.10498450E+03  d E =-.467289E-10
       N       E                     dE             d eps       ncg     rms          rms(c)
DAV:   1    -0.104983781920E+03    0.71515E-03   -0.29055E-01   108   0.154E+00    0.209E-01
DAV:   2    -0.104983494490E+03    0.28743E-03   -0.21611E-03   132   0.140E-01    0.102E-01
DAV:   3    -0.104983355438E+03    0.13905E-03   -0.42441E-04   132   0.549E-02    0.346E-02
DAV:   4    -0.104983355600E+03   -0.16262E-06   -0.10142E-04   120   0.281E-02    0.150E-02
DAV:   5    -0.104983354077E+03    0.15232E-05   -0.41794E-06   132   0.806E-03    0.556E-03
DAV:   6    -0.104983354174E+03   -0.96666E-07   -0.25693E-06   132   0.514E-03
 136 F= -.10498335E+03 E0= -.10498335E+03  d E =-.540741E-10
       N       E                     dE             d eps       ncg     rms          rms(c)
DAV:   1    -0.104984560694E+03   -0.12066E-02   -0.57366E-01   108   0.209E+00    0.271E-01
DAV:   2    -0.104984017009E+03    0.54368E-03   -0.44463E-03   132   0.197E-01    0.138E-01
DAV:   3    -0.104983717365E+03    0.29964E-03   -0.81960E-04   132   0.777E-02    0.443E-02
DAV:   4    -0.104983719047E+03   -0.16819E-05   -0.20091E-04   132   0.395E-02    0.187E-02
DAV:   5    -0.104983718157E+03    0.89014E-06   -0.79882E-06   132   0.102E-02
 137 F= -.10498372E+03 E0= -.10498372E+03  d E =-.498688E-10
       N       E                     dE             d eps       ncg     rms          rms(c)
DAV:   1    -0.104985105644E+03   -0.13866E-02   -0.28888E-01   108   0.156E+00    0.205E-01
DAV:   2    -0.104984835736E+03    0.26991E-03   -0.22780E-03   132   0.149E-01    0.101E-01
DAV:   3    -0.104984694093E+03    0.14164E-03   -0.39887E-04   132   0.557E-02    0.340E-02
DAV:   4    -0.104984695157E+03   -0.10640E-05   -0.10896E-04   132   0.291E-02    0.132E-02
DAV:   5    -0.104984694182E+03    0.97525E-06   -0.48278E-06   132   0.834E-03
 138 F= -.10498469E+03 E0= -.10498469E+03  d E =-.562382E-10
       N       E                     dE             d eps       ncg     rms          rms(c)
DAV:   1    -0.104985220567E+03   -0.52541E-03   -0.54756E-01    96   0.219E+00    0.227E-01
DAV:   2    -0.104984878649E+03    0.34192E-03   -0.31537E-03   132   0.174E-01    0.120E-01
DAV:   3    -0.104984678659E+03    0.19999E-03   -0.49417E-04   132   0.645E-02    0.337E-02
DAV:   4    -0.104984680941E+03   -0.22816E-05   -0.97919E-05   132   0.301E-02    0.127E-02
DAV:   5    -0.104984681084E+03   -0.14358E-06   -0.48425E-06   132   0.840E-03
 139 F= -.10498468E+03 E0= -.10498468E+03  d E =-.498219E-10
       N       E                     dE             d eps       ncg     rms          rms(c)
DAV:   1    -0.104984586863E+03    0.94077E-04   -0.27692E-01    96   0.158E+00    0.167E-01
DAV:   2    -0.104984455599E+03    0.13126E-03   -0.17522E-03   120   0.130E-01    0.874E-02
DAV:   3    -0.104984367191E+03    0.88409E-04   -0.27348E-04   132   0.415E-02    0.264E-02
DAV:   4    -0.104984364593E+03    0.25978E-05   -0.37825E-05   132   0.168E-02    0.106E-02
DAV:   5    -0.104984362967E+03    0.16259E-05   -0.26021E-06   132   0.648E-03    0.500E-03
DAV:   6    -0.104984362962E+03    0.51837E-08   -0.20069E-06   132   0.485E-03
 140 F= -.10498436E+03 E0= -.10498436E+03  d E =-.580259E-10
       N       E                     dE             d eps       ncg     rms          rms(c)
DAV:   1    -0.104984879905E+03   -0.51694E-03   -0.55798E-01    96   0.217E+00    0.245E-01
DAV:   2    -0.104984478095E+03    0.40181E-03   -0.32405E-03   132   0.167E-01    0.124E-01
DAV:   3    -0.104984256179E+03    0.22192E-03   -0.53986E-04   132   0.609E-02    0.395E-02
DAV:   4    -0.104984249156E+03    0.70228E-05   -0.11295E-04   120   0.295E-02    0.135E-02
DAV:   5    -0.104984249246E+03   -0.90086E-07   -0.61207E-06   132   0.967E-03
 141 F= -.10498425E+03 E0= -.10498425E+03  d E =-.468356E-10
       N       E                     dE             d eps       ncg     rms          rms(c)
DAV:   1    -0.104983662273E+03    0.58688E-03   -0.27312E-01    96   0.148E+00    0.139E-01
DAV:   2    -0.104983524636E+03    0.13764E-03   -0.14240E-03   132   0.112E-01    0.784E-02
DAV:   3    -0.104983441141E+03    0.83496E-04   -0.25879E-04   132   0.453E-02    0.163E-02
DAV:   4    -0.104983445931E+03   -0.47901E-05   -0.45387E-05   132   0.200E-02    0.808E-03
DAV:   5    -0.104983446564E+03   -0.63314E-06   -0.12191E-06   132   0.405E-03
 142 F= -.10498345E+03 E0= -.10498345E+03  d E =-.495703E-10
       N       E                     dE             d eps       ncg     rms          rms(c)
DAV:   1    -0.104983928763E+03   -0.48283E-03   -0.58111E-01   108   0.221E+00    0.285E-01
DAV:   2    -0.104983368188E+03    0.56057E-03   -0.46549E-03   132   0.212E-01    0.142E-01
DAV:   3    -0.104983059406E+03    0.30878E-03   -0.87517E-04   132   0.800E-02    0.467E-02
DAV:   4    -0.104983061964E+03   -0.25580E-05   -0.21921E-04   132   0.404E-02    0.193E-02
DAV:   5    -0.104983059873E+03    0.20909E-05   -0.83031E-06   132   0.106E-02    0.816E-03
DAV:   6    -0.104983060075E+03   -0.20186E-06   -0.49155E-06   132   0.721E-03
 143 F= -.10498306E+03 E0= -.10498306E+03  d E =-.559747E-10
       N       E                     dE             d eps       ncg     rms          rms(c)
DAV:   1    -0.104985648564E+03   -0.25887E-02   -0.28159E-01   108   0.146E+00    0.167E-01
DAV:   2    -0.104985418325E+03    0.23024E-03   -0.17553E-03   132   0.128E-01    0.896E-02
DAV:   3    -0.104985305856E+03    0.11247E-03   -0.34846E-04   132   0.536E-02    0.243E-02
DAV:   4    -0.104985311318E+03   -0.54623E-05   -0.74225E-05   132   0.250E-02    0.114E-02
DAV:   5    -0.104985311352E+03   -0.34279E-07   -0.24732E-06   132   0.582E-03
 144 F= -.10498531E+03 E0= -.10498531E+03  d E =-.543051E-10
       N       E                     dE             d eps       ncg     rms          rms(c)
DAV:   1    -0.104985623404E+03   -0.31209E-03   -0.54187E-01    96   0.220E+00    0.200E-01
DAV:   2    -0.104985319120E+03    0.30428E-03   -0.25574E-03   132   0.164E-01    0.111E-01
DAV:   3    -0.104985154437E+03    0.16468E-03   -0.43939E-04   132   0.633E-02    0.229E-02
DAV:   4    -0.104985160566E+03   -0.61289E-05   -0.73431E-05   120   0.270E-02    0.103E-02
DAV:   5    -0.104985160937E+03   -0.37073E-06   -0.29648E-06   132   0.619E-03
 145 F= -.10498516E+03 E0= -.10498516E+03  d E =-.504640E-10
       N       E                     dE             d eps       ncg     rms          rms(c)
DAV:   1    -0.104984544666E+03    0.61590E-03   -0.27684E-01    96   0.200E+00    0.158E-01
DAV:   2    -0.104984414666E+03    0.13000E-03   -0.20902E-03   132   0.171E-01    0.855E-02
DAV:   3    -0.104984317233E+03    0.97433E-04   -0.26984E-04   132   0.575E-02    0.262E-02
DAV:   4    -0.104984321604E+03   -0.43710E-05   -0.76474E-05   132   0.287E-02    0.105E-02
DAV:   5    -0.104984321288E+03    0.31663E-06   -0.26965E-06   120   0.686E-03
 146 F= -.10498432E+03 E0= -.10498432E+03  d E =-.542439E-10
       N       E                     dE             d eps       ncg     rms          rms(c)
DAV:   1    -0.104985001516E+03   -0.67991E-03   -0.56118E-01    96   0.265E+00    0.237E-01
DAV:   2    -0.104984603973E+03    0.39754E-03   -0.39837E-03   132   0.222E-01    0.127E-01
DAV:   3    -0.104984350603E+03    0.25337E-03   -0.68848E-04   132   0.870E-02    0.367E-02
DAV:   4    -0.104984356129E+03   -0.55266E-05   -0.17000E-04   132   0.434E-02    0.170E-02
DAV:   5    -0.104984355200E+03    0.92939E-06   -0.59057E-06   132   0.966E-03
 147 F= -.10498436E+03 E0= -.10498436E+03  d E =-.517705E-10
       N       E                     dE             d eps       ncg     rms          rms(c)
DAV:   1    -0.104983431593E+03    0.92454E-03   -0.27238E-01    96   0.192E+00    0.141E-01
DAV:   2    -0.104983303683E+03    0.12791E-03   -0.14211E-03   132   0.128E-01    0.782E-02
DAV:   3    -0.104983212578E+03    0.91105E-04   -0.21196E-04   132   0.445E-02    0.197E-02
DAV:   4    -0.104983214605E+03   -0.20270E-05   -0.40103E-05   132   0.202E-02    0.678E-03
DAV:   5    -0.104983215803E+03   -0.11980E-05   -0.19279E-06   120   0.531E-03    0.444E-03
DAV:   6    -0.104983218222E+03   -0.24191E-05   -0.10206E-06    96   0.367E-03    0.980E-04
DAV:   7    -0.104983219824E+03   -0.16024E-05   -0.34669E-07   108   0.211E-03    0.634E-04
DAV:   8    -0.104983221995E+03   -0.21711E-05   -0.12176E-07    96   0.136E-03    0.307E-04
DAV:   9    -0.104983224319E+03   -0.23237E-05   -0.15782E-07   108   0.125E-03    0.221E-04
DAV:  10    -0.104983226346E+03   -0.20274E-05   -0.11167E-07   108   0.904E-04    0.141E-04
DAV:  11    -0.104983227035E+03   -0.68917E-06   -0.26647E-08   108   0.469E-04
 148 F= -.10498323E+03 E0= -.10498323E+03  d E =-.492931E-10
       N       E                     dE             d eps       ncg     rms          rms(c)
DAV:   1    -0.104983954750E+03   -0.72840E-03   -0.57734E-01    96   0.260E+00    0.295E-01
DAV:   2    -0.104983478698E+03    0.47605E-03   -0.43564E-03   132   0.229E-01    0.141E-01
DAV:   3    -0.104983188452E+03    0.29025E-03   -0.71582E-04   132   0.819E-02    0.517E-02
DAV:   4    -0.104983172567E+03    0.15885E-04   -0.19580E-04   132   0.429E-02    0.185E-02
DAV:   5    -0.104983169781E+03    0.27856E-05   -0.93908E-06   132   0.131E-02    0.801E-03
DAV:   6    -0.104983171305E+03   -0.15236E-05   -0.47413E-06   132   0.826E-03    0.282E-03
DAV:   7    -0.104983174247E+03   -0.29422E-05   -0.12400E-06   120   0.405E-03    0.118E-03
DAV:   8    -0.104983178358E+03   -0.41105E-05   -0.25660E-07   108   0.186E-03    0.599E-04
DAV:   9    -0.104983182245E+03   -0.38871E-05   -0.24427E-07   108   0.160E-03    0.452E-04
DAV:  10    -0.104983187803E+03   -0.55582E-05   -0.33940E-07   108   0.148E-03    0.184E-04
DAV:  11    -0.104983189784E+03   -0.19808E-05   -0.73791E-08   108   0.785E-04    0.188E-04
DAV:  12    -0.104983190964E+03   -0.11806E-05   -0.12167E-08   108   0.362E-04    0.132E-04
DAV:  13    -0.104983192746E+03   -0.17820E-05   -0.29373E-08   108   0.399E-04    0.790E-05
DAV:  14    -0.104983193384E+03   -0.63780E-06   -0.47272E-09   108   0.223E-04
 149 F= -.10498319E+03 E0= -.10498319E+03  d E =-.516446E-10
       N       E                     dE             d eps       ncg     rms          rms(c)
DAV:   1    -0.104985475582E+03   -0.22828E-02   -0.27848E-01    96   0.191E+00    0.172E-01
DAV:   2    -0.104985271936E+03    0.20365E-03   -0.18186E-03   132   0.162E-01    0.890E-02
DAV:   3    -0.104985159823E+03    0.11211E-03   -0.27530E-04   132   0.544E-02    0.281E-02
DAV:   4    -0.104985160910E+03   -0.10871E-05   -0.65896E-05   120   0.261E-02    0.102E-02
DAV:   5    -0.104985161887E+03   -0.97678E-06   -0.35216E-06   132   0.767E-03
 150 F= -.10498516E+03 E0= -.10498516E+03  d E =-.562762E-10
       N       E                     dE             d eps       ncg     rms          rms(c)
DAV:   1    -0.104985756448E+03   -0.59554E-03   -0.54348E-01    96   0.269E+00    0.200E-01
DAV:   2    -0.104985465732E+03    0.29072E-03   -0.26846E-03   132   0.184E-01    0.112E-01
DAV:   3    -0.104985290317E+03    0.17541E-03   -0.46383E-04   144   0.679E-02    0.229E-02
DAV:   4    -0.104985297380E+03   -0.70628E-05   -0.74471E-05   132   0.283E-02    0.897E-03
DAV:   5    -0.104985298688E+03   -0.13088E-05   -0.32471E-06   132   0.657E-03    0.630E-03
DAV:   6    -0.104985302215E+03   -0.35261E-05   -0.15200E-06   108   0.427E-03    0.117E-03
DAV:   7    -0.104985304505E+03   -0.22902E-05   -0.45686E-07   108   0.239E-03    0.975E-04
DAV:   8    -0.104985307728E+03   -0.32234E-05   -0.16382E-07   108   0.179E-03    0.352E-04
DAV:   9    -0.104985311202E+03   -0.34744E-05   -0.24139E-07   108   0.174E-03    0.487E-04
DAV:  10    -0.104985312991E+03   -0.17886E-05   -0.86806E-08   108   0.102E-03    0.260E-04
DAV:  11    -0.104985314204E+03   -0.12133E-05   -0.38814E-08   108   0.534E-04    0.209E-04
DAV:  12    -0.104985314987E+03   -0.78226E-06   -0.17849E-08   108   0.392E-04
 151 F= -.10498531E+03 E0= -.10498531E+03  d E =-.436735E-10
       N       E                     dE             d eps       ncg     rms          rms(c)
DAV:   1    -0.104983159092E+03    0.21551E-02   -0.28079E-01   108   0.201E+00    0.181E-01
DAV:   2    -0.104982948819E+03    0.21027E-03   -0.23169E-03   132   0.177E-01    0.907E-02
DAV:   3    -0.104982813986E+03    0.13483E-03   -0.35348E-04   132   0.630E-02    0.315E-02
DAV:   4    -0.104982817393E+03   -0.34075E-05   -0.10510E-04   120   0.331E-02    0.104E-02
DAV:   5    -0.104982818529E+03   -0.11355E-05   -0.53715E-06   132   0.889E-03    0.587E-03
DAV:   6    -0.104982820246E+03   -0.17177E-05   -0.18832E-06   132   0.488E-03    0.143E-03
DAV:   7    -0.104982821422E+03   -0.11755E-05   -0.34025E-07   108   0.231E-03    0.668E-04
DAV:   8    -0.104982823107E+03   -0.16847E-05   -0.70791E-08   108   0.100E-03    0.263E-04
DAV:   9    -0.104982824394E+03   -0.12870E-05   -0.41718E-08   108   0.706E-04    0.211E-04
DAV:  10    -0.104982826176E+03   -0.17823E-05   -0.70537E-08   108   0.718E-04    0.932E-05
DAV:  11    -0.104982826840E+03   -0.66435E-06   -0.21059E-08   108   0.438E-04
 152 F= -.10498283E+03 E0= -.10498283E+03  d E =-.496402E-10
       N       E                     dE             d eps       ncg     rms          rms(c)
DAV:   1    -0.104983896011E+03   -0.10698E-02   -0.58456E-01    96   0.281E+00    0.299E-01
DAV:   2    -0.104983337022E+03    0.55899E-03   -0.48400E-03   132   0.250E-01    0.146E-01
DAV:   3    -0.104983002063E+03    0.33496E-03   -0.92160E-04   132   0.983E-02    0.494E-02
DAV:   4    -0.104983000824E+03    0.12392E-05   -0.25438E-04   132   0.520E-02    0.215E-02
DAV:   5    -0.104982999209E+03    0.16151E-05   -0.10196E-05   132   0.127E-02    0.948E-03
DAV:   6    -0.104983000430E+03   -0.12213E-05   -0.60669E-06   132   0.987E-03    0.206E-03
DAV:   7    -0.104983003097E+03   -0.26672E-05   -0.20607E-06   132   0.509E-03    0.165E-03
DAV:   8    -0.104983006101E+03   -0.30040E-05   -0.12169E-07   108   0.115E-03    0.629E-04
DAV:   9    -0.104983009979E+03   -0.38780E-05   -0.19858E-07   108   0.130E-03    0.633E-04
DAV:  10    -0.104983013464E+03   -0.34846E-05   -0.17897E-07   108   0.145E-03    0.815E-04
DAV:  11    -0.104983016316E+03   -0.28517E-05   -0.14136E-07   108   0.955E-04    0.366E-04
DAV:  12    -0.104983017041E+03   -0.72581E-06   -0.10905E-08   108   0.471E-04
 153 F= -.10498302E+03 E0= -.10498302E+03  d E =-.517140E-10
       N       E                     dE             d eps       ncg     rms          rms(c)
DAV:   1    -0.104985493176E+03   -0.24769E-02   -0.28509E-01    96   0.194E+00    0.196E-01
DAV:   2    -0.104985255031E+03    0.23814E-03   -0.21345E-03   132   0.168E-01    0.967E-02
DAV:   3    -0.104985114352E+03    0.14068E-03   -0.34449E-04   132   0.567E-02    0.337E-02
DAV:   4    -0.104985110455E+03    0.38970E-05   -0.83840E-05   120   0.285E-02    0.122E-02
DAV:   5    -0.104985112001E+03   -0.15463E-05   -0.44921E-06   132   0.931E-03    0.535E-03
DAV:   6    -0.104985115935E+03   -0.39337E-05   -0.26793E-06   132   0.598E-03    0.164E-03
DAV:   7    -0.104985118871E+03   -0.29362E-05   -0.52289E-07   108   0.283E-03    0.802E-04
DAV:   8    -0.104985123285E+03   -0.44134E-05   -0.22087E-07   108   0.152E-03    0.387E-04
DAV:   9    -0.104985125712E+03   -0.24272E-05   -0.12354E-07   108   0.121E-03    0.396E-04
DAV:  10    -0.104985129595E+03   -0.38830E-05   -0.24870E-07   108   0.128E-03    0.217E-04
DAV:  11    -0.104985130564E+03   -0.96931E-06   -0.59846E-08   108   0.686E-04
 154 F= -.10498513E+03 E0= -.10498513E+03  d E =-.485659E-10
       N       E                     dE             d eps       ncg     rms          rms(c)
DAV:   1    -0.104985640753E+03   -0.51116E-03   -0.55086E-01    96   0.274E+00    0.204E-01
DAV:   2    -0.104985376340E+03    0.26441E-03   -0.28111E-03   132   0.184E-01    0.113E-01
DAV:   3    -0.104985183705E+03    0.19263E-03   -0.44986E-04   132   0.658E-02    0.291E-02
DAV:   4    -0.104985185310E+03   -0.16044E-05   -0.84784E-05   132   0.295E-02    0.934E-03
DAV:   5    -0.104985184547E+03    0.76284E-06   -0.39715E-06   132   0.747E-03
 155 F= -.10498518E+03 E0= -.10498518E+03  d E =-.599823E-10
       N       E                     dE             d eps       ncg     rms          rms(c)
DAV:   1    -0.104984909273E+03    0.27604E-03   -0.27340E-01    96   0.185E+00    0.147E-01
DAV:   2    -0.104984760487E+03    0.14879E-03   -0.15287E-03   132   0.140E-01    0.815E-02
DAV:   3    -0.104984676140E+03    0.84346E-04   -0.24563E-04   132   0.516E-02    0.187E-02
DAV:   4    -0.104984682604E+03   -0.64637E-05   -0.49378E-05   132   0.230E-02    0.777E-03
DAV:   5    -0.104984683374E+03   -0.77006E-06   -0.16648E-06   120   0.508E-03
 156 F= -.10498468E+03 E0= -.10498468E+03  d E =-.564237E-10
       N       E                     dE             d eps       ncg     rms          rms(c)
DAV:   1    -0.104985270446E+03   -0.58784E-03   -0.54766E-01    96   0.270E+00    0.229E-01
DAV:   2    -0.104984954337E+03    0.31611E-03   -0.33188E-03   132   0.216E-01    0.120E-01
DAV:   3    -0.104984747641E+03    0.20670E-03   -0.47473E-04   132   0.691E-02    0.357E-02
DAV:   4    -0.104984748762E+03   -0.11218E-05   -0.10080E-04   132   0.318E-02    0.113E-02
DAV:   5    -0.104984749435E+03   -0.67215E-06   -0.63246E-06   132   0.988E-03
 157 F= -.10498475E+03 E0= -.10498475E+03  d E =-.424601E-10
