       N       E                     dE             d eps       ncg     rms          rms(c)
DAV:   1     0.244019500491E+03    0.24402E+03   -0.10224E+04   120   0.484E+02
DAV:   2    -0.243832149069E+02   -0.26840E+03   -0.25396E+03   156   0.919E+01
DAV:   3    -0.105440013742E+03   -0.81057E+02   -0.80817E+02   120   0.552E+01
DAV:   4    -0.109486611494E+03   -0.40466E+01   -0.40322E+01   120   0.177E+01
DAV:   5    -0.109583361139E+03   -0.96750E-01   -0.96643E-01   156   0.306E+00    0.163E+01
DAV:   6    -0.105831353595E+03    0.37520E+01   -0.17184E+00   108   0.453E+00    0.944E+00
DAV:   7    -0.103915916135E+03    0.19154E+01   -0.47202E+00   120   0.665E+00    0.136E+00
DAV:   8    -0.103862806676E+03    0.53109E-01   -0.36448E-01   132   0.230E+00    0.737E-01
DAV:   9    -0.103825971055E+03    0.36836E-01   -0.69081E-02   156   0.723E-01    0.445E-01
DAV:  10    -0.103825303825E+03    0.66723E-03   -0.45277E-03   120   0.241E-01    0.158E-01
DAV:  11    -0.103823044312E+03    0.22595E-02   -0.73199E-03   120   0.228E-01    0.114E-01
DAV:  12    -0.103829291105E+03   -0.62468E-02   -0.13553E-03   120   0.109E-01    0.508E-02
DAV:  13    -0.103832147928E+03   -0.28568E-02   -0.24261E-03   132   0.119E-01    0.494E-02
DAV:  14    -0.103835517000E+03   -0.33691E-02   -0.20688E-04   144   0.505E-02    0.247E-02
DAV:  15    -0.103840638357E+03   -0.51214E-02   -0.59218E-04   108   0.585E-02    0.153E-02
DAV:  16    -0.103842406257E+03   -0.17679E-02   -0.13134E-04   132   0.337E-02    0.122E-02
DAV:  17    -0.103843669826E+03   -0.12636E-02   -0.11685E-04   108   0.257E-02    0.855E-03
DAV:  18    -0.103844057245E+03   -0.38742E-03   -0.13574E-05   132   0.944E-03    0.163E-03
DAV:  19    -0.103844271061E+03   -0.21382E-03   -0.87457E-06   132   0.661E-03    0.182E-03
DAV:  20    -0.103844345298E+03   -0.74236E-04   -0.18529E-06   120   0.352E-03    0.885E-04
DAV:  21    -0.103844358697E+03   -0.13399E-04   -0.15089E-07   108   0.118E-03    0.411E-04
DAV:  22    -0.103844373195E+03   -0.14498E-04   -0.34935E-07   108   0.134E-03    0.386E-04
DAV:  23    -0.103844376620E+03   -0.34245E-05   -0.57033E-08   108   0.625E-04    0.135E-04
DAV:  24    -0.103844379749E+03   -0.31292E-05   -0.50167E-08   108   0.531E-04    0.114E-04
DAV:  25    -0.103844380579E+03   -0.82997E-06   -0.41232E-09   108   0.262E-04
   1 F= -.10384438E+03 E0= -.10384438E+03  d E =-.153730E-10
       N       E                     dE             d eps       ncg     rms          rms(c)
DAV:   1    -0.103840971634E+03    0.34081E-02   -0.81367E-02    96   0.788E-01    0.132E-01
DAV:   2    -0.103841286957E+03   -0.31532E-03   -0.37107E-03   120   0.200E-01    0.573E-02
DAV:   3    -0.103841270752E+03    0.16205E-04   -0.15416E-04   144   0.454E-02    0.297E-02
DAV:   4    -0.103841274195E+03   -0.34428E-05   -0.37208E-05   132   0.219E-02    0.904E-03
DAV:   5    -0.103841273455E+03    0.73925E-06   -0.67603E-06   132   0.983E-03
   2 F= -.10384127E+03 E0= -.10384127E+03  d E =-.159835E-10
       N       E                     dE             d eps       ncg     rms          rms(c)
DAV:   1    -0.103840092900E+03    0.11813E-02   -0.32644E-01    96   0.159E+00    0.270E-01
DAV:   2    -0.103841352439E+03   -0.12595E-02   -0.14829E-02   120   0.399E-01    0.115E-01
DAV:   3    -0.103841291600E+03    0.60839E-04   -0.60849E-04   144   0.899E-02    0.615E-02
DAV:   4    -0.103841308347E+03   -0.16747E-04   -0.14528E-04   132   0.437E-02    0.186E-02
DAV:   5    -0.103841306335E+03    0.20127E-05   -0.27771E-05   132   0.197E-02    0.104E-02
DAV:   6    -0.103841305906E+03    0.42822E-06   -0.54036E-06   132   0.797E-03
   3 F= -.10384131E+03 E0= -.10384131E+03  d E =-.147541E-10
       N       E                     dE             d eps       ncg     rms          rms(c)
DAV:   1    -0.103840763766E+03    0.54257E-03   -0.16398E-01    96   0.114E+00    0.193E-01
DAV:   2    -0.103841334361E+03   -0.57059E-03   -0.69212E-03   132   0.277E-01    0.801E-02
DAV:   3    -0.103841309291E+03    0.25070E-04   -0.29448E-04   120   0.628E-02    0.420E-02
DAV:   4    -0.103841320751E+03   -0.11459E-04   -0.68386E-05   132   0.297E-02    0.129E-02
DAV:   5    -0.103841320760E+03   -0.93587E-08   -0.11872E-05   132   0.134E-02    0.724E-03
DAV:   6    -0.103841321063E+03   -0.30281E-06   -0.26071E-06   132   0.549E-03
   4 F= -.10384132E+03 E0= -.10384132E+03  d E =-.145099E-10
       N       E                     dE             d eps       ncg     rms          rms(c)
DAV:   1    -0.103839960084E+03    0.13607E-02   -0.32672E-01    96   0.162E+00    0.267E-01
DAV:   2    -0.103841236492E+03   -0.12764E-02   -0.14965E-02   132   0.410E-01    0.117E-01
DAV:   3    -0.103841174373E+03    0.62118E-04   -0.60529E-04   144   0.915E-02    0.610E-02
DAV:   4    -0.103841189434E+03   -0.15061E-04   -0.15268E-04   132   0.447E-02    0.186E-02
DAV:   5    -0.103841185628E+03    0.38059E-05   -0.27257E-05   132   0.201E-02    0.100E-02
DAV:   6    -0.103841185435E+03    0.19318E-06   -0.58311E-06   132   0.824E-03
   5 F= -.10384119E+03 E0= -.10384119E+03  d E =-.149600E-10
       N       E                     dE             d eps       ncg     rms          rms(c)
DAV:   1    -0.103839057669E+03    0.21280E-02   -0.16308E-01    96   0.116E+00    0.190E-01
DAV:   2    -0.103839888634E+03   -0.83097E-03   -0.93063E-03   132   0.314E-01    0.947E-02
DAV:   3    -0.103839839964E+03    0.48670E-04   -0.32716E-04   132   0.684E-02    0.500E-02
DAV:   4    -0.103839846975E+03   -0.70103E-05   -0.12018E-04   132   0.373E-02    0.137E-02
DAV:   5    -0.103839845317E+03    0.16583E-05   -0.18116E-05   132   0.158E-02    0.769E-03
DAV:   6    -0.103839847295E+03   -0.19783E-05   -0.35295E-06   132   0.593E-03    0.470E-03
DAV:   7    -0.103839853024E+03   -0.57292E-05   -0.45519E-07   108   0.227E-03    0.142E-03
DAV:   8    -0.103839857617E+03   -0.45929E-05   -0.35477E-07   108   0.191E-03    0.652E-04
DAV:   9    -0.103839863578E+03   -0.59607E-05   -0.35072E-07   108   0.167E-03    0.498E-04
DAV:  10    -0.103839870186E+03   -0.66087E-05   -0.57896E-07   120   0.161E-03    0.488E-04
DAV:  11    -0.103839871207E+03   -0.10210E-05   -0.27975E-08   108   0.693E-04    0.303E-04
DAV:  12    -0.103839872997E+03   -0.17898E-05   -0.47911E-08   108   0.544E-04    0.122E-04
DAV:  13    -0.103839874123E+03   -0.11256E-05   -0.24800E-08   108   0.356E-04    0.105E-04
DAV:  14    -0.103839875065E+03   -0.94261E-06   -0.14637E-08   108   0.277E-04
   6 F= -.10383988E+03 E0= -.10383988E+03  d E =-.213179E-10
       N       E                     dE             d eps       ncg     rms          rms(c)
DAV:   1    -0.103838089360E+03    0.17848E-02   -0.33314E-01    96   0.155E+00    0.274E-01
DAV:   2    -0.103840316499E+03   -0.22271E-02   -0.24453E-02   120   0.470E-01    0.169E-01
DAV:   3    -0.103840140113E+03    0.17639E-03   -0.74333E-04   132   0.103E-01    0.864E-02
DAV:   4    -0.103840145603E+03   -0.54898E-05   -0.42561E-04   132   0.641E-02    0.171E-02
DAV:   5    -0.103840134512E+03    0.11091E-04   -0.48830E-05   132   0.239E-02    0.111E-02
DAV:   6    -0.103840135786E+03   -0.12745E-05   -0.10399E-05   132   0.799E-03    0.700E-03
DAV:   7    -0.103840148753E+03   -0.12966E-04   -0.10796E-06   132   0.326E-03    0.284E-03
DAV:   8    -0.103840165485E+03   -0.16732E-04   -0.17554E-06   132   0.403E-03    0.145E-03
DAV:   9    -0.103840178625E+03   -0.13139E-04   -0.88498E-07   132   0.212E-03    0.150E-03
DAV:  10    -0.103840201261E+03   -0.22637E-04   -0.13790E-06   132   0.232E-03    0.974E-04
DAV:  11    -0.103840204612E+03   -0.33511E-05   -0.73910E-08   120   0.861E-04    0.520E-04
DAV:  12    -0.103840213589E+03   -0.89762E-05   -0.26437E-07   108   0.112E-03    0.389E-04
DAV:  13    -0.103840216315E+03   -0.27268E-05   -0.81178E-08   108   0.583E-04    0.267E-04
DAV:  14    -0.103840218507E+03   -0.21912E-05   -0.18143E-08   108   0.389E-04    0.918E-05
DAV:  15    -0.103840219649E+03   -0.11427E-05   -0.14824E-08   108   0.299E-04    0.956E-05
DAV:  16    -0.103840220130E+03   -0.48065E-06    0.36592E-09   108   0.155E-04
   7 F= -.10384022E+03 E0= -.10384022E+03  d E =-.137960E-10
       N       E                     dE             d eps       ncg     rms          rms(c)
DAV:   1    -0.103838950819E+03    0.12688E-02   -0.19061E-01    96   0.131E+00    0.198E-01
DAV:   2    -0.103840335001E+03   -0.13842E-02   -0.14479E-02   132   0.406E-01    0.119E-01
DAV:   3    -0.103840258089E+03    0.76913E-04   -0.41786E-04   144   0.816E-02    0.637E-02
DAV:   4    -0.103840258817E+03   -0.72783E-06   -0.20242E-04   132   0.506E-02    0.132E-02
DAV:   5    -0.103840253350E+03    0.54667E-05   -0.33523E-05   132   0.201E-02    0.895E-03
DAV:   6    -0.103840254411E+03   -0.10611E-05   -0.37130E-06   132   0.602E-03    0.647E-03
DAV:   7    -0.103840264865E+03   -0.10454E-04   -0.86090E-07   108   0.436E-03    0.178E-03
DAV:   8    -0.103840272552E+03   -0.76867E-05   -0.12199E-06   120   0.363E-03    0.118E-03
DAV:   9    -0.103840277636E+03   -0.50843E-05   -0.27824E-07   108   0.187E-03    0.898E-04
DAV:  10    -0.103840289248E+03   -0.11611E-04   -0.84669E-07   120   0.194E-03    0.746E-04
DAV:  11    -0.103840293784E+03   -0.45368E-05   -0.26565E-07   108   0.137E-03    0.665E-04
DAV:  12    -0.103840297089E+03   -0.33048E-05   -0.18030E-07   108   0.112E-03    0.365E-04
DAV:  13    -0.103840299471E+03   -0.23817E-05   -0.88559E-08   108   0.757E-04    0.245E-04
DAV:  14    -0.103840300402E+03   -0.93142E-06   -0.14821E-08   108   0.387E-04
   8 F= -.10384030E+03 E0= -.10384030E+03  d E =-.154034E-10
       N       E                     dE             d eps       ncg     rms          rms(c)
DAV:   1    -0.103838603600E+03    0.16959E-02   -0.34105E-01    96   0.168E+00    0.255E-01
DAV:   2    -0.103840497297E+03   -0.18937E-02   -0.19763E-02   132   0.462E-01    0.153E-01
DAV:   3    -0.103840431558E+03    0.65738E-04   -0.52701E-04   144   0.850E-02    0.872E-02
DAV:   4    -0.103840411975E+03    0.19584E-04   -0.20467E-04   132   0.537E-02    0.155E-02
DAV:   5    -0.103840401548E+03    0.10427E-04   -0.40863E-05   132   0.236E-02    0.106E-02
DAV:   6    -0.103840402338E+03   -0.79022E-06   -0.81585E-06   132   0.963E-03
   9 F= -.10384040E+03 E0= -.10384040E+03  d E =-.147238E-10
       N       E                     dE             d eps       ncg     rms          rms(c)
DAV:   1    -0.103838356205E+03    0.20453E-02   -0.17246E-01    96   0.120E+00    0.183E-01
DAV:   2    -0.103839478846E+03   -0.11226E-02   -0.11213E-02   132   0.378E-01    0.115E-01
DAV:   3    -0.103839464740E+03    0.14106E-04   -0.27272E-04   132   0.691E-02    0.635E-02
DAV:   4    -0.103839490691E+03   -0.25950E-04   -0.15321E-04   120   0.485E-02    0.114E-02
DAV:   5    -0.103839487927E+03    0.27635E-05   -0.32434E-05   132   0.213E-02    0.834E-03
DAV:   6    -0.103839489512E+03   -0.15847E-05   -0.58125E-06   144   0.745E-03    0.547E-03
DAV:   7    -0.103839497827E+03   -0.83157E-05   -0.82192E-07   108   0.365E-03    0.219E-03
DAV:   8    -0.103839508125E+03   -0.10298E-04   -0.95373E-07   108   0.340E-03    0.779E-04
DAV:   9    -0.103839517451E+03   -0.93263E-05   -0.10636E-06   120   0.275E-03    0.116E-03
DAV:  10    -0.103839525047E+03   -0.75955E-05   -0.34391E-07    96   0.170E-03    0.486E-04
DAV:  11    -0.103839528905E+03   -0.38578E-05   -0.21823E-07   108   0.103E-03    0.276E-04
DAV:  12    -0.103839532250E+03   -0.33455E-05   -0.10679E-07    96   0.741E-04    0.116E-04
DAV:  13    -0.103839534090E+03   -0.18395E-05   -0.63126E-08   108   0.524E-04    0.185E-04
DAV:  14    -0.103839535220E+03   -0.11303E-05   -0.18697E-08    96   0.344E-04    0.916E-05
DAV:  15    -0.103839535780E+03   -0.56022E-06   -0.55062E-09   108   0.243E-04
  10 F= -.10383954E+03 E0= -.10383954E+03  d E =-.165740E-10
       N       E                     dE             d eps       ncg     rms          rms(c)
DAV:   1    -0.103837127810E+03    0.24074E-02   -0.35304E-01    96   0.185E+00    0.270E-01
DAV:   2    -0.103839566394E+03   -0.24386E-02   -0.24986E-02   132   0.583E-01    0.178E-01
DAV:   3    -0.103839428855E+03    0.13754E-03   -0.66538E-04   132   0.114E-01    0.847E-02
DAV:   4    -0.103839446646E+03   -0.17791E-04   -0.43004E-04   120   0.781E-02    0.172E-02
DAV:   5    -0.103839433851E+03    0.12795E-04   -0.57015E-05   132   0.288E-02    0.115E-02
DAV:   6    -0.103839439287E+03   -0.54368E-05   -0.14965E-05   132   0.111E-02    0.535E-03
DAV:   7    -0.103839458578E+03   -0.19291E-04   -0.15983E-06   120   0.425E-03    0.237E-03
DAV:   8    -0.103839490488E+03   -0.31910E-04   -0.44433E-06   132   0.563E-03    0.200E-03
DAV:   9    -0.103839510652E+03   -0.20164E-04   -0.14076E-06   132   0.330E-03    0.130E-03
DAV:  10    -0.103839528405E+03   -0.17753E-04   -0.13536E-06   108   0.263E-03    0.470E-04
DAV:  11    -0.103839534875E+03   -0.64702E-05   -0.18877E-07   108   0.120E-03    0.368E-04
DAV:  12    -0.103839542092E+03   -0.72163E-05   -0.28576E-07    96   0.114E-03    0.165E-04
DAV:  13    -0.103839543952E+03   -0.18600E-05   -0.42110E-08   108   0.491E-04    0.133E-04
DAV:  14    -0.103839546312E+03   -0.23602E-05   -0.35583E-08    96   0.446E-04    0.649E-05
DAV:  15    -0.103839546741E+03   -0.42867E-06   -0.20371E-09   108   0.207E-04
  11 F= -.10383955E+03 E0= -.10383955E+03  d E =-.150126E-10
       N       E                     dE             d eps       ncg     rms          rms(c)
DAV:   1    -0.103839735760E+03   -0.18945E-03   -0.17258E-01    96   0.131E+00    0.179E-01
DAV:   2    -0.103840961058E+03   -0.12253E-02   -0.12524E-02   132   0.372E-01    0.119E-01
DAV:   3    -0.103840899947E+03    0.61111E-04   -0.31674E-04   132   0.736E-02    0.591E-02
DAV:   4    -0.103840904632E+03   -0.46854E-05   -0.18032E-04   132   0.496E-02    0.118E-02
DAV:   5    -0.103840899382E+03    0.52508E-05   -0.30260E-05   132   0.200E-02    0.827E-03
DAV:   6    -0.103840901874E+03   -0.24920E-05   -0.59594E-06   132   0.701E-03    0.439E-03
DAV:   7    -0.103840912121E+03   -0.10247E-04   -0.95118E-07   120   0.335E-03    0.180E-03
DAV:   8    -0.103840927994E+03   -0.15874E-04   -0.19008E-06   120   0.404E-03    0.132E-03
DAV:   9    -0.103840941003E+03   -0.13009E-04   -0.10721E-06   108   0.277E-03    0.842E-04
DAV:  10    -0.103840949220E+03   -0.82165E-05   -0.51255E-07   108   0.173E-03    0.335E-04
DAV:  11    -0.103840953142E+03   -0.39219E-05   -0.17178E-07    84   0.931E-04    0.223E-04
DAV:  12    -0.103840957181E+03   -0.40395E-05   -0.16461E-07   108   0.839E-04    0.129E-04
DAV:  13    -0.103840958346E+03   -0.11650E-05   -0.30625E-08   108   0.408E-04    0.109E-04
DAV:  14    -0.103840959674E+03   -0.13277E-05   -0.23409E-08    96   0.347E-04    0.444E-05
DAV:  15    -0.103840960045E+03   -0.37158E-06   -0.80176E-10   108   0.191E-04
  12 F= -.10384096E+03 E0= -.10384096E+03  d E =-.141742E-10
       N       E                     dE             d eps       ncg     rms          rms(c)
DAV:   1    -0.103839407627E+03    0.15520E-02   -0.32778E-01    96   0.158E+00    0.220E-01
DAV:   2    -0.103841209958E+03   -0.18023E-02   -0.18534E-02   132   0.427E-01    0.128E-01
DAV:   3    -0.103841191090E+03    0.18868E-04   -0.49757E-04   132   0.839E-02    0.701E-02
DAV:   4    -0.103841199494E+03   -0.84039E-05   -0.15740E-04   132   0.519E-02    0.133E-02
DAV:   5    -0.103841192862E+03    0.66311E-05   -0.42540E-05   132   0.248E-02    0.989E-03
DAV:   6    -0.103841192888E+03   -0.25663E-07   -0.68188E-06   132   0.857E-03
  13 F= -.10384119E+03 E0= -.10384119E+03  d E =-.222041E-10
       N       E                     dE             d eps       ncg     rms          rms(c)
DAV:   1    -0.103838490671E+03    0.27022E-02   -0.16756E-01    96   0.129E+00    0.175E-01
DAV:   2    -0.103839840969E+03   -0.13503E-02   -0.13839E-02   132   0.408E-01    0.113E-01
DAV:   3    -0.103839799637E+03    0.41332E-04   -0.35113E-04   144   0.768E-02    0.663E-02
DAV:   4    -0.103839820732E+03   -0.21095E-04   -0.17500E-04   132   0.546E-02    0.129E-02
DAV:   5    -0.103839820789E+03   -0.56884E-07   -0.52608E-05   144   0.267E-02    0.101E-02
DAV:   6    -0.103839819893E+03    0.89668E-06   -0.50135E-06   132   0.760E-03
  14 F= -.10383982E+03 E0= -.10383982E+03  d E =-.142692E-10
       N       E                     dE             d eps       ncg     rms          rms(c)
DAV:   1    -0.103837397086E+03    0.24237E-02   -0.34613E-01    96   0.179E+00    0.260E-01
DAV:   2    -0.103839916018E+03   -0.25189E-02   -0.25375E-02   132   0.565E-01    0.174E-01
DAV:   3    -0.103839820231E+03    0.95787E-04   -0.57743E-04   132   0.102E-01    0.953E-02
DAV:   4    -0.103839829872E+03   -0.96406E-05   -0.39231E-04   120   0.770E-02    0.168E-02
DAV:   5    -0.103839817108E+03    0.12764E-04   -0.86330E-05   132   0.343E-02    0.126E-02
DAV:   6    -0.103839815782E+03    0.13253E-05   -0.12843E-05   120   0.105E-02    0.834E-03
DAV:   7    -0.103839828529E+03   -0.12746E-04   -0.18904E-06   132   0.486E-03    0.335E-03
DAV:   8    -0.103839846721E+03   -0.18192E-04   -0.25175E-06   108   0.495E-03    0.120E-03
DAV:   9    -0.103839861270E+03   -0.14549E-04   -0.15305E-06   120   0.320E-03    0.161E-03
DAV:  10    -0.103839876552E+03   -0.15282E-04   -0.12033E-06   108   0.256E-03    0.500E-04
DAV:  11    -0.103839880868E+03   -0.43156E-05   -0.17943E-07   108   0.117E-03    0.328E-04
DAV:  12    -0.103839886277E+03   -0.54086E-05   -0.22627E-07    96   0.100E-03    0.146E-04
DAV:  13    -0.103839888541E+03   -0.22647E-05   -0.91784E-08   108   0.603E-04    0.198E-04
DAV:  14    -0.103839890277E+03   -0.17353E-05   -0.39877E-08    96   0.462E-04    0.905E-05
DAV:  15    -0.103839890757E+03   -0.48042E-06   -0.49399E-09   108   0.235E-04
  15 F= -.10383989E+03 E0= -.10383989E+03  d E =-.165555E-10
       N       E                     dE             d eps       ncg     rms          rms(c)
DAV:   1    -0.103839282832E+03    0.60744E-03   -0.17687E-01    96   0.128E+00    0.198E-01
DAV:   2    -0.103840397594E+03   -0.11148E-02   -0.11530E-02   132   0.376E-01    0.124E-01
DAV:   3    -0.103840337300E+03    0.60294E-04   -0.32624E-04   144   0.769E-02    0.592E-02
DAV:   4    -0.103840344127E+03   -0.68276E-05   -0.18731E-04   120   0.499E-02    0.118E-02
DAV:   5    -0.103840337067E+03    0.70606E-05   -0.23842E-05   132   0.180E-02    0.750E-03
DAV:   6    -0.103840340617E+03   -0.35504E-05   -0.66431E-06   132   0.719E-03    0.371E-03
DAV:   7    -0.103840352469E+03   -0.11852E-04   -0.82339E-07   108   0.301E-03    0.149E-03
DAV:   8    -0.103840370857E+03   -0.18389E-04   -0.25178E-06   108   0.391E-03    0.146E-03
DAV:   9    -0.103840382055E+03   -0.11198E-04   -0.65797E-07   108   0.229E-03    0.892E-04
DAV:  10    -0.103840392895E+03   -0.10839E-04   -0.88446E-07   108   0.199E-03    0.331E-04
DAV:  11    -0.103840397228E+03   -0.43330E-05   -0.13340E-07   108   0.927E-04    0.272E-04
DAV:  12    -0.103840400153E+03   -0.29254E-05   -0.82309E-08    96   0.653E-04    0.129E-04
DAV:  13    -0.103840401556E+03   -0.14031E-05   -0.26175E-08   108   0.397E-04    0.787E-05
DAV:  14    -0.103840402622E+03   -0.10656E-05   -0.94554E-09    96   0.272E-04    0.457E-05
DAV:  15    -0.103840402963E+03   -0.34112E-06    0.22511E-09   108   0.141E-04
  16 F= -.10384040E+03 E0= -.10384040E+03  d E =-.175259E-10
       N       E                     dE             d eps       ncg     rms          rms(c)
DAV:   1    -0.103838502695E+03    0.18999E-02   -0.34431E-01    96   0.173E+00    0.263E-01
DAV:   2    -0.103840387297E+03   -0.18846E-02   -0.19615E-02   132   0.474E-01    0.149E-01
DAV:   3    -0.103840314419E+03    0.72879E-04   -0.54836E-04   132   0.934E-02    0.754E-02
DAV:   4    -0.103840322884E+03   -0.84653E-05   -0.26859E-04   132   0.610E-02    0.168E-02
DAV:   5    -0.103840312026E+03    0.10858E-04   -0.48360E-05   132   0.264E-02    0.110E-02
DAV:   6    -0.103840313351E+03   -0.13249E-05   -0.11635E-05   132   0.100E-02    0.610E-03
DAV:   7    -0.103840323443E+03   -0.10092E-04   -0.10279E-06   120   0.428E-03    0.260E-03
DAV:   8    -0.103840339119E+03   -0.15676E-04   -0.17195E-06   132   0.456E-03    0.127E-03
DAV:   9    -0.103840353351E+03   -0.14232E-04   -0.90102E-07   108   0.299E-03    0.122E-03
DAV:  10    -0.103840370847E+03   -0.17495E-04   -0.11767E-06   120   0.251E-03    0.603E-04
DAV:  11    -0.103840376464E+03   -0.56172E-05   -0.15504E-07   108   0.123E-03    0.356E-04
DAV:  12    -0.103840382838E+03   -0.63745E-05   -0.15605E-07   108   0.938E-04    0.254E-04
DAV:  13    -0.103840386235E+03   -0.33971E-05   -0.72536E-08   108   0.588E-04    0.254E-04
DAV:  14    -0.103840388587E+03   -0.23515E-05   -0.28350E-08   108   0.427E-04    0.733E-05
DAV:  15    -0.103840389511E+03   -0.92419E-06   -0.74263E-09   108   0.265E-04
  17 F= -.10384039E+03 E0= -.10384039E+03  d E =-.140601E-10
       N       E                     dE             d eps       ncg     rms          rms(c)
DAV:   1    -0.103839460556E+03    0.92803E-03   -0.17081E-01    96   0.125E+00    0.170E-01
DAV:   2    -0.103840593363E+03   -0.11328E-02   -0.11671E-02   120   0.355E-01    0.116E-01
DAV:   3    -0.103840543744E+03    0.49619E-04   -0.25771E-04   132   0.619E-02    0.626E-02
DAV:   4    -0.103840527561E+03    0.16183E-04   -0.13614E-04   120   0.420E-02    0.110E-02
DAV:   5    -0.103840524603E+03    0.29583E-05   -0.22308E-05   132   0.169E-02    0.785E-03
DAV:   6    -0.103840529354E+03   -0.47511E-05   -0.63475E-06   132   0.828E-03    0.445E-03
DAV:   7    -0.103840546021E+03   -0.16667E-04   -0.25556E-06   120   0.543E-03    0.167E-03
DAV:   8    -0.103840565573E+03   -0.19552E-04   -0.14856E-06   120   0.378E-03    0.100E-03
DAV:   9    -0.103840583836E+03   -0.18263E-04   -0.16865E-06   108   0.309E-03    0.946E-04
DAV:  10    -0.103840597867E+03   -0.14031E-04   -0.12648E-06   120   0.233E-03    0.363E-04
DAV:  11    -0.103840601477E+03   -0.36091E-05   -0.11550E-07   120   0.885E-04    0.221E-04
DAV:  12    -0.103840605642E+03   -0.41651E-05   -0.23581E-07    96   0.971E-04    0.125E-04
DAV:  13    -0.103840606665E+03   -0.10236E-05   -0.32123E-08   120   0.435E-04    0.972E-05
DAV:  14    -0.103840607501E+03   -0.83563E-06   -0.10768E-08    84   0.305E-04
  18 F= -.10384061E+03 E0= -.10384061E+03  d E =-.140825E-10
       N       E                     dE             d eps       ncg     rms          rms(c)
DAV:   1    -0.103839022637E+03    0.15840E-02   -0.33025E-01    96   0.162E+00    0.212E-01
DAV:   2    -0.103840907315E+03   -0.18847E-02   -0.19368E-02   132   0.443E-01    0.142E-01
DAV:   3    -0.103840871798E+03    0.35518E-04   -0.48304E-04   144   0.820E-02    0.805E-02
DAV:   4    -0.103840863790E+03    0.80079E-05   -0.16445E-04   132   0.514E-02    0.135E-02
DAV:   5    -0.103840854755E+03    0.90345E-05   -0.37596E-05   132   0.236E-02    0.936E-03
DAV:   6    -0.103840855793E+03   -0.10378E-05   -0.71935E-06   132   0.900E-03    0.630E-03
DAV:   7    -0.103840868523E+03   -0.12730E-04   -0.21732E-06   132   0.620E-03    0.226E-03
DAV:   8    -0.103840885082E+03   -0.16559E-04   -0.15613E-06   120   0.527E-03    0.147E-03
DAV:   9    -0.103840902171E+03   -0.17089E-04   -0.11833E-06   120   0.344E-03    0.147E-03
DAV:  10    -0.103840915850E+03   -0.13679E-04   -0.50173E-07   108   0.173E-03    0.576E-04
DAV:  11    -0.103840925653E+03   -0.98030E-05   -0.45394E-07   108   0.148E-03    0.325E-04
DAV:  12    -0.103840933385E+03   -0.77320E-05   -0.25556E-07   108   0.102E-03    0.215E-04
DAV:  13    -0.103840937220E+03   -0.38348E-05   -0.98040E-08   108   0.604E-04    0.190E-04
DAV:  14    -0.103840939846E+03   -0.26265E-05   -0.33491E-08   108   0.433E-04    0.594E-05
DAV:  15    -0.103840940848E+03   -0.10017E-05   -0.13506E-08   108   0.271E-04    0.491E-05
DAV:  16    -0.103840941490E+03   -0.64220E-06   -0.20659E-11   108   0.175E-04
  19 F= -.10384094E+03 E0= -.10384094E+03  d E =-.189930E-10
       N       E                     dE             d eps       ncg     rms          rms(c)
DAV:   1    -0.103838344667E+03    0.25962E-02   -0.16749E-01    96   0.130E+00    0.165E-01
DAV:   2    -0.103839736611E+03   -0.13919E-02   -0.14174E-02   132   0.419E-01    0.117E-01
DAV:   3    -0.103839688950E+03    0.47661E-04   -0.29584E-04   132   0.705E-02    0.722E-02
DAV:   4    -0.103839677580E+03    0.11369E-04   -0.16747E-04   132   0.532E-02    0.109E-02
DAV:   5    -0.103839674250E+03    0.33303E-05   -0.51008E-05   132   0.260E-02    0.873E-03
DAV:   6    -0.103839674593E+03   -0.34270E-06   -0.52402E-06   132   0.794E-03
  20 F= -.10383967E+03 E0= -.10383967E+03  d E =-.120618E-10
       N       E                     dE             d eps       ncg     rms          rms(c)
DAV:   1    -0.103837190920E+03    0.24833E-02   -0.34732E-01    96   0.181E+00    0.260E-01
DAV:   2    -0.103839781602E+03   -0.25907E-02   -0.26018E-02   132   0.579E-01    0.178E-01
DAV:   3    -0.103839676430E+03    0.10517E-03   -0.59173E-04   132   0.105E-01    0.951E-02
DAV:   4    -0.103839699025E+03   -0.22595E-04   -0.41730E-04   120   0.790E-02    0.168E-02
DAV:   5    -0.103839687864E+03    0.11161E-04   -0.85342E-05   132   0.343E-02    0.124E-02
DAV:   6    -0.103839688618E+03   -0.75383E-06   -0.13383E-05   132   0.105E-02    0.802E-03
DAV:   7    -0.103839703583E+03   -0.14965E-04   -0.16845E-06   120   0.445E-03    0.333E-03
DAV:   8    -0.103839724586E+03   -0.21003E-04   -0.31141E-06   132   0.533E-03    0.144E-03
DAV:   9    -0.103839739062E+03   -0.14476E-04   -0.13974E-06   120   0.311E-03    0.166E-03
DAV:  10    -0.103839755407E+03   -0.16345E-04   -0.13091E-06   108   0.258E-03    0.530E-04
DAV:  11    -0.103839759855E+03   -0.44470E-05   -0.17863E-07   108   0.116E-03    0.347E-04
DAV:  12    -0.103839765861E+03   -0.60060E-05   -0.25184E-07    96   0.105E-03    0.156E-04
DAV:  13    -0.103839768196E+03   -0.23354E-05   -0.94569E-08   108   0.605E-04    0.203E-04
DAV:  14    -0.103839770068E+03   -0.18726E-05   -0.38011E-08   108   0.464E-04    0.103E-04
DAV:  15    -0.103839770649E+03   -0.58052E-06   -0.73525E-09   108   0.256E-04
  21 F= -.10383977E+03 E0= -.10383977E+03  d E =-.159996E-10
       N       E                     dE             d eps       ncg     rms          rms(c)
DAV:   1    -0.103839243731E+03    0.52634E-03   -0.17095E-01    96   0.127E+00    0.180E-01
DAV:   2    -0.103840187722E+03   -0.94399E-03   -0.98368E-03   132   0.345E-01    0.106E-01
DAV:   3    -0.103840153874E+03    0.33848E-04   -0.25737E-04   132   0.630E-02    0.556E-02
DAV:   4    -0.103840149808E+03    0.40664E-05   -0.10939E-04   132   0.394E-02    0.109E-02
DAV:   5    -0.103840143334E+03    0.64734E-05   -0.20284E-05   132   0.173E-02    0.718E-03
DAV:   6    -0.103840143724E+03   -0.38960E-06   -0.46693E-06   132   0.698E-03
  22 F= -.10384014E+03 E0= -.10384014E+03  d E =-.159012E-10
       N       E                     dE             d eps       ncg     rms          rms(c)
DAV:   1    -0.103837916206E+03    0.22271E-02   -0.34322E-01    96   0.176E+00    0.256E-01
DAV:   2    -0.103840120624E+03   -0.22044E-02   -0.22265E-02   132   0.498E-01    0.162E-01
DAV:   3    -0.103840060293E+03    0.60331E-04   -0.51021E-04   132   0.867E-02    0.928E-02
DAV:   4    -0.103840046106E+03    0.14188E-04   -0.26567E-04   132   0.605E-02    0.159E-02
DAV:   5    -0.103840038555E+03    0.75506E-05   -0.54994E-05   144   0.263E-02    0.115E-02
DAV:   6    -0.103840041961E+03   -0.34064E-05   -0.10575E-05   132   0.106E-02    0.713E-03
DAV:   7    -0.103840062861E+03   -0.20900E-04   -0.38187E-06   120   0.704E-03    0.256E-03
DAV:   8    -0.103840085695E+03   -0.22834E-04   -0.19456E-06   120   0.472E-03    0.123E-03
DAV:   9    -0.103840106596E+03   -0.20900E-04   -0.18279E-06   120   0.352E-03    0.123E-03
DAV:  10    -0.103840125942E+03   -0.19347E-04   -0.18240E-06   108   0.282E-03    0.484E-04
DAV:  11    -0.103840130217E+03   -0.42746E-05   -0.14680E-07   120   0.114E-03    0.389E-04
DAV:  12    -0.103840137333E+03   -0.71164E-05   -0.43907E-07    96   0.137E-03    0.152E-04
DAV:  13    -0.103840138916E+03   -0.15831E-05   -0.73191E-08   120   0.620E-04    0.183E-04
DAV:  14    -0.103840140348E+03   -0.14315E-05   -0.25912E-08   108   0.452E-04    0.998E-05
DAV:  15    -0.103840141046E+03   -0.69832E-06   -0.14334E-08   108   0.302E-04
  23 F= -.10384014E+03 E0= -.10384014E+03  d E =-.155171E-10
       N       E                     dE             d eps       ncg     rms          rms(c)
DAV:   1    -0.103840079669E+03    0.60679E-04   -0.16858E-01    96   0.119E+00    0.172E-01
DAV:   2    -0.103840949456E+03   -0.86979E-03   -0.90761E-03   132   0.312E-01    0.942E-02
DAV:   3    -0.103840930062E+03    0.19394E-04   -0.27835E-04   132   0.645E-02    0.483E-02
DAV:   4    -0.103840938719E+03   -0.86562E-05   -0.10147E-04   132   0.405E-02    0.109E-02
DAV:   5    -0.103840935348E+03    0.33706E-05   -0.22794E-05   132   0.181E-02    0.799E-03
DAV:   6    -0.103840935304E+03    0.43513E-07   -0.40986E-06   132   0.627E-03
  24 F= -.10384094E+03 E0= -.10384094E+03  d E =-.126165E-10
       N       E                     dE             d eps       ncg     rms          rms(c)
DAV:   1    -0.103839412106E+03    0.15232E-02   -0.32761E-01    96   0.158E+00    0.220E-01
DAV:   2    -0.103841212999E+03   -0.18009E-02   -0.18447E-02   132   0.425E-01    0.128E-01
DAV:   3    -0.103841202248E+03    0.10750E-04   -0.49946E-04   132   0.837E-02    0.698E-02
DAV:   4    -0.103841219909E+03   -0.17661E-04   -0.15712E-04   132   0.513E-02    0.133E-02
DAV:   5    -0.103841216133E+03    0.37757E-05   -0.40878E-05   132   0.243E-02    0.982E-03
DAV:   6    -0.103841217417E+03   -0.12832E-05   -0.66419E-06   132   0.841E-03    0.680E-03
DAV:   7    -0.103841224975E+03   -0.75587E-05   -0.10013E-06   108   0.444E-03    0.274E-03
DAV:   8    -0.103841235067E+03   -0.10092E-04   -0.15291E-06   132   0.477E-03    0.139E-03
DAV:   9    -0.103841246145E+03   -0.11077E-04   -0.75931E-07   108   0.315E-03    0.940E-04
DAV:  10    -0.103841256815E+03   -0.10670E-04   -0.63285E-07   108   0.224E-03    0.681E-04
DAV:  11    -0.103841261174E+03   -0.43595E-05   -0.17245E-07   120   0.128E-03    0.518E-04
DAV:  12    -0.103841266801E+03   -0.56267E-05   -0.15487E-07   108   0.956E-04    0.178E-04
DAV:  13    -0.103841269282E+03   -0.24806E-05   -0.63103E-08   108   0.562E-04    0.234E-04
DAV:  14    -0.103841271489E+03   -0.22074E-05   -0.32931E-08   108   0.432E-04    0.769E-05
DAV:  15    -0.103841272280E+03   -0.79063E-06   -0.98122E-09   108   0.267E-04
  25 F= -.10384127E+03 E0= -.10384127E+03  d E =-.208058E-10
       N       E                     dE             d eps       ncg     rms          rms(c)
DAV:   1    -0.103838713459E+03    0.25580E-02   -0.16925E-01    96   0.130E+00    0.157E-01
DAV:   2    -0.103839952581E+03   -0.12391E-02   -0.12784E-02   132   0.391E-01    0.106E-01
DAV:   3    -0.103839916489E+03    0.36092E-04   -0.28201E-04   132   0.664E-02    0.623E-02
DAV:   4    -0.103839902182E+03    0.14307E-04   -0.12689E-04   132   0.456E-02    0.961E-03
DAV:   5    -0.103839897116E+03    0.50667E-05   -0.34582E-05   132   0.217E-02    0.783E-03
DAV:   6    -0.103839896205E+03    0.91063E-06   -0.45109E-06   132   0.747E-03
  26 F= -.10383990E+03 E0= -.10383990E+03  d E =-.167832E-10
       N       E                     dE             d eps       ncg     rms          rms(c)
DAV:   1    -0.103837752092E+03    0.21450E-02   -0.34887E-01    96   0.168E+00    0.221E-01
DAV:   2    -0.103840051481E+03   -0.22994E-02   -0.23003E-02   132   0.484E-01    0.163E-01
DAV:   3    -0.103840011673E+03    0.39808E-04   -0.48137E-04   132   0.836E-02    0.881E-02
DAV:   4    -0.103839996524E+03    0.15150E-04   -0.26633E-04   132   0.558E-02    0.150E-02
DAV:   5    -0.103839987217E+03    0.93062E-05   -0.45614E-05   132   0.229E-02    0.108E-02
DAV:   6    -0.103839990044E+03   -0.28270E-05   -0.15083E-05   132   0.115E-02    0.621E-03
DAV:   7    -0.103840009606E+03   -0.19562E-04   -0.38214E-06   120   0.635E-03    0.240E-03
DAV:   8    -0.103840033376E+03   -0.23770E-04   -0.20131E-06   108   0.411E-03    0.115E-03
DAV:   9    -0.103840058968E+03   -0.25592E-04   -0.29249E-06   108   0.401E-03    0.116E-03
DAV:  10    -0.103840077336E+03   -0.18368E-04   -0.16769E-06   120   0.278E-03    0.524E-04
DAV:  11    -0.103840083735E+03   -0.63989E-05   -0.28662E-07   108   0.121E-03    0.277E-04
DAV:  12    -0.103840088396E+03   -0.46615E-05   -0.21559E-07   108   0.920E-04    0.182E-04
DAV:  13    -0.103840090180E+03   -0.17840E-05   -0.45329E-08   108   0.479E-04    0.123E-04
DAV:  14    -0.103840091447E+03   -0.12670E-05   -0.18815E-08   108   0.356E-04    0.526E-05
DAV:  15    -0.103840091975E+03   -0.52780E-06   -0.31262E-09   108   0.215E-04
  27 F= -.10384009E+03 E0= -.10384009E+03  d E =-.164308E-10
       N       E                     dE             d eps       ncg     rms          rms(c)
DAV:   1    -0.103840278926E+03   -0.18748E-03   -0.17223E-01    96   0.118E+00    0.148E-01
DAV:   2    -0.103841282141E+03   -0.10032E-02   -0.10234E-02   120   0.343E-01    0.102E-01
DAV:   3    -0.103841261451E+03    0.20690E-04   -0.24900E-04   144   0.630E-02    0.518E-02
DAV:   4    -0.103841260867E+03    0.58340E-06   -0.11086E-04   132   0.409E-02    0.100E-02
DAV:   5    -0.103841256001E+03    0.48666E-05   -0.25183E-05   132   0.186E-02    0.713E-03
DAV:   6    -0.103841256012E+03   -0.10948E-07   -0.51657E-06   132   0.687E-03
  28 F= -.10384126E+03 E0= -.10384126E+03  d E =-.213729E-10
       N       E                     dE             d eps       ncg     rms          rms(c)
DAV:   1    -0.103839738510E+03    0.15175E-02   -0.33959E-01    96   0.165E+00    0.193E-01
DAV:   2    -0.103841360768E+03   -0.16223E-02   -0.16219E-02   132   0.414E-01    0.112E-01
DAV:   3    -0.103841386444E+03   -0.25676E-04   -0.43080E-04   132   0.830E-02    0.555E-02
DAV:   4    -0.103841417236E+03   -0.30792E-04   -0.12639E-04   132   0.502E-02    0.125E-02
DAV:   5    -0.103841416957E+03    0.27932E-06   -0.36930E-05   132   0.228E-02    0.946E-03
DAV:   6    -0.103841418341E+03   -0.13839E-05   -0.52712E-06   132   0.732E-03    0.631E-03
DAV:   7    -0.103841422653E+03   -0.43120E-05   -0.70754E-07   108   0.334E-03    0.232E-03
DAV:   8    -0.103841427446E+03   -0.47929E-05   -0.81222E-07   108   0.343E-03    0.116E-03
DAV:   9    -0.103841437741E+03   -0.10295E-04   -0.82961E-07   108   0.392E-03    0.784E-04
DAV:  10    -0.103841441143E+03   -0.34025E-05   -0.42305E-07   108   0.213E-03    0.880E-04
DAV:  11    -0.103841442262E+03   -0.11191E-05   -0.45061E-08   108   0.888E-04    0.661E-04
DAV:  12    -0.103841445774E+03   -0.35112E-05   -0.89686E-08   108   0.849E-04    0.190E-04
DAV:  13    -0.103841448304E+03   -0.25306E-05   -0.84301E-08   108   0.676E-04    0.219E-04
DAV:  14    -0.103841449813E+03   -0.15088E-05   -0.22338E-08   108   0.418E-04    0.750E-05
DAV:  15    -0.103841450590E+03   -0.77674E-06   -0.11726E-08   108   0.281E-04
  29 F= -.10384145E+03 E0= -.10384145E+03  d E =-.221710E-10
       N       E                     dE             d eps       ncg     rms          rms(c)
DAV:   1    -0.103838892642E+03    0.25572E-02   -0.17142E-01    96   0.123E+00    0.147E-01
DAV:   2    -0.103839867655E+03   -0.97501E-03   -0.99411E-03   132   0.331E-01    0.947E-02
DAV:   3    -0.103839851826E+03    0.15830E-04   -0.23725E-04   144   0.633E-02    0.472E-02
DAV:   4    -0.103839859525E+03   -0.76996E-05   -0.10715E-04   132   0.424E-02    0.102E-02
DAV:   5    -0.103839855644E+03    0.38812E-05   -0.26067E-05   132   0.191E-02    0.770E-03
DAV:   6    -0.103839855517E+03    0.12679E-06   -0.49228E-06   132   0.671E-03
  30 F= -.10383986E+03 E0= -.10383986E+03  d E =-.171076E-10
       N       E                     dE             d eps       ncg     rms          rms(c)
DAV:   1    -0.103836768058E+03    0.30876E-02   -0.35334E-01    96   0.169E+00    0.250E-01
DAV:   2    -0.103839458373E+03   -0.26903E-02   -0.26954E-02   132   0.535E-01    0.177E-01
DAV:   3    -0.103839356445E+03    0.10193E-03   -0.59167E-04   132   0.979E-02    0.952E-02
DAV:   4    -0.103839358460E+03   -0.20152E-05   -0.38895E-04   120   0.722E-02    0.170E-02
DAV:   5    -0.103839347207E+03    0.11253E-04   -0.90144E-05   132   0.327E-02    0.118E-02
DAV:   6    -0.103839348444E+03   -0.12375E-05   -0.14254E-05   132   0.100E-02    0.723E-03
DAV:   7    -0.103839367674E+03   -0.19230E-04   -0.18631E-06   132   0.436E-03    0.316E-03
DAV:   8    -0.103839396526E+03   -0.28852E-04   -0.43922E-06    96   0.556E-03    0.156E-03
DAV:   9    -0.103839412627E+03   -0.16101E-04   -0.18092E-06   120   0.320E-03    0.191E-03
DAV:  10    -0.103839429502E+03   -0.16875E-04   -0.12331E-06    96   0.268E-03    0.473E-04
DAV:  11    -0.103839435550E+03   -0.60484E-05   -0.36200E-07   108   0.147E-03    0.358E-04
DAV:  12    -0.103839441203E+03   -0.56526E-05   -0.25729E-07   108   0.108E-03    0.183E-04
DAV:  13    -0.103839443171E+03   -0.19685E-05   -0.70885E-08   108   0.562E-04    0.185E-04
DAV:  14    -0.103839444920E+03   -0.17488E-05   -0.37018E-08   108   0.452E-04    0.751E-05
DAV:  15    -0.103839445466E+03   -0.54573E-06   -0.77326E-09   108   0.250E-04
  31 F= -.10383945E+03 E0= -.10383945E+03  d E =-.142440E-10
       N       E                     dE             d eps       ncg     rms          rms(c)
DAV:   1    -0.103839860357E+03   -0.41544E-03   -0.17293E-01    96   0.128E+00    0.155E-01
DAV:   2    -0.103841154876E+03   -0.12945E-02   -0.13331E-02   132   0.405E-01    0.110E-01
DAV:   3    -0.103841111800E+03    0.43076E-04   -0.29165E-04   156   0.712E-02    0.636E-02
DAV:   4    -0.103841099473E+03    0.12327E-04   -0.16361E-04   120   0.534E-02    0.105E-02
DAV:   5    -0.103841094682E+03    0.47904E-05   -0.53038E-05   132   0.268E-02    0.914E-03
DAV:   6    -0.103841093121E+03    0.15615E-05   -0.67848E-06   132   0.836E-03    0.640E-03
DAV:   7    -0.103841100147E+03   -0.70259E-05   -0.15597E-06   120   0.521E-03    0.272E-03
DAV:   8    -0.103841113914E+03   -0.13768E-04   -0.19706E-06   132   0.534E-03    0.123E-03
DAV:   9    -0.103841127291E+03   -0.13377E-04   -0.10892E-06   108   0.342E-03    0.146E-03
DAV:  10    -0.103841138551E+03   -0.11260E-04   -0.62178E-07   108   0.219E-03    0.630E-04
DAV:  11    -0.103841145031E+03   -0.64804E-05   -0.27533E-07   108   0.130E-03    0.246E-04
DAV:  12    -0.103841150112E+03   -0.50806E-05   -0.16697E-07    96   0.913E-04    0.218E-04
DAV:  13    -0.103841151829E+03   -0.17167E-05   -0.38215E-08   108   0.459E-04    0.209E-04
DAV:  14    -0.103841153626E+03   -0.17971E-05   -0.32248E-08    96   0.430E-04    0.626E-05
DAV:  15    -0.103841154142E+03   -0.51634E-06   -0.46293E-09   108   0.237E-04
  32 F= -.10384115E+03 E0= -.10384115E+03  d E =-.198820E-10
       N       E                     dE             d eps       ncg     rms          rms(c)
DAV:   1    -0.103839169633E+03    0.19840E-02   -0.34092E-01    96   0.167E+00    0.199E-01
DAV:   2    -0.103840985892E+03   -0.18163E-02   -0.18395E-02   132   0.447E-01    0.126E-01
DAV:   3    -0.103840971529E+03    0.14363E-04   -0.44418E-04   132   0.859E-02    0.632E-02
DAV:   4    -0.103840984736E+03   -0.13207E-04   -0.17586E-04   132   0.563E-02    0.134E-02
DAV:   5    -0.103840978753E+03    0.59831E-05   -0.47274E-05   132   0.258E-02    0.101E-02
DAV:   6    -0.103840979433E+03   -0.67940E-06   -0.74238E-06   132   0.831E-03
  33 F= -.10384098E+03 E0= -.10384098E+03  d E =-.219411E-10
       N       E                     dE             d eps       ncg     rms          rms(c)
DAV:   1    -0.103839217338E+03    0.17614E-02   -0.17452E-01    96   0.122E+00    0.155E-01
DAV:   2    -0.103840287152E+03   -0.10698E-02   -0.10643E-02   132   0.352E-01    0.112E-01
DAV:   3    -0.103840276958E+03    0.10194E-04   -0.22645E-04   132   0.606E-02    0.594E-02
DAV:   4    -0.103840277866E+03   -0.90754E-06   -0.12580E-04   120   0.398E-02    0.104E-02
DAV:   5    -0.103840273273E+03    0.45923E-05   -0.22239E-05   144   0.167E-02    0.720E-03
DAV:   6    -0.103840274953E+03   -0.16799E-05   -0.60772E-06   120   0.703E-03    0.426E-03
DAV:   7    -0.103840284320E+03   -0.93666E-05   -0.10106E-06   108   0.375E-03    0.175E-03
DAV:   8    -0.103840297063E+03   -0.12743E-04   -0.13306E-06   108   0.359E-03    0.790E-04
DAV:   9    -0.103840307273E+03   -0.10210E-04   -0.10553E-06   120   0.264E-03    0.102E-03
DAV:  10    -0.103840314740E+03   -0.74668E-05   -0.37523E-07   108   0.157E-03    0.508E-04
DAV:  11    -0.103840319500E+03   -0.47600E-05   -0.32279E-07   108   0.112E-03    0.188E-04
DAV:  12    -0.103840322302E+03   -0.28019E-05   -0.10937E-07   108   0.697E-04    0.147E-04
DAV:  13    -0.103840323825E+03   -0.15238E-05   -0.46214E-08   108   0.465E-04    0.131E-04
DAV:  14    -0.103840324683E+03   -0.85809E-06   -0.16143E-08   108   0.314E-04
  34 F= -.10384032E+03 E0= -.10384032E+03  d E =-.153055E-10
       N       E                     dE             d eps       ncg     rms          rms(c)
DAV:   1    -0.103838207968E+03    0.21159E-02   -0.34458E-01    96   0.175E+00    0.220E-01
DAV:   2    -0.103840305286E+03   -0.20973E-02   -0.21435E-02   132   0.490E-01    0.152E-01
DAV:   3    -0.103840241416E+03    0.63871E-04   -0.45901E-04   132   0.835E-02    0.793E-02
DAV:   4    -0.103840225594E+03    0.15822E-04   -0.22463E-04   132   0.545E-02    0.144E-02
DAV:   5    -0.103840214436E+03    0.11158E-04   -0.39603E-05   132   0.236E-02    0.932E-03
DAV:   6    -0.103840215583E+03   -0.11472E-05   -0.10629E-05   132   0.101E-02    0.552E-03
DAV:   7    -0.103840230204E+03   -0.14621E-04   -0.20562E-06   132   0.561E-03    0.230E-03
DAV:   8    -0.103840252272E+03   -0.22068E-04   -0.22614E-06   132   0.542E-03    0.151E-03
DAV:   9    -0.103840274632E+03   -0.22360E-04   -0.17230E-06   132   0.350E-03    0.130E-03
DAV:  10    -0.103840292195E+03   -0.17563E-04   -0.66096E-07   108   0.199E-03    0.485E-04
DAV:  11    -0.103840301782E+03   -0.95873E-05   -0.34744E-07   108   0.122E-03    0.342E-04
DAV:  12    -0.103840312071E+03   -0.10288E-04   -0.29298E-07    96   0.107E-03    0.175E-04
DAV:  13    -0.103840315130E+03   -0.30591E-05   -0.56627E-08   108   0.520E-04    0.136E-04
DAV:  14    -0.103840317517E+03   -0.23870E-05   -0.23644E-08   108   0.360E-04    0.642E-05
DAV:  15    -0.103840318612E+03   -0.10949E-05   -0.67790E-09   108   0.248E-04    0.464E-05
DAV:  16    -0.103840319284E+03   -0.67164E-06   -0.49836E-10   108   0.178E-04
  35 F= -.10384032E+03 E0= -.10384032E+03  d E =-.211720E-10
       N       E                     dE             d eps       ncg     rms          rms(c)
DAV:   1    -0.103838572177E+03    0.17464E-02   -0.17705E-01    96   0.118E+00    0.167E-01
DAV:   2    -0.103839945014E+03   -0.13728E-02   -0.13934E-02   132   0.385E-01    0.125E-01
DAV:   3    -0.103839878162E+03    0.66852E-04   -0.27014E-04   132   0.673E-02    0.710E-02
DAV:   4    -0.103839873217E+03    0.49453E-05   -0.21787E-04   132   0.559E-02    0.120E-02
DAV:   5    -0.103839869316E+03    0.39008E-05   -0.62003E-05   132   0.272E-02    0.922E-03
DAV:   6    -0.103839869439E+03   -0.12284E-06   -0.81247E-06   132   0.792E-03
  36 F= -.10383987E+03 E0= -.10383987E+03  d E =-.141322E-10
       N       E                     dE             d eps       ncg     rms          rms(c)
DAV:   1    -0.103836692958E+03    0.31764E-02   -0.35359E-01    96   0.169E+00    0.250E-01
DAV:   2    -0.103839386113E+03   -0.26932E-02   -0.27015E-02   132   0.535E-01    0.178E-01
DAV:   3    -0.103839282941E+03    0.10317E-03   -0.59673E-04   132   0.982E-02    0.955E-02
DAV:   4    -0.103839297570E+03   -0.14629E-04   -0.39409E-04   120   0.727E-02    0.171E-02
DAV:   5    -0.103839290345E+03    0.72252E-05   -0.91690E-05   132   0.330E-02    0.119E-02
DAV:   6    -0.103839293951E+03   -0.36066E-05   -0.14286E-05   132   0.101E-02    0.731E-03
DAV:   7    -0.103839314481E+03   -0.20530E-04   -0.19437E-06   120   0.444E-03    0.321E-03
DAV:   8    -0.103839344322E+03   -0.29841E-04   -0.47317E-06    96   0.577E-03    0.164E-03
DAV:   9    -0.103839360152E+03   -0.15830E-04   -0.18662E-06   108   0.329E-03    0.195E-03
DAV:  10    -0.103839376709E+03   -0.16557E-04   -0.13054E-06   108   0.277E-03    0.476E-04
DAV:  11    -0.103839382441E+03   -0.57327E-05   -0.36067E-07   108   0.150E-03    0.369E-04
DAV:  12    -0.103839387954E+03   -0.55128E-05   -0.25698E-07   108   0.110E-03    0.182E-04
DAV:  13    -0.103839389859E+03   -0.19050E-05   -0.72777E-08   108   0.573E-04    0.187E-04
DAV:  14    -0.103839391520E+03   -0.16608E-05   -0.33537E-08   108   0.440E-04    0.795E-05
DAV:  15    -0.103839392105E+03   -0.58538E-06   -0.89867E-09   108   0.258E-04
  37 F= -.10383939E+03 E0= -.10383939E+03  d E =-.139356E-10
       N       E                     dE             d eps       ncg     rms          rms(c)
DAV:   1    -0.103839616105E+03   -0.22459E-03   -0.17158E-01    96   0.128E+00    0.157E-01
DAV:   2    -0.103840991123E+03   -0.13750E-02   -0.13874E-02   132   0.408E-01    0.112E-01
DAV:   3    -0.103840956315E+03    0.34808E-04   -0.26980E-04   156   0.682E-02    0.660E-02
DAV:   4    -0.103840952351E+03    0.39642E-05   -0.17191E-04   120   0.526E-02    0.107E-02
DAV:   5    -0.103840948389E+03    0.39621E-05   -0.50626E-05   132   0.258E-02    0.862E-03
DAV:   6    -0.103840947697E+03    0.69161E-06   -0.60433E-06   132   0.751E-03
  38 F= -.10384095E+03 E0= -.10384095E+03  d E =-.153284E-10
       N       E                     dE             d eps       ncg     rms          rms(c)
DAV:   1    -0.103838885065E+03    0.20633E-02   -0.34165E-01    96   0.168E+00    0.204E-01
DAV:   2    -0.103840811649E+03   -0.19266E-02   -0.19295E-02   132   0.463E-01    0.133E-01
DAV:   3    -0.103840802548E+03    0.91018E-05   -0.45044E-04   132   0.862E-02    0.674E-02
DAV:   4    -0.103840828648E+03   -0.26100E-04   -0.20007E-04   132   0.580E-02    0.139E-02
DAV:   5    -0.103840823198E+03    0.54502E-05   -0.50997E-05   132   0.266E-02    0.102E-02
DAV:   6    -0.103840823675E+03   -0.47681E-06   -0.84597E-06   132   0.881E-03
  39 F= -.10384082E+03 E0= -.10384082E+03  d E =-.212302E-10
       N       E                     dE             d eps       ncg     rms          rms(c)
DAV:   1    -0.103839251414E+03    0.15718E-02   -0.16964E-01    96   0.115E+00    0.135E-01
DAV:   2    -0.103840026912E+03   -0.77550E-03   -0.77508E-03   132   0.273E-01    0.776E-02
DAV:   3    -0.103840047514E+03   -0.20601E-04   -0.21157E-04   144   0.573E-02    0.381E-02
DAV:   4    -0.103840068349E+03   -0.20836E-04   -0.58722E-05   132   0.334E-02    0.879E-03
DAV:   5    -0.103840070860E+03   -0.25108E-05   -0.15712E-05   132   0.146E-02    0.644E-03
DAV:   6    -0.103840073295E+03   -0.24349E-05   -0.24733E-06   132   0.486E-03    0.400E-03
DAV:   7    -0.103840078003E+03   -0.47078E-05   -0.36099E-07   108   0.233E-03    0.133E-03
DAV:   8    -0.103840082318E+03   -0.43156E-05   -0.41077E-07   108   0.229E-03    0.806E-04
DAV:   9    -0.103840089643E+03   -0.73243E-05   -0.43273E-07   108   0.261E-03    0.462E-04
DAV:  10    -0.103840091994E+03   -0.23513E-05   -0.20709E-07   108   0.144E-03    0.499E-04
DAV:  11    -0.103840092851E+03   -0.85657E-06   -0.18421E-08   120   0.615E-04
  40 F= -.10384009E+03 E0= -.10384009E+03  d E =-.195860E-10
       N       E                     dE             d eps       ncg     rms          rms(c)
DAV:   1    -0.103838096743E+03    0.19953E-02   -0.34868E-01    96   0.167E+00    0.221E-01
DAV:   2    -0.103840434556E+03   -0.23378E-02   -0.23602E-02   120   0.509E-01    0.159E-01
DAV:   3    -0.103840357645E+03    0.76912E-04   -0.48063E-04   132   0.878E-02    0.915E-02
DAV:   4    -0.103840347869E+03    0.97756E-05   -0.29127E-04   132   0.662E-02    0.153E-02
DAV:   5    -0.103840344185E+03    0.36846E-05   -0.78685E-05   132   0.317E-02    0.119E-02
DAV:   6    -0.103840348788E+03   -0.46030E-05   -0.12808E-05   132   0.106E-02    0.795E-03
DAV:   7    -0.103840368581E+03   -0.19794E-04   -0.27968E-06   132   0.566E-03    0.340E-03
DAV:   8    -0.103840396412E+03   -0.27831E-04   -0.30577E-06   120   0.498E-03    0.114E-03
DAV:   9    -0.103840416932E+03   -0.20520E-04   -0.21847E-06   108   0.363E-03    0.173E-03
DAV:  10    -0.103840435572E+03   -0.18640E-04   -0.15437E-06   120   0.288E-03    0.631E-04
DAV:  11    -0.103840442393E+03   -0.68204E-05   -0.34154E-07   108   0.144E-03    0.295E-04
DAV:  12    -0.103840448002E+03   -0.56097E-05   -0.25479E-07   108   0.104E-03    0.182E-04
DAV:  13    -0.103840450329E+03   -0.23265E-05   -0.78495E-08   108   0.580E-04    0.219E-04
DAV:  14    -0.103840452116E+03   -0.17874E-05   -0.40025E-08    96   0.458E-04    0.816E-05
DAV:  15    -0.103840452637E+03   -0.52053E-06   -0.47636E-09   120   0.232E-04
  41 F= -.10384045E+03 E0= -.10384045E+03  d E =-.177370E-10
       N       E                     dE             d eps       ncg     rms          rms(c)
DAV:   1    -0.103839048782E+03    0.14033E-02   -0.17122E-01    96   0.122E+00    0.151E-01
DAV:   2    -0.103840074319E+03   -0.10255E-02   -0.10558E-02   132   0.338E-01    0.106E-01
DAV:   3    -0.103840046418E+03    0.27901E-04   -0.23616E-04   132   0.588E-02    0.554E-02
DAV:   4    -0.103840034169E+03    0.12250E-04   -0.89765E-05   132   0.354E-02    0.964E-03
DAV:   5    -0.103840027569E+03    0.65998E-05   -0.16092E-05   132   0.153E-02    0.593E-03
DAV:   6    -0.103840028637E+03   -0.10680E-05   -0.47982E-06   132   0.691E-03    0.362E-03
DAV:   7    -0.103840038330E+03   -0.96935E-05   -0.12215E-06   120   0.445E-03    0.147E-03
DAV:   8    -0.103840051620E+03   -0.13290E-04   -0.13711E-06   120   0.415E-03    0.116E-03
DAV:   9    -0.103840065244E+03   -0.13624E-04   -0.89744E-07   120   0.265E-03    0.947E-04
DAV:  10    -0.103840074802E+03   -0.95586E-05   -0.38140E-07   108   0.140E-03    0.402E-04
DAV:  11    -0.103840080253E+03   -0.54505E-05   -0.15528E-07   108   0.884E-04    0.227E-04
DAV:  12    -0.103840086572E+03   -0.63192E-05   -0.17789E-07    96   0.823E-04    0.129E-04
DAV:  13    -0.103840088698E+03   -0.21258E-05   -0.40844E-08   108   0.418E-04    0.130E-04
DAV:  14    -0.103840090502E+03   -0.18046E-05   -0.16659E-08   108   0.316E-04    0.409E-05
DAV:  15    -0.103840091085E+03   -0.58283E-06   -0.24136E-09   108   0.187E-04
  42 F= -.10384009E+03 E0= -.10384009E+03  d E =-.188711E-10
       N       E                     dE             d eps       ncg     rms          rms(c)
DAV:   1    -0.103837113158E+03    0.29773E-02   -0.34916E-01    96   0.168E+00    0.235E-01
DAV:   2    -0.103839594569E+03   -0.24814E-02   -0.25254E-02   132   0.510E-01    0.169E-01
DAV:   3    -0.103839496889E+03    0.97680E-04   -0.53614E-04   144   0.907E-02    0.921E-02
DAV:   4    -0.103839472309E+03    0.24580E-04   -0.32402E-04   120   0.649E-02    0.168E-02
DAV:   5    -0.103839470094E+03    0.22151E-05   -0.71025E-05   132   0.288E-02    0.117E-02
DAV:   6    -0.103839479752E+03   -0.96588E-05   -0.18155E-05   132   0.118E-02    0.674E-03
DAV:   7    -0.103839507651E+03   -0.27899E-04   -0.42999E-06   120   0.645E-03    0.282E-03
DAV:   8    -0.103839548974E+03   -0.41323E-04   -0.46702E-06   108   0.562E-03    0.125E-03
DAV:   9    -0.103839578909E+03   -0.29935E-04   -0.35023E-06   108   0.423E-03    0.154E-03
DAV:  10    -0.103839600896E+03   -0.21987E-04   -0.19163E-06   120   0.313E-03    0.502E-04
DAV:  11    -0.103839608711E+03   -0.78155E-05   -0.44182E-07   108   0.148E-03    0.382E-04
DAV:  12    -0.103839613397E+03   -0.46860E-05   -0.18739E-07   108   0.963E-04    0.185E-04
DAV:  13    -0.103839616154E+03   -0.27563E-05   -0.91950E-08   108   0.672E-04    0.130E-04
DAV:  14    -0.103839617668E+03   -0.15146E-05   -0.27084E-08   108   0.415E-04    0.611E-05
DAV:  15    -0.103839618238E+03   -0.56938E-06   -0.34745E-09   120   0.224E-04
  43 F= -.10383962E+03 E0= -.10383962E+03  d E =-.138508E-10
       N       E                     dE             d eps       ncg     rms          rms(c)
DAV:   1    -0.103839639306E+03   -0.21637E-04   -0.17384E-01    96   0.128E+00    0.152E-01
DAV:   2    -0.103840751089E+03   -0.11118E-02   -0.12465E-02   132   0.368E-01    0.107E-01
DAV:   3    -0.103840692357E+03    0.58732E-04   -0.25047E-04   156   0.605E-02    0.646E-02
DAV:   4    -0.103840656722E+03    0.35635E-04   -0.12109E-04   132   0.439E-02    0.101E-02
DAV:   5    -0.103840649506E+03    0.72160E-05   -0.29218E-05   144   0.205E-02    0.717E-03
DAV:   6    -0.103840650214E+03   -0.70825E-06   -0.45606E-06   120   0.742E-03
  44 F= -.10384065E+03 E0= -.10384065E+03  d E =-.164126E-10
       N       E                     dE             d eps       ncg     rms          rms(c)
DAV:   1    -0.103838811131E+03    0.18384E-02   -0.40018E-01    96   0.173E+00    0.219E-01
DAV:   2    -0.103840412053E+03   -0.16009E-02   -0.19159E-02   132   0.392E-01    0.123E-01
DAV:   3    -0.103840303781E+03    0.10827E-03   -0.38160E-04   132   0.699E-02    0.630E-02
DAV:   4    -0.103840281745E+03    0.22036E-04   -0.15655E-04   132   0.451E-02    0.128E-02
DAV:   5    -0.103840271586E+03    0.10159E-04   -0.23722E-05   132   0.181E-02    0.757E-03
DAV:   6    -0.103840272287E+03   -0.70077E-06   -0.65444E-06   132   0.741E-03
  45 F= -.10384027E+03 E0= -.10384027E+03  d E =-.163558E-10
       N       E                     dE             d eps       ncg     rms          rms(c)
DAV:   1    -0.103840838822E+03   -0.56724E-03   -0.20197E-01    96   0.124E+00    0.160E-01
DAV:   2    -0.103841618874E+03   -0.78005E-03   -0.92299E-03   132   0.294E-01    0.809E-02
DAV:   3    -0.103841582934E+03    0.35940E-04   -0.18929E-04   132   0.504E-02    0.421E-02
DAV:   4    -0.103841584770E+03   -0.18361E-05   -0.71005E-05   132   0.318E-02    0.901E-03
DAV:   5    -0.103841580749E+03    0.40211E-05   -0.12461E-05   132   0.135E-02    0.549E-03
DAV:   6    -0.103841579464E+03    0.12847E-05   -0.28918E-06   132   0.563E-03    0.297E-03
DAV:   7    -0.103841582148E+03   -0.26839E-05   -0.53222E-07   108   0.277E-03    0.103E-03
DAV:   8    -0.103841585748E+03   -0.36002E-05   -0.29384E-07   108   0.189E-03    0.625E-04
DAV:   9    -0.103841591641E+03   -0.58924E-05   -0.35225E-07   108   0.163E-03    0.351E-04
DAV:  10    -0.103841596112E+03   -0.44706E-05   -0.29703E-07   108   0.125E-03    0.239E-04
DAV:  11    -0.103841597594E+03   -0.14827E-05   -0.40749E-08   108   0.626E-04    0.162E-04
DAV:  12    -0.103841599481E+03   -0.18865E-05   -0.55524E-08   108   0.534E-04    0.847E-05
DAV:  13    -0.103841600587E+03   -0.11063E-05   -0.31943E-08   108   0.369E-04    0.708E-05
DAV:  14    -0.103841601332E+03   -0.74461E-06   -0.11081E-08   108   0.259E-04
  46 F= -.10384160E+03 E0= -.10384160E+03  d E =-.253058E-10
       N       E                     dE             d eps       ncg     rms          rms(c)
DAV:   1    -0.103840248150E+03    0.13524E-02   -0.41021E-01    96   0.179E+00    0.219E-01
DAV:   2    -0.103841584252E+03   -0.13361E-02   -0.16114E-02   132   0.379E-01    0.905E-02
DAV:   3    -0.103841509983E+03    0.74268E-04   -0.40788E-04   144   0.690E-02    0.467E-02
DAV:   4    -0.103841494530E+03    0.15454E-04   -0.87867E-05   144   0.366E-02    0.147E-02
DAV:   5    -0.103841490578E+03    0.39515E-05   -0.18462E-05   132   0.174E-02    0.724E-03
DAV:   6    -0.103841491503E+03   -0.92475E-06   -0.45463E-06   132   0.758E-03
  47 F= -.10384149E+03 E0= -.10384149E+03  d E =-.203390E-10
       N       E                     dE             d eps       ncg     rms          rms(c)
DAV:   1    -0.103840642538E+03    0.84804E-03   -0.20616E-01    96   0.127E+00    0.154E-01
DAV:   2    -0.103841293147E+03   -0.65061E-03   -0.77826E-03   132   0.263E-01    0.652E-02
DAV:   3    -0.103841261875E+03    0.31273E-04   -0.19903E-04   132   0.478E-02    0.333E-02
DAV:   4    -0.103841261909E+03   -0.34712E-07   -0.50085E-05   132   0.268E-02    0.105E-02
DAV:   5    -0.103841262252E+03   -0.34251E-06   -0.92731E-06   132   0.122E-02
  48 F= -.10384126E+03 E0= -.10384126E+03  d E =-.150397E-10
       N       E                     dE             d eps       ncg     rms          rms(c)
DAV:   1    -0.103840194990E+03    0.10669E-02   -0.41074E-01    96   0.177E+00    0.218E-01
DAV:   2    -0.103841556124E+03   -0.13611E-02   -0.16384E-02   132   0.373E-01    0.977E-02
DAV:   3    -0.103841484457E+03    0.71667E-04   -0.39119E-04   144   0.677E-02    0.501E-02
DAV:   4    -0.103841468447E+03    0.16009E-04   -0.10308E-04   132   0.389E-02    0.134E-02
DAV:   5    -0.103841460969E+03    0.74785E-05   -0.19271E-05   132   0.170E-02    0.757E-03
DAV:   6    -0.103841460856E+03    0.11280E-06   -0.42932E-06   132   0.725E-03
  49 F= -.10384146E+03 E0= -.10384146E+03  d E =-.198178E-10
       N       E                     dE             d eps       ncg     rms          rms(c)
DAV:   1    -0.103839998763E+03    0.14622E-02   -0.19988E-01    96   0.131E+00    0.167E-01
DAV:   2    -0.103841123498E+03   -0.11247E-02   -0.13152E-02   132   0.317E-01    0.744E-02
DAV:   3    -0.103841080254E+03    0.43244E-04   -0.30242E-04   144   0.582E-02    0.409E-02
DAV:   4    -0.103841074095E+03    0.61591E-05   -0.76005E-05   144   0.324E-02    0.118E-02
DAV:   5    -0.103841072243E+03    0.18524E-05   -0.14560E-05   132   0.148E-02    0.648E-03
DAV:   6    -0.103841072437E+03   -0.19427E-06   -0.26374E-06   132   0.606E-03
  50 F= -.10384107E+03 E0= -.10384107E+03  d E =-.196428E-10
       N       E                     dE             d eps       ncg     rms          rms(c)
DAV:   1    -0.103839854582E+03    0.12177E-02   -0.40717E-01    96   0.180E+00    0.220E-01
DAV:   2    -0.103841345273E+03   -0.14907E-02   -0.17748E-02   132   0.411E-01    0.104E-01
DAV:   3    -0.103841265228E+03    0.80044E-04   -0.41174E-04   144   0.711E-02    0.537E-02
DAV:   4    -0.103841239570E+03    0.25659E-04   -0.11282E-04   132   0.403E-02    0.137E-02
DAV:   5    -0.103841230088E+03    0.94816E-05   -0.21311E-05   132   0.181E-02    0.738E-03
DAV:   6    -0.103841230953E+03   -0.86500E-06   -0.49114E-06   132   0.767E-03
  51 F= -.10384123E+03 E0= -.10384123E+03  d E =-.186637E-10
       N       E                     dE             d eps       ncg     rms          rms(c)
DAV:   1    -0.103840234729E+03    0.99536E-03   -0.20515E-01    96   0.127E+00    0.157E-01
DAV:   2    -0.103840887981E+03   -0.65325E-03   -0.78925E-03   132   0.271E-01    0.648E-02
DAV:   3    -0.103840856823E+03    0.31158E-04   -0.19857E-04   144   0.482E-02    0.335E-02
DAV:   4    -0.103840856486E+03    0.33773E-06   -0.44944E-05   144   0.258E-02    0.103E-02
DAV:   5    -0.103840858405E+03   -0.19195E-05   -0.90101E-06   132   0.121E-02    0.526E-03
DAV:   6    -0.103840861415E+03   -0.30100E-05   -0.22762E-06   132   0.533E-03    0.277E-03
DAV:   7    -0.103840865943E+03   -0.45276E-05   -0.33453E-07   108   0.204E-03    0.881E-04
DAV:   8    -0.103840869965E+03   -0.40222E-05   -0.24134E-07   108   0.164E-03    0.526E-04
DAV:   9    -0.103840875818E+03   -0.58528E-05   -0.38939E-07   108   0.194E-03    0.289E-04
DAV:  10    -0.103840878944E+03   -0.31265E-05   -0.25213E-07   108   0.130E-03    0.291E-04
DAV:  11    -0.103840880041E+03   -0.10969E-05   -0.26157E-08   108   0.618E-04    0.178E-04
DAV:  12    -0.103840881497E+03   -0.14554E-05   -0.33087E-08   108   0.480E-04    0.915E-05
DAV:  13    -0.103840882470E+03   -0.97288E-06   -0.21526E-08   108   0.347E-04
  52 F= -.10384088E+03 E0= -.10384088E+03  d E =-.207862E-10
       N       E                     dE             d eps       ncg     rms          rms(c)
DAV:   1    -0.103839027264E+03    0.18542E-02   -0.39982E-01    96   0.177E+00    0.217E-01
DAV:   2    -0.103840590477E+03   -0.15632E-02   -0.18965E-02   132   0.415E-01    0.119E-01
DAV:   3    -0.103840464389E+03    0.12609E-03   -0.39419E-04   144   0.718E-02    0.598E-02
DAV:   4    -0.103840422470E+03    0.41919E-04   -0.13739E-04   132   0.438E-02    0.130E-02
DAV:   5    -0.103840411047E+03    0.11423E-04   -0.23652E-05   132   0.184E-02    0.758E-03
DAV:   6    -0.103840413856E+03   -0.28088E-05   -0.62598E-06   132   0.793E-03    0.419E-03
DAV:   7    -0.103840427101E+03   -0.13245E-04   -0.16411E-06   108   0.428E-03    0.156E-03
DAV:   8    -0.103840442807E+03   -0.15706E-04   -0.83336E-07   120   0.270E-03    0.113E-03
DAV:   9    -0.103840462603E+03   -0.19796E-04   -0.10874E-06   120   0.234E-03    0.607E-04
DAV:  10    -0.103840476954E+03   -0.14352E-04   -0.78135E-07   120   0.178E-03    0.401E-04
DAV:  11    -0.103840483147E+03   -0.61933E-05   -0.10300E-07   108   0.913E-04    0.207E-04
DAV:  12    -0.103840489446E+03   -0.62988E-05   -0.20971E-07   108   0.901E-04    0.135E-04
DAV:  13    -0.103840491259E+03   -0.18131E-05   -0.17550E-08   108   0.374E-04    0.779E-05
DAV:  14    -0.103840492989E+03   -0.17299E-05   -0.18984E-08   108   0.326E-04    0.435E-05
DAV:  15    -0.103840493584E+03   -0.59471E-06   -0.28422E-10   108   0.172E-04
  53 F= -.10384049E+03 E0= -.10384049E+03  d E =-.182465E-10
       N       E                     dE             d eps       ncg     rms          rms(c)
DAV:   1    -0.103840884899E+03   -0.39191E-03   -0.20522E-01    96   0.126E+00    0.157E-01
DAV:   2    -0.103841592672E+03   -0.70777E-03   -0.85525E-03   132   0.274E-01    0.733E-02
DAV:   3    -0.103841545464E+03    0.47208E-04   -0.20210E-04   132   0.488E-02    0.380E-02
DAV:   4    -0.103841529370E+03    0.16094E-04   -0.57918E-05   144   0.288E-02    0.994E-03
DAV:   5    -0.103841525344E+03    0.40261E-05   -0.10378E-05   132   0.125E-02    0.569E-03
DAV:   6    -0.103841526749E+03   -0.14050E-05   -0.24744E-06   132   0.557E-03    0.282E-03
DAV:   7    -0.103841532049E+03   -0.53002E-05   -0.58625E-07   108   0.274E-03    0.977E-04
DAV:   8    -0.103841538015E+03   -0.59659E-05   -0.38476E-07   108   0.195E-03    0.662E-04
DAV:   9    -0.103841547096E+03   -0.90810E-05   -0.68518E-07   108   0.201E-03    0.291E-04
DAV:  10    -0.103841552047E+03   -0.49510E-05   -0.31767E-07   108   0.136E-03    0.239E-04
DAV:  11    -0.103841553830E+03   -0.17828E-05   -0.56614E-08   108   0.681E-04    0.154E-04
DAV:  12    -0.103841556006E+03   -0.21759E-05   -0.74185E-08    96   0.586E-04    0.795E-05
DAV:  13    -0.103841556938E+03   -0.93241E-06   -0.21979E-08   108   0.338E-04
  54 F= -.10384156E+03 E0= -.10384156E+03  d E =-.167553E-10
       N       E                     dE             d eps       ncg     rms          rms(c)
DAV:   1    -0.103840503896E+03    0.10521E-02   -0.41489E-01    96   0.174E+00    0.218E-01
DAV:   2    -0.103841712893E+03   -0.12090E-02   -0.14786E-02   132   0.344E-01    0.902E-02
DAV:   3    -0.103841641152E+03    0.71742E-04   -0.39363E-04   144   0.664E-02    0.458E-02
DAV:   4    -0.103841627702E+03    0.13450E-04   -0.84139E-05   132   0.359E-02    0.142E-02
DAV:   5    -0.103841624632E+03    0.30700E-05   -0.17066E-05   120   0.165E-02    0.775E-03
DAV:   6    -0.103841625710E+03   -0.10779E-05   -0.39871E-06   132   0.712E-03    0.416E-03
DAV:   7    -0.103841629632E+03   -0.39215E-05   -0.46002E-07   108   0.304E-03    0.104E-03
DAV:   8    -0.103841633469E+03   -0.38377E-05   -0.26973E-07   108   0.215E-03    0.791E-04
DAV:   9    -0.103841642521E+03   -0.90517E-05   -0.61922E-07   108   0.280E-03    0.343E-04
DAV:  10    -0.103841645425E+03   -0.29043E-05   -0.29473E-07   108   0.161E-03    0.346E-04
DAV:  11    -0.103841647264E+03   -0.18385E-05   -0.40117E-08   108   0.721E-04    0.212E-04
DAV:  12    -0.103841649772E+03   -0.25083E-05   -0.77190E-08   108   0.663E-04    0.120E-04
DAV:  13    -0.103841650875E+03   -0.11032E-05   -0.27318E-08   108   0.387E-04    0.110E-04
DAV:  14    -0.103841651664E+03   -0.78866E-06   -0.80354E-09    96   0.271E-04
  55 F= -.10384165E+03 E0= -.10384165E+03  d E =-.226599E-10
       N       E                     dE             d eps       ncg     rms          rms(c)
DAV:   1    -0.103840187626E+03    0.14632E-02   -0.20035E-01    96   0.131E+00    0.169E-01
DAV:   2    -0.103841252289E+03   -0.10647E-02   -0.12356E-02   132   0.299E-01    0.697E-02
DAV:   3    -0.103841220707E+03    0.31582E-04   -0.27853E-04   144   0.526E-02    0.383E-02
DAV:   4    -0.103841210285E+03    0.10422E-04   -0.53421E-05   132   0.259E-02    0.110E-02
DAV:   5    -0.103841207144E+03    0.31413E-05   -0.82906E-06   132   0.115E-02    0.592E-03
DAV:   6    -0.103841207445E+03   -0.30084E-06   -0.22339E-06   120   0.610E-03
  56 F= -.10384121E+03 E0= -.10384121E+03  d E =-.190302E-10
       N       E                     dE             d eps       ncg     rms          rms(c)
DAV:   1    -0.103839985627E+03    0.12215E-02   -0.40823E-01    96   0.180E+00    0.220E-01
DAV:   2    -0.103841441719E+03   -0.14561E-02   -0.17360E-02   132   0.405E-01    0.100E-01
DAV:   3    -0.103841366928E+03    0.74791E-04   -0.41370E-04   144   0.706E-02    0.517E-02
DAV:   4    -0.103841346969E+03    0.19959E-04   -0.10658E-04   144   0.394E-02    0.140E-02
DAV:   5    -0.103841338501E+03    0.84676E-05   -0.20121E-05   132   0.178E-02    0.736E-03
DAV:   6    -0.103841339248E+03   -0.74699E-06   -0.47880E-06   132   0.772E-03
  57 F= -.10384134E+03 E0= -.10384134E+03  d E =-.203405E-10
       N       E                     dE             d eps       ncg     rms          rms(c)
DAV:   1    -0.103839924773E+03    0.14137E-02   -0.19987E-01    96   0.126E+00    0.154E-01
DAV:   2    -0.103840715354E+03   -0.79058E-03   -0.94706E-03   132   0.285E-01    0.864E-02
DAV:   3    -0.103840661664E+03    0.53689E-04   -0.18425E-04   132   0.499E-02    0.438E-02
DAV:   4    -0.103840651027E+03    0.10637E-04   -0.81261E-05   132   0.329E-02    0.925E-03
DAV:   5    -0.103840644841E+03    0.61860E-05   -0.11940E-05   132   0.131E-02    0.566E-03
DAV:   6    -0.103840643628E+03    0.12133E-05   -0.32977E-06   132   0.540E-03    0.296E-03
DAV:   7    -0.103840646104E+03   -0.24762E-05   -0.64559E-07    96   0.286E-03    0.106E-03
DAV:   8    -0.103840650837E+03   -0.47324E-05   -0.42524E-07   108   0.196E-03    0.755E-04
DAV:   9    -0.103840658043E+03   -0.72068E-05   -0.41417E-07    96   0.153E-03    0.423E-04
DAV:  10    -0.103840663928E+03   -0.58849E-05   -0.32308E-07   108   0.114E-03    0.269E-04
DAV:  11    -0.103840666280E+03   -0.23516E-05   -0.44740E-08   108   0.581E-04    0.153E-04
DAV:  12    -0.103840669619E+03   -0.33390E-05   -0.10415E-07    96   0.659E-04    0.874E-05
DAV:  13    -0.103840670555E+03   -0.93577E-06   -0.13529E-08   108   0.306E-04
  58 F= -.10384067E+03 E0= -.10384067E+03  d E =-.193741E-10
       N       E                     dE             d eps       ncg     rms          rms(c)
DAV:   1    -0.103839483544E+03    0.11861E-02   -0.40408E-01    96   0.175E+00    0.223E-01
DAV:   2    -0.103841005873E+03   -0.15223E-02   -0.18512E-02   132   0.403E-01    0.116E-01
DAV:   3    -0.103840890969E+03    0.11490E-03   -0.39989E-04   144   0.709E-02    0.595E-02
DAV:   4    -0.103840847989E+03    0.42980E-04   -0.11834E-04   120   0.416E-02    0.130E-02
DAV:   5    -0.103840839022E+03    0.89676E-05   -0.22832E-05   132   0.182E-02    0.730E-03
DAV:   6    -0.103840846538E+03   -0.75161E-05   -0.56508E-06   132   0.745E-03    0.426E-03
DAV:   7    -0.103840865388E+03   -0.18850E-04   -0.19956E-06   132   0.422E-03    0.144E-03
DAV:   8    -0.103840880960E+03   -0.15573E-04   -0.10252E-06   120   0.274E-03    0.115E-03
DAV:   9    -0.103840901364E+03   -0.20403E-04   -0.16456E-06   120   0.270E-03    0.577E-04
DAV:  10    -0.103840915005E+03   -0.13642E-04   -0.12186E-06   120   0.205E-03    0.443E-04
DAV:  11    -0.103840918325E+03   -0.33199E-05   -0.71567E-08   108   0.810E-04    0.250E-04
DAV:  12    -0.103840924135E+03   -0.58099E-05   -0.30694E-07    96   0.106E-03    0.158E-04
DAV:  13    -0.103840925571E+03   -0.14357E-05   -0.40143E-08   108   0.446E-04    0.113E-04
DAV:  14    -0.103840927096E+03   -0.15250E-05   -0.26200E-08   108   0.389E-04    0.562E-05
DAV:  15    -0.103840927613E+03   -0.51669E-06   -0.56802E-09   108   0.232E-04
  59 F= -.10384093E+03 E0= -.10384093E+03  d E =-.187831E-10
       N       E                     dE             d eps       ncg     rms          rms(c)
DAV:   1    -0.103840532546E+03    0.39455E-03   -0.19998E-01    96   0.123E+00    0.153E-01
DAV:   2    -0.103841309827E+03   -0.77728E-03   -0.94363E-03   132   0.289E-01    0.843E-02
DAV:   3    -0.103841244384E+03    0.65444E-04   -0.18036E-04   132   0.489E-02    0.433E-02
DAV:   4    -0.103841221588E+03    0.22795E-04   -0.78347E-05   132   0.325E-02    0.922E-03
DAV:   5    -0.103841215485E+03    0.61031E-05   -0.12902E-05   132   0.136E-02    0.578E-03
DAV:   6    -0.103841216451E+03   -0.96573E-06   -0.33880E-06   132   0.577E-03
  60 F= -.10384122E+03 E0= -.10384122E+03  d E =-.143460E-10
       N       E                     dE             d eps       ncg     rms          rms(c)
DAV:   1    -0.103840154981E+03    0.10605E-02   -0.41060E-01    96   0.177E+00    0.219E-01
DAV:   2    -0.103841525168E+03   -0.13702E-02   -0.16414E-02   132   0.373E-01    0.983E-02
DAV:   3    -0.103841461379E+03    0.63789E-04   -0.39170E-04   144   0.679E-02    0.503E-02
DAV:   4    -0.103841458862E+03    0.25165E-05   -0.10360E-04   132   0.392E-02    0.135E-02
DAV:   5    -0.103841453799E+03    0.50637E-05   -0.19854E-05   132   0.173E-02    0.761E-03
DAV:   6    -0.103841452820E+03    0.97860E-06   -0.44327E-06   132   0.738E-03
  61 F= -.10384145E+03 E0= -.10384145E+03  d E =-.204649E-10
       N       E                     dE             d eps       ncg     rms          rms(c)
DAV:   1    -0.103843109284E+03   -0.16555E-02   -0.23907E-01    96   0.159E+00    0.161E-01
DAV:   2    -0.103843496382E+03   -0.38710E-03   -0.61985E-03   132   0.243E-01    0.806E-02
DAV:   3    -0.103843434113E+03    0.62269E-04   -0.22596E-04   132   0.514E-02    0.369E-02
DAV:   4    -0.103843433605E+03    0.50806E-06   -0.75443E-05   132   0.289E-02    0.946E-03
DAV:   5    -0.103843432827E+03    0.77810E-06   -0.79391E-06   132   0.108E-02
  62 F= -.10384343E+03 E0= -.10384343E+03  d E =-.168465E-10
       N       E                     dE             d eps       ncg     rms          rms(c)
DAV:   1    -0.103844035579E+03   -0.60197E-03   -0.54974E-01    96   0.248E+00    0.232E-01
DAV:   2    -0.103843680551E+03    0.35503E-03   -0.34370E-03   132   0.188E-01    0.122E-01
DAV:   3    -0.103843471144E+03    0.20941E-03   -0.53326E-04   132   0.682E-02    0.368E-02
DAV:   4    -0.103843473083E+03   -0.19389E-05   -0.11265E-04   132   0.326E-02    0.124E-02
DAV:   5    -0.103843473779E+03   -0.69660E-06   -0.70520E-06   132   0.102E-02
  63 F= -.10384347E+03 E0= -.10384347E+03  d E =-.137634E-10
       N       E                     dE             d eps       ncg     rms          rms(c)
DAV:   1    -0.103842669192E+03    0.80389E-03   -0.29073E-01    96   0.171E+00    0.212E-01
DAV:   2    -0.103842400217E+03    0.26897E-03   -0.22520E-03   132   0.153E-01    0.102E-01
DAV:   3    -0.103842258873E+03    0.14134E-03   -0.39497E-04   132   0.558E-02    0.358E-02
DAV:   4    -0.103842252714E+03    0.61588E-05   -0.96654E-05   132   0.280E-02    0.144E-02
DAV:   5    -0.103842250483E+03    0.22310E-05   -0.48749E-06   132   0.871E-03    0.511E-03
DAV:   6    -0.103842250802E+03   -0.31872E-06   -0.24550E-06   132   0.523E-03
  64 F= -.10384225E+03 E0= -.10384225E+03  d E =-.170344E-10
       N       E                     dE             d eps       ncg     rms          rms(c)
DAV:   1    -0.103843127971E+03   -0.87749E-03   -0.56884E-01    96   0.236E+00    0.276E-01
DAV:   2    -0.103842643732E+03    0.48424E-03   -0.40411E-03   132   0.203E-01    0.137E-01
DAV:   3    -0.103842369686E+03    0.27405E-03   -0.71868E-04   120   0.718E-02    0.459E-02
DAV:   4    -0.103842355368E+03    0.14318E-04   -0.14906E-04   132   0.347E-02    0.174E-02
DAV:   5    -0.103842354359E+03    0.10085E-05   -0.82071E-06   132   0.116E-02    0.706E-03
DAV:   6    -0.103842358169E+03   -0.38099E-05   -0.52983E-06   132   0.728E-03    0.241E-03
DAV:   7    -0.103842361891E+03   -0.37214E-05   -0.10083E-06   132   0.339E-03    0.112E-03
DAV:   8    -0.103842366852E+03   -0.49613E-05   -0.28937E-07   108   0.176E-03    0.536E-04
DAV:   9    -0.103842370088E+03   -0.32356E-05   -0.20570E-07   108   0.137E-03    0.536E-04
DAV:  10    -0.103842375575E+03   -0.54875E-05   -0.39562E-07    96   0.149E-03    0.265E-04
DAV:  11    -0.103842376955E+03   -0.13803E-05   -0.88508E-08   108   0.780E-04    0.199E-04
DAV:  12    -0.103842377888E+03   -0.93216E-06   -0.17612E-08    96   0.438E-04
  65 F= -.10384238E+03 E0= -.10384238E+03  d E =-.131325E-10
       N       E                     dE             d eps       ncg     rms          rms(c)
DAV:   1    -0.103843887926E+03   -0.15110E-02   -0.29048E-01    96   0.157E+00    0.203E-01
DAV:   2    -0.103843581120E+03    0.30681E-03   -0.21702E-03   132   0.150E-01    0.101E-01
DAV:   3    -0.103843430788E+03    0.15033E-03   -0.43907E-04   132   0.610E-02    0.325E-02
DAV:   4    -0.103843429627E+03    0.11608E-05   -0.10395E-04   132   0.296E-02    0.139E-02
DAV:   5    -0.103843428489E+03    0.11381E-05   -0.42489E-06   120   0.786E-03    0.647E-03
DAV:   6    -0.103843429184E+03   -0.69555E-06   -0.28048E-06   132   0.561E-03
  66 F= -.10384343E+03 E0= -.10384343E+03  d E =-.154490E-10
       N       E                     dE             d eps       ncg     rms          rms(c)
DAV:   1    -0.103844119933E+03   -0.69144E-03   -0.55912E-01    96   0.214E+00    0.228E-01
DAV:   2    -0.103843753107E+03    0.36683E-03   -0.37330E-03   132   0.186E-01    0.122E-01
DAV:   3    -0.103843522002E+03    0.23111E-03   -0.65005E-04   132   0.740E-02    0.349E-02
DAV:   4    -0.103843527909E+03   -0.59067E-05   -0.13876E-04   132   0.354E-02    0.141E-02
DAV:   5    -0.103843527362E+03    0.54690E-06   -0.59319E-06   132   0.839E-03
  67 F= -.10384353E+03 E0= -.10384353E+03  d E =-.164778E-10
       N       E                     dE             d eps       ncg     rms          rms(c)
DAV:   1    -0.103844159697E+03   -0.63179E-03   -0.27527E-01    96   0.167E+00    0.150E-01
DAV:   2    -0.103844089886E+03    0.69811E-04   -0.18604E-03   132   0.145E-01    0.857E-02
DAV:   3    -0.103844003153E+03    0.86733E-04   -0.19039E-04   132   0.444E-02    0.199E-02
DAV:   4    -0.103844004773E+03   -0.16200E-05   -0.38514E-05   132   0.198E-02    0.649E-03
DAV:   5    -0.103844004898E+03   -0.12505E-06   -0.13720E-06   120   0.465E-03
  68 F= -.10384400E+03 E0= -.10384400E+03  d E =-.150581E-10
       N       E                     dE             d eps       ncg     rms          rms(c)
DAV:   1    -0.103844544296E+03   -0.53952E-03   -0.54322E-01    96   0.267E+00    0.201E-01
DAV:   2    -0.103844239457E+03    0.30484E-03   -0.27271E-03   132   0.178E-01    0.113E-01
DAV:   3    -0.103844063137E+03    0.17632E-03   -0.50942E-04   132   0.734E-02    0.220E-02
DAV:   4    -0.103844072868E+03   -0.97308E-05   -0.96234E-05   120   0.325E-02    0.101E-02
DAV:   5    -0.103844072987E+03   -0.11894E-06   -0.32671E-06   132   0.671E-03
  69 F= -.10384407E+03 E0= -.10384407E+03  d E =-.155573E-10
       N       E                     dE             d eps       ncg     rms          rms(c)
DAV:   1    -0.103844176043E+03   -0.10318E-03   -0.27617E-01    96   0.187E+00    0.143E-01
DAV:   2    -0.103844023782E+03    0.15226E-03   -0.14057E-03   132   0.123E-01    0.803E-02
DAV:   3    -0.103843934869E+03    0.88914E-04   -0.24510E-04   132   0.459E-02    0.181E-02
DAV:   4    -0.103843936869E+03   -0.20001E-05   -0.43009E-05   132   0.201E-02    0.662E-03
DAV:   5    -0.103843936515E+03    0.35424E-06   -0.15734E-06   132   0.462E-03
  70 F= -.10384394E+03 E0= -.10384394E+03  d E =-.170789E-10
       N       E                     dE             d eps       ncg     rms          rms(c)
DAV:   1    -0.103844387037E+03   -0.45017E-03   -0.55037E-01    96   0.234E+00    0.207E-01
DAV:   2    -0.103844088652E+03    0.29839E-03   -0.28475E-03   120   0.171E-01    0.114E-01
DAV:   3    -0.103843899252E+03    0.18940E-03   -0.45868E-04   132   0.616E-02    0.267E-02
DAV:   4    -0.103843900742E+03   -0.14906E-05   -0.81871E-05   132   0.276E-02    0.912E-03
DAV:   5    -0.103843900716E+03    0.26377E-07   -0.40484E-06   132   0.740E-03
  71 F= -.10384390E+03 E0= -.10384390E+03  d E =-.125549E-10
       N       E                     dE             d eps       ncg     rms          rms(c)
DAV:   1    -0.103841543082E+03    0.23577E-02   -0.27946E-01    96   0.171E+00    0.165E-01
DAV:   2    -0.103841348011E+03    0.19507E-03   -0.18748E-03   144   0.142E-01    0.871E-02
DAV:   3    -0.103841229955E+03    0.11806E-03   -0.31574E-04   132   0.524E-02    0.255E-02
DAV:   4    -0.103841233334E+03   -0.33796E-05   -0.69775E-05   132   0.252E-02    0.102E-02
DAV:   5    -0.103841234963E+03   -0.16289E-05   -0.33043E-06   132   0.651E-03    0.502E-03
DAV:   6    -0.103841237648E+03   -0.26845E-05   -0.15720E-06   132   0.405E-03    0.900E-04
DAV:   7    -0.103841239193E+03   -0.15447E-05   -0.25789E-07   108   0.180E-03    0.569E-04
DAV:   8    -0.103841241706E+03   -0.25133E-05   -0.12574E-07    96   0.965E-04    0.210E-04
DAV:   9    -0.103841242938E+03   -0.12319E-05   -0.42025E-08   108   0.569E-04    0.192E-04
DAV:  10    -0.103841244629E+03   -0.16916E-05   -0.62865E-08    96   0.559E-04    0.822E-05
DAV:  11    -0.103841245546E+03   -0.91609E-06   -0.38477E-08   108   0.412E-04
  72 F= -.10384125E+03 E0= -.10384125E+03  d E =-.132302E-10
       N       E                     dE             d eps       ncg     rms          rms(c)
DAV:   1    -0.103842245351E+03   -0.10007E-02   -0.59042E-01    96   0.235E+00    0.316E-01
DAV:   2    -0.103841686244E+03    0.55911E-03   -0.55637E-03   132   0.230E-01    0.152E-01
DAV:   3    -0.103841329653E+03    0.35659E-03   -0.90645E-04   132   0.878E-02    0.535E-02
DAV:   4    -0.103841317368E+03    0.12285E-04   -0.25000E-04   120   0.454E-02    0.205E-02
DAV:   5    -0.103841314538E+03    0.28304E-05   -0.12239E-05   132   0.130E-02    0.913E-03
DAV:   6    -0.103841316036E+03   -0.14985E-05   -0.59281E-06   132   0.875E-03    0.261E-03
DAV:   7    -0.103841319074E+03   -0.30381E-05   -0.17694E-06   132   0.425E-03    0.145E-03
DAV:   8    -0.103841323013E+03   -0.39386E-05   -0.16600E-07   108   0.114E-03    0.615E-04
DAV:   9    -0.103841327606E+03   -0.45928E-05   -0.25587E-07   108   0.141E-03    0.503E-04
DAV:  10    -0.103841332526E+03   -0.49208E-05   -0.29311E-07   108   0.156E-03    0.968E-04
DAV:  11    -0.103841335279E+03   -0.27526E-05   -0.12212E-07   108   0.955E-04    0.327E-04
DAV:  12    -0.103841335976E+03   -0.69720E-06   -0.93831E-09   120   0.441E-04
  73 F= -.10384134E+03 E0= -.10384134E+03  d E =-.145747E-10
       N       E                     dE             d eps       ncg     rms          rms(c)
DAV:   1    -0.103843612083E+03   -0.22768E-02   -0.28008E-01    96   0.189E+00    0.183E-01
DAV:   2    -0.103843484528E+03    0.12755E-03   -0.28114E-03   120   0.189E-01    0.917E-02
DAV:   3    -0.103843347398E+03    0.13713E-03   -0.37394E-04   132   0.631E-02    0.333E-02
DAV:   4    -0.103843342801E+03    0.45975E-05   -0.11673E-04   132   0.342E-02    0.143E-02
DAV:   5    -0.103843344244E+03   -0.14429E-05   -0.40214E-06   132   0.826E-03    0.699E-03
DAV:   6    -0.103843348229E+03   -0.39853E-05   -0.29207E-06   132   0.673E-03    0.135E-03
DAV:   7    -0.103843351244E+03   -0.30146E-05   -0.10778E-06   120   0.360E-03    0.117E-03
DAV:   8    -0.103843353945E+03   -0.27019E-05   -0.95175E-08   108   0.100E-03    0.449E-04
DAV:   9    -0.103843358016E+03   -0.40709E-05   -0.21672E-07   108   0.115E-03    0.429E-04
[...]
 131 F= -.10384410E+03 E0= -.10384410E+03  d E =-.169486E-10
       N       E                     dE             d eps       ncg     rms          rms(c)
DAV:   1    -0.103843764857E+03    0.33392E-03   -0.26209E-01    96   0.155E+00    0.110E-01
DAV:   2    -0.103843717309E+03    0.47548E-04   -0.10942E-03   120   0.106E-01    0.636E-02
DAV:   3    -0.103843672002E+03    0.45307E-04   -0.16559E-04   132   0.395E-02    0.905E-03
DAV:   4    -0.103843674230E+03   -0.22280E-05   -0.24446E-05   132   0.160E-02    0.596E-03
DAV:   5    -0.103843674508E+03   -0.27880E-06   -0.72016E-07   108   0.310E-03
 132 F= -.10384367E+03 E0= -.10384367E+03  d E =-.155172E-10
       N       E                     dE             d eps       ncg     rms          rms(c)
DAV:   1    -0.103843854164E+03   -0.17993E-03   -0.52914E-01    96   0.196E+00    0.167E-01
DAV:   2    -0.103843758145E+03    0.96019E-04   -0.24767E-03   132   0.149E-01    0.949E-02
DAV:   3    -0.103843647582E+03    0.11056E-03   -0.37841E-04   132   0.554E-02    0.169E-02
DAV:   4    -0.103843650455E+03   -0.28727E-05   -0.56710E-05   120   0.232E-02    0.909E-03
DAV:   5    -0.103843650094E+03    0.36108E-06   -0.25894E-06   132   0.548E-03
 133 F= -.10384365E+03 E0= -.10384365E+03  d E =-.153269E-10
       N       E                     dE             d eps       ncg     rms          rms(c)
DAV:   1    -0.103843647681E+03    0.27737E-05   -0.27139E-01    96   0.190E+00    0.144E-01
DAV:   2    -0.103843584145E+03    0.63536E-04   -0.17671E-03   132   0.146E-01    0.779E-02
DAV:   3    -0.103843512858E+03    0.71288E-04   -0.17086E-04   144   0.397E-02    0.238E-02
DAV:   4    -0.103843512541E+03    0.31713E-06   -0.45649E-05   132   0.198E-02    0.647E-03
DAV:   5    -0.103843511841E+03    0.69959E-06   -0.28891E-06   132   0.620E-03
 134 F= -.10384351E+03 E0= -.10384351E+03  d E =-.166435E-10
       N       E                     dE             d eps       ncg     rms          rms(c)
DAV:   1    -0.103843863788E+03   -0.35125E-03   -0.55426E-01    96   0.253E+00    0.233E-01
DAV:   2    -0.103843495477E+03    0.36831E-03   -0.30133E-03   120   0.177E-01    0.120E-01
DAV:   3    -0.103843284993E+03    0.21048E-03   -0.48817E-04   132   0.615E-02    0.367E-02
DAV:   4    -0.103843279851E+03    0.51424E-05   -0.98835E-05   132   0.295E-02    0.122E-02
DAV:   5    -0.103843280216E+03   -0.36578E-06   -0.59708E-06   132   0.958E-03
 135 F= -.10384328E+03 E0= -.10384328E+03  d E =-.119378E-10
       N       E                     dE             d eps       ncg     rms          rms(c)
DAV:   1    -0.103842719099E+03    0.56075E-03   -0.29057E-01    96   0.183E+00    0.211E-01
DAV:   2    -0.103842445023E+03    0.27408E-03   -0.22783E-03   132   0.161E-01    0.102E-01
DAV:   3    -0.103842305708E+03    0.13931E-03   -0.41252E-04   132   0.603E-02    0.350E-02
DAV:   4    -0.103842305764E+03   -0.55569E-07   -0.10434E-04   132   0.311E-02    0.148E-02
DAV:   5    -0.103842304444E+03    0.13199E-05   -0.41552E-06   132   0.826E-03    0.639E-03
DAV:   6    -0.103842304460E+03   -0.15668E-07   -0.24872E-06   132   0.575E-03
 136 F= -.10384230E+03 E0= -.10384230E+03  d E =-.149088E-10
       N       E                     dE             d eps       ncg     rms          rms(c)
DAV:   1    -0.103843240977E+03   -0.93653E-03   -0.57437E-01   108   0.249E+00    0.274E-01
DAV:   2    -0.103842687010E+03    0.55397E-03   -0.43324E-03   132   0.222E-01    0.138E-01
DAV:   3    -0.103842386799E+03    0.30021E-03   -0.83578E-04   132   0.874E-02    0.440E-02
DAV:   4    -0.103842388027E+03   -0.12277E-05   -0.20020E-04   132   0.441E-02    0.190E-02
DAV:   5    -0.103842387560E+03    0.46696E-06   -0.79223E-06   132   0.106E-02
 137 F= -.10384239E+03 E0= -.10384239E+03  d E =-.142644E-10
       N       E                     dE             d eps       ncg     rms          rms(c)
DAV:   1    -0.103843953334E+03   -0.15653E-02   -0.28866E-01   108   0.184E+00    0.205E-01
DAV:   2    -0.103843706116E+03    0.24722E-03   -0.24327E-03   132   0.163E-01    0.101E-01
DAV:   3    -0.103843562013E+03    0.14410E-03   -0.39342E-04   132   0.613E-02    0.347E-02
DAV:   4    -0.103843562490E+03   -0.47670E-06   -0.11186E-04   132   0.330E-02    0.141E-02
DAV:   5    -0.103843561599E+03    0.89112E-06   -0.52353E-06   132   0.909E-03
 138 F= -.10384356E+03 E0= -.10384356E+03  d E =-.176906E-10
       N       E                     dE             d eps       ncg     rms          rms(c)
DAV:   1    -0.103843965545E+03   -0.40305E-03   -0.54766E-01    96   0.259E+00    0.229E-01
DAV:   2    -0.103843662132E+03    0.30341E-03   -0.34393E-03   132   0.194E-01    0.120E-01
DAV:   3    -0.103843459546E+03    0.20259E-03   -0.47081E-04   132   0.661E-02    0.356E-02
DAV:   4    -0.103843460913E+03   -0.13663E-05   -0.10171E-04   144   0.312E-02    0.120E-02
DAV:   5    -0.103843460942E+03   -0.29266E-07   -0.59179E-06   132   0.954E-03
 139 F= -.10384346E+03 E0= -.10384346E+03  d E =-.127251E-10
       N       E                     dE             d eps       ncg     rms          rms(c)
DAV:   1    -0.103843446369E+03    0.14543E-04   -0.27676E-01    96   0.190E+00    0.168E-01
DAV:   2    -0.103843333848E+03    0.11252E-03   -0.17619E-03   120   0.138E-01    0.878E-02
DAV:   3    -0.103843238413E+03    0.95435E-04   -0.26007E-04   132   0.437E-02    0.276E-02
DAV:   4    -0.103843235073E+03    0.33396E-05   -0.43754E-05   132   0.188E-02    0.104E-02
DAV:   5    -0.103843233461E+03    0.16124E-05   -0.26702E-06   132   0.693E-03    0.504E-03
DAV:   6    -0.103843233436E+03    0.24904E-07   -0.21358E-06   132   0.538E-03
 140 F= -.10384323E+03 E0= -.10384323E+03  d E =-.167305E-10
       N       E                     dE             d eps       ncg     rms          rms(c)
DAV:   1    -0.103843646554E+03   -0.41309E-03   -0.55781E-01    96   0.254E+00    0.245E-01
DAV:   2    -0.103843249418E+03    0.39714E-03   -0.32394E-03   132   0.183E-01    0.124E-01
DAV:   3    -0.103843026681E+03    0.22274E-03   -0.52613E-04   120   0.637E-02    0.403E-02
DAV:   4    -0.103843018375E+03    0.83055E-05   -0.11441E-04   132   0.315E-02    0.136E-02
DAV:   5    -0.103843018487E+03   -0.11227E-06   -0.69508E-06   132   0.106E-02
 141 F= -.10384302E+03 E0= -.10384302E+03  d E =-.119273E-10
       N       E                     dE             d eps       ncg     rms          rms(c)
DAV:   1    -0.103842327947E+03    0.69043E-03   -0.27310E-01    96   0.176E+00    0.139E-01
DAV:   2    -0.103842201325E+03    0.12662E-03   -0.15198E-03   132   0.128E-01    0.788E-02
DAV:   3    -0.103842113846E+03    0.87479E-04   -0.25907E-04   132   0.498E-02    0.168E-02
DAV:   4    -0.103842118671E+03   -0.48253E-05   -0.47107E-05   132   0.222E-02    0.812E-03
DAV:   5    -0.103842119298E+03   -0.62722E-06   -0.12568E-06   120   0.425E-03
 142 F= -.10384212E+03 E0= -.10384212E+03  d E =-.135254E-10
       N       E                     dE             d eps       ncg     rms          rms(c)
DAV:   1    -0.103842852124E+03   -0.73345E-03   -0.58099E-01   108   0.258E+00    0.289E-01
DAV:   2    -0.103842327019E+03    0.52510E-03   -0.47197E-03   132   0.228E-01    0.142E-01
DAV:   3    -0.103842013063E+03    0.31396E-03   -0.81417E-04   132   0.877E-02    0.492E-02
DAV:   4    -0.103842011098E+03    0.19653E-05   -0.23287E-04   132   0.466E-02    0.190E-02
DAV:   5    -0.103842008958E+03    0.21400E-05   -0.11432E-05   132   0.126E-02    0.875E-03
DAV:   6    -0.103842009152E+03   -0.19404E-06   -0.50113E-06   120   0.799E-03
 143 F= -.10384201E+03 E0= -.10384201E+03  d E =-.158753E-10
       N       E                     dE             d eps       ncg     rms          rms(c)
DAV:   1    -0.103844449739E+03   -0.24408E-02   -0.28206E-01    96   0.173E+00    0.168E-01
DAV:   2    -0.103844227103E+03    0.22264E-03   -0.18188E-03   132   0.149E-01    0.894E-02
DAV:   3    -0.103844111770E+03    0.11533E-03   -0.33607E-04   132   0.585E-02    0.252E-02
DAV:   4    -0.103844116747E+03   -0.49776E-05   -0.76248E-05   132   0.282E-02    0.114E-02
DAV:   5    -0.103844116958E+03   -0.21052E-06   -0.28625E-06   132   0.661E-03
 144 F= -.10384412E+03 E0= -.10384412E+03  d E =-.166196E-10
       N       E                     dE             d eps       ncg     rms          rms(c)
DAV:   1    -0.103844440246E+03   -0.32350E-03   -0.54259E-01    96   0.264E+00    0.201E-01
DAV:   2    -0.103844162415E+03    0.27783E-03   -0.27881E-03   132   0.177E-01    0.112E-01
DAV:   3    -0.103843988740E+03    0.17368E-03   -0.45807E-04   132   0.651E-02    0.230E-02
DAV:   4    -0.103843994969E+03   -0.62291E-05   -0.74766E-05   120   0.275E-02    0.908E-03
DAV:   5    -0.103843995368E+03   -0.39897E-06   -0.30951E-06   132   0.647E-03
 145 F= -.10384400E+03 E0= -.10384400E+03  d E =-.129985E-10
       N       E                     dE             d eps       ncg     rms          rms(c)
DAV:   1    -0.103843337169E+03    0.65780E-03   -0.27713E-01    96   0.201E+00    0.156E-01
DAV:   2    -0.103843201761E+03    0.13541E-03   -0.19815E-03   132   0.164E-01    0.859E-02
DAV:   3    -0.103843102375E+03    0.99387E-04   -0.28473E-04   132   0.574E-02    0.246E-02
DAV:   4    -0.103843107576E+03   -0.52014E-05   -0.77818E-05   132   0.288E-02    0.107E-02
DAV:   5    -0.103843107260E+03    0.31573E-06   -0.24839E-06   132   0.660E-03
 146 F= -.10384311E+03 E0= -.10384311E+03  d E =-.152162E-10
       N       E                     dE             d eps       ncg     rms          rms(c)
DAV:   1    -0.103843881116E+03   -0.77354E-03   -0.56150E-01    96   0.255E+00    0.238E-01
DAV:   2    -0.103843461537E+03    0.41958E-03   -0.38907E-03   132   0.215E-01    0.126E-01
DAV:   3    -0.103843213073E+03    0.24846E-03   -0.66790E-04   132   0.818E-02    0.366E-02
DAV:   4    -0.103843218353E+03   -0.52800E-05   -0.16400E-04   132   0.408E-02    0.171E-02
DAV:   5    -0.103843217637E+03    0.71568E-06   -0.57538E-06   132   0.940E-03
 147 F= -.10384322E+03 E0= -.10384322E+03  d E =-.150943E-10
       N       E                     dE             d eps       ncg     rms          rms(c)
DAV:   1    -0.103842215389E+03    0.10030E-02   -0.27254E-01    96   0.182E+00    0.142E-01
DAV:   2    -0.103842075298E+03    0.14009E-03   -0.13602E-03   120   0.122E-01    0.779E-02
DAV:   3    -0.103841986273E+03    0.89025E-04   -0.21260E-04   132   0.425E-02    0.190E-02
DAV:   4    -0.103841988547E+03   -0.22735E-05   -0.37870E-05   132   0.192E-02    0.662E-03
DAV:   5    -0.103841989762E+03   -0.12156E-05   -0.18584E-06   132   0.504E-03    0.434E-03
DAV:   6    -0.103841992086E+03   -0.23238E-05   -0.79235E-07    96   0.318E-03    0.948E-04
DAV:   7    -0.103841993694E+03   -0.16084E-05   -0.28660E-07   108   0.188E-03    0.649E-04
DAV:   8    -0.103841995962E+03   -0.22671E-05   -0.10202E-07   108   0.130E-03    0.268E-04
DAV:   9    -0.103841998251E+03   -0.22893E-05   -0.15259E-07   108   0.121E-03    0.262E-04
DAV:  10    -0.103842000107E+03   -0.18564E-05   -0.92649E-08   108   0.848E-04    0.193E-04
DAV:  11    -0.103842000811E+03   -0.70394E-06   -0.22981E-08   108   0.438E-04
 148 F= -.10384200E+03 E0= -.10384200E+03  d E =-.136990E-10
       N       E                     dE             d eps       ncg     rms          rms(c)
DAV:   1    -0.103842814285E+03   -0.81418E-03   -0.57728E-01    96   0.256E+00    0.294E-01
DAV:   2    -0.103842339109E+03    0.47518E-03   -0.43314E-03   132   0.213E-01    0.141E-01
DAV:   3    -0.103842047402E+03    0.29171E-03   -0.72205E-04   132   0.767E-02    0.511E-02
DAV:   4    -0.103842031781E+03    0.15620E-04   -0.18920E-04   132   0.400E-02    0.189E-02
DAV:   5    -0.103842028651E+03    0.31304E-05   -0.91312E-06   132   0.127E-02    0.739E-03
DAV:   6    -0.103842030264E+03   -0.16130E-05   -0.48419E-06   132   0.764E-03    0.295E-03
DAV:   7    -0.103842033209E+03   -0.29453E-05   -0.10612E-06   120   0.359E-03    0.114E-03
DAV:   8    -0.103842037356E+03   -0.41465E-05   -0.26160E-07   108   0.189E-03    0.678E-04
DAV:   9    -0.103842041012E+03   -0.36557E-05   -0.23656E-07   108   0.151E-03    0.578E-04
DAV:  10    -0.103842046853E+03   -0.58413E-05   -0.34786E-07    96   0.144E-03    0.232E-04
DAV:  11    -0.103842048310E+03   -0.14572E-05   -0.60953E-08   120   0.720E-04    0.194E-04
DAV:  12    -0.103842049439E+03   -0.11289E-05   -0.94029E-09    96   0.337E-04    0.129E-04
DAV:  13    -0.103842051674E+03   -0.22351E-05   -0.48922E-08   108   0.470E-04    0.845E-05
DAV:  14    -0.103842052217E+03   -0.54286E-06   -0.31825E-09   120   0.220E-04
 149 F= -.10384205E+03 E0= -.10384205E+03  d E =-.156209E-10
       N       E                     dE             d eps       ncg     rms          rms(c)
DAV:   1    -0.103844425429E+03   -0.23738E-02   -0.27815E-01    96   0.176E+00    0.171E-01
DAV:   2    -0.103844210640E+03    0.21479E-03   -0.17137E-03   132   0.149E-01    0.886E-02
DAV:   3    -0.103844099086E+03    0.11155E-03   -0.28330E-04   132   0.523E-02    0.266E-02
DAV:   4    -0.103844100558E+03   -0.14710E-05   -0.61380E-05   120   0.250E-02    0.106E-02
DAV:   5    -0.103844101487E+03   -0.92953E-06   -0.31479E-06   132   0.725E-03
 150 F= -.10384410E+03 E0= -.10384410E+03  d E =-.152770E-10
       N       E                     dE             d eps       ncg     rms          rms(c)
DAV:   1    -0.103844435699E+03   -0.33514E-03   -0.54250E-01    96   0.265E+00    0.201E-01
DAV:   2    -0.103844154323E+03    0.28138E-03   -0.27977E-03   132   0.178E-01    0.112E-01
DAV:   3    -0.103843979585E+03    0.17474E-03   -0.45542E-04   132   0.648E-02    0.231E-02
DAV:   4    -0.103843986542E+03   -0.69574E-05   -0.74713E-05   132   0.274E-02    0.906E-03
DAV:   5    -0.103843987832E+03   -0.12903E-05   -0.31235E-06   132   0.647E-03    0.628E-03
DAV:   6    -0.103843991381E+03   -0.35487E-05   -0.16664E-06   120   0.424E-03    0.113E-03
DAV:   7    -0.103843993546E+03   -0.21644E-05   -0.32680E-07   108   0.207E-03    0.907E-04
DAV:   8    -0.103843996705E+03   -0.31590E-05   -0.15046E-07   108   0.160E-03    0.406E-04
DAV:   9    -0.103844000245E+03   -0.35407E-05   -0.20849E-07   108   0.165E-03    0.414E-04
DAV:  10    -0.103844002531E+03   -0.22859E-05   -0.12102E-07   108   0.101E-03    0.233E-04
DAV:  11    -0.103844003666E+03   -0.11345E-05   -0.37067E-08   108   0.498E-04    0.166E-04
DAV:  12    -0.103844004330E+03   -0.66432E-06   -0.11350E-08   108   0.336E-04
 151 F= -.10384400E+03 E0= -.10384400E+03  d E =-.133115E-10
       N       E                     dE             d eps       ncg     rms          rms(c)
DAV:   1    -0.103842112693E+03    0.18910E-02   -0.28067E-01    96   0.194E+00    0.181E-01
DAV:   2    -0.103841882335E+03    0.23036E-03   -0.21673E-03   132   0.163E-01    0.905E-02
DAV:   3    -0.103841747913E+03    0.13442E-03   -0.34833E-04   132   0.597E-02    0.303E-02
DAV:   4    -0.103841751848E+03   -0.39348E-05   -0.10181E-04   120   0.312E-02    0.104E-02
DAV:   5    -0.103841752907E+03   -0.10587E-05   -0.49855E-06   132   0.827E-03    0.622E-03
DAV:   6    -0.103841754675E+03   -0.17683E-05   -0.16902E-06   132   0.449E-03    0.128E-03
DAV:   7    -0.103841755831E+03   -0.11565E-05   -0.34698E-07   108   0.216E-03    0.669E-04
DAV:   8    -0.103841757618E+03   -0.17869E-05   -0.81433E-08   108   0.108E-03    0.246E-04
DAV:   9    -0.103841758854E+03   -0.12352E-05   -0.42139E-08   108   0.699E-04    0.188E-04
DAV:  10    -0.103841760569E+03   -0.17157E-05   -0.63600E-08   108   0.651E-04    0.799E-05
DAV:  11    -0.103841761221E+03   -0.65171E-06   -0.19579E-08   108   0.403E-04
 152 F= -.10384176E+03 E0= -.10384176E+03  d E =-.140317E-10
       N       E                     dE             d eps       ncg     rms          rms(c)
DAV:   1    -0.103842613776E+03   -0.85321E-03   -0.58433E-01    96   0.253E+00    0.302E-01
DAV:   2    -0.103842043789E+03    0.56999E-03   -0.47516E-03   132   0.229E-01    0.146E-01
DAV:   3    -0.103841712745E+03    0.33104E-03   -0.87250E-04   132   0.884E-02    0.508E-02
DAV:   4    -0.103841707831E+03    0.49139E-05   -0.23261E-04   132   0.462E-02    0.198E-02
DAV:   5    -0.103841706162E+03    0.16691E-05   -0.10972E-05   132   0.124E-02    0.933E-03
DAV:   6    -0.103841707438E+03   -0.12769E-05   -0.50372E-06   132   0.837E-03    0.224E-03
DAV:   7    -0.103841710014E+03   -0.25753E-05   -0.16787E-06   132   0.425E-03    0.136E-03
DAV:   8    -0.103841713361E+03   -0.33478E-05   -0.13801E-07   108   0.106E-03    0.595E-04
DAV:   9    -0.103841716868E+03   -0.35064E-05   -0.17391E-07   108   0.121E-03    0.490E-04
DAV:  10    -0.103841720752E+03   -0.38837E-05   -0.21445E-07   108   0.140E-03    0.773E-04
DAV:  11    -0.103841723317E+03   -0.25653E-05   -0.11548E-07   108   0.889E-04    0.273E-04
DAV:  12    -0.103841723978E+03   -0.66142E-06   -0.87609E-09   108   0.411E-04
 153 F= -.10384172E+03 E0= -.10384172E+03  d E =-.145981E-10
       N       E                     dE             d eps       ncg     rms          rms(c)
DAV:   1    -0.103844259324E+03   -0.25360E-02   -0.28518E-01    96   0.175E+00    0.195E-01
DAV:   2    -0.103843991891E+03    0.26743E-03   -0.19251E-03   132   0.146E-01    0.961E-02
DAV:   3    -0.103843854417E+03    0.13747E-03   -0.34871E-04   132   0.524E-02    0.324E-02
DAV:   4    -0.103843851193E+03    0.32244E-05   -0.77332E-05   120   0.259E-02    0.119E-02
DAV:   5    -0.103843852557E+03   -0.13640E-05   -0.36788E-06   132   0.835E-03    0.542E-03
DAV:   6    -0.103843856557E+03   -0.39995E-05   -0.27363E-06   132   0.577E-03    0.157E-03
DAV:   7    -0.103843859210E+03   -0.26533E-05   -0.56345E-07   108   0.277E-03    0.855E-04
DAV:   8    -0.103843863694E+03   -0.44846E-05   -0.24027E-07   108   0.145E-03    0.436E-04
DAV:   9    -0.103843865953E+03   -0.22587E-05   -0.10417E-07   108   0.116E-03    0.387E-04
DAV:  10    -0.103843869589E+03   -0.36354E-05   -0.22020E-07   108   0.122E-03    0.297E-04
DAV:  11    -0.103843870937E+03   -0.13481E-05   -0.90507E-08   108   0.762E-04    0.140E-04
DAV:  12    -0.103843871471E+03   -0.53465E-06   -0.10684E-08   108   0.383E-04
 154 F= -.10384387E+03 E0= -.10384387E+03  d E =-.133797E-10
       N       E                     dE             d eps       ncg     rms          rms(c)
DAV:   1    -0.103844542624E+03   -0.67169E-03   -0.55016E-01    96   0.253E+00    0.205E-01
DAV:   2    -0.103844269853E+03    0.27277E-03   -0.28150E-03   132   0.176E-01    0.113E-01
DAV:   3    -0.103844080765E+03    0.18909E-03   -0.42883E-04   132   0.603E-02    0.296E-02
DAV:   4    -0.103844082176E+03   -0.14110E-05   -0.84553E-05   132   0.279E-02    0.912E-03
DAV:   5    -0.103844081449E+03    0.72685E-06   -0.39274E-06   132   0.713E-03
 155 F= -.10384408E+03 E0= -.10384408E+03  d E =-.173569E-10
       N       E                     dE             d eps       ncg     rms          rms(c)
DAV:   1    -0.103843820390E+03    0.26179E-03   -0.27321E-01    96   0.180E+00    0.146E-01
DAV:   2    -0.103843669006E+03    0.15138E-03   -0.14903E-03   132   0.128E-01    0.816E-02
DAV:   3    -0.103843584163E+03    0.84843E-04   -0.24924E-04   132   0.497E-02    0.176E-02
DAV:   4    -0.103843590559E+03   -0.63956E-05   -0.48273E-05   132   0.221E-02    0.797E-03
DAV:   5    -0.103843591379E+03   -0.82013E-06   -0.15882E-06   120   0.498E-03
 156 F= -.10384359E+03 E0= -.10384359E+03  d E =-.173171E-10
       N       E                     dE             d eps       ncg     rms          rms(c)
DAV:   1    -0.103843984635E+03   -0.39408E-03   -0.54753E-01    96   0.254E+00    0.228E-01
DAV:   2    -0.103843674278E+03    0.31036E-03   -0.33866E-03   132   0.192E-01    0.120E-01
DAV:   3    -0.103843467410E+03    0.20687E-03   -0.47429E-04   132   0.663E-02    0.349E-02
DAV:   4    -0.103843468607E+03   -0.11968E-05   -0.99438E-05   144   0.310E-02    0.120E-02
DAV:   5    -0.103843469192E+03   -0.58478E-06   -0.57019E-06   132   0.944E-03
 157 F= -.10384347E+03 E0= -.10384347E+03  d E =-.118027E-10
