       N       E                     dE             d eps       ncg     rms          rms(c)
DAV:   1     0.192448315936E+03    0.19245E+03   -0.10518E+04   116   0.546E+02
DAV:   2    -0.331498338843E+02   -0.22560E+03   -0.21079E+03   136   0.102E+02
DAV:   3    -0.106512028468E+03   -0.73362E+02   -0.73186E+02   112   0.543E+01
DAV:   4    -0.110673932095E+03   -0.41619E+01   -0.41455E+01   112   0.183E+01
DAV:   5    -0.110771052264E+03   -0.97120E-01   -0.97058E-01   128   0.303E+00    0.158E+01
DAV:   6    -0.107454216461E+03    0.33168E+01   -0.16162E+00   104   0.461E+00    0.922E+00
DAV:   7    -0.105700397832E+03    0.17538E+01   -0.42873E+00   110   0.685E+00    0.125E+00
DAV:   8    -0.105652810870E+03    0.47587E-01   -0.27029E-01   104   0.222E+00    0.641E-01
DAV:   9    -0.105617550684E+03    0.35260E-01   -0.78991E-02   128   0.823E-01    0.374E-01
DAV:  10    -0.105617974507E+03   -0.42382E-03   -0.34393E-03   112   0.229E-01    0.178E-01
DAV:  11    -0.105617489446E+03    0.48506E-03   -0.74946E-03   104   0.249E-01    0.800E-02
DAV:  12    -0.105620697244E+03   -0.32078E-02   -0.72324E-04   104   0.864E-02    0.593E-02
DAV:  13    -0.105625882302E+03   -0.51851E-02   -0.21695E-03   104   0.118E-01    0.373E-02
DAV:  14    -0.105629661738E+03   -0.37794E-02   -0.33806E-04   112   0.495E-02    0.176E-02
DAV:  15    -0.105634992406E+03   -0.53307E-02   -0.76751E-04   112   0.724E-02    0.200E-02
DAV:  16    -0.105635709147E+03   -0.71674E-03   -0.30924E-05   112   0.200E-02    0.961E-03
DAV:  17    -0.105636821532E+03   -0.11124E-02   -0.10382E-04   102   0.254E-02    0.340E-03
DAV:  18    -0.105636995506E+03   -0.17397E-03   -0.53424E-06   112   0.793E-03    0.269E-03
DAV:  19    -0.105637245926E+03   -0.25042E-03   -0.10449E-05    94   0.754E-03    0.218E-03
DAV:  20    -0.105637289411E+03   -0.43485E-04   -0.10019E-06    88   0.349E-03    0.937E-04
DAV:  21    -0.105637322800E+03   -0.33389E-04   -0.86578E-07    78   0.258E-03    0.763E-04
DAV:  22    -0.105637331387E+03   -0.85869E-05   -0.23078E-07    88   0.149E-03    0.538E-04
DAV:  23    -0.105637333908E+03   -0.25211E-05   -0.41820E-08    88   0.662E-04    0.241E-04
DAV:  24    -0.105637338291E+03   -0.43825E-05   -0.79777E-08    78   0.691E-04    0.200E-04
DAV:  25    -0.105637338841E+03   -0.55045E-06   -0.11623E-08    80   0.324E-04
   1 F= -.10563734E+03 E0= -.10563734E+03  d E =-.105637E+03
       N       E                     dE             d eps       ncg     rms          rms(c)
DAV:   1    -0.105840536913E+03   -0.20320E+00   -0.84426E+00    84   0.127E+01    0.120E+00
DAV:   2    -0.105858115604E+03   -0.17579E-01   -0.29339E-01   120   0.218E+00    0.637E-01
DAV:   3    -0.105851792278E+03    0.63233E-02   -0.15109E-02   120   0.477E-01    0.297E-01
DAV:   4    -0.105850500372E+03    0.12919E-02   -0.64418E-03   112   0.259E-01    0.656E-02
DAV:   5    -0.105850434220E+03    0.66152E-04   -0.38955E-04   112   0.830E-02    0.382E-02
DAV:   6    -0.105850539128E+03   -0.10491E-03   -0.13550E-04   112   0.444E-02    0.155E-02
DAV:   7    -0.105850727363E+03   -0.18823E-03   -0.51289E-05   102   0.260E-02    0.937E-03
DAV:   8    -0.105850809308E+03   -0.81945E-04   -0.73746E-06   112   0.911E-03    0.620E-03
DAV:   9    -0.105850953899E+03   -0.14459E-03   -0.91293E-06   104   0.736E-03    0.182E-03
DAV:  10    -0.105851029814E+03   -0.75915E-04   -0.45216E-06   104   0.545E-03    0.200E-03
DAV:  11    -0.105851114801E+03   -0.84987E-04   -0.44652E-06   104   0.579E-03    0.167E-03
DAV:  12    -0.105851132421E+03   -0.17620E-04   -0.88355E-07    88   0.326E-03    0.718E-04
DAV:  13    -0.105851155577E+03   -0.23156E-04   -0.49693E-07    88   0.206E-03    0.503E-04
DAV:  14    -0.105851168080E+03   -0.12503E-04   -0.38357E-07    88   0.145E-03    0.313E-04
DAV:  15    -0.105851175779E+03   -0.76988E-05   -0.12265E-07    88   0.884E-04    0.198E-04
DAV:  16    -0.105851178187E+03   -0.24081E-05   -0.36744E-08    88   0.486E-04    0.906E-05
DAV:  17    -0.105851180173E+03   -0.19863E-05   -0.34220E-08    78   0.479E-04    0.707E-05
DAV:  18    -0.105851180397E+03   -0.22390E-06   -0.58294E-09    80   0.223E-04
   2 F= -.10585118E+03 E0= -.10585118E+03  d E =-.213842E+00
       N       E                     dE             d eps       ncg     rms          rms(c)
DAV:   1    -0.105852672758E+03   -0.14926E-02   -0.49141E-02    84   0.977E-01    0.913E-02
DAV:   2    -0.105852755119E+03   -0.82361E-04   -0.16921E-03   120   0.165E-01    0.502E-02
DAV:   3    -0.105852710143E+03    0.44976E-04   -0.92462E-05   120   0.369E-02    0.243E-02
DAV:   4    -0.105852694895E+03    0.15248E-04   -0.36916E-05   112   0.196E-02    0.579E-03
DAV:   5    -0.105852694811E+03    0.83640E-07   -0.19732E-06    88   0.617E-03
   3 F= -.10585269E+03 E0= -.10585269E+03  d E =-.215356E+00
       N       E                     dE             d eps       ncg     rms          rms(c)
DAV:   1    -0.105929836288E+03   -0.77141E-01   -0.16750E+00    84   0.564E+00    0.527E-01
DAV:   2    -0.105936041847E+03   -0.62056E-02   -0.82977E-02   112   0.116E+00    0.283E-01
DAV:   3    -0.105935221488E+03    0.82036E-03   -0.41691E-03   120   0.271E-01    0.140E-01
DAV:   4    -0.105935335636E+03   -0.11415E-03   -0.15011E-03   112   0.143E-01    0.522E-02
DAV:   5    -0.105935327265E+03    0.83711E-05   -0.86556E-05   104   0.398E-02    0.269E-02
DAV:   6    -0.105935315077E+03    0.12188E-04   -0.47183E-05   112   0.260E-02    0.800E-03
DAV:   7    -0.105935318982E+03   -0.39058E-05   -0.13851E-05   110   0.140E-02    0.413E-03
DAV:   8    -0.105935321911E+03   -0.29281E-05   -0.68100E-07    80   0.349E-03    0.203E-03
DAV:   9    -0.105935327169E+03   -0.52582E-05   -0.59837E-07    80   0.263E-03    0.600E-04
DAV:  10    -0.105935330785E+03   -0.36160E-05   -0.22346E-07    88   0.169E-03    0.596E-04
DAV:  11    -0.105935336868E+03   -0.60836E-05   -0.53536E-07    88   0.219E-03    0.373E-04
DAV:  12    -0.105935339167E+03   -0.22991E-05   -0.18707E-07    88   0.117E-03    0.201E-04
DAV:  13    -0.105935340222E+03   -0.10549E-05   -0.34581E-08    88   0.613E-04    0.186E-04
DAV:  14    -0.105935341384E+03   -0.11617E-05   -0.48754E-08    88   0.535E-04    0.729E-05
DAV:  15    -0.105935341816E+03   -0.43175E-06   -0.11814E-08    88   0.274E-04
   4 F= -.10593534E+03 E0= -.10593534E+03  d E =-.826470E-01
       N       E                     dE             d eps       ncg     rms          rms(c)
DAV:   1    -0.105955318210E+03   -0.19977E-01   -0.13134E+00    84   0.501E+00    0.467E-01
DAV:   2    -0.105960229038E+03   -0.49108E-02   -0.66044E-02   112   0.104E+00    0.253E-01
DAV:   3    -0.105959568152E+03    0.66089E-03   -0.33940E-03   120   0.246E-01    0.125E-01
DAV:   4    -0.105959668486E+03   -0.10033E-03   -0.11994E-03   112   0.128E-01    0.479E-02
DAV:   5    -0.105959664218E+03    0.42684E-05   -0.67904E-05   104   0.352E-02    0.243E-02
DAV:   6    -0.105959654867E+03    0.93504E-05   -0.38889E-05   112   0.237E-02    0.684E-03
DAV:   7    -0.105959657428E+03   -0.25604E-05   -0.11368E-05   120   0.128E-02    0.381E-03
DAV:   8    -0.105959659515E+03   -0.20870E-05   -0.53472E-07    72   0.311E-03    0.185E-03
DAV:   9    -0.105959663179E+03   -0.36644E-05   -0.45090E-07    78   0.230E-03    0.518E-04
DAV:  10    -0.105959665766E+03   -0.25865E-05   -0.15895E-07    88   0.146E-03    0.528E-04
DAV:  11    -0.105959670311E+03   -0.45453E-05   -0.38098E-07    80   0.194E-03    0.346E-04
DAV:  12    -0.105959672431E+03   -0.21201E-05   -0.17529E-07    88   0.110E-03    0.192E-04
DAV:  13    -0.105959673209E+03   -0.77813E-06   -0.24039E-08    88   0.533E-04
   5 F= -.10595967E+03 E0= -.10595967E+03  d E =-.106978E+00
       N       E                     dE             d eps       ncg     rms          rms(c)
DAV:   1    -0.105976803309E+03   -0.17131E-01   -0.85078E-01    84   0.394E+00    0.384E-01
DAV:   2    -0.105979950793E+03   -0.31475E-02   -0.39117E-02   120   0.821E-01    0.214E-01
DAV:   3    -0.105979578470E+03    0.37232E-03   -0.15463E-03   120   0.163E-01    0.108E-01
DAV:   4    -0.105979526971E+03    0.51498E-04   -0.54708E-04   112   0.871E-02    0.274E-02
DAV:   5    -0.105979497995E+03    0.28977E-04   -0.50979E-05   112   0.299E-02    0.141E-02
DAV:   6    -0.105979510010E+03   -0.12015E-04   -0.25353E-05   112   0.180E-02    0.572E-03
DAV:   7    -0.105979545780E+03   -0.35771E-04   -0.68981E-06   112   0.101E-02    0.258E-03
DAV:   8    -0.105979571464E+03   -0.25684E-04   -0.15043E-06    88   0.440E-03    0.186E-03
DAV:   9    -0.105979610850E+03   -0.39385E-04   -0.25002E-06    86   0.379E-03    0.803E-04
DAV:  10    -0.105979636927E+03   -0.26077E-04   -0.16176E-06    96   0.292E-03    0.627E-04
DAV:  11    -0.105979652384E+03   -0.15457E-04   -0.81661E-07    88   0.218E-03    0.232E-04
DAV:  12    -0.105979660416E+03   -0.80323E-05   -0.43666E-07    88   0.155E-03    0.254E-04
DAV:  13    -0.105979662396E+03   -0.19800E-05   -0.44674E-08    88   0.690E-04    0.137E-04
DAV:  14    -0.105979664534E+03   -0.21378E-05   -0.69459E-08    78   0.636E-04    0.672E-05
DAV:  15    -0.105979665016E+03   -0.48149E-06   -0.97504E-09    88   0.301E-04
   6 F= -.10597967E+03 E0= -.10597967E+03  d E =-.199918E-01
       N       E                     dE             d eps       ncg     rms          rms(c)
DAV:   1    -0.105979737527E+03   -0.72993E-04   -0.30081E-03    84   0.235E-01    0.227E-02
DAV:   2    -0.105979747191E+03   -0.96638E-05   -0.14041E-04   120   0.492E-02    0.128E-02
DAV:   3    -0.105979744595E+03    0.25957E-05   -0.56276E-06   120   0.987E-03    0.635E-03
DAV:   4    -0.105979743556E+03    0.10391E-05   -0.17453E-06    88   0.518E-03    0.144E-03
DAV:   5    -0.105979743541E+03    0.14865E-07   -0.26211E-07    72   0.229E-03
   7 F= -.10597974E+03 E0= -.10597974E+03  d E =-.200703E-01
       N       E                     dE             d eps       ncg     rms          rms(c)
DAV:   1    -0.105985968467E+03   -0.62249E-02   -0.22492E-01    84   0.211E+00    0.166E-01
DAV:   2    -0.105986459102E+03   -0.49064E-03   -0.82301E-03   120   0.350E-01    0.914E-02
DAV:   3    -0.105986344026E+03    0.11508E-03   -0.47018E-04   128   0.844E-02    0.450E-02
DAV:   4    -0.105986334990E+03    0.90361E-05   -0.12112E-04   128   0.414E-02    0.160E-02
DAV:   5    -0.105986332278E+03    0.27117E-05   -0.94096E-06   120   0.140E-02    0.752E-03
DAV:   6    -0.105986334430E+03   -0.21518E-05   -0.50642E-06   112   0.815E-03    0.244E-03
DAV:   7    -0.105986339236E+03   -0.48057E-05   -0.65512E-07    88   0.333E-03    0.128E-03
DAV:   8    -0.105986345672E+03   -0.64363E-05   -0.36337E-07    80   0.201E-03    0.701E-04
DAV:   9    -0.105986350269E+03   -0.45971E-05   -0.16572E-07    80   0.128E-03    0.409E-04
DAV:  10    -0.105986358497E+03   -0.82276E-05   -0.52563E-07    70   0.181E-03    0.319E-04
DAV:  11    -0.105986360600E+03   -0.21039E-05   -0.10622E-07    88   0.946E-04    0.163E-04
DAV:  12    -0.105986363819E+03   -0.32184E-05   -0.83663E-08    80   0.699E-04    0.146E-04
DAV:  13    -0.105986365131E+03   -0.13118E-05   -0.36109E-08    88   0.423E-04    0.103E-04
DAV:  14    -0.105986366000E+03   -0.86898E-06   -0.12470E-08    88   0.265E-04
   8 F= -.10598637E+03 E0= -.10598637E+03  d E =-.662246E-02
       N       E                     dE             d eps       ncg     rms          rms(c)
DAV:   1    -0.105986529588E+03   -0.16446E-03   -0.78969E-03    84   0.396E-01    0.311E-02
DAV:   2    -0.105986549165E+03   -0.19576E-04   -0.28878E-04   120   0.656E-02    0.172E-02
DAV:   3    -0.105986546442E+03    0.27228E-05   -0.16524E-05   128   0.158E-02    0.848E-03
DAV:   4    -0.105986546676E+03   -0.23447E-06   -0.43073E-06   120   0.783E-03
   9 F= -.10598655E+03 E0= -.10598655E+03  d E =-.680314E-02
       N       E                     dE             d eps       ncg     rms          rms(c)
DAV:   1    -0.105988702285E+03   -0.21558E-02   -0.68878E-02    84   0.117E+00    0.945E-02
DAV:   2    -0.105988890285E+03   -0.18800E-03   -0.29184E-03   120   0.222E-01    0.541E-02
DAV:   3    -0.105988853230E+03    0.37056E-04   -0.15536E-04   128   0.535E-02    0.281E-02
DAV:   4    -0.105988850836E+03    0.23941E-05   -0.50312E-05   120   0.268E-02    0.847E-03
DAV:   5    -0.105988848362E+03    0.24735E-05   -0.36570E-06   120   0.863E-03    0.448E-03
DAV:   6    -0.105988848398E+03   -0.36332E-07   -0.96024E-07    96   0.460E-03
  10 F= -.10598885E+03 E0= -.10598885E+03  d E =-.230172E-02
       N       E                     dE             d eps       ncg     rms          rms(c)
DAV:   1    -0.105989369397E+03   -0.52104E-03   -0.51234E-02    84   0.100E+00    0.813E-02
DAV:   2    -0.105989511401E+03   -0.14200E-03   -0.21773E-03   120   0.192E-01    0.467E-02
DAV:   3    -0.105989483500E+03    0.27901E-04   -0.11636E-04   128   0.463E-02    0.243E-02
DAV:   4    -0.105989481717E+03    0.17829E-05   -0.37664E-05   120   0.232E-02    0.734E-03
DAV:   5    -0.105989480903E+03    0.81417E-06   -0.25798E-06   104   0.749E-03
  11 F= -.10598948E+03 E0= -.10598948E+03  d E =-.293423E-02
       N       E                     dE             d eps       ncg     rms          rms(c)
DAV:   1    -0.105990984438E+03   -0.15027E-02   -0.49396E-02    84   0.103E+00    0.718E-02
DAV:   2    -0.105990994375E+03   -0.99368E-05   -0.72735E-04   120   0.114E-01    0.370E-02
DAV:   3    -0.105990974574E+03    0.19800E-04   -0.79021E-05   120   0.365E-02    0.149E-02
DAV:   4    -0.105990977838E+03   -0.32634E-05   -0.27762E-05   120   0.192E-02    0.540E-03
DAV:   5    -0.105990978728E+03   -0.89069E-06   -0.16592E-06    88   0.529E-03
  12 F= -.10599098E+03 E0= -.10599098E+03  d E =-.149783E-02
       N       E                     dE             d eps       ncg     rms          rms(c)
DAV:   1    -0.105991646504E+03   -0.66867E-03   -0.51444E-02    84   0.105E+00    0.736E-02
DAV:   2    -0.105991653363E+03   -0.68596E-05   -0.76470E-04   120   0.117E-01    0.380E-02
DAV:   3    -0.105991629549E+03    0.23815E-04   -0.82446E-05   120   0.372E-02    0.155E-02
DAV:   4    -0.105991631670E+03   -0.21217E-05   -0.29247E-05   120   0.196E-02    0.546E-03
DAV:   5    -0.105991632203E+03   -0.53223E-06   -0.17352E-06    88   0.543E-03
  13 F= -.10599163E+03 E0= -.10599163E+03  d E =-.215130E-02
       N       E                     dE             d eps       ncg     rms          rms(c)
DAV:   1    -0.105991658265E+03   -0.26595E-04   -0.27190E-03    88   0.242E-01    0.170E-02
DAV:   2    -0.105991659574E+03   -0.13094E-05   -0.41757E-05   120   0.273E-02    0.870E-03
DAV:   3    -0.105991659316E+03    0.25869E-06   -0.42326E-06   120   0.848E-03
  14 F= -.10599166E+03 E0= -.10599166E+03  d E =-.217841E-02
       N       E                     dE             d eps       ncg     rms          rms(c)
DAV:   1    -0.105992425535E+03   -0.76596E-03   -0.25847E-02    84   0.729E-01    0.581E-02
DAV:   2    -0.105992461854E+03   -0.36319E-04   -0.65412E-04   120   0.104E-01    0.283E-02
DAV:   3    -0.105992452421E+03    0.94332E-05   -0.44811E-05   120   0.277E-02    0.138E-02
DAV:   4    -0.105992452887E+03   -0.46573E-06   -0.12159E-05   112   0.125E-02    0.462E-03
DAV:   5    -0.105992453039E+03   -0.15268E-06   -0.53137E-07    88   0.357E-03
  15 F= -.10599245E+03 E0= -.10599245E+03  d E =-.793724E-03
       N       E                     dE             d eps       ncg     rms          rms(c)
DAV:   1    -0.105992723258E+03   -0.27037E-03   -0.31082E-02    84   0.798E-01    0.636E-02
DAV:   2    -0.105992767305E+03   -0.44047E-04   -0.79815E-04   120   0.115E-01    0.308E-02
DAV:   3    -0.105992754513E+03    0.12792E-04   -0.54029E-05   120   0.304E-02    0.152E-02
DAV:   4    -0.105992753753E+03    0.76058E-06   -0.14745E-05   112   0.138E-02    0.509E-03
DAV:   5    -0.105992753581E+03    0.17176E-06   -0.67263E-07    88   0.406E-03
  16 F= -.10599275E+03 E0= -.10599275E+03  d E =-.109427E-02
       N       E                     dE             d eps       ncg     rms          rms(c)
DAV:   1    -0.105992990328E+03   -0.23658E-03   -0.87840E-03    84   0.405E-01    0.329E-02
DAV:   2    -0.105993020231E+03   -0.29903E-04   -0.36512E-04   120   0.759E-02    0.188E-02
DAV:   3    -0.105993018332E+03    0.18995E-05   -0.14001E-05   120   0.162E-02    0.997E-03
DAV:   4    -0.105993019782E+03   -0.14500E-05   -0.51107E-06   110   0.897E-03    0.239E-03
DAV:   5    -0.105993020470E+03   -0.68804E-06   -0.60105E-07    88   0.348E-03
  17 F= -.10599302E+03 E0= -.10599302E+03  d E =-.266889E-03
       N       E                     dE             d eps       ncg     rms          rms(c)
DAV:   1    -0.105993057230E+03   -0.37448E-04   -0.22269E-03    84   0.204E-01    0.167E-02
DAV:   2    -0.105993064980E+03   -0.77497E-05   -0.94425E-05   120   0.385E-02    0.946E-03
DAV:   3    -0.105993064446E+03    0.53416E-06   -0.33930E-06   112   0.810E-03
  18 F= -.10599306E+03 E0= -.10599306E+03  d E =-.310865E-03
       N       E                     dE             d eps       ncg     rms          rms(c)
DAV:   1    -0.105993263107E+03   -0.19813E-03   -0.71569E-03    84   0.389E-01    0.277E-02
DAV:   2    -0.105993268344E+03   -0.52373E-05   -0.16787E-04   120   0.522E-02    0.155E-02
DAV:   3    -0.105993266119E+03    0.22255E-05   -0.10989E-05   128   0.128E-02    0.744E-03
DAV:   4    -0.105993265996E+03    0.12302E-06   -0.24916E-06    96   0.614E-03
  19 F= -.10599327E+03 E0= -.10599327E+03  d E =-.201550E-03
