       N       E                     dE             d eps       ncg     rms          rms(c)
DAV:   1     0.198161131233E+03    0.19816E+03   -0.10500E+04   116   0.546E+02
DAV:   2    -0.290428078828E+02   -0.22720E+03   -0.21334E+03   136   0.102E+02
DAV:   3    -0.104091302107E+03   -0.75048E+02   -0.74874E+02   112   0.553E+01
DAV:   4    -0.108394410217E+03   -0.43031E+01   -0.42874E+01   104   0.186E+01
DAV:   5    -0.108484428886E+03   -0.90019E-01   -0.89931E-01   136   0.302E+00    0.153E+01
DAV:   6    -0.105209308380E+03    0.32751E+01   -0.16137E+00   104   0.460E+00    0.892E+00
DAV:   7    -0.103488528592E+03    0.17208E+01   -0.42357E+00   104   0.682E+00    0.123E+00
DAV:   8    -0.103439066653E+03    0.49462E-01   -0.27846E-01   104   0.224E+00    0.633E-01
DAV:   9    -0.103403144931E+03    0.35922E-01   -0.78918E-02   120   0.810E-01    0.363E-01
DAV:  10    -0.103403446573E+03   -0.30164E-03   -0.33014E-03   112   0.227E-01    0.171E-01
DAV:  11    -0.103403100754E+03    0.34582E-03   -0.70438E-03   104   0.244E-01    0.812E-02
DAV:  12    -0.103406955332E+03   -0.38546E-02   -0.83215E-04    96   0.915E-02    0.614E-02
DAV:  13    -0.103411769020E+03   -0.48137E-02   -0.19936E-03   104   0.114E-01    0.355E-02
DAV:  14    -0.103415786507E+03   -0.40175E-02   -0.36038E-04   112   0.526E-02    0.162E-02
DAV:  15    -0.103420195217E+03   -0.44087E-02   -0.51194E-04   112   0.602E-02    0.166E-02
DAV:  16    -0.103421590571E+03   -0.13954E-02   -0.89569E-05   112   0.269E-02    0.672E-03
DAV:  17    -0.103422608350E+03   -0.10178E-02   -0.85062E-05   104   0.224E-02    0.411E-03
DAV:  18    -0.103422891662E+03   -0.28331E-03   -0.87038E-06   104   0.813E-03    0.217E-03
DAV:  19    -0.103423056717E+03   -0.16505E-03   -0.65872E-06    96   0.684E-03    0.210E-03
DAV:  20    -0.103423115531E+03   -0.58814E-04   -0.12812E-06    80   0.387E-03    0.554E-04
DAV:  21    -0.103423137947E+03   -0.22415E-04   -0.66589E-07    80   0.221E-03    0.507E-04
DAV:  22    -0.103423147377E+03   -0.94306E-05   -0.17925E-07    88   0.130E-03    0.223E-04
DAV:  23    -0.103423150996E+03   -0.36189E-05   -0.10005E-07    80   0.831E-04    0.159E-04
DAV:  24    -0.103423153445E+03   -0.24487E-05   -0.36041E-08    80   0.499E-04    0.576E-05
DAV:  25    -0.103423154340E+03   -0.89522E-06   -0.14604E-08    80   0.327E-04
   1 F= -.10342315E+03 E0= -.10342315E+03  d E =-.103423E+03
       N       E                     dE             d eps       ncg     rms          rms(c)
DAV:   1    -0.103616776994E+03   -0.19362E+00   -0.91138E+00    84   0.127E+01    0.131E+00
DAV:   2    -0.103647878415E+03   -0.31101E-01   -0.40835E-01   120   0.261E+00    0.683E-01
DAV:   3    -0.103641516084E+03    0.63623E-02   -0.17765E-02   120   0.533E-01    0.326E-01
DAV:   4    -0.103640361730E+03    0.11544E-02   -0.82520E-03   120   0.312E-01    0.741E-02
DAV:   5    -0.103640197766E+03    0.16396E-03   -0.69679E-04   112   0.108E-01    0.452E-02
DAV:   6    -0.103640277834E+03   -0.80067E-04   -0.20001E-04   112   0.474E-02    0.226E-02
DAV:   7    -0.103640503900E+03   -0.22607E-03   -0.50572E-05   104   0.272E-02    0.878E-03
DAV:   8    -0.103640637593E+03   -0.13369E-03   -0.20620E-05   112   0.160E-02    0.812E-03
DAV:   9    -0.103640789520E+03   -0.15193E-03   -0.77555E-06   112   0.887E-03    0.436E-03
DAV:  10    -0.103640961240E+03   -0.17172E-03   -0.14489E-05   112   0.874E-03    0.264E-03
DAV:  11    -0.103641018909E+03   -0.57669E-04   -0.17588E-06   104   0.368E-03    0.137E-03
DAV:  12    -0.103641083498E+03   -0.64588E-04   -0.31563E-06   104   0.404E-03    0.664E-04
DAV:  13    -0.103641104117E+03   -0.20619E-04   -0.29469E-07    88   0.186E-03    0.648E-04
DAV:  14    -0.103641125476E+03   -0.21359E-04   -0.57543E-07    88   0.169E-03    0.402E-04
DAV:  15    -0.103641131004E+03   -0.55288E-05   -0.84590E-08    88   0.749E-04    0.389E-04
DAV:  16    -0.103641137122E+03   -0.61171E-05   -0.11802E-07    88   0.868E-04    0.190E-04
DAV:  17    -0.103641137911E+03   -0.78958E-06   -0.15648E-08    88   0.363E-04
   2 F= -.10364114E+03 E0= -.10364114E+03  d E =-.217984E+00
       N       E                     dE             d eps       ncg     rms          rms(c)
DAV:   1    -0.103647135446E+03   -0.59983E-02   -0.18364E-01    84   0.182E+00    0.176E-01
DAV:   2    -0.103647690745E+03   -0.55530E-03   -0.80324E-03   120   0.365E-01    0.100E-01
DAV:   3    -0.103647543535E+03    0.14721E-03   -0.38411E-04   128   0.777E-02    0.469E-02
DAV:   4    -0.103647511030E+03    0.32504E-04   -0.16011E-04   112   0.437E-02    0.124E-02
DAV:   5    -0.103647510447E+03    0.58374E-06   -0.12783E-05   112   0.147E-02    0.627E-03
DAV:   6    -0.103647520486E+03   -0.10040E-04   -0.47565E-06   112   0.726E-03    0.278E-03
DAV:   7    -0.103647536133E+03   -0.15647E-04   -0.12198E-06    80   0.400E-03    0.111E-03
DAV:   8    -0.103647544448E+03   -0.83145E-05   -0.64176E-07    88   0.265E-03    0.117E-03
DAV:   9    -0.103647553633E+03   -0.91854E-05   -0.49038E-07    88   0.191E-03    0.504E-04
DAV:  10    -0.103647561741E+03   -0.81077E-05   -0.61000E-07    88   0.173E-03    0.335E-04
DAV:  11    -0.103647564145E+03   -0.24040E-05   -0.92344E-08    96   0.759E-04    0.146E-04
DAV:  12    -0.103647566682E+03   -0.25377E-05   -0.11695E-07    88   0.788E-04    0.836E-05
DAV:  13    -0.103647567584E+03   -0.90176E-06   -0.34204E-08    88   0.443E-04
   3 F= -.10364757E+03 E0= -.10364757E+03  d E =-.224413E+00
       N       E                     dE             d eps       ncg     rms          rms(c)
DAV:   1    -0.103684260769E+03   -0.36694E-01   -0.76868E-01    86   0.372E+00    0.363E-01
DAV:   2    -0.103687698496E+03   -0.34377E-02   -0.43333E-02   120   0.803E-01    0.180E-01
DAV:   3    -0.103687405687E+03    0.29281E-03   -0.21294E-03   120   0.190E-01    0.943E-02
DAV:   4    -0.103687441915E+03   -0.36228E-04   -0.61832E-04   112   0.954E-02    0.339E-02
DAV:   5    -0.103687440141E+03    0.17745E-05   -0.55412E-05   112   0.300E-02    0.161E-02
DAV:   6    -0.103687438358E+03    0.17821E-05   -0.10461E-05   128   0.120E-02    0.779E-03
DAV:   7    -0.103687446841E+03   -0.84828E-05   -0.48554E-06    96   0.796E-03    0.193E-03
DAV:   8    -0.103687451927E+03   -0.50853E-05   -0.52346E-07    88   0.324E-03    0.127E-03
DAV:   9    -0.103687460266E+03   -0.83395E-05   -0.47623E-07    88   0.218E-03    0.559E-04
DAV:  10    -0.103687468425E+03   -0.81587E-05   -0.58225E-07    88   0.196E-03    0.479E-04
DAV:  11    -0.103687474249E+03   -0.58243E-05   -0.33351E-07    88   0.137E-03    0.201E-04
DAV:  12    -0.103687476630E+03   -0.23809E-05   -0.10723E-07    88   0.770E-04    0.144E-04
DAV:  13    -0.103687478477E+03   -0.18467E-05   -0.68634E-08    88   0.643E-04    0.797E-05
DAV:  14    -0.103687478895E+03   -0.41881E-06   -0.16316E-08    88   0.320E-04
   4 F= -.10368748E+03 E0= -.10368748E+03  d E =-.399113E-01
       N       E                     dE             d eps       ncg     rms          rms(c)
DAV:   1    -0.103692401786E+03   -0.49233E-02   -0.23092E-01    84   0.204E+00    0.196E-01
DAV:   2    -0.103693449732E+03   -0.10479E-02   -0.13218E-02   120   0.443E-01    0.996E-02
DAV:   3    -0.103693362619E+03    0.87114E-04   -0.66082E-04   120   0.106E-01    0.522E-02
DAV:   4    -0.103693376405E+03   -0.13786E-04   -0.18988E-04   112   0.527E-02    0.197E-02
DAV:   5    -0.103693374549E+03    0.18551E-05   -0.16053E-05   104   0.162E-02    0.888E-03
DAV:   6    -0.103693373292E+03    0.12572E-05   -0.32655E-06   112   0.682E-03    0.401E-03
DAV:   7    -0.103693375553E+03   -0.22609E-05   -0.14200E-06    80   0.460E-03    0.932E-04
DAV:   8    -0.103693377520E+03   -0.19669E-05   -0.29486E-07    88   0.231E-03    0.708E-04
DAV:   9    -0.103693381057E+03   -0.35364E-05   -0.19627E-07    88   0.157E-03    0.303E-04
DAV:  10    -0.103693384214E+03   -0.31578E-05   -0.21073E-07    88   0.126E-03    0.280E-04
DAV:  11    -0.103693386606E+03   -0.23921E-05   -0.12319E-07    88   0.981E-04    0.228E-04
DAV:  12    -0.103693387105E+03   -0.49894E-06   -0.20780E-08    88   0.525E-04
   5 F= -.10369339E+03 E0= -.10369339E+03  d E =-.458195E-01
       N       E                     dE             d eps       ncg     rms          rms(c)
DAV:   1    -0.103707516244E+03   -0.14130E-01   -0.41928E-01    84   0.304E+00    0.219E-01
DAV:   2    -0.103707866215E+03   -0.34997E-03   -0.11898E-02   120   0.435E-01    0.125E-01
DAV:   3    -0.103707676338E+03    0.18988E-03   -0.62614E-04   120   0.934E-02    0.623E-02
DAV:   4    -0.103707633882E+03    0.42456E-04   -0.20163E-04   112   0.475E-02    0.171E-02
DAV:   5    -0.103707627631E+03    0.62513E-05   -0.15488E-05   112   0.158E-02    0.910E-03
DAV:   6    -0.103707632383E+03   -0.47526E-05   -0.61333E-06   112   0.891E-03    0.324E-03
DAV:   7    -0.103707646620E+03   -0.14236E-04   -0.11181E-06    80   0.426E-03    0.183E-03
DAV:   8    -0.103707665940E+03   -0.19320E-04   -0.11175E-06    80   0.280E-03    0.932E-04
DAV:   9    -0.103707681014E+03   -0.15074E-04   -0.62192E-07    88   0.193E-03    0.617E-04
DAV:  10    -0.103707701410E+03   -0.20396E-04   -0.15009E-06    88   0.243E-03    0.345E-04
DAV:  11    -0.103707706187E+03   -0.47765E-05   -0.10814E-07    88   0.957E-04    0.172E-04
DAV:  12    -0.103707712740E+03   -0.65536E-05   -0.26970E-07    80   0.109E-03    0.148E-04
DAV:  13    -0.103707714414E+03   -0.16738E-05   -0.38403E-08    88   0.459E-04    0.918E-05
DAV:  14    -0.103707715719E+03   -0.13043E-05   -0.25148E-08    80   0.373E-04    0.368E-05
DAV:  15    -0.103707716220E+03   -0.50113E-06   -0.51715E-09    88   0.203E-04
   6 F= -.10370772E+03 E0= -.10370772E+03  d E =-.143291E-01
       N       E                     dE             d eps       ncg     rms          rms(c)
DAV:   1    -0.103708516018E+03   -0.80030E-03   -0.36569E-02    84   0.898E-01    0.644E-02
DAV:   2    -0.103708550967E+03   -0.34949E-04   -0.10504E-03   120   0.129E-01    0.371E-02
DAV:   3    -0.103708537012E+03    0.13955E-04   -0.54517E-05   120   0.276E-02    0.186E-02
DAV:   4    -0.103708534240E+03    0.27723E-05   -0.17690E-05   104   0.141E-02    0.510E-03
DAV:   5    -0.103708532782E+03    0.14578E-05   -0.12025E-06    88   0.466E-03    0.251E-03
DAV:   6    -0.103708532475E+03    0.30654E-06   -0.71189E-07    88   0.317E-03
   7 F= -.10370853E+03 E0= -.10370853E+03  d E =-.151454E-01
       N       E                     dE             d eps       ncg     rms          rms(c)
DAV:   1    -0.103711149356E+03   -0.26166E-02   -0.17094E-01    86   0.187E+00    0.148E-01
DAV:   2    -0.103711794115E+03   -0.64476E-03   -0.81325E-03   120   0.345E-01    0.871E-02
DAV:   3    -0.103711717426E+03    0.76690E-04   -0.33067E-04   120   0.724E-02    0.471E-02
DAV:   4    -0.103711718575E+03   -0.11490E-05   -0.15925E-04   112   0.435E-02    0.115E-02
DAV:   5    -0.103711715796E+03    0.27782E-05   -0.16662E-05   112   0.158E-02    0.680E-03
DAV:   6    -0.103711715831E+03   -0.34287E-07   -0.25886E-06   112   0.526E-03
   8 F= -.10371172E+03 E0= -.10371172E+03  d E =-.318336E-02
       N       E                     dE             d eps       ncg     rms          rms(c)
DAV:   1    -0.103711785958E+03   -0.70162E-04   -0.30033E-03    86   0.247E-01    0.197E-02
DAV:   2    -0.103711796978E+03   -0.11020E-04   -0.13696E-04   120   0.450E-02    0.115E-02
DAV:   3    -0.103711797045E+03   -0.66640E-07   -0.61796E-06   118   0.985E-03
   9 F= -.10371180E+03 E0= -.10371180E+03  d E =-.326457E-02
       N       E                     dE             d eps       ncg     rms          rms(c)
DAV:   1    -0.103712517279E+03   -0.72030E-03   -0.18622E-02    84   0.621E-01    0.440E-02
DAV:   2    -0.103712543455E+03   -0.26176E-04   -0.46876E-04   120   0.826E-02    0.225E-02
DAV:   3    -0.103712537833E+03    0.56221E-05   -0.23259E-05   128   0.194E-02    0.110E-02
DAV:   4    -0.103712538706E+03   -0.87348E-06   -0.87896E-06   120   0.107E-02
  10 F= -.10371254E+03 E0= -.10371254E+03  d E =-.741662E-03
       N       E                     dE             d eps       ncg     rms          rms(c)
DAV:   1    -0.103712929392E+03   -0.39156E-03   -0.28034E-02    84   0.762E-01    0.549E-02
DAV:   2    -0.103712968783E+03   -0.39391E-04   -0.71937E-04   120   0.102E-01    0.279E-02
DAV:   3    -0.103712958848E+03    0.99348E-05   -0.34893E-05   128   0.238E-02    0.137E-02
DAV:   4    -0.103712958486E+03    0.36205E-06   -0.13310E-05   112   0.132E-02    0.352E-03
DAV:   5    -0.103712958648E+03   -0.16180E-06   -0.99111E-07    80   0.443E-03
  11 F= -.10371296E+03 E0= -.10371296E+03  d E =-.116160E-02
       N       E                     dE             d eps       ncg     rms          rms(c)
DAV:   1    -0.103713519043E+03   -0.56056E-03   -0.14129E-02    84   0.524E-01    0.364E-02
DAV:   2    -0.103713547753E+03   -0.28710E-04   -0.41827E-04   112   0.835E-02    0.214E-02
DAV:   3    -0.103713543913E+03    0.38391E-05   -0.16320E-05   128   0.173E-02    0.109E-02
DAV:   4    -0.103713544822E+03   -0.90836E-06   -0.65775E-06   112   0.957E-03
  12 F= -.10371354E+03 E0= -.10371354E+03  d E =-.586174E-03
       N       E                     dE             d eps       ncg     rms          rms(c)
DAV:   1    -0.103714040265E+03   -0.49635E-03   -0.45375E-02    84   0.938E-01    0.654E-02
DAV:   2    -0.103714132590E+03   -0.92326E-04   -0.13545E-03   112   0.150E-01    0.386E-02
DAV:   3    -0.103714118261E+03    0.14329E-04   -0.52342E-05   128   0.310E-02    0.197E-02
DAV:   4    -0.103714118134E+03    0.12717E-06   -0.20977E-05   120   0.171E-02    0.402E-03
DAV:   5    -0.103714117916E+03    0.21806E-06   -0.24717E-06    96   0.654E-03
  13 F= -.10371412E+03 E0= -.10371412E+03  d E =-.115927E-02
       N       E                     dE             d eps       ncg     rms          rms(c)
DAV:   1    -0.103714163401E+03   -0.45267E-04   -0.89038E-03    84   0.416E-01    0.290E-02
DAV:   2    -0.103714181898E+03   -0.18497E-04   -0.26795E-04   112   0.669E-02    0.170E-02
DAV:   3    -0.103714179157E+03    0.27410E-05   -0.10170E-05   128   0.137E-02    0.869E-03
DAV:   4    -0.103714179336E+03   -0.17951E-06   -0.40296E-06   120   0.749E-03
  14 F= -.10371418E+03 E0= -.10371418E+03  d E =-.122069E-02
       N       E                     dE             d eps       ncg     rms          rms(c)
DAV:   1    -0.103714533392E+03   -0.35424E-03   -0.10230E-02    84   0.455E-01    0.313E-02
DAV:   2    -0.103714536665E+03   -0.32729E-05   -0.15967E-04   120   0.522E-02    0.166E-02
DAV:   3    -0.103714533300E+03    0.33658E-05   -0.13912E-05   128   0.153E-02    0.710E-03
DAV:   4    -0.103714533903E+03   -0.60326E-06   -0.38072E-06   112   0.722E-03
  15 F= -.10371453E+03 E0= -.10371453E+03  d E =-.354566E-03
       N       E                     dE             d eps       ncg     rms          rms(c)
DAV:   1    -0.103715080937E+03   -0.54764E-03   -0.91803E-02    84   0.137E+00    0.931E-02
DAV:   2    -0.103715107615E+03   -0.26678E-04   -0.14263E-03   120   0.156E-01    0.494E-02
DAV:   3    -0.103715072208E+03    0.35407E-04   -0.12258E-04   128   0.449E-02    0.212E-02
DAV:   4    -0.103715073508E+03   -0.12993E-05   -0.34618E-05   120   0.211E-02    0.700E-03
DAV:   5    -0.103715073824E+03   -0.31651E-06   -0.21081E-06    96   0.613E-03
  16 F= -.10371507E+03 E0= -.10371507E+03  d E =-.894488E-03
       N       E                     dE             d eps       ncg     rms          rms(c)
DAV:   1    -0.103715090434E+03   -0.16927E-04   -0.34900E-03    84   0.266E-01    0.182E-02
DAV:   2    -0.103715091675E+03   -0.12409E-05   -0.55803E-05   120   0.308E-02    0.956E-03
DAV:   3    -0.103715090640E+03    0.10346E-05   -0.45485E-06   120   0.880E-03    0.425E-03
DAV:   4    -0.103715091275E+03   -0.63452E-06   -0.13170E-06   104   0.428E-03
  17 F= -.10371509E+03 E0= -.10371509E+03  d E =-.911939E-03
       N       E                     dE             d eps       ncg     rms          rms(c)
DAV:   1    -0.103715164529E+03   -0.73889E-04   -0.86055E-04    84   0.127E-01    0.104E-02
DAV:   2    -0.103715168518E+03   -0.39893E-05   -0.41224E-05   120   0.249E-02    0.564E-03
DAV:   3    -0.103715168507E+03    0.11756E-07   -0.93016E-07    80   0.450E-03
  18 F= -.10371517E+03 E0= -.10371517E+03  d E =-.772317E-04
