       N       E                     dE             d eps       ncg     rms          rms(c)
DAV:   1     0.198882176134E+03    0.19888E+03   -0.10494E+04   116   0.546E+02
DAV:   2    -0.317369034344E+02   -0.23062E+03   -0.21551E+03   144   0.103E+02
DAV:   3    -0.104380635081E+03   -0.72644E+02   -0.72474E+02   112   0.540E+01
DAV:   4    -0.108396565429E+03   -0.40159E+01   -0.40009E+01   104   0.178E+01
DAV:   5    -0.108481877733E+03   -0.85312E-01   -0.85259E-01   136   0.287E+00    0.154E+01
DAV:   6    -0.105205323378E+03    0.32766E+01   -0.16096E+00   104   0.463E+00    0.893E+00
DAV:   7    -0.103484530888E+03    0.17208E+01   -0.42048E+00   104   0.684E+00    0.123E+00
DAV:   8    -0.103435701962E+03    0.48829E-01   -0.27366E-01   104   0.223E+00    0.631E-01
DAV:   9    -0.103399547923E+03    0.36154E-01   -0.82123E-02   120   0.824E-01    0.350E-01
DAV:  10    -0.103399740743E+03   -0.19282E-03   -0.34524E-03   112   0.239E-01    0.172E-01
DAV:  11    -0.103399661296E+03    0.79447E-04   -0.66596E-03   104   0.240E-01    0.781E-02
DAV:  12    -0.103403642467E+03   -0.39812E-02   -0.94809E-04    96   0.952E-02    0.565E-02
DAV:  13    -0.103408242553E+03   -0.46001E-02   -0.19795E-03   104   0.112E-01    0.351E-02
DAV:  14    -0.103412610152E+03   -0.43676E-02   -0.41801E-04   112   0.571E-02    0.157E-02
DAV:  15    -0.103417108495E+03   -0.44983E-02   -0.55421E-04   112   0.621E-02    0.155E-02
DAV:  16    -0.103418061251E+03   -0.95276E-03   -0.46179E-05   112   0.203E-02    0.682E-03
DAV:  17    -0.103419102183E+03   -0.10409E-02   -0.80182E-05   104   0.219E-02    0.321E-03
DAV:  18    -0.103419398505E+03   -0.29632E-03   -0.98653E-06   104   0.853E-03    0.198E-03
DAV:  19    -0.103419580979E+03   -0.18247E-03   -0.67349E-06    96   0.659E-03    0.182E-03
DAV:  20    -0.103419640915E+03   -0.59936E-04   -0.12604E-06    80   0.381E-03    0.578E-04
DAV:  21    -0.103419666102E+03   -0.25187E-04   -0.76875E-07    80   0.234E-03    0.603E-04
DAV:  22    -0.103419674563E+03   -0.84610E-05   -0.19564E-07    88   0.143E-03    0.217E-04
DAV:  23    -0.103419677732E+03   -0.31693E-05   -0.70539E-08    80   0.760E-04    0.179E-04
DAV:  24    -0.103419680365E+03   -0.26334E-05   -0.30557E-08    80   0.479E-04    0.957E-05
DAV:  25    -0.103419681338E+03   -0.97274E-06   -0.16812E-08    80   0.338E-04
   1 F= -.10341968E+03 E0= -.10341968E+03  d E =-.103420E+03
       N       E                     dE             d eps       ncg     rms          rms(c)
DAV:   1    -0.103617163015E+03   -0.19748E+00   -0.87947E+00    84   0.126E+01    0.128E+00
DAV:   2    -0.103645461198E+03   -0.28298E-01   -0.38350E-01   120   0.249E+00    0.663E-01
DAV:   3    -0.103639252801E+03    0.62084E-02   -0.16461E-02   120   0.510E-01    0.320E-01
DAV:   4    -0.103637963891E+03    0.12889E-02   -0.77965E-03   112   0.300E-01    0.710E-02
DAV:   5    -0.103637812524E+03    0.15137E-03   -0.57208E-04   112   0.104E-01    0.434E-02
DAV:   6    -0.103637888068E+03   -0.75543E-04   -0.19103E-04   120   0.508E-02    0.216E-02
DAV:   7    -0.103638112906E+03   -0.22484E-03   -0.62994E-05   112   0.324E-02    0.985E-03
DAV:   8    -0.103638228239E+03   -0.11533E-03   -0.17958E-05   112   0.162E-02    0.865E-03
DAV:   9    -0.103638354922E+03   -0.12668E-03   -0.55441E-06   112   0.763E-03    0.446E-03
DAV:  10    -0.103638528122E+03   -0.17320E-03   -0.15831E-05   112   0.925E-03    0.313E-03
DAV:  11    -0.103638562306E+03   -0.34184E-04   -0.73494E-07    96   0.336E-03    0.161E-03
DAV:  12    -0.103638646488E+03   -0.84183E-04   -0.53771E-06   104   0.537E-03    0.838E-04
DAV:  13    -0.103638666220E+03   -0.19732E-04   -0.42412E-07    96   0.261E-03    0.726E-04
DAV:  14    -0.103638689691E+03   -0.23471E-04   -0.58127E-07    88   0.185E-03    0.424E-04
DAV:  15    -0.103638697587E+03   -0.78957E-05   -0.18026E-07    88   0.108E-03    0.427E-04
DAV:  16    -0.103638704244E+03   -0.66571E-05   -0.10173E-07    88   0.883E-04    0.247E-04
DAV:  17    -0.103638705432E+03   -0.11880E-05   -0.18291E-08    96   0.403E-04    0.173E-04
DAV:  18    -0.103638706995E+03   -0.15634E-05   -0.25994E-08    80   0.464E-04    0.734E-05
DAV:  19    -0.103638707450E+03   -0.45425E-06   -0.84816E-09    80   0.274E-04
   2 F= -.10363871E+03 E0= -.10363871E+03  d E =-.219026E+00
       N       E                     dE             d eps       ncg     rms          rms(c)
DAV:   1    -0.103642405762E+03   -0.36988E-02   -0.11664E-01    84   0.146E+00    0.141E-01
DAV:   2    -0.103642738498E+03   -0.33274E-03   -0.49965E-03   120   0.283E-01    0.790E-02
DAV:   3    -0.103642641005E+03    0.97493E-04   -0.23158E-04   120   0.600E-02    0.378E-02
DAV:   4    -0.103642615184E+03    0.25821E-04   -0.99993E-05   112   0.341E-02    0.957E-03
DAV:   5    -0.103642614774E+03    0.40959E-06   -0.70784E-06   112   0.116E-02
   3 F= -.10364261E+03 E0= -.10364261E+03  d E =-.222933E+00
       N       E                     dE             d eps       ncg     rms          rms(c)
DAV:   1    -0.103688566241E+03   -0.45951E-01   -0.95392E-01    84   0.423E+00    0.408E-01
DAV:   2    -0.103692774229E+03   -0.42080E-02   -0.53317E-02   120   0.881E-01    0.201E-01
DAV:   3    -0.103692416403E+03    0.35783E-03   -0.23456E-03   128   0.199E-01    0.104E-01
DAV:   4    -0.103692424586E+03   -0.81826E-05   -0.69474E-04   112   0.989E-02    0.361E-02
DAV:   5    -0.103692418544E+03    0.60415E-05   -0.59378E-05   120   0.340E-02    0.186E-02
DAV:   6    -0.103692419526E+03   -0.98146E-06   -0.17926E-05   120   0.175E-02    0.825E-03
DAV:   7    -0.103692437320E+03   -0.17794E-04   -0.82052E-06   112   0.115E-02    0.297E-03
DAV:   8    -0.103692447234E+03   -0.99141E-05   -0.12371E-06    88   0.487E-03    0.211E-03
DAV:   9    -0.103692458818E+03   -0.11584E-04   -0.57019E-07    88   0.254E-03    0.922E-04
DAV:  10    -0.103692475028E+03   -0.16210E-04   -0.12732E-06    96   0.324E-03    0.886E-04
DAV:  11    -0.103692482761E+03   -0.77333E-05   -0.39665E-07    88   0.199E-03    0.365E-04
DAV:  12    -0.103692488848E+03   -0.60865E-05   -0.35969E-07    88   0.155E-03    0.250E-04
DAV:  13    -0.103692491567E+03   -0.27196E-05   -0.87602E-08    88   0.888E-04    0.208E-04
DAV:  14    -0.103692493827E+03   -0.22600E-05   -0.85317E-08    88   0.777E-04    0.107E-04
DAV:  15    -0.103692494315E+03   -0.48761E-06   -0.16066E-08    88   0.348E-04
   4 F= -.10369249E+03 E0= -.10369249E+03  d E =-.498795E-01
       N       E                     dE             d eps       ncg     rms          rms(c)
DAV:   1    -0.103700098367E+03   -0.76045E-02   -0.38763E-01    84   0.270E+00    0.258E-01
DAV:   2    -0.103701825245E+03   -0.17269E-02   -0.21929E-02   120   0.565E-01    0.129E-01
DAV:   3    -0.103701676376E+03    0.14887E-03   -0.97323E-04   120   0.129E-01    0.671E-02
DAV:   4    -0.103701680975E+03   -0.45988E-05   -0.28429E-04   112   0.636E-02    0.240E-02
DAV:   5    -0.103701675049E+03    0.59258E-05   -0.23096E-05   112   0.215E-02    0.121E-02
DAV:   6    -0.103701672690E+03    0.23595E-05   -0.78238E-06   120   0.116E-02    0.508E-03
DAV:   7    -0.103701677805E+03   -0.51159E-05   -0.32920E-06   112   0.725E-03    0.205E-03
DAV:   8    -0.103701681480E+03   -0.36742E-05   -0.45083E-07    88   0.293E-03    0.136E-03
DAV:   9    -0.103701686263E+03   -0.47835E-05   -0.20860E-07    88   0.154E-03    0.558E-04
DAV:  10    -0.103701692972E+03   -0.67088E-05   -0.40457E-07    88   0.192E-03    0.528E-04
DAV:  11    -0.103701697879E+03   -0.49071E-05   -0.28156E-07    88   0.150E-03    0.212E-04
DAV:  12    -0.103701700449E+03   -0.25704E-05   -0.12495E-07    88   0.981E-04    0.176E-04
DAV:  13    -0.103701701525E+03   -0.10753E-05   -0.24046E-08    88   0.521E-04    0.109E-04
DAV:  14    -0.103701702884E+03   -0.13593E-05   -0.49720E-08    88   0.548E-04    0.846E-05
DAV:  15    -0.103701703120E+03   -0.23592E-06   -0.54369E-09    88   0.225E-04
   5 F= -.10370170E+03 E0= -.10370170E+03  d E =-.590883E-01
       N       E                     dE             d eps       ncg     rms          rms(c)
DAV:   1    -0.103715648916E+03   -0.13946E-01   -0.47523E-01    86   0.317E+00    0.258E-01
DAV:   2    -0.103716555767E+03   -0.90685E-03   -0.17206E-02   112   0.514E-01    0.136E-01
DAV:   3    -0.103716353396E+03    0.20237E-03   -0.79674E-04   128   0.109E-01    0.733E-02
DAV:   4    -0.103716298435E+03    0.54961E-04   -0.25361E-04   104   0.556E-02    0.196E-02
DAV:   5    -0.103716290358E+03    0.80766E-05   -0.25273E-05   112   0.203E-02    0.125E-02
DAV:   6    -0.103716295944E+03   -0.55851E-05   -0.71732E-06   112   0.100E-02    0.464E-03
DAV:   7    -0.103716313109E+03   -0.17166E-04   -0.21384E-06    96   0.544E-03    0.188E-03
DAV:   8    -0.103716332721E+03   -0.19612E-04   -0.78691E-07    80   0.274E-03    0.121E-03
DAV:   9    -0.103716355485E+03   -0.22764E-04   -0.12454E-06    88   0.262E-03    0.603E-04
DAV:  10    -0.103716374261E+03   -0.18776E-04   -0.11432E-06    80   0.237E-03    0.415E-04
DAV:  11    -0.103716382421E+03   -0.81604E-05   -0.36385E-07    88   0.142E-03    0.231E-04
DAV:  12    -0.103716386789E+03   -0.43680E-05   -0.12617E-07    80   0.851E-04    0.171E-04
DAV:  13    -0.103716389559E+03   -0.27692E-05   -0.66727E-08    88   0.627E-04    0.108E-04
DAV:  14    -0.103716391128E+03   -0.15698E-05   -0.43226E-08    80   0.448E-04    0.460E-05
DAV:  15    -0.103716391678E+03   -0.54919E-06   -0.61943E-09    88   0.236E-04
   6 F= -.10371639E+03 E0= -.10371639E+03  d E =-.146886E-01
       N       E                     dE             d eps       ncg     rms          rms(c)
DAV:   1    -0.103716721427E+03   -0.33030E-03   -0.14986E-02    86   0.564E-01    0.457E-02
DAV:   2    -0.103716752766E+03   -0.31339E-04   -0.54859E-04   112   0.918E-02    0.244E-02
DAV:   3    -0.103716747889E+03    0.48776E-05   -0.25225E-05   120   0.194E-02    0.131E-02
DAV:   4    -0.103716747002E+03    0.88643E-06   -0.80329E-06   104   0.989E-03
   7 F= -.10371675E+03 E0= -.10371675E+03  d E =-.150439E-01
       N       E                     dE             d eps       ncg     rms          rms(c)
DAV:   1    -0.103722087596E+03   -0.53397E-02   -0.22914E-01    84   0.221E+00    0.161E-01
DAV:   2    -0.103722604292E+03   -0.51670E-03   -0.84903E-03   120   0.357E-01    0.907E-02
DAV:   3    -0.103722503360E+03    0.10093E-03   -0.44027E-04   128   0.853E-02    0.468E-02
DAV:   4    -0.103722498348E+03    0.50119E-05   -0.16083E-04   120   0.504E-02    0.130E-02
DAV:   5    -0.103722495950E+03    0.23988E-05   -0.22255E-05   112   0.198E-02    0.913E-03
DAV:   6    -0.103722495732E+03    0.21805E-06   -0.30693E-06   120   0.643E-03
   8 F= -.10372250E+03 E0= -.10372250E+03  d E =-.574873E-02
       N       E                     dE             d eps       ncg     rms          rms(c)
DAV:   1    -0.103722655274E+03   -0.15932E-03   -0.98875E-03    88   0.459E-01    0.338E-02
DAV:   2    -0.103722680676E+03   -0.25402E-04   -0.37551E-04   120   0.750E-02    0.190E-02
DAV:   3    -0.103722678081E+03    0.25948E-05   -0.19044E-05   128   0.179E-02    0.994E-03
DAV:   4    -0.103722680113E+03   -0.20317E-05   -0.68347E-06   120   0.108E-02    0.269E-03
DAV:   5    -0.103722682173E+03   -0.20599E-05   -0.10781E-06    88   0.470E-03    0.173E-03
DAV:   6    -0.103722684227E+03   -0.20545E-05   -0.31630E-07    88   0.235E-03    0.104E-03
DAV:   7    -0.103722687971E+03   -0.37438E-05   -0.19257E-07    88   0.163E-03    0.271E-04
DAV:   8    -0.103722690046E+03   -0.20752E-05   -0.97736E-08    88   0.109E-03    0.317E-04
DAV:   9    -0.103722693896E+03   -0.38496E-05   -0.17366E-07    88   0.115E-03    0.117E-04
DAV:  10    -0.103722695209E+03   -0.13128E-05   -0.67370E-08    88   0.709E-04    0.123E-04
DAV:  11    -0.103722695922E+03   -0.71312E-06   -0.17095E-08    88   0.423E-04
   9 F= -.10372270E+03 E0= -.10372270E+03  d E =-.594892E-02
       N       E                     dE             d eps       ncg     rms          rms(c)
DAV:   1    -0.103725312151E+03   -0.26169E-02   -0.87574E-02    84   0.137E+00    0.930E-02
DAV:   2    -0.103725395633E+03   -0.83482E-04   -0.20795E-03   120   0.187E-01    0.493E-02
DAV:   3    -0.103725358621E+03    0.37012E-04   -0.14759E-04   128   0.489E-02    0.239E-02
DAV:   4    -0.103725354175E+03    0.44453E-05   -0.42872E-05   120   0.253E-02    0.716E-03
DAV:   5    -0.103725352084E+03    0.20915E-05   -0.42779E-06   120   0.952E-03    0.469E-03
DAV:   6    -0.103725351510E+03    0.57409E-06   -0.99472E-07    88   0.514E-03
  10 F= -.10372535E+03 E0= -.10372535E+03  d E =-.265559E-02
       N       E                     dE             d eps       ncg     rms          rms(c)
DAV:   1    -0.103726417617E+03   -0.10655E-02   -0.14676E-01    84   0.178E+00    0.120E-01
DAV:   2    -0.103726557461E+03   -0.13984E-03   -0.35095E-03   120   0.243E-01    0.640E-02
DAV:   3    -0.103726493005E+03    0.64456E-04   -0.24924E-04   128   0.636E-02    0.311E-02
DAV:   4    -0.103726483722E+03    0.92835E-05   -0.72129E-05   120   0.331E-02    0.927E-03
DAV:   5    -0.103726481217E+03    0.25044E-05   -0.76491E-06   120   0.128E-02    0.616E-03
DAV:   6    -0.103726482124E+03   -0.90623E-06   -0.17831E-06    88   0.693E-03
  11 F= -.10372648E+03 E0= -.10372648E+03  d E =-.378620E-02
       N       E                     dE             d eps       ncg     rms          rms(c)
DAV:   1    -0.103728363749E+03   -0.18825E-02   -0.91880E-02    84   0.139E+00    0.900E-02
DAV:   2    -0.103728481579E+03   -0.11783E-03   -0.21649E-03   120   0.191E-01    0.517E-02
DAV:   3    -0.103728448898E+03    0.32681E-04   -0.12388E-04   128   0.475E-02    0.243E-02
DAV:   4    -0.103728452036E+03   -0.31379E-05   -0.48527E-05   120   0.257E-02    0.703E-03
DAV:   5    -0.103728453070E+03   -0.10341E-05   -0.45359E-06   112   0.890E-03    0.434E-03
DAV:   6    -0.103728454707E+03   -0.16374E-05   -0.60608E-07    88   0.329E-03    0.171E-03
DAV:   7    -0.103728457076E+03   -0.23682E-05   -0.32184E-07    88   0.241E-03    0.491E-04
DAV:   8    -0.103728460291E+03   -0.32151E-05   -0.18242E-07    88   0.177E-03    0.537E-04
DAV:   9    -0.103728463285E+03   -0.29939E-05   -0.14048E-07    88   0.137E-03    0.195E-04
DAV:  10    -0.103728465491E+03   -0.22064E-05   -0.10566E-07    88   0.978E-04    0.160E-04
DAV:  11    -0.103728466358E+03   -0.86669E-06   -0.29553E-08    88   0.606E-04
  12 F= -.10372847E+03 E0= -.10372847E+03  d E =-.198423E-02
       N       E                     dE             d eps       ncg     rms          rms(c)
DAV:   1    -0.103729302487E+03   -0.83700E-03   -0.10524E-01    84   0.148E+00    0.965E-02
DAV:   2    -0.103729432146E+03   -0.12966E-03   -0.24780E-03   120   0.204E-01    0.553E-02
DAV:   3    -0.103729389570E+03    0.42576E-04   -0.14102E-04   128   0.506E-02    0.260E-02
DAV:   4    -0.103729389643E+03   -0.72854E-07   -0.55461E-05   120   0.273E-02    0.747E-03
DAV:   5    -0.103729389198E+03    0.44458E-06   -0.49233E-06   112   0.924E-03
  13 F= -.10372939E+03 E0= -.10372939E+03  d E =-.290707E-02
       N       E                     dE             d eps       ncg     rms          rms(c)
DAV:   1    -0.103731062645E+03   -0.16730E-02   -0.12238E-01    84   0.158E+00    0.123E-01
DAV:   2    -0.103731258803E+03   -0.19616E-03   -0.33193E-03   120   0.230E-01    0.622E-02
DAV:   3    -0.103731207130E+03    0.51673E-04   -0.18170E-04   128   0.572E-02    0.315E-02
DAV:   4    -0.103731205195E+03    0.19353E-05   -0.71367E-05   112   0.319E-02    0.948E-03
DAV:   5    -0.103731205886E+03   -0.69061E-06   -0.68493E-06   112   0.111E-02
  14 F= -.10373121E+03 E0= -.10373121E+03  d E =-.181669E-02
       N       E                     dE             d eps       ncg     rms          rms(c)
DAV:   1    -0.103731284982E+03   -0.79788E-04   -0.91770E-03    84   0.434E-01    0.344E-02
DAV:   2    -0.103731300130E+03   -0.15148E-04   -0.25909E-04   120   0.641E-02    0.169E-02
DAV:   3    -0.103731295885E+03    0.42452E-05   -0.13080E-05   128   0.153E-02    0.860E-03
DAV:   4    -0.103731296137E+03   -0.25170E-06   -0.52146E-06   112   0.861E-03
  15 F= -.10373130E+03 E0= -.10373130E+03  d E =-.190694E-02
       N       E                     dE             d eps       ncg     rms          rms(c)
DAV:   1    -0.103731587169E+03   -0.29128E-03   -0.34543E-02    84   0.822E-01    0.663E-02
DAV:   2    -0.103731676010E+03   -0.88841E-04   -0.12021E-03   112   0.137E-01    0.354E-02
DAV:   3    -0.103731661954E+03    0.14057E-04   -0.46299E-05   128   0.293E-02    0.186E-02
DAV:   4    -0.103731662098E+03   -0.14452E-06   -0.22466E-05   112   0.176E-02    0.492E-03
DAV:   5    -0.103731662828E+03   -0.72948E-06   -0.23235E-06    96   0.699E-03
  16 F= -.10373166E+03 E0= -.10373166E+03  d E =-.366691E-03
       N       E                     dE             d eps       ncg     rms          rms(c)
DAV:   1    -0.103731663483E+03   -0.13846E-05   -0.11216E-05   112   0.145E-02    0.222E-03
DAV:   2    -0.103731663869E+03   -0.38618E-06   -0.67833E-07    80   0.335E-03
  17 F= -.10373166E+03 E0= -.10373166E+03  d E =-.367732E-03
       N       E                     dE             d eps       ncg     rms          rms(c)
DAV:   1    -0.103731770684E+03   -0.10720E-03   -0.68148E-03    84   0.361E-01    0.293E-02
DAV:   2    -0.103731797335E+03   -0.26650E-04   -0.32786E-04   120   0.708E-02    0.163E-02
DAV:   3    -0.103731795126E+03    0.22084E-05   -0.10945E-05   120   0.141E-02    0.914E-03
DAV:   4    -0.103731795281E+03   -0.15521E-06   -0.45417E-06   112   0.848E-03
  18 F= -.10373180E+03 E0= -.10373180E+03  d E =-.131412E-03
