 vasp.5.4.4.18Apr17-6-g9f103f2a35 (build Nov 06 2017 19:16:10) complex          
  
 executed on           IFC91_ompi date 2018.07.07  06:37:27
 running on   12 total cores
 distrk:  each k-point on   12 cores,    1 groups
 distr:  one band on NCORES_PER_BAND=   6 cores,    2 groups


--------------------------------------------------------------------------------------------------------


 INCAR:
 POTCAR:    PAW_PBE Si 05Jan2001                  
 POTCAR:    PAW_PBE Ge 05Jan2001                  
 POTCAR:    PAW_PBE H 15Jun2001                   
 POTCAR:    PAW_PBE Si 05Jan2001                  
   VRHFIN =Si: s2p2                                                             
   LEXCH  = PE                                                                  
   EATOM  =   103.0669 eV,    7.5752 Ry                                         
                                                                                
   TITEL  = PAW_PBE Si 05Jan2001                                                
   LULTRA =        F    use ultrasoft PP ?                                      
   IUNSCR =        1    unscreen: 0-lin 1-nonlin 2-no                           
   RPACOR =    1.500    partial core radius                                     
   POMASS =   28.085; ZVAL   =    4.000    mass and valenz                      
   RCORE  =    1.900    outmost cutoff radius                                   
   RWIGS  =    2.480; RWIGS  =    1.312    wigner-seitz radius (au A)           
   ENMAX  =  245.345; ENMIN  =  184.009 eV                                      
   ICORE  =        2    local potential                                         
   LCOR   =        T    correct aug charges                                     
   LPAW   =        T    paw PP                                                  
   EAUG   =  322.069                                                            
   DEXC   =    0.000                                                            
   RMAX   =    1.950    core radius for proj-oper                               
   RAUG   =    1.300    factor for augmentation sphere                          
   RDEP   =    1.993    radius for radial grids                                 
   RDEPT  =    1.837    core radius for aug-charge                              
                                                                                
   Atomic configuration                                                         
    6 entries                                                                   
     n  l   j            E        occ.                                          
     1  0  0.50     -1785.8828   2.0000                                         
     2  0  0.50      -139.4969   2.0000                                         
     2  1  1.50       -95.5546   6.0000                                         
     3  0  0.50       -10.8127   2.0000                                         
     3  1  0.50        -4.0811   2.0000                                         
     3  2  1.50        -4.0817   0.0000                                         
   Description                                                                  
     l       E           TYP  RCUT    TYP  RCUT                                 
     0    -10.8127223     23  1.900                                             
     0     -7.6451159     23  1.900                                             
     1     -4.0811372     23  1.900                                             
     1      2.4879257     23  1.900                                             
     2     -4.0817478      7  1.900                                             
  local pseudopotential read in
  partial core-charges read in
  partial kinetic energy density read in
  atomic valenz-charges read in
  non local Contribution for L=           0  read in
    real space projection operators read in
  non local Contribution for L=           0  read in
    real space projection operators read in
  non local Contribution for L=           1  read in
    real space projection operators read in
  non local Contribution for L=           1  read in
    real space projection operators read in
    PAW grid and wavefunctions read in
 
   number of l-projection  operators is LMAX  =           4
   number of lm-projection operators is LMMAX =           8
 
 POTCAR:    PAW_PBE Ge 05Jan2001                  
   VRHFIN =Ge: s2p2                                                             
   LEXCH  = PE                                                                  
   EATOM  =   104.9960 eV,    7.7170 Ry                                         
                                                                                
   TITEL  = PAW_PBE Ge 05Jan2001                                                
   LULTRA =        F    use ultrasoft PP ?                                      
   IUNSCR =        1    unscreen: 0-lin 1-nonlin 2-no                           
   RPACOR =    2.170    partial core radius                                     
   POMASS =   72.610; ZVAL   =    4.000    mass and valenz                      
   RCORE  =    2.300    outmost cutoff radius                                   
   RWIGS  =    2.300; RWIGS  =    1.217    wigner-seitz radius (au A)           
   ENMAX  =  173.807; ENMIN  =  130.355 eV                                      
   ICORE  =        3    local potential                                         
   LCOR   =        T    correct aug charges                                     
   LPAW   =        T    paw PP                                                  
   EAUG   =  385.843                                                            
   DEXC   =    0.000                                                            
   RMAX   =    2.342    core radius for proj-oper                               
   RAUG   =    1.300    factor for augmentation sphere                          
   RDEP   =    2.318    radius for radial grids                                 
   RDEPT  =    2.103    core radius for aug-charge                              
                                                                                
   Atomic configuration                                                         
   10 entries                                                                   
     n  l   j            E        occ.                                          
     1  0  0.50    -10959.8463   2.0000                                         
     2  0  0.50     -1371.6056   2.0000                                         
     2  1  1.50     -1198.4791   6.0000                                         
     3  0  0.50      -168.4733   2.0000                                         
     3  1  1.50      -115.6019   6.0000                                         
     3  2  2.50       -29.3106  10.0000                                         
     4  0  0.50       -11.7309   2.0000                                         
     4  1  0.50        -3.8952   2.0000                                         
     4  2  1.50        -4.0817   0.0000                                         
     4  3  2.50        -4.0817   0.0000                                         
   Description                                                                  
     l       E           TYP  RCUT    TYP  RCUT                                 
     0    -11.7309493     23  2.300                                             
     0     -7.4578696     23  2.300                                             
     1     -3.8952261     23  2.300                                             
     1      6.1178114     23  2.300                                             
     2     -4.0817478     23  2.300                                             
     3     -1.3605826      7  2.300                                             
  local pseudopotential read in
  partial core-charges read in
  partial kinetic energy density read in
  atomic valenz-charges read in
  non local Contribution for L=           0  read in
    real space projection operators read in
  non local Contribution for L=           0  read in
    real space projection operators read in
  non local Contribution for L=           1  read in
    real space projection operators read in
  non local Contribution for L=           1  read in
    real space projection operators read in
  non local Contribution for L=           2  read in
    real space projection operators read in
    PAW grid and wavefunctions read in
 
   number of l-projection  operators is LMAX  =           5
   number of lm-projection operators is LMMAX =          13
 
 POTCAR:    PAW_PBE H 15Jun2001                   
   VRHFIN =H: ultrasoft test                                                    
   LEXCH  = PE                                                                  
   EATOM  =    12.4884 eV,    0.9179 Ry                                         
                                                                                
   TITEL  = PAW_PBE H 15Jun2001                                                 
   LULTRA =        F    use ultrasoft PP ?                                      
   IUNSCR =        0    unscreen: 0-lin 1-nonlin 2-no                           
   RPACOR =    0.000    partial core radius                                     
   POMASS =    1.000; ZVAL   =    1.000    mass and valenz                      
   RCORE  =    1.100    outmost cutoff radius                                   
   RWIGS  =    0.700; RWIGS  =    0.370    wigner-seitz radius (au A)           
   ENMAX  =  250.000; ENMIN  =  200.000 eV                                      
   RCLOC  =    0.701    cutoff for local pot                                    
   LCOR   =        T    correct aug charges                                     
   LPAW   =        T    paw PP                                                  
   EAUG   =  400.000                                                            
   RMAX   =    1.123    core radius for proj-oper                               
   RAUG   =    1.200    factor for augmentation sphere                          
   RDEP   =    1.112    radius for radial grids                                 
   RDEPT  =    0.926    core radius for aug-charge                              
                                                                                
   Atomic configuration                                                         
    2 entries                                                                   
     n  l   j            E        occ.                                          
     1  0  0.50        -6.4927   1.0000                                         
     2  1  0.50        -3.4015   0.0000                                         
   Description                                                                  
     l       E           TYP  RCUT    TYP  RCUT                                 
     0     -6.4927494     23  1.100                                             
     0      6.8029130     23  1.100                                             
     1     -4.0817478     23  1.100                                             
  local pseudopotential read in
  atomic valenz-charges read in
  non local Contribution for L=           0  read in
    real space projection operators read in
  non local Contribution for L=           0  read in
    real space projection operators read in
  non local Contribution for L=           1  read in
    real space projection operators read in
    PAW grid and wavefunctions read in
 
   number of l-projection  operators is LMAX  =           3
   number of lm-projection operators is LMMAX =           5
 

 ----------------------------------------------------------------------------- 
|                                                                             |
|  ADVICE TO THIS USER RUNNING 'VASP/VAMP'   (HEAR YOUR MASTER'S VOICE ...):  |
|                                                                             |
|      You have a (more or less) 'large supercell' and for larger cells       |
|      it might be more efficient to use real space projection opertators     |
|      So try LREAL= Auto  in the INCAR   file.                               |
|      Mind:          For very  accurate calculation you might also keep the  |
|      reciprocal projection scheme          (i.e. LREAL=.FALSE.)             |
|                                                                             |
 ----------------------------------------------------------------------------- 

  PAW_PBE Si 05Jan2001                  :
 energy of atom  1       EATOM= -103.0669
 kinetic energy error for atom=    0.0012 (will be added to EATOM!!)
  PAW_PBE Ge 05Jan2001                  :
 energy of atom  2       EATOM= -104.9960
 kinetic energy error for atom=    0.0003 (will be added to EATOM!!)
  PAW_PBE H 15Jun2001                   :
 energy of atom  3       EATOM=  -12.4884
 kinetic energy error for atom=    0.0098 (will be added to EATOM!!)
 
 
 POSCAR: SiGeH16                                 
  positions in direct lattice
  No initial velocities read in
 exchange correlation table for  LEXCH =        8
   RHO(1)=    0.500       N(1)  =     2000
   RHO(2)=  100.500       N(2)  =     4000
 


--------------------------------------------------------------------------------------------------------


 ion  position               nearest neighbor table
   1  0.475  0.556  0.385-  18 1.55   4 2.39   2 2.39   3 2.39
   2  0.369  0.539  0.436-  23 1.55  24 1.55   5 2.39   1 2.39
   3  0.542  0.457  0.396-  17 1.55  16 1.55   6 2.39   1 2.39
   4  0.531  0.648  0.437-  25 1.55  26 1.55   7 2.39   1 2.39
   5  0.385  0.515  0.552-  22 1.55  10 2.39   9 2.39   2 2.39
   6  0.557  0.433  0.512-  13 1.55   3 2.39   8 2.39   9 2.39
   7  0.547  0.624  0.554-  19 1.55   4 2.39   8 2.39  10 2.39
   8  0.613  0.525  0.565-  15 1.55  14 1.55   7 2.39   6 2.39
   9  0.451  0.416  0.564-  12 1.55  11 1.55   5 2.39   6 2.39
  10  0.440  0.606  0.605-  20 1.55  21 1.55   5 2.39   7 2.39
  11  0.415  0.357  0.529-   9 1.55
  12  0.461  0.400  0.639-   9 1.55
  13  0.600  0.369  0.520-   6 1.55
  14  0.682  0.536  0.531-   8 1.55
  15  0.623  0.509  0.640-   8 1.55
  16  0.611  0.469  0.363-   3 1.55
  17  0.506  0.398  0.362-   3 1.55
  18  0.465  0.572  0.309-   1 1.55
  19  0.583  0.683  0.588-   7 1.55
  20  0.451  0.590  0.680-  10 1.55
  21  0.397  0.670  0.598-  10 1.55
  22  0.316  0.504  0.586-   5 1.55
  23  0.333  0.479  0.402-   2 1.55
  24  0.326  0.603  0.429-   2 1.55
  25  0.488  0.712  0.430-   4 1.55
  26  0.600  0.659  0.404-   4 1.55
 
  LATTYP: Found a simple cubic cell.
 ALAT       =    20.0000000000
  
  Lattice vectors:
  
 A1 = (  20.0000000000,   0.0000000000,   0.0000000000)
 A2 = (   0.0000000000,  20.0000000000,   0.0000000000)
 A3 = (   0.0000000000,   0.0000000000,  20.0000000000)


Analysis of symmetry for initial positions (statically):
=====================================================================
 Subroutine PRICEL returns:
 Original cell was already a primitive cell.
 

 Routine SETGRP: Setting up the symmetry group for a 
 simple cubic supercell.


 Subroutine GETGRP returns: Found  1 space group operations
 (whereof  1 operations were pure point group operations)
 out of a pool of 48 trial point group operations.


The static configuration has the point symmetry C_1 .


Analysis of symmetry for dynamics (positions and initial velocities):
=====================================================================
 Subroutine PRICEL returns:
 Original cell was already a primitive cell.
 

 Routine SETGRP: Setting up the symmetry group for a 
 simple cubic supercell.


 Subroutine GETGRP returns: Found  1 space group operations
 (whereof  1 operations were pure point group operations)
 out of a pool of 48 trial point group operations.


The dynamic configuration has the point symmetry C_1 .


 Subroutine INISYM returns: Found  1 space group operations
 (whereof  1 operations are pure point group operations),
 and found     1 'primitive' translations

 
 
 KPOINTS: Automatic mesh                          

Automatic generation of k-mesh.
Space group operators:
 irot       det(A)        alpha          n_x          n_y          n_z        tau_x        tau_y        tau_z
    1     1.000000     0.000000     1.000000     0.000000     0.000000     0.000000     0.000000     0.000000
 
 Subroutine IBZKPT returns following result:
 ===========================================
 
 Found      1 irreducible k-points:
 
 Following reciprocal coordinates:
            Coordinates               Weight
  0.000000  0.000000  0.000000      1.000000
 
 Following cartesian coordinates:
            Coordinates               Weight
  0.000000  0.000000  0.000000      1.000000
 


--------------------------------------------------------------------------------------------------------




 Dimension of arrays:
   k-points           NKPTS =      1   k-points in BZ     NKDIM =      1   number of bands    NBANDS=     42
   number of dos      NEDOS =    301   number of ions     NIONS =     26
   non local maximal  LDIM  =      5   non local SUM 2l+1 LMDIM =     13
   total plane-waves  NPLWV = 941192
   max r-space proj   IRMAX =      1   max aug-charges    IRDMAX=   6593
   dimension x,y,z NGX =    98 NGY =   98 NGZ =   98
   dimension x,y,z NGXF=   196 NGYF=  196 NGZF=  196
   support grid    NGXF=   196 NGYF=  196 NGZF=  196
   ions per type =               7   3  16
   NGX,Y,Z   is equivalent  to a cutoff of   8.15,  8.15,  8.15 a.u.
   NGXF,Y,Z  is equivalent  to a cutoff of  16.29, 16.29, 16.29 a.u.

 SYSTEM =  SiGe                                    
 POSCAR =  SiGeH16                                 

 Startparameter for this run:
   NWRITE =      2    write-flag & timer
   PREC   = normal    normal or accurate (medium, high low for compatibility)
   ISTART =      0    job   : 0-new  1-cont  2-samecut
   ICHARG =      2    charge: 1-file 2-atom 10-const
   ISPIN  =      1    spin polarized calculation?
   LNONCOLLINEAR =      F non collinear calculations
   LSORBIT =      F    spin-orbit coupling
   INIWAV =      1    electr: 0-lowe 1-rand  2-diag
   LASPH  =      F    aspherical Exc in radial PAW
   METAGGA=      F    non-selfconsistent MetaGGA calc.

 Electronic Relaxation 1
   ENCUT  =  400.0 eV  29.40 Ry    5.42 a.u.  32.61 32.61 32.61*2*pi/ulx,y,z
   ENINI  =  400.0     initial cutoff
   ENAUG  =  400.0 eV  augmentation charge cutoff
   NELM   =     60;   NELMIN=  2; NELMDL= -5     # of ELM steps 
   EDIFF  = 0.1E-05   stopping-criterion for ELM
   LREAL  =      F    real-space projection
   NLSPLINE    = F    spline interpolate recip. space projectors
   LCOMPAT=      F    compatible to vasp.4.4
   GGA_COMPAT  = T    GGA compatible to vasp.4.4-vasp.4.6
   LMAXPAW     = -100 max onsite density
   LMAXMIX     =    2 max onsite mixed and CHGCAR
   VOSKOWN=      0    Vosko Wilk Nusair interpolation
   ROPT   =    0.00000   0.00000   0.00000
 Ionic relaxation
   EDIFFG = -.2E-01   stopping-criterion for IOM
   NSW    =    200    number of steps for IOM
   NBLOCK =      1;   KBLOCK =    200    inner block; outer block 
   IBRION =      2    ionic relax: 0-MD 1-quasi-New 2-CG
   NFREE  =      1    steps in history (QN), initial steepest desc. (CG)
   ISIF   =      2    stress and relaxation
   IWAVPR =     11    prediction:  0-non 1-charg 2-wave 3-comb
   ISYM   =      2    0-nonsym 1-usesym 2-fastsym
   LCORR  =      T    Harris-Foulkes like correction to forces

   POTIM  = 0.5000    time-step for ionic-motion
   TEIN   =    0.0    initial temperature
   TEBEG  =    0.0;   TEEND  =   0.0 temperature during run
   SMASS  =  -3.00    Nose mass-parameter (am)
   estimated Nose-frequenzy (Omega)   =  0.10E-29 period in steps =****** mass=  -0.914E-26a.u.
   SCALEE = 1.0000    scale energy and forces
   NPACO  =    256;   APACO  = 16.0  distance and # of slots for P.C.
   PSTRESS=    0.0 pullay stress

  Mass of Ions in am
   POMASS =  28.09 72.61  1.00
  Ionic Valenz
   ZVAL   =   4.00  4.00  1.00
  Atomic Wigner-Seitz radii
   RWIGS  =  -1.00 -1.00 -1.00
  virtual crystal weights 
   VCA    =   1.00  1.00  1.00
   NELECT =      56.0000    total number of electrons
   NUPDOWN=      -1.0000    fix difference up-down

 DOS related values:
   EMIN   =  10.00;   EMAX   =-10.00  energy-range for DOS
   EFERMI =   0.00
   ISMEAR =     0;   SIGMA  =   0.20  broadening in eV -4-tet -1-fermi 0-gaus

 Electronic relaxation 2 (details)
   IALGO  =     38    algorithm
   LDIAG  =      T    sub-space diagonalisation (order eigenvalues)
   LSUBROT=      F    optimize rotation matrix (better conditioning)
   TURBO    =      0    0=normal 1=particle mesh
   IRESTART =      0    0=no restart 2=restart with 2 vectors
   NREBOOT  =      0    no. of reboots
   NMIN     =      0    reboot dimension
   EREF     =   0.00    reference energy to select bands
   IMIX   =      4    mixing-type and parameters
     AMIX     =   0.40;   BMIX     =  1.00
     AMIX_MAG =   1.60;   BMIX_MAG =  1.00
     AMIN     =   0.10
     WC   =   100.;   INIMIX=   1;  MIXPRE=   1;  MAXMIX= -45

 Intra band minimization:
   WEIMIN = 0.0010     energy-eigenvalue tresh-hold
   EBREAK =  0.60E-08  absolut break condition
   DEPER  =   0.30     relativ break condition  

   TIME   =   0.40     timestep for ELM

  volume/ion in A,a.u.               =     307.69      2076.41
  Fermi-wavevector in a.u.,A,eV,Ry     =   0.313166  0.591797  1.334361  0.098073
  Thomas-Fermi vector in A             =   1.193276
 
 Write flags
   LWAVE        =      T    write WAVECAR
   LDOWNSAMPLE  =      F    k-point downsampling of WAVECAR
   LCHARG       =      T    write CHGCAR
   LVTOT        =      F    write LOCPOT, total local potential
   LVHAR        =      F    write LOCPOT, Hartree potential only
   LELF         =      F    write electronic localiz. function (ELF)
   LORBIT       =      0    0 simple, 1 ext, 2 COOP (PROOUT), +10 PAW based schemes


 Dipole corrections
   LMONO  =      F    monopole corrections only (constant potential shift)
   LDIPOL =      F    correct potential (dipole corrections)
   IDIPOL =      0    1-x, 2-y, 3-z, 4-all directions 
   EPSILON=  1.0000000 bulk dielectric constant

 Exchange correlation treatment:
   GGA     =    --    GGA type
   LEXCH   =     8    internal setting for exchange type
   VOSKOWN=      0    Vosko Wilk Nusair interpolation
   LHFCALC =     F    Hartree Fock is set to
   LHFONE  =     F    Hartree Fock one center treatment
   AEXX    =    0.0000 exact exchange contribution

 Linear response parameters
   LEPSILON=     F    determine dielectric tensor
   LRPA    =     F    only Hartree local field effects (RPA)
   LNABLA  =     F    use nabla operator in PAW spheres
   LVEL    =     F    velocity operator in full k-point grid
   LINTERFAST=   F  fast interpolation
   KINTER  =     0    interpolate to denser k-point grid
   CSHIFT  =0.1000    complex shift for real part using Kramers Kronig
   OMEGAMAX=  -1.0    maximum frequency
   DEG_THRESHOLD= 0.2000000E-02 threshold for treating states as degnerate
   RTIME   =   -0.100 relaxation time in fs
  (WPLASMAI=    0.000 imaginary part of plasma frequency in eV, 0.658/RTIME)
   DFIELD  = 0.0000000 0.0000000 0.0000000 field for delta impulse in time
 
 Orbital magnetization related:
   ORBITALMAG=     F  switch on orbital magnetization
   LCHIMAG   =     F  perturbation theory with respect to B field
   DQ        =  0.001000  dq finite difference perturbation B field
   LLRAUG    =     F  two centre corrections for induced B field



--------------------------------------------------------------------------------------------------------


 conjugate gradient relaxation of ions
 charge density and potential will be updated during run
 non-spin polarized calculation
 Variant of blocked Davidson
 Davidson routine will perform the subspace rotation
 perform sub-space diagonalisation
    after iterative eigenvector-optimisation
 modified Broyden-mixing scheme, WC =      100.0
 initial mixing is a Kerker type mixing with AMIX =  0.4000 and BMIX =      1.0000
 Hartree-type preconditioning will be used
 using additional bands           14
 reciprocal scheme for non local part
 use partial core corrections
 calculate Harris-corrections to forces 
   (improved forces if not selfconsistent)
 use gradient corrections 
 use of overlap-Matrix (Vanderbilt PP)
 Gauss-broadening in eV      SIGMA  =   0.20


--------------------------------------------------------------------------------------------------------


  energy-cutoff  :      400.00
  volume of cell :     8000.00
      direct lattice vectors                 reciprocal lattice vectors
    20.000000000  0.000000000  0.000000000     0.050000000  0.000000000  0.000000000
     0.000000000 20.000000000  0.000000000     0.000000000  0.050000000  0.000000000
     0.000000000  0.000000000 20.000000000     0.000000000  0.000000000  0.050000000

  length of vectors
    20.000000000 20.000000000 20.000000000     0.050000000  0.050000000  0.050000000


 
 k-points in units of 2pi/SCALE and weight: Automatic mesh                          
   0.00000000  0.00000000  0.00000000       1.000
 
 k-points in reciprocal lattice and weights: Automatic mesh                          
   0.00000000  0.00000000  0.00000000       1.000
 
 position of ions in fractional coordinates (direct lattice) 
   0.47547100  0.55626000  0.38465300
   0.36907800  0.53906000  0.43641200
   0.54179100  0.45744600  0.39613600
   0.53111600  0.64794100  0.43749600
   0.38461900  0.51474100  0.55243500
   0.55736800  0.43311000  0.51215000
   0.54669200  0.62364400  0.55351800
   0.61299700  0.52481700  0.56496600
   0.45095700  0.41593600  0.56388300
   0.44028400  0.60643000  0.60524300
   0.41490100  0.35665000  0.52940300
   0.46117000  0.40042600  0.63910800
   0.60034800  0.36907000  0.51957800
   0.68182700  0.53600700  0.53118700
   0.62280400  0.50903400  0.64018900
   0.61080000  0.46880600  0.36278200
   0.50550800  0.39805500  0.36207700
   0.46538400  0.57201900  0.30946400
   0.58275500  0.68306700  0.58775000
   0.45052500  0.59044300  0.68036400
   0.39732000  0.67044900  0.59753500
   0.31566200  0.50359800  0.58596500
   0.33322800  0.47946500  0.40225200
   0.32629100  0.60324700  0.42912600
   0.48792300  0.71185500  0.43020800
   0.60015100  0.65882400  0.40403700
 
 position of ions in cartesian coordinates  (Angst):
   9.50942000 11.12520000  7.69306000
   7.38156000 10.78120000  8.72824000
  10.83582000  9.14892000  7.92272000
  10.62232000 12.95882000  8.74992000
   7.69238000 10.29482000 11.04870000
  11.14736000  8.66220000 10.24300000
  10.93384000 12.47288000 11.07036000
  12.25994000 10.49634000 11.29932000
   9.01914000  8.31872000 11.27766000
   8.80568000 12.12860000 12.10486000
   8.29802000  7.13300000 10.58806000
   9.22340000  8.00852000 12.78216000
  12.00696000  7.38140000 10.39156000
  13.63654000 10.72014000 10.62374000
  12.45608000 10.18068000 12.80378000
  12.21600000  9.37612000  7.25564000
  10.11016000  7.96110000  7.24154000
   9.30768000 11.44038000  6.18928000
  11.65510000 13.66134000 11.75500000
   9.01050000 11.80886000 13.60728000
   7.94640000 13.40898000 11.95070000
   6.31324000 10.07196000 11.71930000
   6.66456000  9.58930000  8.04504000
   6.52582000 12.06494000  8.58252000
   9.75846000 14.23710000  8.60416000
  12.00302000 13.17648000  8.08074000
 


--------------------------------------------------------------------------------------------------------


 k-point  1 :   0.0000 0.0000 0.0000  plane waves:  145165

 maximum and minimum number of plane-waves per node :     24209    24180

 maximum number of plane-waves:    145165
 maximum index in each direction: 
   IXMAX=   32   IYMAX=   32   IZMAX=   32
   IXMIN=  -32   IYMIN=  -32   IZMIN=  -32


 parallel 3D FFT for wavefunctions:
    minimum data exchange during FFTs selected (reduces bandwidth)
 parallel 3D FFT for charge:
    minimum data exchange during FFTs selected (reduces bandwidth)


 total amount of memory used by VASP MPI-rank0   131440. kBytes
=======================================================================

   base      :      30000. kBytes
   nonl-proj :      17624. kBytes
   fftplans  :      26957. kBytes
   grid      :      48673. kBytes
   one-center:         40. kBytes
   wavefun   :       8146. kBytes
 
     INWAV:  cpu time    0.0000: real time    0.0000
 Broyden mixing: mesh for mixing (old mesh)
   NGX = 65   NGY = 65   NGZ = 65
  (NGX  =196   NGY  =196   NGZ  =196)
  gives a total of 274625 points

 initial charge density was supplied:
 charge density of overlapping atoms calculated
 number of electron      56.0000000 magnetization 
 keeping initial charge density in first step


--------------------------------------------------------------------------------------------------------


 Maximum index for augmentation-charges          558 (set IRDMAX)


--------------------------------------------------------------------------------------------------------


 First call to EWALD:  gamma=   0.089
 Maximum number of real-space cells 3x 3x 3
 Maximum number of reciprocal cells 3x 3x 3

    FEWALD:  cpu time    0.0030: real time    0.0026


--------------------------------------- Iteration      1(   1)  ---------------------------------------


    POTLOK:  cpu time    1.7657: real time    1.7671
    SETDIJ:  cpu time    0.0080: real time    0.0077
     EDDAV:  cpu time   10.5924: real time   10.5890
       DOS:  cpu time    0.0010: real time    0.0004
    --------------------------------------------
      LOOP:  cpu time   12.3671: real time   12.3643

 eigenvalue-minimisations  :   116
 total energy-change (2. order) : 0.1979950E+03  (-0.1050050E+04)
 number of electron      56.0000000 magnetization 
 augmentation part       56.0000000 magnetization 

 Free energy of the ion-electron system (eV)
  ---------------------------------------------------
  alpha Z        PSCENC =         1.68866877
  Ewald energy   TEWEN  =      2629.98113996
  -Hartree energ DENC   =     -3443.50403153
  -exchange      EXHF   =         0.00000000
  -V(xc)+E(xc)   XCENC  =       -55.16177023
  PAW double counting   =       915.44662188     -748.97298319
  entropy T*S    EENTRO =        -0.42146106
  eigenvalues    EBANDS =      -337.16651202
  atomic energy  EATOM  =      1236.10535615
  Solvation  Ediel_sol  =         0.00000000
  ---------------------------------------------------
  free energy    TOTEN  =       197.99502872 eV

  energy without entropy =      198.41648979  energy(sigma->0) =      198.20575926


--------------------------------------------------------------------------------------------------------




--------------------------------------- Iteration      1(   2)  ---------------------------------------


     EDDAV:  cpu time   12.0392: real time   12.0365
       DOS:  cpu time    0.0000: real time    0.0003
    --------------------------------------------
      LOOP:  cpu time   12.0392: real time   12.0368

 eigenvalue-minimisations  :   136
 total energy-change (2. order) :-0.2274601E+03  (-0.2131965E+03)
 number of electron      56.0000000 magnetization 
 augmentation part       56.0000000 magnetization 

 Free energy of the ion-electron system (eV)
  ---------------------------------------------------
  alpha Z        PSCENC =         1.68866877
  Ewald energy   TEWEN  =      2629.98113996
  -Hartree energ DENC   =     -3443.50403153
  -exchange      EXHF   =         0.00000000
  -V(xc)+E(xc)   XCENC  =       -55.16177023
  PAW double counting   =       915.44662188     -748.97298319
  entropy T*S    EENTRO =        -0.00000000
  eigenvalues    EBANDS =      -565.04809980
  atomic energy  EATOM  =      1236.10535615
  Solvation  Ediel_sol  =         0.00000000
  ---------------------------------------------------
  free energy    TOTEN  =       -29.46509799 eV

  energy without entropy =      -29.46509799  energy(sigma->0) =      -29.46509799


--------------------------------------------------------------------------------------------------------




--------------------------------------- Iteration      1(   3)  ---------------------------------------


     EDDAV:  cpu time   10.3494: real time   10.5447
       DOS:  cpu time    0.0010: real time    0.0005
    --------------------------------------------
      LOOP:  cpu time   10.3504: real time   10.5451

 eigenvalue-minimisations  :   112
 total energy-change (2. order) :-0.7442430E+02  (-0.7424559E+02)
 number of electron      56.0000000 magnetization 
 augmentation part       56.0000000 magnetization 

 Free energy of the ion-electron system (eV)
  ---------------------------------------------------
  alpha Z        PSCENC =         1.68866877
  Ewald energy   TEWEN  =      2629.98113996
  -Hartree energ DENC   =     -3443.50403153
  -exchange      EXHF   =         0.00000000
  -V(xc)+E(xc)   XCENC  =       -55.16177023
  PAW double counting   =       915.44662188     -748.97298319
  entropy T*S    EENTRO =        -0.00000000
  eigenvalues    EBANDS =      -639.47240245
  atomic energy  EATOM  =      1236.10535615
  Solvation  Ediel_sol  =         0.00000000
  ---------------------------------------------------
  free energy    TOTEN  =      -103.88940064 eV

  energy without entropy =     -103.88940064  energy(sigma->0) =     -103.88940064


--------------------------------------------------------------------------------------------------------




--------------------------------------- Iteration      1(   4)  ---------------------------------------


     EDDAV:  cpu time   10.2864: real time   10.2861
       DOS:  cpu time    0.0000: real time    0.0004
    --------------------------------------------
      LOOP:  cpu time   10.2864: real time   10.2865

 eigenvalue-minimisations  :   112
 total energy-change (2. order) :-0.4228156E+01  (-0.4211725E+01)
 number of electron      56.0000000 magnetization 
 augmentation part       56.0000000 magnetization 

 Free energy of the ion-electron system (eV)
  ---------------------------------------------------
  alpha Z        PSCENC =         1.68866877
  Ewald energy   TEWEN  =      2629.98113996
  -Hartree energ DENC   =     -3443.50403153
  -exchange      EXHF   =         0.00000000
  -V(xc)+E(xc)   XCENC  =       -55.16177023
  PAW double counting   =       915.44662188     -748.97298319
  entropy T*S    EENTRO =        -0.00000000
  eigenvalues    EBANDS =      -643.70055894
  atomic energy  EATOM  =      1236.10535615
  Solvation  Ediel_sol  =         0.00000000
  ---------------------------------------------------
  free energy    TOTEN  =      -108.11755713 eV

  energy without entropy =     -108.11755713  energy(sigma->0) =     -108.11755713


--------------------------------------------------------------------------------------------------------




--------------------------------------- Iteration      1(   5)  ---------------------------------------


     EDDAV:  cpu time   12.6461: real time   12.6408
       DOS:  cpu time    0.0000: real time    0.0005
    CHARGE:  cpu time    0.4879: real time    0.4879
    MIXING:  cpu time    0.0450: real time    0.0445
    --------------------------------------------
      LOOP:  cpu time   13.1790: real time   13.1737

 eigenvalue-minimisations  :   144
 total energy-change (2. order) :-0.8508137E-01  (-0.8502431E-01)
 number of electron      56.0000025 magnetization 
 augmentation part       -3.1298972 magnetization 

 Broyden mixing:
  rms(total) = 0.15233E+01    rms(broyden)= 0.15232E+01
  rms(prec ) = 0.16194E+01
  weight for this iteration     100.00

 Free energy of the ion-electron system (eV)
  ---------------------------------------------------
  alpha Z        PSCENC =         1.68866877
  Ewald energy   TEWEN  =      2629.98113996
  -Hartree energ DENC   =     -3443.50403153
  -exchange      EXHF   =         0.00000000
  -V(xc)+E(xc)   XCENC  =       -55.16177023
  PAW double counting   =       915.44662188     -748.97298319
  entropy T*S    EENTRO =        -0.00000000
  eigenvalues    EBANDS =      -643.78564031
  atomic energy  EATOM  =      1236.10535615
  Solvation  Ediel_sol  =         0.00000000
  ---------------------------------------------------
  free energy    TOTEN  =      -108.20263850 eV

  energy without entropy =     -108.20263850  energy(sigma->0) =     -108.20263850


--------------------------------------------------------------------------------------------------------




--------------------------------------- Iteration      1(   6)  ---------------------------------------


    POTLOK:  cpu time    1.7397: real time    1.7416
    SETDIJ:  cpu time    0.0080: real time    0.0074
     EDDAV:  cpu time    9.6705: real time    9.6672
       DOS:  cpu time    0.0000: real time    0.0005
    CHARGE:  cpu time    0.4889: real time    0.4890
    MIXING:  cpu time    0.0480: real time    0.0478
    --------------------------------------------
      LOOP:  cpu time   11.9552: real time   11.9535

 eigenvalue-minimisations  :   104
 total energy-change (2. order) : 0.3238480E+01  (-0.1585397E+00)
 number of electron      56.0000024 magnetization 
 augmentation part       -3.1321869 magnetization 

 Broyden mixing:
  rms(total) = 0.88666E+00    rms(broyden)= 0.88666E+00
  rms(prec ) = 0.94506E+00
  weight for this iteration     100.00

 eigenvalues of (default mixing * dielectric matrix)
  average eigenvalue GAMMA=   2.3195
  2.3195

 Free energy of the ion-electron system (eV)
  ---------------------------------------------------
  alpha Z        PSCENC =         1.68866877
  Ewald energy   TEWEN  =      2629.98113996
  -Hartree energ DENC   =     -3475.15969579
  -exchange      EXHF   =         0.00000000
  -V(xc)+E(xc)   XCENC  =       -51.52583366
  PAW double counting   =      1883.09242049    -1717.34890966
  entropy T*S    EENTRO =        -0.00000000
  eigenvalues    EBANDS =      -611.79730444
  atomic energy  EATOM  =      1236.10535615
  Solvation  Ediel_sol  =         0.00000000
  ---------------------------------------------------
  free energy    TOTEN  =      -104.96415818 eV

  energy without entropy =     -104.96415818  energy(sigma->0) =     -104.96415818


--------------------------------------------------------------------------------------------------------




--------------------------------------- Iteration      1(   7)  ---------------------------------------


    POTLOK:  cpu time    1.6967: real time    1.6962
    SETDIJ:  cpu time    0.0080: real time    0.0075
     EDDAV:  cpu time   10.3094: real time   10.3068
       DOS:  cpu time    0.0000: real time    0.0005
    CHARGE:  cpu time    0.4899: real time    0.4895
    MIXING:  cpu time    0.0490: real time    0.0495
    --------------------------------------------
      LOOP:  cpu time   12.5531: real time   12.5501

 eigenvalue-minimisations  :   112
 total energy-change (2. order) : 0.1707529E+01  (-0.4147852E+00)
 number of electron      56.0000022 magnetization 
 augmentation part       -3.1341385 magnetization 

 Broyden mixing:
  rms(total) = 0.12350E+00    rms(broyden)= 0.12335E+00
  rms(prec ) = 0.15428E+00
  weight for this iteration     100.00

 eigenvalues of (default mixing * dielectric matrix)
  average eigenvalue GAMMA=   1.8333
  1.6497  2.0170

 Free energy of the ion-electron system (eV)
  ---------------------------------------------------
  alpha Z        PSCENC =         1.68866877
  Ewald energy   TEWEN  =      2629.98113996
  -Hartree energ DENC   =     -3531.83240279
  -exchange      EXHF   =         0.00000000
  -V(xc)+E(xc)   XCENC  =       -45.72298719
  PAW double counting   =      4063.80662499    -3899.04648842
  entropy T*S    EENTRO =        -0.00000000
  eigenvalues    EBANDS =      -558.23654056
  atomic energy  EATOM  =      1236.10535615
  Solvation  Ediel_sol  =         0.00000000
  ---------------------------------------------------
  free energy    TOTEN  =      -103.25662909 eV

  energy without entropy =     -103.25662909  energy(sigma->0) =     -103.25662909


--------------------------------------------------------------------------------------------------------




--------------------------------------- Iteration      1(   8)  ---------------------------------------


    POTLOK:  cpu time    1.6997: real time    1.6982
    SETDIJ:  cpu time    0.0070: real time    0.0075
     EDDAV:  cpu time    9.6915: real time    9.6880
       DOS:  cpu time    0.0000: real time    0.0004
    CHARGE:  cpu time    0.4859: real time    0.4859
    MIXING:  cpu time    0.0530: real time    0.0525
    --------------------------------------------
      LOOP:  cpu time   11.9372: real time   11.9325

 eigenvalue-minimisations  :   104
 total energy-change (2. order) : 0.5056963E-01  (-0.2612294E-01)
 number of electron      56.0000022 magnetization 
 augmentation part       -3.1310173 magnetization 

 Broyden mixing:
  rms(total) = 0.62396E-01    rms(broyden)= 0.62381E-01
  rms(prec ) = 0.81750E-01
  weight for this iteration     100.00

 eigenvalues of (default mixing * dielectric matrix)
  average eigenvalue GAMMA=   1.9856
  2.6298  1.6635  1.6635

 Free energy of the ion-electron system (eV)
  ---------------------------------------------------
  alpha Z        PSCENC =         1.68866877
  Ewald energy   TEWEN  =      2629.98113996
  -Hartree energ DENC   =     -3539.35113466
  -exchange      EXHF   =         0.00000000
  -V(xc)+E(xc)   XCENC  =       -45.78851154
  PAW double counting   =      4077.72408425    -3912.86929710
  entropy T*S    EENTRO =        -0.00000000
  eigenvalues    EBANDS =      -550.69636530
  atomic energy  EATOM  =      1236.10535615
  Solvation  Ediel_sol  =         0.00000000
  ---------------------------------------------------
  free energy    TOTEN  =      -103.20605947 eV

  energy without entropy =     -103.20605947  energy(sigma->0) =     -103.20605947


--------------------------------------------------------------------------------------------------------




--------------------------------------- Iteration      1(   9)  ---------------------------------------


    POTLOK:  cpu time    1.7157: real time    1.7147
    SETDIJ:  cpu time    0.0140: real time    0.0143
     EDDAV:  cpu time   11.3953: real time   11.3910
       DOS:  cpu time    0.0000: real time    0.0005
    CHARGE:  cpu time    0.4879: real time    0.4903
    MIXING:  cpu time    0.0550: real time    0.0550
    --------------------------------------------
      LOOP:  cpu time   13.6679: real time   13.6658

 eigenvalue-minimisations  :   128
 total energy-change (2. order) : 0.3523273E-01  (-0.7597553E-02)
 number of electron      56.0000022 magnetization 
 augmentation part       -3.1202671 magnetization 

 Broyden mixing:
  rms(total) = 0.34788E-01    rms(broyden)= 0.34787E-01
  rms(prec ) = 0.46111E-01
  weight for this iteration     100.00

 eigenvalues of (default mixing * dielectric matrix)
  average eigenvalue GAMMA=   1.7326
  2.4849  1.8326  1.8326  0.7805

 Free energy of the ion-electron system (eV)
  ---------------------------------------------------
  alpha Z        PSCENC =         1.68866877
  Ewald energy   TEWEN  =      2629.98113996
  -Hartree energ DENC   =     -3551.15527448
  -exchange      EXHF   =         0.00000000
  -V(xc)+E(xc)   XCENC  =       -45.11465302
  PAW double counting   =      4201.07539057    -4036.24151228
  entropy T*S    EENTRO =        -0.00000000
  eigenvalues    EBANDS =      -539.50994241
  atomic energy  EATOM  =      1236.10535615
  Solvation  Ediel_sol  =         0.00000000
  ---------------------------------------------------
  free energy    TOTEN  =      -103.17082673 eV

  energy without entropy =     -103.17082673  energy(sigma->0) =     -103.17082673


--------------------------------------------------------------------------------------------------------




--------------------------------------- Iteration      1(  10)  ---------------------------------------


    POTLOK:  cpu time    1.8487: real time    1.8544
    SETDIJ:  cpu time    0.0080: real time    0.0076
     EDDAV:  cpu time   10.2854: real time   10.3080
       DOS:  cpu time    0.0000: real time    0.0005
    CHARGE:  cpu time    0.4799: real time    0.4796
    MIXING:  cpu time    0.0580: real time    0.0577
    --------------------------------------------
      LOOP:  cpu time   12.6801: real time   12.7078

 eigenvalue-minimisations  :   112
 total energy-change (2. order) :-0.2606402E-03  (-0.2933481E-03)
 number of electron      56.0000022 magnetization 
 augmentation part       -3.1193186 magnetization 

 Broyden mixing:
  rms(total) = 0.16281E-01    rms(broyden)= 0.16280E-01
  rms(prec ) = 0.29435E-01
  weight for this iteration     100.00

 eigenvalues of (default mixing * dielectric matrix)
  average eigenvalue GAMMA=   1.8923
  2.8194  1.0511  2.2231  1.6839  1.6839

 Free energy of the ion-electron system (eV)
  ---------------------------------------------------
  alpha Z        PSCENC =         1.68866877
  Ewald energy   TEWEN  =      2629.98113996
  -Hartree energ DENC   =     -3553.13146556
  -exchange      EXHF   =         0.00000000
  -V(xc)+E(xc)   XCENC  =       -45.12458316
  PAW double counting   =      4114.94254395    -3950.06249601
  entropy T*S    EENTRO =        -0.00000000
  eigenvalues    EBANDS =      -537.57025148
  atomic energy  EATOM  =      1236.10535615
  Solvation  Ediel_sol  =         0.00000000
  ---------------------------------------------------
  free energy    TOTEN  =      -103.17108737 eV

  energy without entropy =     -103.17108737  energy(sigma->0) =     -103.17108737


--------------------------------------------------------------------------------------------------------




--------------------------------------- Iteration      1(  11)  ---------------------------------------


    POTLOK:  cpu time    1.7197: real time    1.7348
    SETDIJ:  cpu time    0.0080: real time    0.0152
     EDDAV:  cpu time    9.7155: real time    9.7150
       DOS:  cpu time    0.0010: real time    0.0003
    CHARGE:  cpu time    0.4949: real time    0.4981
    MIXING:  cpu time    0.0580: real time    0.0584
    --------------------------------------------
      LOOP:  cpu time   11.9972: real time   12.0218

 eigenvalue-minimisations  :   104
 total energy-change (2. order) : 0.5010237E-03  (-0.7363489E-03)
 number of electron      56.0000022 magnetization 
 augmentation part       -3.1185361 magnetization 

 Broyden mixing:
  rms(total) = 0.78918E-02    rms(broyden)= 0.78915E-02
  rms(prec ) = 0.14276E-01
  weight for this iteration     100.00

 eigenvalues of (default mixing * dielectric matrix)
  average eigenvalue GAMMA=   1.8544
  3.1933  2.5404  1.7428  1.7428  1.0350  0.8719

 Free energy of the ion-electron system (eV)
  ---------------------------------------------------
  alpha Z        PSCENC =         1.68866877
  Ewald energy   TEWEN  =      2629.98113996
  -Hartree energ DENC   =     -3560.33470464
  -exchange      EXHF   =         0.00000000
  -V(xc)+E(xc)   XCENC  =       -44.91612887
  PAW double counting   =      4068.18061107    -3903.25533386
  entropy T*S    EENTRO =        -0.00000000
  eigenvalues    EBANDS =      -530.62019494
  atomic energy  EATOM  =      1236.10535615
  Solvation  Ediel_sol  =         0.00000000
  ---------------------------------------------------
  free energy    TOTEN  =      -103.17058635 eV

  energy without entropy =     -103.17058635  energy(sigma->0) =     -103.17058635


--------------------------------------------------------------------------------------------------------




--------------------------------------- Iteration      1(  12)  ---------------------------------------


    POTLOK:  cpu time    1.7257: real time    1.7253
    SETDIJ:  cpu time    0.0070: real time    0.0074
     EDDAV:  cpu time    9.1406: real time    9.1396
       DOS:  cpu time    0.0000: real time    0.0003
    CHARGE:  cpu time    0.4879: real time    0.4882
    MIXING:  cpu time    0.0640: real time    0.0642
    --------------------------------------------
      LOOP:  cpu time   11.4253: real time   11.4250

 eigenvalue-minimisations  :    96
 total energy-change (2. order) :-0.3829922E-02  (-0.8138805E-04)
 number of electron      56.0000022 magnetization 
 augmentation part       -3.1182139 magnetization 

 Broyden mixing:
  rms(total) = 0.59252E-02    rms(broyden)= 0.59252E-02
  rms(prec ) = 0.10382E-01
  weight for this iteration     100.00

 eigenvalues of (default mixing * dielectric matrix)
  average eigenvalue GAMMA=   2.0692
  4.4307  2.4773  2.4773  1.5957  1.5957  0.9538  0.9538

 Free energy of the ion-electron system (eV)
  ---------------------------------------------------
  alpha Z        PSCENC =         1.68866877
  Ewald energy   TEWEN  =      2629.98113996
  -Hartree energ DENC   =     -3562.25541336
  -exchange      EXHF   =         0.00000000
  -V(xc)+E(xc)   XCENC  =       -44.88693413
  PAW double counting   =      4060.99339224    -3896.06590472
  entropy T*S    EENTRO =        -0.00000000
  eigenvalues    EBANDS =      -528.73472118
  atomic energy  EATOM  =      1236.10535615
  Solvation  Ediel_sol  =         0.00000000
  ---------------------------------------------------
  free energy    TOTEN  =      -103.17441627 eV

  energy without entropy =     -103.17441627  energy(sigma->0) =     -103.17441627


--------------------------------------------------------------------------------------------------------




--------------------------------------- Iteration      1(  13)  ---------------------------------------


    POTLOK:  cpu time    1.7257: real time    1.7247
    SETDIJ:  cpu time    0.0070: real time    0.0074
     EDDAV:  cpu time    9.7745: real time    9.7711
       DOS:  cpu time    0.0000: real time    0.0003
    CHARGE:  cpu time    0.4859: real time    0.4859
    MIXING:  cpu time    0.0670: real time    0.0673
    --------------------------------------------
      LOOP:  cpu time   12.0602: real time   12.0568

 eigenvalue-minimisations  :   104
 total energy-change (2. order) :-0.5247875E-02  (-0.2096712E-03)
 number of electron      56.0000022 magnetization 
 augmentation part       -3.1179428 magnetization 

 Broyden mixing:
  rms(total) = 0.34273E-02    rms(broyden)= 0.34272E-02
  rms(prec ) = 0.51556E-02
  weight for this iteration     100.00

 eigenvalues of (default mixing * dielectric matrix)
  average eigenvalue GAMMA=   2.1903
  5.7185  2.8899  2.3799  1.7762  1.7762  1.0779  0.9518  0.9518

 Free energy of the ion-electron system (eV)
  ---------------------------------------------------
  alpha Z        PSCENC =         1.68866877
  Ewald energy   TEWEN  =      2629.98113996
  -Hartree energ DENC   =     -3565.33156752
  -exchange      EXHF   =         0.00000000
  -V(xc)+E(xc)   XCENC  =       -44.83120094
  PAW double counting   =      4068.29666815    -3903.37793400
  entropy T*S    EENTRO =        -0.00000000
  eigenvalues    EBANDS =      -525.71079471
  atomic energy  EATOM  =      1236.10535615
  Solvation  Ediel_sol  =         0.00000000
  ---------------------------------------------------
  free energy    TOTEN  =      -103.17966415 eV

  energy without entropy =     -103.17966415  energy(sigma->0) =     -103.17966415


--------------------------------------------------------------------------------------------------------




--------------------------------------- Iteration      1(  14)  ---------------------------------------


    POTLOK:  cpu time    1.7257: real time    1.7249
    SETDIJ:  cpu time    0.0070: real time    0.0075
     EDDAV:  cpu time   10.3504: real time   10.3485
       DOS:  cpu time    0.0000: real time    0.0004
    CHARGE:  cpu time    0.4839: real time    0.4841
    MIXING:  cpu time    0.0740: real time    0.0737
    --------------------------------------------
      LOOP:  cpu time   12.6411: real time   12.6391

 eigenvalue-minimisations  :   112
 total energy-change (2. order) :-0.3535175E-02  (-0.2708740E-04)
 number of electron      56.0000022 magnetization 
 augmentation part       -3.1175390 magnetization 

 Broyden mixing:
  rms(total) = 0.16739E-02    rms(broyden)= 0.16739E-02
  rms(prec ) = 0.28754E-02
  weight for this iteration     100.00

 eigenvalues of (default mixing * dielectric matrix)
  average eigenvalue GAMMA=   2.2937
  6.4959  2.8484  2.8484  2.1901  1.6501  1.6501  1.0596  0.9504  0.9504

 Free energy of the ion-electron system (eV)
  ---------------------------------------------------
  alpha Z        PSCENC =         1.68866877
  Ewald energy   TEWEN  =      2629.98113996
  -Hartree energ DENC   =     -3566.02957395
  -exchange      EXHF   =         0.00000000
  -V(xc)+E(xc)   XCENC  =       -44.84184318
  PAW double counting   =      4066.16878223    -3901.25073911
  entropy T*S    EENTRO =        -0.00000000
  eigenvalues    EBANDS =      -525.00499019
  atomic energy  EATOM  =      1236.10535615
  Solvation  Ediel_sol  =         0.00000000
  ---------------------------------------------------
  free energy    TOTEN  =      -103.18319932 eV

  energy without entropy =     -103.18319932  energy(sigma->0) =     -103.18319932


--------------------------------------------------------------------------------------------------------




--------------------------------------- Iteration      1(  15)  ---------------------------------------


    POTLOK:  cpu time    1.7187: real time    1.7208
    SETDIJ:  cpu time    0.0070: real time    0.0074
     EDDAV:  cpu time   10.3344: real time   10.3313
       DOS:  cpu time    0.0000: real time    0.0003
    CHARGE:  cpu time    0.4869: real time    0.4868
    MIXING:  cpu time    0.0810: real time    0.0811
    --------------------------------------------
      LOOP:  cpu time   12.6281: real time   12.6277

 eigenvalue-minimisations  :   112
 total energy-change (2. order) :-0.4992476E-02  (-0.6730439E-04)
 number of electron      56.0000022 magnetization 
 augmentation part       -3.1173464 magnetization 

 Broyden mixing:
  rms(total) = 0.16997E-02    rms(broyden)= 0.16996E-02
  rms(prec ) = 0.20921E-02
  weight for this iteration     100.00

 eigenvalues of (default mixing * dielectric matrix)
  average eigenvalue GAMMA=   2.2995
  6.7841  3.7955  2.5899  2.1975  1.8085  1.8085  1.1506  0.9318  0.9642  0.9642

 Free energy of the ion-electron system (eV)
  ---------------------------------------------------
  alpha Z        PSCENC =         1.68866877
  Ewald energy   TEWEN  =      2629.98113996
  -Hartree energ DENC   =     -3566.26271477
  -exchange      EXHF   =         0.00000000
  -V(xc)+E(xc)   XCENC  =       -44.85317186
  PAW double counting   =      4070.47256667    -3905.55374768
  entropy T*S    EENTRO =        -0.00000000
  eigenvalues    EBANDS =      -524.76628905
  atomic energy  EATOM  =      1236.10535615
  Solvation  Ediel_sol  =         0.00000000
  ---------------------------------------------------
  free energy    TOTEN  =      -103.18819180 eV

  energy without entropy =     -103.18819180  energy(sigma->0) =     -103.18819180


--------------------------------------------------------------------------------------------------------




--------------------------------------- Iteration      1(  16)  ---------------------------------------


    POTLOK:  cpu time    1.7277: real time    1.7290
    SETDIJ:  cpu time    0.0070: real time    0.0076
     EDDAV:  cpu time   10.3644: real time   10.3615
       DOS:  cpu time    0.0000: real time    0.0004
    CHARGE:  cpu time    0.4809: real time    0.4811
    MIXING:  cpu time    0.0890: real time    0.0886
    --------------------------------------------
      LOOP:  cpu time   12.6691: real time   12.6681

 eigenvalue-minimisations  :   112
 total energy-change (2. order) :-0.8426779E-03  (-0.3827915E-05)
 number of electron      56.0000022 magnetization 
 augmentation part       -3.1174781 magnetization 

 Broyden mixing:
  rms(total) = 0.80981E-03    rms(broyden)= 0.80980E-03
  rms(prec ) = 0.11140E-02
  weight for this iteration     100.00

 eigenvalues of (default mixing * dielectric matrix)
  average eigenvalue GAMMA=   2.4189
  7.4281  4.6408  2.6977  2.5606  1.8204  1.8204  1.3757  1.3757  0.9459  0.9459
  0.9966

 Free energy of the ion-electron system (eV)
  ---------------------------------------------------
  alpha Z        PSCENC =         1.68866877
  Ewald energy   TEWEN  =      2629.98113996
  -Hartree energ DENC   =     -3566.36453072
  -exchange      EXHF   =         0.00000000
  -V(xc)+E(xc)   XCENC  =       -44.85171089
  PAW double counting   =      4070.39137846    -3905.47169623
  entropy T*S    EENTRO =        -0.00000000
  eigenvalues    EBANDS =      -524.66763998
  atomic energy  EATOM  =      1236.10535615
  Solvation  Ediel_sol  =         0.00000000
  ---------------------------------------------------
  free energy    TOTEN  =      -103.18903448 eV

  energy without entropy =     -103.18903448  energy(sigma->0) =     -103.18903448


--------------------------------------------------------------------------------------------------------




--------------------------------------- Iteration      1(  17)  ---------------------------------------


    POTLOK:  cpu time    1.7117: real time    1.7122
    SETDIJ:  cpu time    0.0080: real time    0.0074
     EDDAV:  cpu time    9.7415: real time    9.7394
       DOS:  cpu time    0.0000: real time    0.0004
    CHARGE:  cpu time    0.4849: real time    0.4843
    MIXING:  cpu time    0.0990: real time    0.0988
    --------------------------------------------
      LOOP:  cpu time   12.0452: real time   12.0425

 eigenvalue-minimisations  :   104
 total energy-change (2. order) :-0.1085384E-02  (-0.9698120E-05)
 number of electron      56.0000022 magnetization 
 augmentation part       -3.1176642 magnetization 

 Broyden mixing:
  rms(total) = 0.31237E-03    rms(broyden)= 0.31232E-03
  rms(prec ) = 0.45488E-03
  weight for this iteration     100.00

 eigenvalues of (default mixing * dielectric matrix)
  average eigenvalue GAMMA=   2.3897
  7.6658  5.0539  2.6991  2.6991  1.9002  1.9002  1.4721  1.4721  0.9966  0.9734
  0.9734  0.8702

 Free energy of the ion-electron system (eV)
  ---------------------------------------------------
  alpha Z        PSCENC =         1.68866877
  Ewald energy   TEWEN  =      2629.98113996
  -Hartree energ DENC   =     -3566.40137767
  -exchange      EXHF   =         0.00000000
  -V(xc)+E(xc)   XCENC  =       -44.85196068
  PAW double counting   =      4069.07940552    -3904.15863762
  entropy T*S    EENTRO =        -0.00000000
  eigenvalues    EBANDS =      -524.63271429
  atomic energy  EATOM  =      1236.10535615
  Solvation  Ediel_sol  =         0.00000000
  ---------------------------------------------------
  free energy    TOTEN  =      -103.19011986 eV

  energy without entropy =     -103.19011986  energy(sigma->0) =     -103.19011986


--------------------------------------------------------------------------------------------------------




--------------------------------------- Iteration      1(  18)  ---------------------------------------


    POTLOK:  cpu time    1.7107: real time    1.7108
    SETDIJ:  cpu time    0.0080: real time    0.0073
     EDDAV:  cpu time   10.3544: real time   10.3521
       DOS:  cpu time    0.0000: real time    0.0004
    CHARGE:  cpu time    0.4829: real time    0.4825
    MIXING:  cpu time    0.1220: real time    0.1223
    --------------------------------------------
      LOOP:  cpu time   12.6781: real time   12.6754

 eigenvalue-minimisations  :   112
 total energy-change (2. order) :-0.2351372E-03  (-0.7800096E-06)
 number of electron      56.0000022 magnetization 
 augmentation part       -3.1176789 magnetization 

 Broyden mixing:
  rms(total) = 0.22025E-03    rms(broyden)= 0.22021E-03
  rms(prec ) = 0.30693E-03
  weight for this iteration     100.00

 eigenvalues of (default mixing * dielectric matrix)
  average eigenvalue GAMMA=   2.4801
  8.2119  5.6058  3.2279  2.6474  2.2356  1.8046  1.8046  1.4072  1.4072  0.9892
  0.9892  0.9554  0.9554

 Free energy of the ion-electron system (eV)
  ---------------------------------------------------
  alpha Z        PSCENC =         1.68866877
  Ewald energy   TEWEN  =      2629.98113996
  -Hartree energ DENC   =     -3566.41465213
  -exchange      EXHF   =         0.00000000
  -V(xc)+E(xc)   XCENC  =       -44.85272665
  PAW double counting   =      4068.55770139    -3903.63727509
  entropy T*S    EENTRO =        -0.00000000
  eigenvalues    EBANDS =      -524.61856740
  atomic energy  EATOM  =      1236.10535615
  Solvation  Ediel_sol  =         0.00000000
  ---------------------------------------------------
  free energy    TOTEN  =      -103.19035500 eV

  energy without entropy =     -103.19035500  energy(sigma->0) =     -103.19035500


--------------------------------------------------------------------------------------------------------




--------------------------------------- Iteration      1(  19)  ---------------------------------------


    POTLOK:  cpu time    1.7257: real time    1.7253
    SETDIJ:  cpu time    0.0080: real time    0.0074
     EDDAV:  cpu time    9.0756: real time    9.0743
       DOS:  cpu time    0.0000: real time    0.0004
    CHARGE:  cpu time    0.4849: real time    0.4851
    MIXING:  cpu time    0.1200: real time    0.1197
    --------------------------------------------
      LOOP:  cpu time   11.4143: real time   11.4121

 eigenvalue-minimisations  :    94
 total energy-change (2. order) :-0.1964133E-03  (-0.7216429E-06)
 number of electron      56.0000022 magnetization 
 augmentation part       -3.1176891 magnetization 

 Broyden mixing:
  rms(total) = 0.18369E-03    rms(broyden)= 0.18368E-03
  rms(prec ) = 0.22151E-03
  weight for this iteration     100.00

 eigenvalues of (default mixing * dielectric matrix)
  average eigenvalue GAMMA=   2.4676
  8.2444  6.1711  3.3484  2.6732  2.3760  1.8677  1.8677  1.5261  1.5261  1.1377
  0.9777  0.9777  0.9261  0.9261

 Free energy of the ion-electron system (eV)
  ---------------------------------------------------
  alpha Z        PSCENC =         1.68866877
  Ewald energy   TEWEN  =      2629.98113996
  -Hartree energ DENC   =     -3566.43889304
  -exchange      EXHF   =         0.00000000
  -V(xc)+E(xc)   XCENC  =       -44.85150220
  PAW double counting   =      4068.15921685    -3903.23921334
  entropy T*S    EENTRO =        -0.00000000
  eigenvalues    EBANDS =      -524.59532456
  atomic energy  EATOM  =      1236.10535615
  Solvation  Ediel_sol  =         0.00000000
  ---------------------------------------------------
  free energy    TOTEN  =      -103.19055141 eV

  energy without entropy =     -103.19055141  energy(sigma->0) =     -103.19055141


--------------------------------------------------------------------------------------------------------




--------------------------------------- Iteration      1(  20)  ---------------------------------------


    POTLOK:  cpu time    1.7427: real time    1.7559
    SETDIJ:  cpu time    0.0070: real time    0.0075
     EDDAV:  cpu time    8.6137: real time    8.6164
       DOS:  cpu time    0.0000: real time    0.0004
    CHARGE:  cpu time    0.4839: real time    0.4833
    MIXING:  cpu time    0.1310: real time    0.1312
    --------------------------------------------
      LOOP:  cpu time   10.9783: real time   10.9947

 eigenvalue-minimisations  :    88
 total energy-change (2. order) :-0.3987620E-04  (-0.6444199E-07)
 number of electron      56.0000022 magnetization 
 augmentation part       -3.1176687 magnetization 

 Broyden mixing:
  rms(total) = 0.64437E-04    rms(broyden)= 0.64437E-04
  rms(prec ) = 0.91334E-04
  weight for this iteration     100.00

 eigenvalues of (default mixing * dielectric matrix)
  average eigenvalue GAMMA=   2.5132
  8.5685  6.3986  4.0065  2.8679  2.5855  1.8317  1.8317  1.6681  1.4569  1.4569
  1.2297  0.9687  0.9687  0.9627  0.8952

 Free energy of the ion-electron system (eV)
  ---------------------------------------------------
  alpha Z        PSCENC =         1.68866877
  Ewald energy   TEWEN  =      2629.98113996
  -Hartree energ DENC   =     -3566.44668401
  -exchange      EXHF   =         0.00000000
  -V(xc)+E(xc)   XCENC  =       -44.85197494
  PAW double counting   =      4068.24052069    -3903.32064805
  entropy T*S    EENTRO =        -0.00000000
  eigenvalues    EBANDS =      -524.58696985
  atomic energy  EATOM  =      1236.10535615
  Solvation  Ediel_sol  =         0.00000000
  ---------------------------------------------------
  free energy    TOTEN  =      -103.19059129 eV

  energy without entropy =     -103.19059129  energy(sigma->0) =     -103.19059129


--------------------------------------------------------------------------------------------------------




--------------------------------------- Iteration      1(  21)  ---------------------------------------


    POTLOK:  cpu time    1.7097: real time    1.7110
    SETDIJ:  cpu time    0.0070: real time    0.0077
     EDDAV:  cpu time    7.8208: real time    7.8304
       DOS:  cpu time    0.0000: real time    0.0006
    CHARGE:  cpu time    0.4849: real time    0.4842
    MIXING:  cpu time    0.1410: real time    0.1414
    --------------------------------------------
      LOOP:  cpu time   10.1635: real time   10.1753

 eigenvalue-minimisations  :    78
 total energy-change (2. order) :-0.3153605E-04  (-0.1026228E-06)
 number of electron      56.0000022 magnetization 
 augmentation part       -3.1176475 magnetization 

 Broyden mixing:
  rms(total) = 0.61829E-04    rms(broyden)= 0.61824E-04
  rms(prec ) = 0.77275E-04
  weight for this iteration     100.00

 eigenvalues of (default mixing * dielectric matrix)
  average eigenvalue GAMMA=   2.5061
  8.5914  6.6065  4.2400  3.0018  2.6493  2.0771  1.9059  1.9059  1.5728  1.5728
  1.1999  0.9829  0.9829  0.9565  0.9261  0.9261

 Free energy of the ion-electron system (eV)
  ---------------------------------------------------
  alpha Z        PSCENC =         1.68866877
  Ewald energy   TEWEN  =      2629.98113996
  -Hartree energ DENC   =     -3566.45076106
  -exchange      EXHF   =         0.00000000
  -V(xc)+E(xc)   XCENC  =       -44.85232933
  PAW double counting   =      4068.40887802    -3903.48902206
  entropy T*S    EENTRO =        -0.00000000
  eigenvalues    EBANDS =      -524.58255327
  atomic energy  EATOM  =      1236.10535615
  Solvation  Ediel_sol  =         0.00000000
  ---------------------------------------------------
  free energy    TOTEN  =      -103.19062282 eV

  energy without entropy =     -103.19062282  energy(sigma->0) =     -103.19062282


--------------------------------------------------------------------------------------------------------




--------------------------------------- Iteration      1(  22)  ---------------------------------------


    POTLOK:  cpu time    1.7487: real time    1.7501
    SETDIJ:  cpu time    0.0080: real time    0.0074
     EDDAV:  cpu time    8.6077: real time    8.6073
       DOS:  cpu time    0.0000: real time    0.0004
    CHARGE:  cpu time    0.4889: real time    0.4886
    MIXING:  cpu time    0.1550: real time    0.1553
    --------------------------------------------
      LOOP:  cpu time   11.0083: real time   11.0091

 eigenvalue-minimisations  :    88
 total energy-change (2. order) :-0.7648331E-05  (-0.2055305E-07)
 number of electron      56.0000022 magnetization 
 augmentation part       -3.1176564 magnetization 

 Broyden mixing:
  rms(total) = 0.24057E-04    rms(broyden)= 0.24056E-04
  rms(prec ) = 0.30319E-04
  weight for this iteration     100.00

 eigenvalues of (default mixing * dielectric matrix)
  average eigenvalue GAMMA=   2.4960
  8.7732  6.7311  4.5623  3.1598  2.5378  2.5378  1.8428  1.8428  1.6272  1.6272
  1.1988  1.1988  0.9661  0.9661  0.9416  0.9416  0.9774

 Free energy of the ion-electron system (eV)
  ---------------------------------------------------
  alpha Z        PSCENC =         1.68866877
  Ewald energy   TEWEN  =      2629.98113996
  -Hartree energ DENC   =     -3566.44982609
  -exchange      EXHF   =         0.00000000
  -V(xc)+E(xc)   XCENC  =       -44.85220527
  PAW double counting   =      4068.49717568    -3903.57717346
  entropy T*S    EENTRO =        -0.00000000
  eigenvalues    EBANDS =      -524.58376621
  atomic energy  EATOM  =      1236.10535615
  Solvation  Ediel_sol  =         0.00000000
  ---------------------------------------------------
  free energy    TOTEN  =      -103.19063047 eV

  energy without entropy =     -103.19063047  energy(sigma->0) =     -103.19063047


--------------------------------------------------------------------------------------------------------




--------------------------------------- Iteration      1(  23)  ---------------------------------------


    POTLOK:  cpu time    1.7037: real time    1.7046
    SETDIJ:  cpu time    0.0070: real time    0.0074
     EDDAV:  cpu time    8.0368: real time    8.0342
       DOS:  cpu time    0.0010: real time    0.0005
    CHARGE:  cpu time    0.4849: real time    0.4851
    MIXING:  cpu time    0.1690: real time    0.1687
    --------------------------------------------
      LOOP:  cpu time   10.4024: real time   10.4005

 eigenvalue-minimisations  :    80
 total energy-change (2. order) :-0.2958851E-05  (-0.6664468E-08)
 number of electron      56.0000022 magnetization 
 augmentation part       -3.1176632 magnetization 

 Broyden mixing:
  rms(total) = 0.16906E-04    rms(broyden)= 0.16906E-04
  rms(prec ) = 0.21500E-04
  weight for this iteration     100.00

 eigenvalues of (default mixing * dielectric matrix)
  average eigenvalue GAMMA=   2.5139
  8.8188  6.8339  4.7525  3.1327  2.7269  2.7269  1.9780  1.9780  1.6920  1.6920
  1.5983  1.3192  0.9368  0.9368  0.9879  0.9879  1.0757  1.0757

 Free energy of the ion-electron system (eV)
  ---------------------------------------------------
  alpha Z        PSCENC =         1.68866877
  Ewald energy   TEWEN  =      2629.98113996
  -Hartree energ DENC   =     -3566.44905074
  -exchange      EXHF   =         0.00000000
  -V(xc)+E(xc)   XCENC  =       -44.85227831
  PAW double counting   =      4068.42512006    -3903.50508749
  entropy T*S    EENTRO =        -0.00000000
  eigenvalues    EBANDS =      -524.58450184
  atomic energy  EATOM  =      1236.10535615
  Solvation  Ediel_sol  =         0.00000000
  ---------------------------------------------------
  free energy    TOTEN  =      -103.19063343 eV

  energy without entropy =     -103.19063343  energy(sigma->0) =     -103.19063343


--------------------------------------------------------------------------------------------------------




--------------------------------------- Iteration      1(  24)  ---------------------------------------


    POTLOK:  cpu time    1.7167: real time    1.7159
    SETDIJ:  cpu time    0.0070: real time    0.0075
     EDDAV:  cpu time    8.0218: real time    8.0201
       DOS:  cpu time    0.0010: real time    0.0005
    CHARGE:  cpu time    0.4839: real time    0.4848
    MIXING:  cpu time    0.1800: real time    0.1792
    --------------------------------------------
      LOOP:  cpu time   10.4104: real time   10.4079

 eigenvalue-minimisations  :    80
 total energy-change (2. order) :-0.2949918E-05  (-0.4359903E-08)
 number of electron      56.0000022 magnetization 
 augmentation part       -3.1176622 magnetization 

 Broyden mixing:
  rms(total) = 0.92483E-05    rms(broyden)= 0.92482E-05
  rms(prec ) = 0.10804E-04
  weight for this iteration     100.00

 eigenvalues of (default mixing * dielectric matrix)
  average eigenvalue GAMMA=   2.5327
  8.8646  7.0860  5.3954  3.8639  2.8913  2.4976  2.3311  1.8538  1.8538  1.5945
  1.5945  1.2071  1.2071  1.1130  0.9717  0.9249  0.9249  0.9730  0.9730

 Free energy of the ion-electron system (eV)
  ---------------------------------------------------
  alpha Z        PSCENC =         1.68866877
  Ewald energy   TEWEN  =      2629.98113996
  -Hartree energ DENC   =     -3566.45046041
  -exchange      EXHF   =         0.00000000
  -V(xc)+E(xc)   XCENC  =       -44.85224970
  PAW double counting   =      4068.37246312    -3903.45247311
  entropy T*S    EENTRO =        -0.00000000
  eigenvalues    EBANDS =      -524.58308116
  atomic energy  EATOM  =      1236.10535615
  Solvation  Ediel_sol  =         0.00000000
  ---------------------------------------------------
  free energy    TOTEN  =      -103.19063638 eV

  energy without entropy =     -103.19063638  energy(sigma->0) =     -103.19063638


--------------------------------------------------------------------------------------------------------




--------------------------------------- Iteration      1(  25)  ---------------------------------------


    POTLOK:  cpu time    1.7237: real time    1.7233
    SETDIJ:  cpu time    0.0080: real time    0.0077
     EDDAV:  cpu time    8.6017: real time    8.6007
       DOS:  cpu time    0.0010: real time    0.0004
    --------------------------------------------
      LOOP:  cpu time   10.3344: real time   10.3321

 eigenvalue-minimisations  :    88
 total energy-change (2. order) :-0.5000711E-06  (-0.1021911E-08)
 number of electron      56.0000022 magnetization 
 augmentation part       -3.1176622 magnetization 

 Free energy of the ion-electron system (eV)
  ---------------------------------------------------
  alpha Z        PSCENC =         1.68866877
  Ewald energy   TEWEN  =      2629.98113996
  -Hartree energ DENC   =     -3566.45063623
  -exchange      EXHF   =         0.00000000
  -V(xc)+E(xc)   XCENC  =       -44.85221939
  PAW double counting   =      4068.39194254    -3903.47195363
  entropy T*S    EENTRO =        -0.00000000
  eigenvalues    EBANDS =      -524.58293505
  atomic energy  EATOM  =      1236.10535615
  Solvation  Ediel_sol  =         0.00000000
  ---------------------------------------------------
  free energy    TOTEN  =      -103.19063688 eV

  energy without entropy =     -103.19063688  energy(sigma->0) =     -103.19063688


--------------------------------------------------------------------------------------------------------




 average (electrostatic) potential at core
  the test charge radii are     0.9892  1.1631  0.5201
  (the norm of the test charge is              1.0000)
       1 -93.3640       2 -93.4231       3 -93.4231       4 -93.4230       5 -93.4415
       6 -93.4415       7 -93.4415       8 -40.3929       9 -40.3928      10 -40.3929
      11 -41.0632      12 -41.0735      13 -40.6911      14 -41.0635      15 -41.0735
      16 -40.7035      17 -40.7042      18 -40.7150      19 -40.6915      20 -41.0736
      21 -41.0633      22 -40.6914      23 -40.7035      24 -40.7036      25 -40.7031
      26 -40.7031
 
 
 
 E-fermi :  -5.4318     XC(G=0):  -0.6074     alpha+bet : -0.3428


 k-point     1 :       0.0000    0.0000    0.0000
  band No.  band energies     occupation 
      1     -15.0446      2.00000
      2     -14.0584      2.00000
      3     -14.0584      2.00000
      4     -13.8631      2.00000
      5     -12.8801      2.00000
      6     -12.8800      2.00000
      7     -11.3626      2.00000
      8     -11.3350      2.00000
      9     -11.3350      2.00000
     10     -10.3395      2.00000
     11      -8.9407      2.00000
     12      -8.6325      2.00000
     13      -8.6150      2.00000
     14      -8.6150      2.00000
     15      -8.1882      2.00000
     16      -8.1685      2.00000
     17      -8.1684      2.00000
     18      -7.8575      2.00000
     19      -7.8575      2.00000
     20      -7.8559      2.00000
     21      -6.7910      2.00000
     22      -6.7910      2.00000
     23      -6.4911      2.00000
     24      -6.4910      2.00000
     25      -6.4651      2.00000
     26      -6.4124      2.00000
     27      -6.3970      2.00000
     28      -6.3970      2.00000
     29      -1.8071      0.00000
     30      -1.4201      0.00000
     31      -1.4201      0.00000
     32      -1.2182      0.00000
     33      -1.1770      0.00000
     34      -1.1766      0.00000
     35      -1.0360      0.00000
     36      -0.9538      0.00000
     37      -0.9536      0.00000
     38      -0.5423      0.00000
     39      -0.4409      0.00000
     40      -0.4408      0.00000
     41      -0.4401      0.00000
     42      -0.2132      0.00000


--------------------------------------------------------------------------------------------------------


 soft charge-density along one line, spin component           1
         0         1         2         3         4         5         6         7         8         9
 total charge-density along one line
 
 pseudopotential strength for first ion, spin component:           1
 19.609  27.365  -0.000   0.002   0.000  -0.001   0.004   0.000
 27.365  38.194  -0.001   0.003   0.000  -0.001   0.005   0.001
 -0.000  -0.001   4.358  -0.000  -0.000   8.129  -0.000  -0.000
  0.002   0.003  -0.000   4.358   0.000  -0.000   8.129   0.000
  0.000   0.000  -0.000   0.000   4.358  -0.000   0.000   8.129
 -0.001  -0.001   8.129  -0.000  -0.000  15.174  -0.000  -0.000
  0.004   0.005  -0.000   8.129   0.000  -0.000  15.174   0.000
  0.000   0.001  -0.000   0.000   8.129  -0.000   0.000  15.174
 total augmentation occupancy for first ion, spin component:           1
  5.579  -2.048   0.069  -0.330  -0.044  -0.021   0.099   0.013
 -2.048   0.810  -0.042   0.201   0.027   0.009  -0.045  -0.006
  0.069  -0.042   2.867  -0.094  -0.013  -0.624   0.034   0.005
 -0.330   0.201  -0.094   3.296   0.060   0.034  -0.780  -0.022
 -0.044   0.027  -0.013   0.060   2.856   0.005  -0.022  -0.620
 -0.021   0.009  -0.624   0.034   0.005   0.142  -0.010  -0.001
  0.099  -0.045   0.034  -0.780  -0.022  -0.010   0.187   0.006
  0.013  -0.006   0.005  -0.022  -0.620  -0.001   0.006   0.140


------------------------ aborting loop because EDIFF is reached ----------------------------------------


    CHARGE:  cpu time    0.4869: real time    0.4855
    FORLOC:  cpu time    0.1730: real time    0.1735
    FORNL :  cpu time    1.0558: real time    1.0551
    STRESS:  cpu time    7.6678: real time    7.6666
    FORCOR:  cpu time    1.7077: real time    1.7063
    FORHAR:  cpu time    0.5759: real time    0.5762
    MIXING:  cpu time    0.1910: real time    0.1907
    OFIELD:  cpu time    0.0000: real time    0.0000

  FORCE on cell =-STRESS in cart. coord.  units (eV):
  Direction    XX          YY          ZZ          XY          YZ          ZX
  --------------------------------------------------------------------------------------
  Alpha Z     1.68867     1.68867     1.68867
  Ewald     876.64706   876.62235   876.71007    -0.21850     0.02563    -0.50464
  Hartree  1188.78346  1188.75945  1188.90826    -0.21714     0.00128    -0.47952
  E(xc)    -175.55660  -175.56161  -175.74601     0.00541     0.04035    -0.02590
  Local   -2579.08743 -2579.04152 -2579.39455     0.43914    -0.00134     0.96807
  n-local   290.09932   290.12718   291.12101    -0.02901    -0.21767     0.14004
  augment   -34.41541   -34.41638   -34.40977    -0.00021    -0.00130     0.00072
  Kinetic   426.28614   426.27262   425.79806     0.01377     0.10404    -0.06690
  Fock        0.00000     0.00000     0.00000     0.00000     0.00000     0.00000
  -------------------------------------------------------------------------------------
  Total      -5.55478    -5.54923    -5.32426    -0.00654    -0.04901     0.03187
  in kB      -1.11247    -1.11136    -1.06630    -0.00131    -0.00982     0.00638
  external pressure =       -1.10 kB  Pullay stress =        0.00 kB


 VOLUME and BASIS-vectors are now :
 -----------------------------------------------------------------------------
  energy-cutoff  :      400.00
[...]
    SETDIJ:  cpu time    0.0080: real time    0.0075
     EDDAV:  cpu time   10.8344: real time   10.8301
       DOS:  cpu time    0.0000: real time    0.0004
    CHARGE:  cpu time    0.4969: real time    0.4964
    MIXING:  cpu time    0.0480: real time    0.0481
    --------------------------------------------
      LOOP:  cpu time   13.1180: real time   13.1127

 eigenvalue-minimisations  :   118
 total energy-change (2. order) : 0.1283782E-05  (-0.1280473E-04)
 number of electron      56.0000030 magnetization 
 augmentation part       -3.1165604 magnetization 

 Broyden mixing:
  rms(total) = 0.15106E-02    rms(broyden)= 0.15103E-02
  rms(prec ) = 0.16266E-02
  weight for this iteration     100.00

 eigenvalues of (default mixing * dielectric matrix)
  average eigenvalue GAMMA=   1.3406
  1.3406

 Free energy of the ion-electron system (eV)
  ---------------------------------------------------
  alpha Z        PSCENC =         1.68866877
  Ewald energy   TEWEN  =      2671.91672195
  -Hartree energ DENC   =     -3606.57228949
  -exchange      EXHF   =         0.00000000
  -V(xc)+E(xc)   XCENC  =       -43.90730241
  PAW double counting   =      4413.46737417    -4248.70308737
  entropy T*S    EENTRO =        -0.00000000
  eigenvalues    EBANDS =      -527.44041225
  atomic energy  EATOM  =      1236.10535615
  Solvation  Ediel_sol  =         0.00000000
  ---------------------------------------------------
  free energy    TOTEN  =      -103.44497048 eV

  energy without entropy =     -103.44497048  energy(sigma->0) =     -103.44497048


--------------------------------------------------------------------------------------------------------




--------------------------------------- Iteration     18(   3)  ---------------------------------------


    POTLOK:  cpu time    1.7437: real time    1.7431
    SETDIJ:  cpu time    0.0070: real time    0.0075
     EDDAV:  cpu time   11.4973: real time   11.5304
       DOS:  cpu time    0.0000: real time    0.0005
    CHARGE:  cpu time    0.4899: real time    0.4903
    MIXING:  cpu time    0.0490: real time    0.0487
    --------------------------------------------
      LOOP:  cpu time   13.7869: real time   13.8205

 eigenvalue-minimisations  :   128
 total energy-change (2. order) : 0.3435915E-05  (-0.1276167E-05)
 number of electron      56.0000030 magnetization 
 augmentation part       -3.1166227 magnetization 

 Broyden mixing:
  rms(total) = 0.63030E-03    rms(broyden)= 0.63027E-03
  rms(prec ) = 0.66562E-03
  weight for this iteration     100.00

 eigenvalues of (default mixing * dielectric matrix)
  average eigenvalue GAMMA=   1.5807
  1.0301  2.1312

 Free energy of the ion-electron system (eV)
  ---------------------------------------------------
  alpha Z        PSCENC =         1.68866877
  Ewald energy   TEWEN  =      2671.91672195
  -Hartree energ DENC   =     -3606.56536637
  -exchange      EXHF   =         0.00000000
  -V(xc)+E(xc)   XCENC  =       -43.90680787
  PAW double counting   =      4413.26065110    -4248.49600676
  entropy T*S    EENTRO =        -0.00000000
  eigenvalues    EBANDS =      -527.44818402
  atomic energy  EATOM  =      1236.10535615
  Solvation  Ediel_sol  =         0.00000000
  ---------------------------------------------------
  free energy    TOTEN  =      -103.44496705 eV

  energy without entropy =     -103.44496705  energy(sigma->0) =     -103.44496705


--------------------------------------------------------------------------------------------------------




--------------------------------------- Iteration     18(   4)  ---------------------------------------


    POTLOK:  cpu time    1.7357: real time    1.7353
    SETDIJ:  cpu time    0.0080: real time    0.0075
     EDDAV:  cpu time    9.8205: real time    9.8185
       DOS:  cpu time    0.0010: real time    0.0004
    --------------------------------------------
      LOOP:  cpu time   11.5652: real time   11.5617

 eigenvalue-minimisations  :   104
 total energy-change (2. order) :-0.1783733E-06  (-0.2913222E-06)
 number of electron      56.0000030 magnetization 
 augmentation part       -3.1166227 magnetization 

 Free energy of the ion-electron system (eV)
  ---------------------------------------------------
  alpha Z        PSCENC =         1.68866877
  Ewald energy   TEWEN  =      2671.91672195
  -Hartree energ DENC   =     -3606.56344326
  -exchange      EXHF   =         0.00000000
  -V(xc)+E(xc)   XCENC  =       -43.90667395
  PAW double counting   =      4413.04978616    -4248.28503945
  entropy T*S    EENTRO =        -0.00000000
  eigenvalues    EBANDS =      -527.45034360
  atomic energy  EATOM  =      1236.10535615
  Solvation  Ediel_sol  =         0.00000000
  ---------------------------------------------------
  free energy    TOTEN  =      -103.44496723 eV

  energy without entropy =     -103.44496723  energy(sigma->0) =     -103.44496723


--------------------------------------------------------------------------------------------------------




 average (electrostatic) potential at core
  the test charge radii are     0.9892  1.1631  0.5201
  (the norm of the test charge is              1.0000)
       1 -93.2472       2 -93.2647       3 -93.2645       4 -93.2647       5 -93.3929
       6 -93.3930       7 -93.3931       8 -40.3738       9 -40.3736      10 -40.3735
      11 -40.9744      12 -40.9739      13 -40.8950      14 -40.9754      15 -40.9738
      16 -40.8359      17 -40.8351      18 -40.8746      19 -40.8953      20 -40.9740
      21 -40.9742      22 -40.8954      23 -40.8351      24 -40.8356      25 -40.8363
      26 -40.8359
 
 
 
 E-fermi :  -5.4671     XC(G=0):  -0.6017     alpha+bet : -0.3428


 k-point     1 :       0.0000    0.0000    0.0000
  band No.  band energies     occupation 
      1     -15.0717      2.00000
      2     -14.0682      2.00000
      3     -14.0681      2.00000
      4     -13.9822      2.00000
      5     -12.9873      2.00000
      6     -12.9871      2.00000
      7     -11.4909      2.00000
      8     -11.4438      2.00000
      9     -11.4436      2.00000
     10     -10.4581      2.00000
     11      -9.0851      2.00000
     12      -8.6832      2.00000
     13      -8.6831      2.00000
     14      -8.5316      2.00000
     15      -8.2699      2.00000
     16      -8.0944      2.00000
     17      -8.0942      2.00000
     18      -7.9596      2.00000
     19      -7.9594      2.00000
     20      -7.8944      2.00000
     21      -6.8369      2.00000
     22      -6.8367      2.00000
     23      -6.5530      2.00000
     24      -6.5529      2.00000
     25      -6.4526      2.00000
     26      -6.4291      2.00000
     27      -6.4041      2.00000
     28      -6.4039      2.00000
     29      -1.7197      0.00000
     30      -1.4213      0.00000
     31      -1.4211      0.00000
     32      -1.1958      0.00000
     33      -1.1956      0.00000
     34      -1.1898      0.00000
     35      -1.0401      0.00000
     36      -0.8485      0.00000
     37      -0.8483      0.00000
     38      -0.3898      0.00000
     39      -0.3674      0.00000
     40      -0.3672      0.00000
     41      -0.2696      0.00000
     42      -0.1513      0.00000


--------------------------------------------------------------------------------------------------------


 soft charge-density along one line, spin component           1
         0         1         2         3         4         5         6         7         8         9
 total charge-density along one line
 
 pseudopotential strength for first ion, spin component:           1
 19.607  27.362  -0.001   0.002   0.000  -0.001   0.004   0.001
 27.362  38.189  -0.001   0.003   0.000  -0.001   0.006   0.001
 -0.001  -0.001   4.361  -0.000  -0.000   8.135  -0.000  -0.000
  0.002   0.003  -0.000   4.361   0.000  -0.000   8.136   0.000
  0.000   0.000  -0.000   0.000   4.361  -0.000   0.000   8.135
 -0.001  -0.001   8.135  -0.000  -0.000  15.184  -0.000  -0.000
  0.004   0.006  -0.000   8.136   0.000  -0.000  15.186   0.000
  0.001   0.001  -0.000   0.000   8.135  -0.000   0.000  15.184
 total augmentation occupancy for first ion, spin component:           1
  6.068  -2.314   0.090  -0.431  -0.058  -0.028   0.135   0.018
 -2.314   0.939  -0.053   0.251   0.034   0.013  -0.063  -0.008
  0.090  -0.053   3.059  -0.111  -0.015  -0.681   0.040   0.005
 -0.431   0.251  -0.111   3.565   0.071   0.040  -0.862  -0.025
 -0.058   0.034  -0.015   0.071   3.045   0.005  -0.025  -0.676
 -0.028   0.013  -0.681   0.040   0.005   0.158  -0.012  -0.002
  0.135  -0.063   0.040  -0.862  -0.025  -0.012   0.211   0.007
  0.018  -0.008   0.005  -0.025  -0.676  -0.002   0.007   0.156


------------------------ aborting loop because EDIFF is reached ----------------------------------------


    CHARGE:  cpu time    0.4849: real time    0.4853
    FORLOC:  cpu time    0.1800: real time    0.1798
    FORNL :  cpu time    1.0588: real time    1.0581
    STRESS:  cpu time    7.4279: real time    7.4654
    FORCOR:  cpu time    1.7057: real time    1.7052
    FORHAR:  cpu time    0.5909: real time    0.5898
    MIXING:  cpu time    0.0490: real time    0.0489
    OFIELD:  cpu time    0.0000: real time    0.0000

  FORCE on cell =-STRESS in cart. coord.  units (eV):
  Direction    XX          YY          ZZ          XY          YZ          ZX
  --------------------------------------------------------------------------------------
  Alpha Z     1.68867     1.68867     1.68867
  Ewald     892.42716   892.19812   887.28974    -0.15906     0.48973    -0.85308
  Hartree  1204.74887  1204.47076  1197.34672    -0.08715     1.01702    -1.16363
  E(xc)    -176.77439  -176.77853  -176.93219     0.00446     0.03360    -0.02147
  Local   -2612.25260 -2611.76015 -2600.23886     0.26113    -1.39458     1.94395
  n-local   292.33322   292.36722   293.59637    -0.03577    -0.27036     0.17043
  augment   -34.53639   -34.53732   -34.58019     0.00113     0.00954    -0.00605
  Kinetic   431.43828   431.42787   431.08098     0.01204     0.07986    -0.04489
  Fock        0.00000     0.00000     0.00000     0.00000     0.00000     0.00000
  -------------------------------------------------------------------------------------
  Total      -0.92718    -0.92335    -0.74876    -0.00324    -0.03520     0.02526
  in kB      -0.18569    -0.18492    -0.14996    -0.00065    -0.00705     0.00506
  external pressure =       -0.17 kB  Pullay stress =        0.00 kB


 VOLUME and BASIS-vectors are now :
 -----------------------------------------------------------------------------
  energy-cutoff  :      400.00
  volume of cell :     8000.00
      direct lattice vectors                 reciprocal lattice vectors
    20.000000000  0.000000000  0.000000000     0.050000000  0.000000000  0.000000000
     0.000000000 20.000000000  0.000000000     0.000000000  0.050000000  0.000000000
     0.000000000  0.000000000 20.000000000     0.000000000  0.000000000  0.050000000

  length of vectors
    20.000000000 20.000000000 20.000000000     0.050000000  0.050000000  0.050000000


 FORCES acting on ions
    electron-ion (+dipol)            ewald-force                    non-local-force                 convergence-correction
 -----------------------------------------------------------------------------------------------
   0.121E+02 -.189E+02 0.898E+02   -.123E+02 0.191E+02 -.910E+02   0.165E+00 -.259E+00 0.124E+01   -.102E-03 0.140E-03 -.657E-03
   0.896E+02 -.525E+01 0.474E+02   -.911E+02 0.532E+01 -.481E+02   0.151E+01 -.626E-01 0.688E+00   0.374E-04 0.110E-03 -.509E-03
   -.374E+02 0.549E+02 0.769E+02   0.381E+02 -.559E+02 -.781E+02   -.653E+00 0.961E+00 0.119E+01   -.131E-03 0.167E-03 -.470E-03
   -.296E+02 -.852E+02 0.466E+02   0.301E+02 0.867E+02 -.473E+02   -.519E+00 -.143E+01 0.676E+00   -.124E-03 0.374E-04 -.525E-03
   0.815E+02 0.139E+02 -.428E+02   -.833E+02 -.140E+02 0.426E+02   0.178E+01 0.707E-01 0.133E+00   -.658E-03 0.436E-05 -.215E-03
   -.515E+02 0.767E+02 -.117E+02   0.524E+02 -.780E+02 0.109E+02   -.906E+00 0.134E+01 0.760E+00   0.306E-03 -.471E-03 -.423E-03
   -.433E+02 -.700E+02 -.436E+02   0.440E+02 0.716E+02 0.435E+02   -.739E+00 -.162E+01 0.115E+00   0.249E-03 0.626E-03 -.174E-03
   -.901E+02 0.540E+01 -.481E+02   0.907E+02 -.544E+01 0.485E+02   -.604E+00 0.410E-01 -.341E+00   0.656E-03 0.517E-04 -.614E-04
   0.297E+02 0.858E+02 -.474E+02   -.298E+02 -.864E+02 0.477E+02   0.195E+00 0.578E+00 -.336E+00   -.289E-03 -.584E-03 -.955E-04
   0.376E+02 -.550E+02 -.778E+02   -.378E+02 0.554E+02 0.783E+02   0.248E+00 -.363E+00 -.540E+00   -.354E-03 0.542E-03 0.164E-03
   0.203E+02 0.401E+02 0.537E+01   -.215E+02 -.420E+02 -.641E+01   0.117E+01 0.196E+01 0.104E+01   -.317E-04 -.417E-04 -.563E-04
   0.108E+01 0.218E+02 -.397E+02   -.762E+00 -.223E+02 0.421E+02   -.317E+00 0.532E+00 -.244E+01   -.121E-04 -.671E-04 0.704E-04
   -.272E+02 0.404E+02 -.471E+01   0.288E+02 -.428E+02 0.499E+01   -.162E+01 0.242E+01 -.283E+00   0.112E-03 -.169E-03 0.240E-04
   -.447E+02 -.360E+01 0.494E+01   0.470E+02 0.394E+01 -.595E+01   -.227E+01 -.348E+00 0.102E+01   0.588E-04 0.164E-04 -.508E-04
   -.202E+02 0.753E+01 -.398E+02   0.205E+02 -.804E+01 0.422E+02   -.351E+00 0.509E+00 -.244E+01   0.677E-04 -.129E-04 0.809E-04
   -.370E+02 0.514E+01 0.292E+02   0.396E+02 -.473E+01 -.306E+02   -.260E+01 -.408E+00 0.133E+01   -.889E-04 -.645E-04 -.152E-04
   0.898E+01 0.360E+02 0.296E+02   -.103E+02 -.383E+02 -.309E+02   0.135E+01 0.225E+01 0.135E+01   0.875E-04 0.567E-04 -.131E-04
   0.647E+01 -.101E+02 0.478E+02   -.685E+01 0.107E+02 -.506E+02   0.377E+00 -.590E+00 0.282E+01   0.131E-04 -.217E-04 0.111E-03
   -.228E+02 -.375E+02 -.217E+02   0.242E+02 0.397E+02 0.230E+02   -.136E+01 -.224E+01 -.129E+01   0.958E-04 0.156E-03 0.998E-04
   0.248E+01 -.323E+01 -.449E+02   -.217E+01 0.274E+01 0.474E+02   -.314E+00 0.492E+00 -.245E+01   -.193E-04 0.346E-04 0.974E-04
   0.246E+02 -.364E+02 -.113E+02   -.260E+02 0.385E+02 0.111E+02   0.140E+01 -.208E+01 0.164E+00   -.383E-04 0.597E-04 -.327E-04
   0.434E+02 0.707E+01 -.212E+02   -.460E+02 -.749E+01 0.225E+02   0.260E+01 0.421E+00 -.127E+01   -.177E-03 -.313E-04 0.926E-04
   0.323E+02 0.250E+02 0.242E+02   -.337E+02 -.272E+02 -.255E+02   0.139E+01 0.223E+01 0.134E+01   -.572E-05 0.112E-03 0.117E-04
   0.353E+02 -.292E+02 0.124E+02   -.369E+02 0.316E+02 -.128E+02   0.165E+01 -.242E+01 0.335E+00   0.781E-05 -.104E-03 -.378E-04
   0.135E+02 -.437E+02 0.123E+02   -.151E+02 0.461E+02 -.126E+02   0.161E+01 -.245E+01 0.335E+00   0.927E-04 -.461E-04 -.376E-04
   -.356E+02 -.207E+02 0.237E+02   0.382E+02 0.211E+02 -.250E+02   -.260E+01 -.458E+00 0.132E+01   -.107E-03 0.536E-04 0.843E-05
 -----------------------------------------------------------------------------------------------
   -.601E+00 0.932E+00 -.447E+01   0.000E+00 0.213E-13 -.128E-12   0.598E+00 -.930E+00 0.447E+01   -.355E-03 0.554E-03 -.261E-02
 
 
 POSITION                                       TOTAL-FORCE (eV/Angst)
 -----------------------------------------------------------------------------------
      9.51600     11.11478      7.74297        -0.000889      0.001265     -0.006188
      7.40865     10.78033      8.73968        -0.000119      0.000156     -0.000961
     10.82388      9.16653      7.94337        -0.000283      0.000223     -0.000915
     10.61285     12.93327      8.76103        -0.000069      0.000261     -0.000986
      7.67212     10.29932     11.02298         0.005431     -0.001664      0.009192
     11.15267      8.65460     10.21141        -0.000928      0.001329      0.010759
     10.93763     12.49336     11.04475        -0.000566     -0.005635      0.009008
     12.25980     10.50026     11.28097        -0.010290     -0.000357     -0.001109
      9.01577      8.32067     11.25948         0.004115      0.009355     -0.001051
      8.80219     12.13404     12.08736         0.005067     -0.007688     -0.004725
      8.28967      7.10390     10.61144         0.001753      0.002152      0.002999
      9.21224      7.99161     12.76898        -0.002086     -0.005156      0.001874
     11.98509      7.41435     10.35610         0.005719     -0.008600     -0.003454
     13.66667     10.71652     10.64716        -0.002814     -0.000940      0.003022
     12.47595     10.18474     12.79067         0.005488     -0.000081      0.001930
     12.14699      9.37615      7.26971        -0.005833      0.002751     -0.000811
     10.13640      8.02460      7.25654        -0.000381      0.006443     -0.000786
      9.32056     11.42017      6.28533        -0.001844      0.002833     -0.013520
     11.63593     13.64391     11.70858         0.004763      0.009876      0.000459
      8.99735     11.82829     13.60191        -0.002367      0.003471      0.003784
      7.93570     13.42487     11.98385         0.002106     -0.003044      0.002084
      6.33695     10.08332     11.67311        -0.010893     -0.000560      0.000137
      6.70237      9.64733      8.05715         0.004687      0.003958     -0.001961
      6.56955     12.01144      8.57029         0.004797     -0.002440     -0.003191
      9.79156     14.17629      8.59155         0.000821     -0.005214     -0.003486
     11.93489     13.16335      8.09198        -0.005384     -0.002694     -0.002103
 -----------------------------------------------------------------------------------
    total drift:                               -0.002764      0.002931     -0.000708


--------------------------------------------------------------------------------------------------------



  FREE ENERGIE OF THE ION-ELECTRON SYSTEM (eV)
  ---------------------------------------------------
  free  energy   TOTEN  =      -103.44496723 eV

  energy  without entropy=     -103.44496723  energy(sigma->0) =     -103.44496723
 
 d Force = 0.1688091E-03[ 0.119E-03, 0.219E-03]  d Energy = 0.1682126E-03 0.596E-06
 d Force = 0.3646227E+00[ 0.365E+00, 0.364E+00]  d Ewald  = 0.3646228E+00-0.879E-07


--------------------------------------------------------------------------------------------------------


    POTLOK:  cpu time    1.7447: real time    1.7452


--------------------------------------------------------------------------------------------------------


 Conjugate gradient step on ions:
 trial-energy change:   -0.000168  1 .order   -0.000169   -0.000219   -0.000119
  (g-gl).g = 0.186E-03      g.g   = 0.189E-03  gl.gl    = 0.295E-03
 g(Force)  = 0.189E-03   g(Stress)= 0.000E+00 ortho     = 0.472E-05
 gamma     =   0.63098
 trial     =   1.13749
 opt step  =   2.48912  (harmonic =   2.48912) maximal distance =0.00339591
 next E    =  -103.445038   (d E  =  -0.00024)


--------------------------------------------------------------------------------------------------------


  
 reached required accuracy - stopping structural energy minimisation
 writing wavefunctions
     LOOP+:  cpu time   63.0384: real time   63.5731
    4ORBIT:  cpu time    0.0000: real time    0.0000

 total amount of memory used by VASP MPI-rank0   131440. kBytes
=======================================================================

   base      :      30000. kBytes
   nonl-proj :      17624. kBytes
   fftplans  :      26957. kBytes
   grid      :      48673. kBytes
   one-center:         40. kBytes
   wavefun   :       8146. kBytes
 
  
  
 General timing and accounting informations for this job:
 ========================================================
  
                  Total CPU time used (sec):     2278.497
                            User time (sec):     2248.932
                          System time (sec):       29.565
                         Elapsed time (sec):     2284.038
  
                   Maximum memory used (kb):      186452.
                   Average memory used (kb):           0.
  
                          Minor page faults:      5675357
                          Major page faults:            6
                 Voluntary context switches:         4705
