 vasp.5.4.4.18Apr17-6-g9f103f2a35 (build Nov 06 2017 19:16:10) complex          
  
 executed on           IFC91_ompi date 2018.07.11  22:18:54
 running on   12 total cores
 distrk:  each k-point on   12 cores,    1 groups
 distr:  one band on NCORES_PER_BAND=   6 cores,    2 groups


--------------------------------------------------------------------------------------------------------


 INCAR:
 POTCAR:    PAW_PBE Si 05Jan2001                  
 POTCAR:    PAW_PBE Ge 05Jan2001                  
 POTCAR:    PAW_PBE H 15Jun2001                   
 POTCAR:    PAW_PBE Si 05Jan2001                  
   VRHFIN =Si: s2p2                                                             
   LEXCH  = PE                                                                  
   EATOM  =   103.0669 eV,    7.5752 Ry                                         
                                                                                
   TITEL  = PAW_PBE Si 05Jan2001                                                
   LULTRA =        F    use ultrasoft PP ?                                      
   IUNSCR =        1    unscreen: 0-lin 1-nonlin 2-no                           
   RPACOR =    1.500    partial core radius                                     
   POMASS =   28.085; ZVAL   =    4.000    mass and valenz                      
   RCORE  =    1.900    outmost cutoff radius                                   
   RWIGS  =    2.480; RWIGS  =    1.312    wigner-seitz radius (au A)           
   ENMAX  =  245.345; ENMIN  =  184.009 eV                                      
   ICORE  =        2    local potential                                         
   LCOR   =        T    correct aug charges                                     
   LPAW   =        T    paw PP                                                  
   EAUG   =  322.069                                                            
   DEXC   =    0.000                                                            
   RMAX   =    1.950    core radius for proj-oper                               
   RAUG   =    1.300    factor for augmentation sphere                          
   RDEP   =    1.993    radius for radial grids                                 
   RDEPT  =    1.837    core radius for aug-charge                              
                                                                                
   Atomic configuration                                                         
    6 entries                                                                   
     n  l   j            E        occ.                                          
     1  0  0.50     -1785.8828   2.0000                                         
     2  0  0.50      -139.4969   2.0000                                         
     2  1  1.50       -95.5546   6.0000                                         
     3  0  0.50       -10.8127   2.0000                                         
     3  1  0.50        -4.0811   2.0000                                         
     3  2  1.50        -4.0817   0.0000                                         
   Description                                                                  
     l       E           TYP  RCUT    TYP  RCUT                                 
     0    -10.8127223     23  1.900                                             
     0     -7.6451159     23  1.900                                             
     1     -4.0811372     23  1.900                                             
     1      2.4879257     23  1.900                                             
     2     -4.0817478      7  1.900                                             
  local pseudopotential read in
  partial core-charges read in
  partial kinetic energy density read in
  atomic valenz-charges read in
  non local Contribution for L=           0  read in
    real space projection operators read in
  non local Contribution for L=           0  read in
    real space projection operators read in
  non local Contribution for L=           1  read in
    real space projection operators read in
  non local Contribution for L=           1  read in
    real space projection operators read in
    PAW grid and wavefunctions read in
 
   number of l-projection  operators is LMAX  =           4
   number of lm-projection operators is LMMAX =           8
 
 POTCAR:    PAW_PBE Ge 05Jan2001                  
   VRHFIN =Ge: s2p2                                                             
   LEXCH  = PE                                                                  
   EATOM  =   104.9960 eV,    7.7170 Ry                                         
                                                                                
   TITEL  = PAW_PBE Ge 05Jan2001                                                
   LULTRA =        F    use ultrasoft PP ?                                      
   IUNSCR =        1    unscreen: 0-lin 1-nonlin 2-no                           
   RPACOR =    2.170    partial core radius                                     
   POMASS =   72.610; ZVAL   =    4.000    mass and valenz                      
   RCORE  =    2.300    outmost cutoff radius                                   
   RWIGS  =    2.300; RWIGS  =    1.217    wigner-seitz radius (au A)           
   ENMAX  =  173.807; ENMIN  =  130.355 eV                                      
   ICORE  =        3    local potential                                         
   LCOR   =        T    correct aug charges                                     
   LPAW   =        T    paw PP                                                  
   EAUG   =  385.843                                                            
   DEXC   =    0.000                                                            
   RMAX   =    2.342    core radius for proj-oper                               
   RAUG   =    1.300    factor for augmentation sphere                          
   RDEP   =    2.318    radius for radial grids                                 
   RDEPT  =    2.103    core radius for aug-charge                              
                                                                                
   Atomic configuration                                                         
   10 entries                                                                   
     n  l   j            E        occ.                                          
     1  0  0.50    -10959.8463   2.0000                                         
     2  0  0.50     -1371.6056   2.0000                                         
     2  1  1.50     -1198.4791   6.0000                                         
     3  0  0.50      -168.4733   2.0000                                         
     3  1  1.50      -115.6019   6.0000                                         
     3  2  2.50       -29.3106  10.0000                                         
     4  0  0.50       -11.7309   2.0000                                         
     4  1  0.50        -3.8952   2.0000                                         
     4  2  1.50        -4.0817   0.0000                                         
     4  3  2.50        -4.0817   0.0000                                         
   Description                                                                  
     l       E           TYP  RCUT    TYP  RCUT                                 
     0    -11.7309493     23  2.300                                             
     0     -7.4578696     23  2.300                                             
     1     -3.8952261     23  2.300                                             
     1      6.1178114     23  2.300                                             
     2     -4.0817478     23  2.300                                             
     3     -1.3605826      7  2.300                                             
  local pseudopotential read in
  partial core-charges read in
  partial kinetic energy density read in
  atomic valenz-charges read in
  non local Contribution for L=           0  read in
    real space projection operators read in
  non local Contribution for L=           0  read in
    real space projection operators read in
  non local Contribution for L=           1  read in
    real space projection operators read in
  non local Contribution for L=           1  read in
    real space projection operators read in
  non local Contribution for L=           2  read in
    real space projection operators read in
    PAW grid and wavefunctions read in
 
   number of l-projection  operators is LMAX  =           5
   number of lm-projection operators is LMMAX =          13
 
 POTCAR:    PAW_PBE H 15Jun2001                   
   VRHFIN =H: ultrasoft test                                                    
   LEXCH  = PE                                                                  
   EATOM  =    12.4884 eV,    0.9179 Ry                                         
                                                                                
   TITEL  = PAW_PBE H 15Jun2001                                                 
   LULTRA =        F    use ultrasoft PP ?                                      
   IUNSCR =        0    unscreen: 0-lin 1-nonlin 2-no                           
   RPACOR =    0.000    partial core radius                                     
   POMASS =    1.000; ZVAL   =    1.000    mass and valenz                      
   RCORE  =    1.100    outmost cutoff radius                                   
   RWIGS  =    0.700; RWIGS  =    0.370    wigner-seitz radius (au A)           
   ENMAX  =  250.000; ENMIN  =  200.000 eV                                      
   RCLOC  =    0.701    cutoff for local pot                                    
   LCOR   =        T    correct aug charges                                     
   LPAW   =        T    paw PP                                                  
   EAUG   =  400.000                                                            
   RMAX   =    1.123    core radius for proj-oper                               
   RAUG   =    1.200    factor for augmentation sphere                          
   RDEP   =    1.112    radius for radial grids                                 
   RDEPT  =    0.926    core radius for aug-charge                              
                                                                                
   Atomic configuration                                                         
    2 entries                                                                   
     n  l   j            E        occ.                                          
     1  0  0.50        -6.4927   1.0000                                         
     2  1  0.50        -3.4015   0.0000                                         
   Description                                                                  
     l       E           TYP  RCUT    TYP  RCUT                                 
     0     -6.4927494     23  1.100                                             
     0      6.8029130     23  1.100                                             
     1     -4.0817478     23  1.100                                             
  local pseudopotential read in
  atomic valenz-charges read in
  non local Contribution for L=           0  read in
    real space projection operators read in
  non local Contribution for L=           0  read in
    real space projection operators read in
  non local Contribution for L=           1  read in
    real space projection operators read in
    PAW grid and wavefunctions read in
 
   number of l-projection  operators is LMAX  =           3
   number of lm-projection operators is LMMAX =           5
 

 ----------------------------------------------------------------------------- 
|                                                                             |
|  ADVICE TO THIS USER RUNNING 'VASP/VAMP'   (HEAR YOUR MASTER'S VOICE ...):  |
|                                                                             |
|      You have a (more or less) 'large supercell' and for larger cells       |
|      it might be more efficient to use real space projection opertators     |
|      So try LREAL= Auto  in the INCAR   file.                               |
|      Mind:          For very  accurate calculation you might also keep the  |
|      reciprocal projection scheme          (i.e. LREAL=.FALSE.)             |
|                                                                             |
 ----------------------------------------------------------------------------- 

  PAW_PBE Si 05Jan2001                  :
 energy of atom  1       EATOM= -103.0669
 kinetic energy error for atom=    0.0012 (will be added to EATOM!!)
  PAW_PBE Ge 05Jan2001                  :
 energy of atom  2       EATOM= -104.9960
 kinetic energy error for atom=    0.0003 (will be added to EATOM!!)
  PAW_PBE H 15Jun2001                   :
 energy of atom  3       EATOM=  -12.4884
 kinetic energy error for atom=    0.0098 (will be added to EATOM!!)
 
 
 POSCAR: SiGeH16                                 
  positions in direct lattice
  No initial velocities read in
 exchange correlation table for  LEXCH =        8
   RHO(1)=    0.500       N(1)  =     2000
   RHO(2)=  100.500       N(2)  =     4000
 


--------------------------------------------------------------------------------------------------------


 ion  position               nearest neighbor table
   1  0.475  0.556  0.385-  18 1.55   4 2.39   2 2.39   3 2.39
   2  0.369  0.539  0.436-  23 1.55  24 1.55   5 2.39   1 2.39
   3  0.542  0.457  0.396-  17 1.55  16 1.55   6 2.39   1 2.39
   4  0.531  0.648  0.437-  25 1.55  26 1.55   7 2.39   1 2.39
   5  0.385  0.515  0.552-  22 1.55  10 2.39   9 2.39   2 2.39
   6  0.557  0.433  0.512-  13 1.55   3 2.39   8 2.39   9 2.39
   7  0.547  0.624  0.554-  19 1.55   4 2.39   8 2.39  10 2.39
   8  0.613  0.525  0.565-  15 1.55  14 1.55   7 2.39   6 2.39
   9  0.451  0.416  0.564-  12 1.55  11 1.55   5 2.39   6 2.39
  10  0.440  0.606  0.605-  20 1.55  21 1.55   5 2.39   7 2.39
  11  0.415  0.357  0.529-   9 1.55
  12  0.461  0.400  0.639-   9 1.55
  13  0.600  0.369  0.520-   6 1.55
  14  0.682  0.536  0.531-   8 1.55
  15  0.623  0.509  0.640-   8 1.55
  16  0.611  0.469  0.363-   3 1.55
  17  0.506  0.398  0.362-   3 1.55
  18  0.465  0.572  0.309-   1 1.55
  19  0.583  0.683  0.588-   7 1.55
  20  0.451  0.590  0.680-  10 1.55
  21  0.397  0.670  0.598-  10 1.55
  22  0.316  0.504  0.586-   5 1.55
  23  0.333  0.479  0.402-   2 1.55
  24  0.326  0.603  0.429-   2 1.55
  25  0.488  0.712  0.430-   4 1.55
  26  0.600  0.659  0.404-   4 1.55
 
  LATTYP: Found a simple cubic cell.
 ALAT       =    20.0000000000
  
  Lattice vectors:
  
 A1 = (  20.0000000000,   0.0000000000,   0.0000000000)
 A2 = (   0.0000000000,  20.0000000000,   0.0000000000)
 A3 = (   0.0000000000,   0.0000000000,  20.0000000000)


Analysis of symmetry for initial positions (statically):
=====================================================================
 Subroutine PRICEL returns:
 Original cell was already a primitive cell.
 

 Routine SETGRP: Setting up the symmetry group for a 
 simple cubic supercell.


 Subroutine GETGRP returns: Found  1 space group operations
 (whereof  1 operations were pure point group operations)
 out of a pool of 48 trial point group operations.


The static configuration has the point symmetry C_1 .


Analysis of symmetry for dynamics (positions and initial velocities):
=====================================================================
 Subroutine PRICEL returns:
 Original cell was already a primitive cell.
 

 Routine SETGRP: Setting up the symmetry group for a 
 simple cubic supercell.


 Subroutine GETGRP returns: Found  1 space group operations
 (whereof  1 operations were pure point group operations)
 out of a pool of 48 trial point group operations.


The dynamic configuration has the point symmetry C_1 .


 Subroutine INISYM returns: Found  1 space group operations
 (whereof  1 operations are pure point group operations),
 and found     1 'primitive' translations

 
 
 KPOINTS: Automatic mesh                          

Automatic generation of k-mesh.
Space group operators:
 irot       det(A)        alpha          n_x          n_y          n_z        tau_x        tau_y        tau_z
    1     1.000000     0.000000     1.000000     0.000000     0.000000     0.000000     0.000000     0.000000
 
 Subroutine IBZKPT returns following result:
 ===========================================
 
 Found      1 irreducible k-points:
 
 Following reciprocal coordinates:
            Coordinates               Weight
  0.000000  0.000000  0.000000      1.000000
 
 Following cartesian coordinates:
            Coordinates               Weight
  0.000000  0.000000  0.000000      1.000000
 


--------------------------------------------------------------------------------------------------------




 Dimension of arrays:
   k-points           NKPTS =      1   k-points in BZ     NKDIM =      1   number of bands    NBANDS=     42
   number of dos      NEDOS =    301   number of ions     NIONS =     26
   non local maximal  LDIM  =      5   non local SUM 2l+1 LMDIM =     13
   total plane-waves  NPLWV = 941192
   max r-space proj   IRMAX =      1   max aug-charges    IRDMAX=   6593
   dimension x,y,z NGX =    98 NGY =   98 NGZ =   98
   dimension x,y,z NGXF=   196 NGYF=  196 NGZF=  196
   support grid    NGXF=   196 NGYF=  196 NGZF=  196
   ions per type =               8   2  16
   NGX,Y,Z   is equivalent  to a cutoff of   8.15,  8.15,  8.15 a.u.
   NGXF,Y,Z  is equivalent  to a cutoff of  16.29, 16.29, 16.29 a.u.

 SYSTEM =  SiGe                                    
 POSCAR =  SiGeH16                                 

 Startparameter for this run:
   NWRITE =      2    write-flag & timer
   PREC   = normal    normal or accurate (medium, high low for compatibility)
   ISTART =      0    job   : 0-new  1-cont  2-samecut
   ICHARG =      2    charge: 1-file 2-atom 10-const
   ISPIN  =      1    spin polarized calculation?
   LNONCOLLINEAR =      F non collinear calculations
   LSORBIT =      F    spin-orbit coupling
   INIWAV =      1    electr: 0-lowe 1-rand  2-diag
   LASPH  =      F    aspherical Exc in radial PAW
   METAGGA=      F    non-selfconsistent MetaGGA calc.

 Electronic Relaxation 1
   ENCUT  =  400.0 eV  29.40 Ry    5.42 a.u.  32.61 32.61 32.61*2*pi/ulx,y,z
   ENINI  =  400.0     initial cutoff
   ENAUG  =  400.0 eV  augmentation charge cutoff
   NELM   =     60;   NELMIN=  2; NELMDL= -5     # of ELM steps 
   EDIFF  = 0.1E-05   stopping-criterion for ELM
   LREAL  =      F    real-space projection
   NLSPLINE    = F    spline interpolate recip. space projectors
   LCOMPAT=      F    compatible to vasp.4.4
   GGA_COMPAT  = T    GGA compatible to vasp.4.4-vasp.4.6
   LMAXPAW     = -100 max onsite density
   LMAXMIX     =    2 max onsite mixed and CHGCAR
   VOSKOWN=      0    Vosko Wilk Nusair interpolation
   ROPT   =    0.00000   0.00000   0.00000
 Ionic relaxation
   EDIFFG = -.2E-01   stopping-criterion for IOM
   NSW    =    200    number of steps for IOM
   NBLOCK =      1;   KBLOCK =    200    inner block; outer block 
   IBRION =      2    ionic relax: 0-MD 1-quasi-New 2-CG
   NFREE  =      1    steps in history (QN), initial steepest desc. (CG)
   ISIF   =      2    stress and relaxation
   IWAVPR =     11    prediction:  0-non 1-charg 2-wave 3-comb
   ISYM   =      2    0-nonsym 1-usesym 2-fastsym
   LCORR  =      T    Harris-Foulkes like correction to forces

   POTIM  = 0.5000    time-step for ionic-motion
   TEIN   =    0.0    initial temperature
   TEBEG  =    0.0;   TEEND  =   0.0 temperature during run
   SMASS  =  -3.00    Nose mass-parameter (am)
   estimated Nose-frequenzy (Omega)   =  0.10E-29 period in steps =****** mass=  -0.914E-26a.u.
   SCALEE = 1.0000    scale energy and forces
   NPACO  =    256;   APACO  = 16.0  distance and # of slots for P.C.
   PSTRESS=    0.0 pullay stress

  Mass of Ions in am
   POMASS =  28.09 72.61  1.00
  Ionic Valenz
   ZVAL   =   4.00  4.00  1.00
  Atomic Wigner-Seitz radii
   RWIGS  =  -1.00 -1.00 -1.00
  virtual crystal weights 
   VCA    =   1.00  1.00  1.00
   NELECT =      56.0000    total number of electrons
   NUPDOWN=      -1.0000    fix difference up-down

 DOS related values:
   EMIN   =  10.00;   EMAX   =-10.00  energy-range for DOS
   EFERMI =   0.00
   ISMEAR =     0;   SIGMA  =   0.20  broadening in eV -4-tet -1-fermi 0-gaus

 Electronic relaxation 2 (details)
   IALGO  =     38    algorithm
   LDIAG  =      T    sub-space diagonalisation (order eigenvalues)
   LSUBROT=      F    optimize rotation matrix (better conditioning)
   TURBO    =      0    0=normal 1=particle mesh
   IRESTART =      0    0=no restart 2=restart with 2 vectors
   NREBOOT  =      0    no. of reboots
   NMIN     =      0    reboot dimension
   EREF     =   0.00    reference energy to select bands
   IMIX   =      4    mixing-type and parameters
     AMIX     =   0.40;   BMIX     =  1.00
     AMIX_MAG =   1.60;   BMIX_MAG =  1.00
     AMIN     =   0.10
     WC   =   100.;   INIMIX=   1;  MIXPRE=   1;  MAXMIX= -45

 Intra band minimization:
   WEIMIN = 0.0010     energy-eigenvalue tresh-hold
   EBREAK =  0.60E-08  absolut break condition
   DEPER  =   0.30     relativ break condition  

   TIME   =   0.40     timestep for ELM

  volume/ion in A,a.u.               =     307.69      2076.41
  Fermi-wavevector in a.u.,A,eV,Ry     =   0.313166  0.591797  1.334361  0.098073
  Thomas-Fermi vector in A             =   1.193276
 
 Write flags
   LWAVE        =      T    write WAVECAR
   LDOWNSAMPLE  =      F    k-point downsampling of WAVECAR
   LCHARG       =      T    write CHGCAR
   LVTOT        =      F    write LOCPOT, total local potential
   LVHAR        =      F    write LOCPOT, Hartree potential only
   LELF         =      F    write electronic localiz. function (ELF)
   LORBIT       =      0    0 simple, 1 ext, 2 COOP (PROOUT), +10 PAW based schemes


 Dipole corrections
   LMONO  =      F    monopole corrections only (constant potential shift)
   LDIPOL =      F    correct potential (dipole corrections)
   IDIPOL =      0    1-x, 2-y, 3-z, 4-all directions 
   EPSILON=  1.0000000 bulk dielectric constant

 Exchange correlation treatment:
   GGA     =    --    GGA type
   LEXCH   =     8    internal setting for exchange type
   VOSKOWN=      0    Vosko Wilk Nusair interpolation
   LHFCALC =     F    Hartree Fock is set to
   LHFONE  =     F    Hartree Fock one center treatment
   AEXX    =    0.0000 exact exchange contribution

 Linear response parameters
   LEPSILON=     F    determine dielectric tensor
   LRPA    =     F    only Hartree local field effects (RPA)
   LNABLA  =     F    use nabla operator in PAW spheres
   LVEL    =     F    velocity operator in full k-point grid
   LINTERFAST=   F  fast interpolation
   KINTER  =     0    interpolate to denser k-point grid
   CSHIFT  =0.1000    complex shift for real part using Kramers Kronig
   OMEGAMAX=  -1.0    maximum frequency
   DEG_THRESHOLD= 0.2000000E-02 threshold for treating states as degnerate
   RTIME   =   -0.100 relaxation time in fs
  (WPLASMAI=    0.000 imaginary part of plasma frequency in eV, 0.658/RTIME)
   DFIELD  = 0.0000000 0.0000000 0.0000000 field for delta impulse in time
 
 Orbital magnetization related:
   ORBITALMAG=     F  switch on orbital magnetization
   LCHIMAG   =     F  perturbation theory with respect to B field
   DQ        =  0.001000  dq finite difference perturbation B field
   LLRAUG    =     F  two centre corrections for induced B field



--------------------------------------------------------------------------------------------------------


 conjugate gradient relaxation of ions
 charge density and potential will be updated during run
 non-spin polarized calculation
 Variant of blocked Davidson
 Davidson routine will perform the subspace rotation
 perform sub-space diagonalisation
    after iterative eigenvector-optimisation
 modified Broyden-mixing scheme, WC =      100.0
 initial mixing is a Kerker type mixing with AMIX =  0.4000 and BMIX =      1.0000
 Hartree-type preconditioning will be used
 using additional bands           14
 reciprocal scheme for non local part
 use partial core corrections
 calculate Harris-corrections to forces 
   (improved forces if not selfconsistent)
 use gradient corrections 
 use of overlap-Matrix (Vanderbilt PP)
 Gauss-broadening in eV      SIGMA  =   0.20


--------------------------------------------------------------------------------------------------------


  energy-cutoff  :      400.00
  volume of cell :     8000.00
      direct lattice vectors                 reciprocal lattice vectors
    20.000000000  0.000000000  0.000000000     0.050000000  0.000000000  0.000000000
     0.000000000 20.000000000  0.000000000     0.000000000  0.050000000  0.000000000
     0.000000000  0.000000000 20.000000000     0.000000000  0.000000000  0.050000000

  length of vectors
    20.000000000 20.000000000 20.000000000     0.050000000  0.050000000  0.050000000


 
 k-points in units of 2pi/SCALE and weight: Automatic mesh                          
   0.00000000  0.00000000  0.00000000       1.000
 
 k-points in reciprocal lattice and weights: Automatic mesh                          
   0.00000000  0.00000000  0.00000000       1.000
 
 position of ions in fractional coordinates (direct lattice) 
   0.47547100  0.55626000  0.38465300
   0.36907800  0.53906000  0.43641200
   0.54179100  0.45744600  0.39613600
   0.53111600  0.64794100  0.43749600
   0.38461900  0.51474100  0.55243500
   0.55736800  0.43311000  0.51215000
   0.54669200  0.62364400  0.55351800
   0.61299700  0.52481700  0.56496600
   0.45095700  0.41593600  0.56388300
   0.44028400  0.60643000  0.60524300
   0.41490100  0.35665000  0.52940300
   0.46117000  0.40042600  0.63910800
   0.60034800  0.36907000  0.51957800
   0.68182700  0.53600700  0.53118700
   0.62280400  0.50903400  0.64018900
   0.61080000  0.46880600  0.36278200
   0.50550800  0.39805500  0.36207700
   0.46538400  0.57201900  0.30946400
   0.58275500  0.68306700  0.58775000
   0.45052500  0.59044300  0.68036400
   0.39732000  0.67044900  0.59753500
   0.31566200  0.50359800  0.58596500
   0.33322800  0.47946500  0.40225200
   0.32629100  0.60324700  0.42912600
   0.48792300  0.71185500  0.43020800
   0.60015100  0.65882400  0.40403700
 
 position of ions in cartesian coordinates  (Angst):
   9.50942000 11.12520000  7.69306000
   7.38156000 10.78120000  8.72824000
  10.83582000  9.14892000  7.92272000
  10.62232000 12.95882000  8.74992000
   7.69238000 10.29482000 11.04870000
  11.14736000  8.66220000 10.24300000
  10.93384000 12.47288000 11.07036000
  12.25994000 10.49634000 11.29932000
   9.01914000  8.31872000 11.27766000
   8.80568000 12.12860000 12.10486000
   8.29802000  7.13300000 10.58806000
   9.22340000  8.00852000 12.78216000
  12.00696000  7.38140000 10.39156000
  13.63654000 10.72014000 10.62374000
  12.45608000 10.18068000 12.80378000
  12.21600000  9.37612000  7.25564000
  10.11016000  7.96110000  7.24154000
   9.30768000 11.44038000  6.18928000
  11.65510000 13.66134000 11.75500000
   9.01050000 11.80886000 13.60728000
   7.94640000 13.40898000 11.95070000
   6.31324000 10.07196000 11.71930000
   6.66456000  9.58930000  8.04504000
   6.52582000 12.06494000  8.58252000
   9.75846000 14.23710000  8.60416000
  12.00302000 13.17648000  8.08074000
 


--------------------------------------------------------------------------------------------------------


 k-point  1 :   0.0000 0.0000 0.0000  plane waves:  145165

 maximum and minimum number of plane-waves per node :     24209    24180

 maximum number of plane-waves:    145165
 maximum index in each direction: 
   IXMAX=   32   IYMAX=   32   IZMAX=   32
   IXMIN=  -32   IYMIN=  -32   IZMIN=  -32


 parallel 3D FFT for wavefunctions:
    minimum data exchange during FFTs selected (reduces bandwidth)
 parallel 3D FFT for charge:
    minimum data exchange during FFTs selected (reduces bandwidth)


 total amount of memory used by VASP MPI-rank0   131439. kBytes
=======================================================================

   base      :      30000. kBytes
   nonl-proj :      17624. kBytes
   fftplans  :      26957. kBytes
   grid      :      48673. kBytes
   one-center:         40. kBytes
   wavefun   :       8145. kBytes
 
     INWAV:  cpu time    0.0000: real time    0.0000
 Broyden mixing: mesh for mixing (old mesh)
   NGX = 65   NGY = 65   NGZ = 65
  (NGX  =196   NGY  =196   NGZ  =196)
  gives a total of 274625 points

 initial charge density was supplied:
 charge density of overlapping atoms calculated
 number of electron      56.0000000 magnetization 
 keeping initial charge density in first step


--------------------------------------------------------------------------------------------------------


 Maximum index for augmentation-charges          558 (set IRDMAX)


--------------------------------------------------------------------------------------------------------


 First call to EWALD:  gamma=   0.089
 Maximum number of real-space cells 3x 3x 3
 Maximum number of reciprocal cells 3x 3x 3

    FEWALD:  cpu time    0.0030: real time    0.0029


--------------------------------------- Iteration      1(   1)  ---------------------------------------


    POTLOK:  cpu time    1.7627: real time    1.7648
    SETDIJ:  cpu time    0.0070: real time    0.0073
     EDDAV:  cpu time   10.2004: real time   10.1991
       DOS:  cpu time    0.0000: real time    0.0004
    --------------------------------------------
      LOOP:  cpu time   11.9702: real time   11.9716

 eigenvalue-minimisations  :   116
 total energy-change (2. order) : 0.1951429E+03  (-0.1051128E+04)
 number of electron      56.0000000 magnetization 
 augmentation part       56.0000000 magnetization 

 Free energy of the ion-electron system (eV)
  ---------------------------------------------------
  alpha Z        PSCENC =         1.41309770
  Ewald energy   TEWEN  =      2629.98113996
  -Hartree energ DENC   =     -3444.51857534
  -exchange      EXHF   =         0.00000000
  -V(xc)+E(xc)   XCENC  =       -57.11739252
  PAW double counting   =       915.42522629     -745.84587594
  entropy T*S    EENTRO =        -0.43483960
  eigenvalues    EBANDS =      -337.93532813
  atomic energy  EATOM  =      1234.17543241
  Solvation  Ediel_sol  =         0.00000000
  ---------------------------------------------------
  free energy    TOTEN  =       195.14288483 eV

  energy without entropy =      195.57772444  energy(sigma->0) =      195.36030463


--------------------------------------------------------------------------------------------------------




--------------------------------------- Iteration      1(   2)  ---------------------------------------


     EDDAV:  cpu time   11.5662: real time   11.5659
       DOS:  cpu time    0.0010: real time    0.0003
    --------------------------------------------
      LOOP:  cpu time   11.5672: real time   11.5662

 eigenvalue-minimisations  :   136
 total energy-change (2. order) :-0.2264867E+03  (-0.2120040E+03)
 number of electron      56.0000000 magnetization 
 augmentation part       56.0000000 magnetization 

 Free energy of the ion-electron system (eV)
  ---------------------------------------------------
  alpha Z        PSCENC =         1.41309770
  Ewald energy   TEWEN  =      2629.98113996
  -Hartree energ DENC   =     -3444.51857534
  -exchange      EXHF   =         0.00000000
  -V(xc)+E(xc)   XCENC  =       -57.11739252
  PAW double counting   =       915.42522629     -745.84587594
  entropy T*S    EENTRO =        -0.00000000
  eigenvalues    EBANDS =      -564.85686267
  atomic energy  EATOM  =      1234.17543241
  Solvation  Ediel_sol  =         0.00000000
  ---------------------------------------------------
  free energy    TOTEN  =       -31.34381010 eV

  energy without entropy =      -31.34381010  energy(sigma->0) =      -31.34381010


--------------------------------------------------------------------------------------------------------




--------------------------------------- Iteration      1(   3)  ---------------------------------------


     EDDAV:  cpu time   10.0985: real time   10.1081
       DOS:  cpu time    0.0000: real time    0.0004
    --------------------------------------------
      LOOP:  cpu time   10.0985: real time   10.1084

 eigenvalue-minimisations  :   112
 total energy-change (2. order) :-0.7386901E+02  (-0.7368698E+02)
 number of electron      56.0000000 magnetization 
 augmentation part       56.0000000 magnetization 

 Free energy of the ion-electron system (eV)
  ---------------------------------------------------
  alpha Z        PSCENC =         1.41309770
  Ewald energy   TEWEN  =      2629.98113996
  -Hartree energ DENC   =     -3444.51857534
  -exchange      EXHF   =         0.00000000
  -V(xc)+E(xc)   XCENC  =       -57.11739252
  PAW double counting   =       915.42522629     -745.84587594
  entropy T*S    EENTRO =        -0.00000000
  eigenvalues    EBANDS =      -638.72587328
  atomic energy  EATOM  =      1234.17543241
  Solvation  Ediel_sol  =         0.00000000
  ---------------------------------------------------
  free energy    TOTEN  =      -105.21282072 eV

  energy without entropy =     -105.21282072  energy(sigma->0) =     -105.21282072


--------------------------------------------------------------------------------------------------------




--------------------------------------- Iteration      1(   4)  ---------------------------------------


     EDDAV:  cpu time    9.3906: real time    9.3936
       DOS:  cpu time    0.0000: real time    0.0004
    --------------------------------------------
      LOOP:  cpu time    9.3906: real time    9.3940

 eigenvalue-minimisations  :   104
 total energy-change (2. order) :-0.4181459E+01  (-0.4164677E+01)
 number of electron      56.0000000 magnetization 
 augmentation part       56.0000000 magnetization 

 Free energy of the ion-electron system (eV)
  ---------------------------------------------------
  alpha Z        PSCENC =         1.41309770
  Ewald energy   TEWEN  =      2629.98113996
  -Hartree energ DENC   =     -3444.51857534
  -exchange      EXHF   =         0.00000000
  -V(xc)+E(xc)   XCENC  =       -57.11739252
  PAW double counting   =       915.42522629     -745.84587594
  entropy T*S    EENTRO =        -0.00000000
  eigenvalues    EBANDS =      -642.90733200
  atomic energy  EATOM  =      1234.17543241
  Solvation  Ediel_sol  =         0.00000000
  ---------------------------------------------------
  free energy    TOTEN  =      -109.39427944 eV

  energy without entropy =     -109.39427944  energy(sigma->0) =     -109.39427944


--------------------------------------------------------------------------------------------------------




--------------------------------------- Iteration      1(   5)  ---------------------------------------


     EDDAV:  cpu time   12.1692: real time   12.1679
       DOS:  cpu time    0.0000: real time    0.0005
    CHARGE:  cpu time    0.4829: real time    0.4825
    MIXING:  cpu time    0.0470: real time    0.0466
    --------------------------------------------
      LOOP:  cpu time   12.6991: real time   12.6976

 eigenvalue-minimisations  :   144
 total energy-change (2. order) :-0.9324097E-01  (-0.9318731E-01)
 number of electron      56.0000030 magnetization 
 augmentation part       -2.7310124 magnetization 

 Broyden mixing:
  rms(total) = 0.15517E+01    rms(broyden)= 0.15515E+01
  rms(prec ) = 0.16479E+01
  weight for this iteration     100.00

 Free energy of the ion-electron system (eV)
  ---------------------------------------------------
  alpha Z        PSCENC =         1.41309770
  Ewald energy   TEWEN  =      2629.98113996
  -Hartree energ DENC   =     -3444.51857534
  -exchange      EXHF   =         0.00000000
  -V(xc)+E(xc)   XCENC  =       -57.11739252
  PAW double counting   =       915.42522629     -745.84587594
  entropy T*S    EENTRO =        -0.00000000
  eigenvalues    EBANDS =      -643.00057297
  atomic energy  EATOM  =      1234.17543241
  Solvation  Ediel_sol  =         0.00000000
  ---------------------------------------------------
  free energy    TOTEN  =      -109.48752040 eV

  energy without entropy =     -109.48752040  energy(sigma->0) =     -109.48752040


--------------------------------------------------------------------------------------------------------




--------------------------------------- Iteration      1(   6)  ---------------------------------------


    POTLOK:  cpu time    1.6947: real time    1.6944
    SETDIJ:  cpu time    0.0080: real time    0.0076
     EDDAV:  cpu time    8.7907: real time    8.7952
       DOS:  cpu time    0.0000: real time    0.0004
    CHARGE:  cpu time    0.4859: real time    0.4861
    MIXING:  cpu time    0.0480: real time    0.0475
    --------------------------------------------
      LOOP:  cpu time   11.0273: real time   11.0311

 eigenvalue-minimisations  :    96
 total energy-change (2. order) : 0.3277968E+01  (-0.1598090E+00)
 number of electron      56.0000029 magnetization 
 augmentation part       -2.7333358 magnetization 

 Broyden mixing:
  rms(total) = 0.90415E+00    rms(broyden)= 0.90415E+00
  rms(prec ) = 0.96253E+00
  weight for this iteration     100.00

 eigenvalues of (default mixing * dielectric matrix)
  average eigenvalue GAMMA=   2.3241
  2.3241

 Free energy of the ion-electron system (eV)
  ---------------------------------------------------
  alpha Z        PSCENC =         1.41309770
  Ewald energy   TEWEN  =      2629.98113996
  -Hartree energ DENC   =     -3476.43042845
  -exchange      EXHF   =         0.00000000
  -V(xc)+E(xc)   XCENC  =       -53.47659498
  PAW double counting   =      1930.47605075    -1761.56865494
  entropy T*S    EENTRO =        -0.00000000
  eigenvalues    EBANDS =      -610.77959498
  atomic energy  EATOM  =      1234.17543241
  Solvation  Ediel_sol  =         0.00000000
  ---------------------------------------------------
  free energy    TOTEN  =      -106.20955253 eV

  energy without entropy =     -106.20955253  energy(sigma->0) =     -106.20955253


--------------------------------------------------------------------------------------------------------




--------------------------------------- Iteration      1(   7)  ---------------------------------------


    POTLOK:  cpu time    1.6957: real time    1.6964
    SETDIJ:  cpu time    0.0080: real time    0.0074
     EDDAV:  cpu time    9.8835: real time    9.8838
       DOS:  cpu time    0.0010: real time    0.0004
    CHARGE:  cpu time    0.4819: real time    0.4824
    MIXING:  cpu time    0.0500: real time    0.0503
    --------------------------------------------
      LOOP:  cpu time   12.1202: real time   12.1206

 eigenvalue-minimisations  :   112
 total energy-change (2. order) : 0.1730854E+01  (-0.4210718E+00)
 number of electron      56.0000027 magnetization 
 augmentation part       -2.7349637 magnetization 

 Broyden mixing:
  rms(total) = 0.12399E+00    rms(broyden)= 0.12384E+00
  rms(prec ) = 0.15477E+00
  weight for this iteration     100.00

 eigenvalues of (default mixing * dielectric matrix)
  average eigenvalue GAMMA=   1.8319
  1.6358  2.0280

 Free energy of the ion-electron system (eV)
  ---------------------------------------------------
  alpha Z        PSCENC =         1.41309770
  Ewald energy   TEWEN  =      2629.98113996
  -Hartree energ DENC   =     -3533.69017853
  -exchange      EXHF   =         0.00000000
  -V(xc)+E(xc)   XCENC  =       -47.64737840
  PAW double counting   =      4244.04482306    -4076.05017893
  entropy T*S    EENTRO =        -0.00000000
  eigenvalues    EBANDS =      -556.70545544
  atomic energy  EATOM  =      1234.17543241
  Solvation  Ediel_sol  =         0.00000000
  ---------------------------------------------------
  free energy    TOTEN  =      -104.47869817 eV

  energy without entropy =     -104.47869817  energy(sigma->0) =     -104.47869817


--------------------------------------------------------------------------------------------------------




--------------------------------------- Iteration      1(   8)  ---------------------------------------


    POTLOK:  cpu time    1.7057: real time    1.7050
    SETDIJ:  cpu time    0.0080: real time    0.0076
     EDDAV:  cpu time    9.3616: real time    9.3768
       DOS:  cpu time    0.0000: real time    0.0004
    CHARGE:  cpu time    0.4899: real time    0.4899
    MIXING:  cpu time    0.0520: real time    0.0518
    --------------------------------------------
      LOOP:  cpu time   11.6172: real time   11.6315

 eigenvalue-minimisations  :   104
 total energy-change (2. order) : 0.4930934E-01  (-0.2686432E-01)
 number of electron      56.0000027 magnetization 
 augmentation part       -2.7327876 magnetization 

 Broyden mixing:
  rms(total) = 0.63313E-01    rms(broyden)= 0.63298E-01
  rms(prec ) = 0.82526E-01
  weight for this iteration     100.00

 eigenvalues of (default mixing * dielectric matrix)
  average eigenvalue GAMMA=   1.9814
  2.6123  1.6659  1.6659

 Free energy of the ion-electron system (eV)
  ---------------------------------------------------
  alpha Z        PSCENC =         1.41309770
  Ewald energy   TEWEN  =      2629.98113996
  -Hartree energ DENC   =     -3541.04998805
  -exchange      EXHF   =         0.00000000
  -V(xc)+E(xc)   XCENC  =       -47.72945363
  PAW double counting   =      4251.47011640    -4083.38026335
  entropy T*S    EENTRO =        -0.00000000
  eigenvalues    EBANDS =      -549.30947027
  atomic energy  EATOM  =      1234.17543241
  Solvation  Ediel_sol  =         0.00000000
  ---------------------------------------------------
  free energy    TOTEN  =      -104.42938884 eV

  energy without entropy =     -104.42938884  energy(sigma->0) =     -104.42938884


--------------------------------------------------------------------------------------------------------




--------------------------------------- Iteration      1(   9)  ---------------------------------------


    POTLOK:  cpu time    1.7237: real time    1.7233
    SETDIJ:  cpu time    0.0080: real time    0.0079
     EDDAV:  cpu time   11.0233: real time   11.0218
       DOS:  cpu time    0.0000: real time    0.0004
    CHARGE:  cpu time    0.4819: real time    0.4819
    MIXING:  cpu time    0.0550: real time    0.0550
    --------------------------------------------
      LOOP:  cpu time   13.2920: real time   13.2903

 eigenvalue-minimisations  :   128
 total energy-change (2. order) : 0.3454880E-01  (-0.7587262E-02)
 number of electron      56.0000027 magnetization 
 augmentation part       -2.7234150 magnetization 

 Broyden mixing:
  rms(total) = 0.35589E-01    rms(broyden)= 0.35588E-01
  rms(prec ) = 0.46905E-01
  weight for this iteration     100.00

 eigenvalues of (default mixing * dielectric matrix)
  average eigenvalue GAMMA=   1.7307
  2.4667  1.8393  1.8393  0.7775

 Free energy of the ion-electron system (eV)
  ---------------------------------------------------
  alpha Z        PSCENC =         1.41309770
  Ewald energy   TEWEN  =      2629.98113996
  -Hartree energ DENC   =     -3552.69900323
  -exchange      EXHF   =         0.00000000
  -V(xc)+E(xc)   XCENC  =       -47.07024375
  PAW double counting   =      4372.54555952    -4204.46966602
  entropy T*S    EENTRO =        -0.00000000
  eigenvalues    EBANDS =      -538.27115663
  atomic energy  EATOM  =      1234.17543241
  Solvation  Ediel_sol  =         0.00000000
  ---------------------------------------------------
  free energy    TOTEN  =      -104.39484004 eV

  energy without entropy =     -104.39484004  energy(sigma->0) =     -104.39484004


--------------------------------------------------------------------------------------------------------




--------------------------------------- Iteration      1(  10)  ---------------------------------------


    POTLOK:  cpu time    1.8727: real time    1.8758
    SETDIJ:  cpu time    0.0080: real time    0.0077
     EDDAV:  cpu time    9.9215: real time    9.9224
       DOS:  cpu time    0.0000: real time    0.0004
    CHARGE:  cpu time    0.4879: real time    0.4875
    MIXING:  cpu time    0.0580: real time    0.0583
    --------------------------------------------
      LOOP:  cpu time   12.3481: real time   12.3520

 eigenvalue-minimisations  :   112
 total energy-change (2. order) : 0.3785710E-04  (-0.2991953E-03)
 number of electron      56.0000027 magnetization 
 augmentation part       -2.7225859 magnetization 

 Broyden mixing:
  rms(total) = 0.17130E-01    rms(broyden)= 0.17130E-01
  rms(prec ) = 0.30083E-01
  weight for this iteration     100.00

 eigenvalues of (default mixing * dielectric matrix)
  average eigenvalue GAMMA=   1.8853
  2.8045  1.0640  2.1702  1.6938  1.6938

 Free energy of the ion-electron system (eV)
  ---------------------------------------------------
  alpha Z        PSCENC =         1.41309770
  Ewald energy   TEWEN  =      2629.98113996
  -Hartree energ DENC   =     -3554.75204522
  -exchange      EXHF   =         0.00000000
  -V(xc)+E(xc)   XCENC  =       -47.07635424
  PAW double counting   =      4281.98365630    -4113.86318291
  entropy T*S    EENTRO =        -0.00000000
  eigenvalues    EBANDS =      -536.25654618
  atomic energy  EATOM  =      1234.17543241
  Solvation  Ediel_sol  =         0.00000000
  ---------------------------------------------------
  free energy    TOTEN  =      -104.39480218 eV

  energy without entropy =     -104.39480218  energy(sigma->0) =     -104.39480218


--------------------------------------------------------------------------------------------------------




--------------------------------------- Iteration      1(  11)  ---------------------------------------


    POTLOK:  cpu time    1.7267: real time    1.7321
    SETDIJ:  cpu time    0.0080: real time    0.0077
     EDDAV:  cpu time    9.3656: real time    9.3622
       DOS:  cpu time    0.0000: real time    0.0003
    CHARGE:  cpu time    0.4839: real time    0.4822
    MIXING:  cpu time    0.0600: real time    0.0607
    --------------------------------------------
      LOOP:  cpu time   11.6442: real time   11.6452

 eigenvalue-minimisations  :   104
 total energy-change (2. order) : 0.6510822E-03  (-0.7455168E-03)
 number of electron      56.0000027 magnetization 
 augmentation part       -2.7218720 magnetization 

 Broyden mixing:
  rms(total) = 0.79639E-02    rms(broyden)= 0.79636E-02
  rms(prec ) = 0.14435E-01
  weight for this iteration     100.00

 eigenvalues of (default mixing * dielectric matrix)
  average eigenvalue GAMMA=   1.8419
  3.1602  2.5080  1.7440  1.7440  1.0413  0.8542

 Free energy of the ion-electron system (eV)
  ---------------------------------------------------
  alpha Z        PSCENC =         1.41309770
  Ewald energy   TEWEN  =      2629.98113996
  -Hartree energ DENC   =     -3561.98753395
  -exchange      EXHF   =         0.00000000
  -V(xc)+E(xc)   XCENC  =       -46.86738580
  PAW double counting   =      4230.39939032    -4062.23305064
  entropy T*S    EENTRO =        -0.00000000
  eigenvalues    EBANDS =      -529.27524109
  atomic energy  EATOM  =      1234.17543241
  Solvation  Ediel_sol  =         0.00000000
  ---------------------------------------------------
  free energy    TOTEN  =      -104.39415110 eV

  energy without entropy =     -104.39415110  energy(sigma->0) =     -104.39415110


--------------------------------------------------------------------------------------------------------




--------------------------------------- Iteration      1(  12)  ---------------------------------------


    POTLOK:  cpu time    1.7287: real time    1.7285
    SETDIJ:  cpu time    0.0070: real time    0.0075
     EDDAV:  cpu time    9.9415: real time    9.9366
       DOS:  cpu time    0.0000: real time    0.0003
    CHARGE:  cpu time    0.4939: real time    0.4935
    MIXING:  cpu time    0.0620: real time    0.0623
    --------------------------------------------
      LOOP:  cpu time   12.2331: real time   12.2287

 eigenvalue-minimisations  :   112
 total energy-change (2. order) :-0.3611615E-02  (-0.7519354E-04)
 number of electron      56.0000027 magnetization 
 augmentation part       -2.7217120 magnetization 

 Broyden mixing:
  rms(total) = 0.58677E-02    rms(broyden)= 0.58677E-02
  rms(prec ) = 0.10592E-01
  weight for this iteration     100.00

 eigenvalues of (default mixing * dielectric matrix)
  average eigenvalue GAMMA=   2.0142
  4.2531  2.5651  2.2320  1.5766  1.5766  0.9479  0.9479

 Free energy of the ion-electron system (eV)
  ---------------------------------------------------
  alpha Z        PSCENC =         1.41309770
  Ewald energy   TEWEN  =      2629.98113996
  -Hartree energ DENC   =     -3563.81484868
  -exchange      EXHF   =         0.00000000
  -V(xc)+E(xc)   XCENC  =       -46.83972915
  PAW double counting   =      4222.53960398    -4054.37047943
  entropy T*S    EENTRO =        -0.00000000
  eigenvalues    EBANDS =      -527.48197950
  atomic energy  EATOM  =      1234.17543241
  Solvation  Ediel_sol  =         0.00000000
  ---------------------------------------------------
  free energy    TOTEN  =      -104.39776271 eV

  energy without entropy =     -104.39776271  energy(sigma->0) =     -104.39776271


--------------------------------------------------------------------------------------------------------




--------------------------------------- Iteration      1(  13)  ---------------------------------------


    POTLOK:  cpu time    1.7327: real time    1.7323
    SETDIJ:  cpu time    0.0080: real time    0.0077
     EDDAV:  cpu time    9.3536: real time    9.3586
       DOS:  cpu time    0.0000: real time    0.0003
    CHARGE:  cpu time    0.4919: real time    0.4916
    MIXING:  cpu time    0.0670: real time    0.0673
    --------------------------------------------
      LOOP:  cpu time   11.6532: real time   11.6578

 eigenvalue-minimisations  :   104
 total energy-change (2. order) :-0.5057805E-02  (-0.2094067E-03)
 number of electron      56.0000027 magnetization 
 augmentation part       -2.7214922 magnetization 

 Broyden mixing:
  rms(total) = 0.35990E-02    rms(broyden)= 0.35990E-02
  rms(prec ) = 0.54031E-02
  weight for this iteration     100.00

 eigenvalues of (default mixing * dielectric matrix)
  average eigenvalue GAMMA=   2.1734
  5.6939  2.8281  2.4331  1.7647  1.7647  1.0464  0.9283  0.9283

 Free energy of the ion-electron system (eV)
  ---------------------------------------------------
  alpha Z        PSCENC =         1.41309770
  Ewald energy   TEWEN  =      2629.98113996
  -Hartree energ DENC   =     -3566.91440517
  -exchange      EXHF   =         0.00000000
  -V(xc)+E(xc)   XCENC  =       -46.78676015
  PAW double counting   =      4224.83652083    -4056.67338423
  entropy T*S    EENTRO =        -0.00000000
  eigenvalues    EBANDS =      -524.43446186
  atomic energy  EATOM  =      1234.17543241
  Solvation  Ediel_sol  =         0.00000000
  ---------------------------------------------------
  free energy    TOTEN  =      -104.40282052 eV

  energy without entropy =     -104.40282052  energy(sigma->0) =     -104.40282052


--------------------------------------------------------------------------------------------------------




--------------------------------------- Iteration      1(  14)  ---------------------------------------


    POTLOK:  cpu time    1.7377: real time    1.7373
    SETDIJ:  cpu time    0.0130: real time    0.0123
     EDDAV:  cpu time    9.9405: real time    9.9376
       DOS:  cpu time    0.0000: real time    0.0003
    CHARGE:  cpu time    0.4919: real time    0.4913
    MIXING:  cpu time    0.0710: real time    0.0717
    --------------------------------------------
      LOOP:  cpu time   12.2541: real time   12.2505

 eigenvalue-minimisations  :   112
 total energy-change (2. order) :-0.3740104E-02  (-0.3234221E-04)
 number of electron      56.0000027 magnetization 
 augmentation part       -2.7210813 magnetization 

 Broyden mixing:
  rms(total) = 0.17757E-02    rms(broyden)= 0.17756E-02
  rms(prec ) = 0.29939E-02
  weight for this iteration     100.00

 eigenvalues of (default mixing * dielectric matrix)
  average eigenvalue GAMMA=   2.3141
  6.5847  2.9103  2.9103  2.1457  1.6580  1.6580  1.0902  0.9351  0.9351

 Free energy of the ion-electron system (eV)
  ---------------------------------------------------
  alpha Z        PSCENC =         1.41309770
  Ewald energy   TEWEN  =      2629.98113996
  -Hartree energ DENC   =     -3567.76511895
  -exchange      EXHF   =         0.00000000
  -V(xc)+E(xc)   XCENC  =       -46.78987142
  PAW double counting   =      4226.78854934    -4058.62847978
  entropy T*S    EENTRO =        -0.00000000
  eigenvalues    EBANDS =      -523.58130988
  atomic energy  EATOM  =      1234.17543241
  Solvation  Ediel_sol  =         0.00000000
  ---------------------------------------------------
  free energy    TOTEN  =      -104.40656062 eV

  energy without entropy =     -104.40656062  energy(sigma->0) =     -104.40656062


--------------------------------------------------------------------------------------------------------




--------------------------------------- Iteration      1(  15)  ---------------------------------------


    POTLOK:  cpu time    1.7437: real time    1.7460
    SETDIJ:  cpu time    0.0080: real time    0.0078
     EDDAV:  cpu time    9.9415: real time    9.9381
       DOS:  cpu time    0.0010: real time    0.0004
    CHARGE:  cpu time    0.4879: real time    0.4883
    MIXING:  cpu time    0.0790: real time    0.0790
    --------------------------------------------
      LOOP:  cpu time   12.2611: real time   12.2597

 eigenvalue-minimisations  :   112
 total energy-change (2. order) :-0.5246681E-02  (-0.7357535E-04)
 number of electron      56.0000027 magnetization 
 augmentation part       -2.7208719 magnetization 

 Broyden mixing:
  rms(total) = 0.18454E-02    rms(broyden)= 0.18453E-02
  rms(prec ) = 0.22243E-02
  weight for this iteration     100.00

 eigenvalues of (default mixing * dielectric matrix)
  average eigenvalue GAMMA=   2.2961
  6.7774  3.7859  2.6095  2.1930  1.8104  1.8104  1.1493  0.9506  0.9506  0.9237

 Free energy of the ion-electron system (eV)
  ---------------------------------------------------
  alpha Z        PSCENC =         1.41309770
  Ewald energy   TEWEN  =      2629.98113996
  -Hartree energ DENC   =     -3567.99062929
  -exchange      EXHF   =         0.00000000
  -V(xc)+E(xc)   XCENC  =       -46.80465300
  PAW double counting   =      4232.01764092    -4063.85673633
  entropy T*S    EENTRO =        -0.00000000
  eigenvalues    EBANDS =      -523.34709966
  atomic energy  EATOM  =      1234.17543241
  Solvation  Ediel_sol  =         0.00000000
  ---------------------------------------------------
  free energy    TOTEN  =      -104.41180730 eV

  energy without entropy =     -104.41180730  energy(sigma->0) =     -104.41180730


--------------------------------------------------------------------------------------------------------




--------------------------------------- Iteration      1(  16)  ---------------------------------------


    POTLOK:  cpu time    1.7137: real time    1.7184
    SETDIJ:  cpu time    0.0110: real time    0.0114
     EDDAV:  cpu time    9.9145: real time    9.9117
       DOS:  cpu time    0.0000: real time    0.0003
    CHARGE:  cpu time    0.4899: real time    0.4892
    MIXING:  cpu time    0.0870: real time    0.0872
    --------------------------------------------
      LOOP:  cpu time   12.2161: real time   12.2182

 eigenvalue-minimisations  :   112
 total energy-change (2. order) :-0.8066228E-03  (-0.3613984E-05)
 number of electron      56.0000027 magnetization 
 augmentation part       -2.7209865 magnetization 

 Broyden mixing:
  rms(total) = 0.90956E-03    rms(broyden)= 0.90955E-03
  rms(prec ) = 0.11977E-02
  weight for this iteration     100.00

 eigenvalues of (default mixing * dielectric matrix)
  average eigenvalue GAMMA=   2.4041
  7.3834  4.6110  2.6740  2.5219  1.8318  1.8318  1.3656  1.3656  0.9940  0.9327
  0.9327

 Free energy of the ion-electron system (eV)
  ---------------------------------------------------
  alpha Z        PSCENC =         1.41309770
  Ewald energy   TEWEN  =      2629.98113996
  -Hartree energ DENC   =     -3568.09873594
  -exchange      EXHF   =         0.00000000
  -V(xc)+E(xc)   XCENC  =       -46.80260014
  PAW double counting   =      4231.46446383    -4063.30228388
  entropy T*S    EENTRO =        -0.00000000
  eigenvalues    EBANDS =      -523.24312786
  atomic energy  EATOM  =      1234.17543241
  Solvation  Ediel_sol  =         0.00000000
  ---------------------------------------------------
  free energy    TOTEN  =      -104.41261392 eV

  energy without entropy =     -104.41261392  energy(sigma->0) =     -104.41261392


--------------------------------------------------------------------------------------------------------




--------------------------------------- Iteration      1(  17)  ---------------------------------------


    POTLOK:  cpu time    1.7157: real time    1.7144
    SETDIJ:  cpu time    0.0080: real time    0.0082
     EDDAV:  cpu time    9.3436: real time    9.3414
       DOS:  cpu time    0.0010: real time    0.0003
    CHARGE:  cpu time    0.4839: real time    0.4837
    MIXING:  cpu time    0.0980: real time    0.0978
    --------------------------------------------
      LOOP:  cpu time   11.6502: real time   11.6458

 eigenvalue-minimisations  :   104
 total energy-change (2. order) :-0.1068420E-02  (-0.9298883E-05)
 number of electron      56.0000027 magnetization 
 augmentation part       -2.7211571 magnetization 

 Broyden mixing:
  rms(total) = 0.32322E-03    rms(broyden)= 0.32317E-03
  rms(prec ) = 0.46828E-03
  weight for this iteration     100.00

 eigenvalues of (default mixing * dielectric matrix)
  average eigenvalue GAMMA=   2.3473
  7.4727  4.9378  2.6723  2.6723  1.8925  1.8925  1.4492  1.4492  0.9547  0.9547
  0.9098  0.9098

 Free energy of the ion-electron system (eV)
  ---------------------------------------------------
  alpha Z        PSCENC =         1.41309770
  Ewald energy   TEWEN  =      2629.98113996
  -Hartree energ DENC   =     -3568.14256733
  -exchange      EXHF   =         0.00000000
  -V(xc)+E(xc)   XCENC  =       -46.80260408
  PAW double counting   =      4230.10531298    -4061.94212471
  entropy T*S    EENTRO =        -0.00000000
  eigenvalues    EBANDS =      -523.20136927
  atomic energy  EATOM  =      1234.17543241
  Solvation  Ediel_sol  =         0.00000000
  ---------------------------------------------------
  free energy    TOTEN  =      -104.41368234 eV

  energy without entropy =     -104.41368234  energy(sigma->0) =     -104.41368234


--------------------------------------------------------------------------------------------------------




--------------------------------------- Iteration      1(  18)  ---------------------------------------


    POTLOK:  cpu time    1.7197: real time    1.7187
    SETDIJ:  cpu time    0.0070: real time    0.0075
     EDDAV:  cpu time    9.9275: real time   10.0345
       DOS:  cpu time    0.0000: real time    0.0003
    CHARGE:  cpu time    0.4859: real time    0.4868
    MIXING:  cpu time    0.1100: real time    0.1098
    --------------------------------------------
      LOOP:  cpu time   12.2501: real time   12.3576

 eigenvalue-minimisations  :   112
 total energy-change (2. order) :-0.2128694E-03  (-0.6303209E-06)
 number of electron      56.0000027 magnetization 
 augmentation part       -2.7211809 magnetization 

 Broyden mixing:
  rms(total) = 0.24261E-03    rms(broyden)= 0.24257E-03
  rms(prec ) = 0.34169E-03
  weight for this iteration     100.00

 eigenvalues of (default mixing * dielectric matrix)
  average eigenvalue GAMMA=   2.4661
  8.1833  5.5332  3.1811  2.6630  2.1518  1.7860  1.7860  1.4332  1.4332  1.0142
  1.0142  0.9400  0.9400

 Free energy of the ion-electron system (eV)
  ---------------------------------------------------
  alpha Z        PSCENC =         1.41309770
  Ewald energy   TEWEN  =      2629.98113996
  -Hartree energ DENC   =     -3568.15117139
  -exchange      EXHF   =         0.00000000
  -V(xc)+E(xc)   XCENC  =       -46.80352756
  PAW double counting   =      4229.28838188    -4061.12540233
  entropy T*S    EENTRO =        -0.00000000
  eigenvalues    EBANDS =      -523.19184588
  atomic energy  EATOM  =      1234.17543241
  Solvation  Ediel_sol  =         0.00000000
  ---------------------------------------------------
  free energy    TOTEN  =      -104.41389521 eV

  energy without entropy =     -104.41389521  energy(sigma->0) =     -104.41389521


--------------------------------------------------------------------------------------------------------




--------------------------------------- Iteration      1(  19)  ---------------------------------------


    POTLOK:  cpu time    1.7287: real time    1.7288
    SETDIJ:  cpu time    0.0090: real time    0.0081
     EDDAV:  cpu time    8.6367: real time    8.6352
       DOS:  cpu time    0.0000: real time    0.0004
    CHARGE:  cpu time    0.4839: real time    0.4842
    MIXING:  cpu time    0.1210: real time    0.1208
    --------------------------------------------
      LOOP:  cpu time   10.9793: real time   10.9774

 eigenvalue-minimisations  :    94
 total energy-change (2. order) :-0.2390777E-03  (-0.9979924E-06)
 number of electron      56.0000027 magnetization 
 augmentation part       -2.7211915 magnetization 

 Broyden mixing:
  rms(total) = 0.20682E-03    rms(broyden)= 0.20681E-03
  rms(prec ) = 0.24779E-03
  weight for this iteration     100.00

 eigenvalues of (default mixing * dielectric matrix)
  average eigenvalue GAMMA=   2.4529
  8.2393  6.1290  3.3186  2.6197  2.4241  1.8481  1.8481  1.5003  1.5003  1.0875
  0.9288  0.9288  0.9843  0.9843

 Free energy of the ion-electron system (eV)
  ---------------------------------------------------
  alpha Z        PSCENC =         1.41309770
  Ewald energy   TEWEN  =      2629.98113996
  -Hartree energ DENC   =     -3568.17727048
  -exchange      EXHF   =         0.00000000
  -V(xc)+E(xc)   XCENC  =       -46.80222616
  PAW double counting   =      4228.77305574    -4060.61048963
  entropy T*S    EENTRO =        -0.00000000
  eigenvalues    EBANDS =      -523.16687382
  atomic energy  EATOM  =      1234.17543241
  Solvation  Ediel_sol  =         0.00000000
  ---------------------------------------------------
  free energy    TOTEN  =      -104.41413429 eV

  energy without entropy =     -104.41413429  energy(sigma->0) =     -104.41413429


--------------------------------------------------------------------------------------------------------




--------------------------------------- Iteration      1(  20)  ---------------------------------------


    POTLOK:  cpu time    1.7227: real time    1.7218
    SETDIJ:  cpu time    0.0070: real time    0.0075
     EDDAV:  cpu time    8.2547: real time    8.2526
       DOS:  cpu time    0.0000: real time    0.0004
    CHARGE:  cpu time    0.4829: real time    0.4830
    MIXING:  cpu time    0.1320: real time    0.1314
    --------------------------------------------
      LOOP:  cpu time   10.5994: real time   10.5966

 eigenvalue-minimisations  :    88
 total energy-change (2. order) :-0.4613604E-04  (-0.9292282E-07)
 number of electron      56.0000027 magnetization 
 augmentation part       -2.7211658 magnetization 

 Broyden mixing:
  rms(total) = 0.74649E-04    rms(broyden)= 0.74649E-04
  rms(prec ) = 0.10100E-03
  weight for this iteration     100.00

 eigenvalues of (default mixing * dielectric matrix)
  average eigenvalue GAMMA=   2.4854
  8.5230  6.2875  3.8369  2.7341  2.6510  1.7969  1.7969  1.5532  1.5532  1.5132
  1.2742  0.9511  0.9511  0.9573  0.9015

 Free energy of the ion-electron system (eV)
  ---------------------------------------------------
  alpha Z        PSCENC =         1.41309770
  Ewald energy   TEWEN  =      2629.98113996
  -Hartree energ DENC   =     -3568.18624494
  -exchange      EXHF   =         0.00000000
  -V(xc)+E(xc)   XCENC  =       -46.80268082
  PAW double counting   =      4228.94532091    -4060.78300533
  entropy T*S    EENTRO =        -0.00000000
  eigenvalues    EBANDS =      -523.15724031
  atomic energy  EATOM  =      1234.17543241
  Solvation  Ediel_sol  =         0.00000000
  ---------------------------------------------------
  free energy    TOTEN  =      -104.41418043 eV

  energy without entropy =     -104.41418043  energy(sigma->0) =     -104.41418043


--------------------------------------------------------------------------------------------------------




--------------------------------------- Iteration      1(  21)  ---------------------------------------


    POTLOK:  cpu time    1.8587: real time    1.8609
    SETDIJ:  cpu time    0.0070: real time    0.0076
     EDDAV:  cpu time    7.5908: real time    7.5878
       DOS:  cpu time    0.0000: real time    0.0005
    CHARGE:  cpu time    0.4869: real time    0.4868
    MIXING:  cpu time    0.1460: real time    0.1459
    --------------------------------------------
      LOOP:  cpu time   10.0895: real time   10.0894

 eigenvalue-minimisations  :    78
 total energy-change (2. order) :-0.3414026E-04  (-0.1027105E-06)
 number of electron      56.0000027 magnetization 
 augmentation part       -2.7211461 magnetization 

 Broyden mixing:
  rms(total) = 0.61291E-04    rms(broyden)= 0.61285E-04
  rms(prec ) = 0.78182E-04
  weight for this iteration     100.00

 eigenvalues of (default mixing * dielectric matrix)
  average eigenvalue GAMMA=   2.4986
  8.5933  6.5876  4.1990  2.9965  2.6596  2.1815  1.8839  1.8839  1.5351  1.5351
  1.1608  0.9493  0.9239  0.9239  0.9821  0.9821

 Free energy of the ion-electron system (eV)
  ---------------------------------------------------
  alpha Z        PSCENC =         1.41309770
  Ewald energy   TEWEN  =      2629.98113996
  -Hartree energ DENC   =     -3568.19096927
  -exchange      EXHF   =         0.00000000
  -V(xc)+E(xc)   XCENC  =       -46.80293944
  PAW double counting   =      4229.22280328    -4061.06048516
  entropy T*S    EENTRO =        -0.00000000
  eigenvalues    EBANDS =      -523.15229405
  atomic energy  EATOM  =      1234.17543241
  Solvation  Ediel_sol  =         0.00000000
  ---------------------------------------------------
  free energy    TOTEN  =      -104.41421457 eV

  energy without entropy =     -104.41421457  energy(sigma->0) =     -104.41421457


--------------------------------------------------------------------------------------------------------




--------------------------------------- Iteration      1(  22)  ---------------------------------------


    POTLOK:  cpu time    1.7227: real time    1.7214
    SETDIJ:  cpu time    0.0080: real time    0.0082
     EDDAV:  cpu time    7.6918: real time    7.7028
       DOS:  cpu time    0.0000: real time    0.0004
    CHARGE:  cpu time    0.4879: real time    0.4881
    MIXING:  cpu time    0.1550: real time    0.1552
    --------------------------------------------
      LOOP:  cpu time   10.0655: real time   10.0762

 eigenvalue-minimisations  :    80
 total energy-change (2. order) :-0.8338189E-05  (-0.2218162E-07)
 number of electron      56.0000027 magnetization 
 augmentation part       -2.7211540 magnetization 

 Broyden mixing:
  rms(total) = 0.33517E-04    rms(broyden)= 0.33516E-04
  rms(prec ) = 0.39291E-04
  weight for this iteration     100.00

 eigenvalues of (default mixing * dielectric matrix)
  average eigenvalue GAMMA=   2.4727
  8.7631  6.6989  4.4914  3.1196  2.4967  2.4967  1.8057  1.8057  1.5614  1.5614
  1.2222  1.2222  0.9428  0.9428  0.9788  0.9788  0.9481

 Free energy of the ion-electron system (eV)
  ---------------------------------------------------
  alpha Z        PSCENC =         1.41309770
  Ewald energy   TEWEN  =      2629.98113996
  -Hartree energ DENC   =     -3568.18990310
  -exchange      EXHF   =         0.00000000
  -V(xc)+E(xc)   XCENC  =       -46.80287980
  PAW double counting   =      4229.31066852    -4061.14819321
  entropy T*S    EENTRO =        -0.00000000
  eigenvalues    EBANDS =      -523.15358538
  atomic energy  EATOM  =      1234.17543241
  Solvation  Ediel_sol  =         0.00000000
  ---------------------------------------------------
  free energy    TOTEN  =      -104.41422291 eV

  energy without entropy =     -104.41422291  energy(sigma->0) =     -104.41422291


--------------------------------------------------------------------------------------------------------




--------------------------------------- Iteration      1(  23)  ---------------------------------------


    POTLOK:  cpu time    1.7097: real time    1.7091
    SETDIJ:  cpu time    0.0080: real time    0.0073
     EDDAV:  cpu time    8.1298: real time    8.1278
       DOS:  cpu time    0.0010: real time    0.0004
    CHARGE:  cpu time    0.4869: real time    0.4874
    MIXING:  cpu time    0.1700: real time    0.1697
    --------------------------------------------
      LOOP:  cpu time   10.5054: real time   10.5016

 eigenvalue-minimisations  :    86
 total energy-change (2. order) :-0.2776781E-05  (-0.5174661E-08)
 number of electron      56.0000027 magnetization 
 augmentation part       -2.7211582 magnetization 

 Broyden mixing:
  rms(total) = 0.21181E-04    rms(broyden)= 0.21180E-04
  rms(prec ) = 0.25911E-04
  weight for this iteration     100.00

 eigenvalues of (default mixing * dielectric matrix)
  average eigenvalue GAMMA=   2.5252
  8.8115  6.8531  4.7894  3.1554  2.8913  2.6492  2.3080  1.8348  1.8348  1.5621
  1.5621  1.1652  1.1652  1.0515  0.9362  0.9362  0.9742  0.9742

 Free energy of the ion-electron system (eV)
  ---------------------------------------------------
  alpha Z        PSCENC =         1.41309770
  Ewald energy   TEWEN  =      2629.98113996
  -Hartree energ DENC   =     -3568.18912091
  -exchange      EXHF   =         0.00000000
  -V(xc)+E(xc)   XCENC  =       -46.80298465
  PAW double counting   =      4229.20316813    -4061.04068040
  entropy T*S    EENTRO =        -0.00000000
  eigenvalues    EBANDS =      -523.15427792
  atomic energy  EATOM  =      1234.17543241
  Solvation  Ediel_sol  =         0.00000000
  ---------------------------------------------------
  free energy    TOTEN  =      -104.41422568 eV

  energy without entropy =     -104.41422568  energy(sigma->0) =     -104.41422568


--------------------------------------------------------------------------------------------------------




--------------------------------------- Iteration      1(  24)  ---------------------------------------


    POTLOK:  cpu time    1.7237: real time    1.7229
    SETDIJ:  cpu time    0.0080: real time    0.0085
     EDDAV:  cpu time    7.7338: real time    7.7304
       DOS:  cpu time    0.0000: real time    0.0006
    CHARGE:  cpu time    0.4869: real time    0.4872
    MIXING:  cpu time    0.1830: real time    0.1826
    --------------------------------------------
      LOOP:  cpu time   10.1355: real time   10.1321

 eigenvalue-minimisations  :    80
 total energy-change (2. order) :-0.3914917E-05  (-0.7103907E-08)
 number of electron      56.0000027 magnetization 
 augmentation part       -2.7211603 magnetization 

 Broyden mixing:
  rms(total) = 0.10594E-04    rms(broyden)= 0.10593E-04
  rms(prec ) = 0.12294E-04
  weight for this iteration     100.00

 eigenvalues of (default mixing * dielectric matrix)
  average eigenvalue GAMMA=   2.5103
  8.8539  7.0391  5.2482  3.7849  2.8282  2.4897  2.3756  1.8249  1.8249  1.5319
  1.5319  1.2602  1.2602  1.0977  0.9799  0.9231  0.9231  0.9587  0.9587

 Free energy of the ion-electron system (eV)
  ---------------------------------------------------
  alpha Z        PSCENC =         1.41309770
  Ewald energy   TEWEN  =      2629.98113996
  -Hartree energ DENC   =     -3568.19034982
  -exchange      EXHF   =         0.00000000
  -V(xc)+E(xc)   XCENC  =       -46.80290526
  PAW double counting   =      4229.15258684    -4060.99012372
  entropy T*S    EENTRO =        -0.00000000
  eigenvalues    EBANDS =      -523.15310770
  atomic energy  EATOM  =      1234.17543241
  Solvation  Ediel_sol  =         0.00000000
  ---------------------------------------------------
  free energy    TOTEN  =      -104.41422960 eV

  energy without entropy =     -104.41422960  energy(sigma->0) =     -104.41422960


--------------------------------------------------------------------------------------------------------




--------------------------------------- Iteration      1(  25)  ---------------------------------------


    POTLOK:  cpu time    1.7257: real time    1.7250
    SETDIJ:  cpu time    0.0080: real time    0.0076
     EDDAV:  cpu time    7.1869: real time    7.1841
       DOS:  cpu time    0.0000: real time    0.0004
    --------------------------------------------
      LOOP:  cpu time    8.9206: real time    8.9171

 eigenvalue-minimisations  :    72
 total energy-change (2. order) :-0.4357848E-06  (-0.1046061E-08)
 number of electron      56.0000027 magnetization 
 augmentation part       -2.7211603 magnetization 

 Free energy of the ion-electron system (eV)
  ---------------------------------------------------
  alpha Z        PSCENC =         1.41309770
  Ewald energy   TEWEN  =      2629.98113996
  -Hartree energ DENC   =     -3568.19037361
  -exchange      EXHF   =         0.00000000
  -V(xc)+E(xc)   XCENC  =       -46.80290024
  PAW double counting   =      4229.17309763    -4061.01063277
  entropy T*S    EENTRO =        -0.00000000
  eigenvalues    EBANDS =      -523.15309111
  atomic energy  EATOM  =      1234.17543241
  Solvation  Ediel_sol  =         0.00000000
  ---------------------------------------------------
  free energy    TOTEN  =      -104.41423003 eV

  energy without entropy =     -104.41423003  energy(sigma->0) =     -104.41423003


--------------------------------------------------------------------------------------------------------




 average (electrostatic) potential at core
  the test charge radii are     0.9892  1.1631  0.5201
  (the norm of the test charge is              1.0000)
       1 -93.3653       2 -93.4241       3 -93.4299       4 -93.4299       5 -93.4432
       6 -93.4038       7 -93.4038       8 -93.4235       9 -40.4000      10 -40.4000
      11 -41.0695      12 -41.0745      13 -40.7036      14 -40.6988      15 -40.7085
      16 -40.7038      17 -40.7095      18 -40.7158      19 -40.7041      20 -41.0745
      21 -41.0696      22 -40.6929      23 -40.7043      24 -40.7044      25 -40.7083
      26 -40.7034
 
 
 
 E-fermi :  -5.4806     XC(G=0):  -0.6063     alpha+bet : -0.3469


 k-point     1 :       0.0000    0.0000    0.0000
  band No.  band energies     occupation 
      1     -14.9469      2.00000
      2     -14.0586      2.00000
      3     -13.9065      2.00000
      4     -13.6465      2.00000
      5     -12.8821      2.00000
      6     -12.6560      2.00000
      7     -11.3524      2.00000
      8     -11.3303      2.00000
      9     -11.2344      2.00000
     10     -10.3073      2.00000
     11      -8.9383      2.00000
     12      -8.6260      2.00000
     13      -8.6158      2.00000
     14      -8.6094      2.00000
     15      -8.1900      2.00000
     16      -8.1838      2.00000
     17      -8.1707      2.00000
     18      -7.8633      2.00000
     19      -7.8624      2.00000
     20      -7.8553      2.00000
     21      -6.8062      2.00000
     22      -6.7935      2.00000
     23      -6.4985      2.00000
     24      -6.4963      2.00000
     25      -6.4837      2.00000
     26      -6.4291      2.00000
     27      -6.4187      2.00000
     28      -6.4145      2.00000
     29      -1.8321      0.00000
     30      -1.4807      0.00000
     31      -1.4376      0.00000
     32      -1.2910      0.00000
     33      -1.2163      0.00000
     34      -1.1553      0.00000
     35      -1.0187      0.00000
     36      -1.0076      0.00000
     37      -0.9007      0.00000
     38      -0.5713      0.00000
     39      -0.5062      0.00000
     40      -0.4658      0.00000
     41      -0.4346      0.00000
     42      -0.2519      0.00000


--------------------------------------------------------------------------------------------------------


 soft charge-density along one line, spin component           1
         0         1         2         3         4         5         6         7         8         9
 total charge-density along one line
 
 pseudopotential strength for first ion, spin component:           1
 19.609  27.365  -0.000   0.002   0.000  -0.001   0.004   0.000
 27.365  38.194  -0.001   0.003   0.000  -0.001   0.005   0.001
 -0.000  -0.001   4.358  -0.000  -0.000   8.129  -0.000  -0.000
  0.002   0.003  -0.000   4.358   0.000  -0.000   8.129   0.000
  0.000   0.000  -0.000   0.000   4.358  -0.000   0.000   8.129
 -0.001  -0.001   8.129  -0.000  -0.000  15.174  -0.000  -0.000
  0.004   0.005  -0.000   8.129   0.000  -0.000  15.174   0.000
  0.000   0.001  -0.000   0.000   8.129  -0.000   0.000  15.174
 total augmentation occupancy for first ion, spin component:           1
  5.579  -2.048   0.069  -0.330  -0.044  -0.021   0.099   0.013
 -2.048   0.810  -0.042   0.201   0.027   0.009  -0.045  -0.006
  0.069  -0.042   2.867  -0.094  -0.013  -0.624   0.034   0.005
 -0.330   0.201  -0.094   3.296   0.060   0.034  -0.780  -0.022
 -0.044   0.027  -0.013   0.060   2.856   0.005  -0.022  -0.620
 -0.021   0.009  -0.624   0.034   0.005   0.142  -0.010  -0.001
  0.099  -0.045   0.034  -0.780  -0.022  -0.010   0.187   0.006
  0.013  -0.006   0.005  -0.022  -0.620  -0.001   0.006   0.140


------------------------ aborting loop because EDIFF is reached ----------------------------------------


    CHARGE:  cpu time    0.4879: real time    0.4872
    FORLOC:  cpu time    0.1760: real time    0.1766
    FORNL :  cpu time    1.0218: real time    1.0210
    STRESS:  cpu time    7.3149: real time    7.3112
    FORCOR:  cpu time    1.7097: real time    1.7106
    FORHAR:  cpu time    0.5819: real time    0.5803
    MIXING:  cpu time    0.1910: real time    0.1917
    OFIELD:  cpu time    0.0000: real time    0.0000

  FORCE on cell =-STRESS in cart. coord.  units (eV):
  Direction    XX          YY          ZZ          XY          YZ          ZX
  --------------------------------------------------------------------------------------
  Alpha Z     1.41310     1.41310     1.41310
  Ewald     876.64706   876.62235   876.71007    -0.21850     0.02563    -0.50464
  Hartree  1189.76476  1189.05845  1189.36835    -0.25994    -0.00128    -0.14030
  E(xc)    -174.01905  -174.09801  -174.17422     0.01641     0.01380    -0.05581
  Local   -2590.11976 -2589.44120 -2589.88414     0.48635    -0.01536     0.62276
  n-local   306.73332   307.19607   307.59315    -0.08162    -0.07400     0.26117
  augment   -41.20401   -41.19847   -41.19617    -0.00105    -0.00016     0.00264
  Kinetic   423.56496   423.30525   423.12620     0.03714     0.03412    -0.10696
  Fock        0.00000     0.00000     0.00000     0.00000     0.00000     0.00000
  -------------------------------------------------------------------------------------
  Total      -7.21962    -7.14245    -7.04368    -0.02121    -0.01725     0.07887
  in kB      -1.44589    -1.43043    -1.41065    -0.00425    -0.00346     0.01580
  external pressure =       -1.43 kB  Pullay stress =        0.00 kB


 VOLUME and BASIS-vectors are now :
 -----------------------------------------------------------------------------
  energy-cutoff  :      400.00
[...]
    SETDIJ:  cpu time    0.0070: real time    0.0075
     EDDAV:  cpu time   10.5554: real time   10.5703
       DOS:  cpu time    0.0000: real time    0.0004
    CHARGE:  cpu time    0.4889: real time    0.4910
    MIXING:  cpu time    0.0460: real time    0.0457
    --------------------------------------------
      LOOP:  cpu time   12.8271: real time   12.8453

 eigenvalue-minimisations  :   120
 total energy-change (2. order) :-0.7040720E-05  (-0.2413081E-04)
 number of electron      56.0000020 magnetization 
 augmentation part       -2.7217173 magnetization 

 Broyden mixing:
  rms(total) = 0.18895E-02    rms(broyden)= 0.18891E-02
  rms(prec ) = 0.20278E-02
  weight for this iteration     100.00

 eigenvalues of (default mixing * dielectric matrix)
  average eigenvalue GAMMA=   1.2543
  1.2543

 Free energy of the ion-electron system (eV)
  ---------------------------------------------------
  alpha Z        PSCENC =         1.41309770
  Ewald energy   TEWEN  =      2692.87214388
  -Hartree energ DENC   =     -3628.67736372
  -exchange      EXHF   =         0.00000000
  -V(xc)+E(xc)   XCENC  =       -45.54998127
  PAW double counting   =      4686.17680630    -4518.22698113
  entropy T*S    EENTRO =        -0.00000000
  eigenvalues    EBANDS =      -526.90244517
  atomic energy  EATOM  =      1234.17543241
  Solvation  Ediel_sol  =         0.00000000
  ---------------------------------------------------
  free energy    TOTEN  =      -104.71929101 eV

  energy without entropy =     -104.71929101  energy(sigma->0) =     -104.71929101


--------------------------------------------------------------------------------------------------------




--------------------------------------- Iteration     18(   3)  ---------------------------------------


    POTLOK:  cpu time    1.7287: real time    1.7316
    SETDIJ:  cpu time    0.0080: real time    0.0075
     EDDAV:  cpu time   11.0133: real time   11.0367
       DOS:  cpu time    0.0000: real time    0.0004
    CHARGE:  cpu time    0.4839: real time    0.4865
    MIXING:  cpu time    0.0500: real time    0.0492
    --------------------------------------------
      LOOP:  cpu time   13.2840: real time   13.3119

 eigenvalue-minimisations  :   128
 total energy-change (2. order) : 0.4400628E-05  (-0.1696020E-05)
 number of electron      56.0000020 magnetization 
 augmentation part       -2.7217536 magnetization 

 Broyden mixing:
  rms(total) = 0.88561E-03    rms(broyden)= 0.88556E-03
  rms(prec ) = 0.93756E-03
  weight for this iteration     100.00

 eigenvalues of (default mixing * dielectric matrix)
  average eigenvalue GAMMA=   1.6030
  1.0580  2.1480

 Free energy of the ion-electron system (eV)
  ---------------------------------------------------
  alpha Z        PSCENC =         1.41309770
  Ewald energy   TEWEN  =      2692.87214388
  -Hartree energ DENC   =     -3628.67677018
  -exchange      EXHF   =         0.00000000
  -V(xc)+E(xc)   XCENC  =       -45.54946658
  PAW double counting   =      4686.06478159    -4518.11481065
  entropy T*S    EENTRO =        -0.00000000
  eigenvalues    EBANDS =      -526.90369477
  atomic energy  EATOM  =      1234.17543241
  Solvation  Ediel_sol  =         0.00000000
  ---------------------------------------------------
  free energy    TOTEN  =      -104.71928661 eV

  energy without entropy =     -104.71928661  energy(sigma->0) =     -104.71928661


--------------------------------------------------------------------------------------------------------




--------------------------------------- Iteration     18(   4)  ---------------------------------------


    POTLOK:  cpu time    1.7327: real time    1.7358
    SETDIJ:  cpu time    0.0080: real time    0.0076
     EDDAV:  cpu time   10.5504: real time   10.5646
       DOS:  cpu time    0.0000: real time    0.0002
    --------------------------------------------
      LOOP:  cpu time   12.2911: real time   12.3081

 eigenvalue-minimisations  :   120
 total energy-change (2. order) : 0.4176900E-07  (-0.5381578E-06)
 number of electron      56.0000020 magnetization 
 augmentation part       -2.7217536 magnetization 

 Free energy of the ion-electron system (eV)
  ---------------------------------------------------
  alpha Z        PSCENC =         1.41309770
  Ewald energy   TEWEN  =      2692.87214388
  -Hartree energ DENC   =     -3628.67724712
  -exchange      EXHF   =         0.00000000
  -V(xc)+E(xc)   XCENC  =       -45.54919287
  PAW double counting   =      4685.93132457    -4517.98126552
  entropy T*S    EENTRO =        -0.00000000
  eigenvalues    EBANDS =      -526.90357960
  atomic energy  EATOM  =      1234.17543241
  Solvation  Ediel_sol  =         0.00000000
  ---------------------------------------------------
  free energy    TOTEN  =      -104.71928657 eV

  energy without entropy =     -104.71928657  energy(sigma->0) =     -104.71928657


--------------------------------------------------------------------------------------------------------




 average (electrostatic) potential at core
  the test charge radii are     0.9892  1.1631  0.5201
  (the norm of the test charge is              1.0000)
       1 -93.2397       2 -93.2620       3 -93.2588       4 -93.2590       5 -93.3836
       6 -93.3103       7 -93.3103       8 -93.2612       9 -40.3681      10 -40.3680
      11 -40.9678      12 -40.9687      13 -40.8817      14 -40.8268      15 -40.8276
      16 -40.8316      17 -40.8317      18 -40.8738      19 -40.8816      20 -40.9690
      21 -40.9679      22 -40.8909      23 -40.8275      24 -40.8280      25 -40.8322
      26 -40.8317
 
 
 
 E-fermi :  -5.4452     XC(G=0):  -0.5938     alpha+bet : -0.3469


 k-point     1 :       0.0000    0.0000    0.0000
  band No.  band energies     occupation 
      1     -15.0169      2.00000
      2     -14.0587      2.00000
      3     -14.0041      2.00000
      4     -13.8238      2.00000
      5     -12.9761      2.00000
      6     -12.8014      2.00000
      7     -11.4684      2.00000
      8     -11.4517      2.00000
      9     -11.3544      2.00000
     10     -10.4288      2.00000
     11      -9.0969      2.00000
     12      -8.7137      2.00000
     13      -8.6753      2.00000
     14      -8.5989      2.00000
     15      -8.2651      2.00000
     16      -8.1963      2.00000
     17      -8.0854      2.00000
     18      -7.9894      2.00000
     19      -7.9380      2.00000
     20      -7.9162      2.00000
     21      -6.8768      2.00000
     22      -6.8236      2.00000
     23      -6.5534      2.00000
     24      -6.5529      2.00000
     25      -6.5106      2.00000
     26      -6.4661      2.00000
     27      -6.4102      2.00000
     28      -6.3987      2.00000
     29      -1.7416      0.00000
     30      -1.4631      0.00000
     31      -1.4222      0.00000
     32      -1.2558      0.00000
     33      -1.2343      0.00000
     34      -1.1251      0.00000
     35      -0.9289      0.00000
     36      -0.8889      0.00000
     37      -0.7500      0.00000
     38      -0.4712      0.00000
     39      -0.3685      0.00000
     40      -0.3490      0.00000
     41      -0.2747      0.00000
     42      -0.1501      0.00000


--------------------------------------------------------------------------------------------------------


 soft charge-density along one line, spin component           1
         0         1         2         3         4         5         6         7         8         9
 total charge-density along one line
 
 pseudopotential strength for first ion, spin component:           1
 19.606  27.361  -0.000   0.002   0.000  -0.001   0.004   0.000
 27.361  38.187  -0.001   0.003   0.000  -0.001   0.006   0.000
 -0.000  -0.001   4.361  -0.000  -0.000   8.135  -0.000  -0.000
  0.002   0.003  -0.000   4.361   0.000  -0.000   8.136   0.000
  0.000   0.000  -0.000   0.000   4.361  -0.000   0.000   8.135
 -0.001  -0.001   8.135  -0.000  -0.000  15.184  -0.000  -0.000
  0.004   0.006  -0.000   8.136   0.000  -0.000  15.186   0.000
  0.000   0.000  -0.000   0.000   8.135  -0.000   0.000  15.184
 total augmentation occupancy for first ion, spin component:           1
  6.075  -2.318   0.089  -0.423  -0.048  -0.028   0.132   0.015
 -2.318   0.940  -0.052   0.246   0.029   0.013  -0.061  -0.007
  0.089  -0.052   3.059  -0.112  -0.016  -0.681   0.040   0.006
 -0.423   0.246  -0.112   3.571   0.079   0.040  -0.864  -0.028
 -0.048   0.029  -0.016   0.079   3.048   0.006  -0.028  -0.678
 -0.028   0.013  -0.681   0.040   0.006   0.158  -0.012  -0.002
  0.132  -0.061   0.040  -0.864  -0.028  -0.012   0.212   0.008
  0.015  -0.007   0.006  -0.028  -0.678  -0.002   0.008   0.157


------------------------ aborting loop because EDIFF is reached ----------------------------------------


    CHARGE:  cpu time    0.4859: real time    0.4874
    FORLOC:  cpu time    0.1720: real time    0.1721
    FORNL :  cpu time    1.0178: real time    1.0194
    STRESS:  cpu time    7.3079: real time    7.3167
    FORCOR:  cpu time    1.7047: real time    1.7089
    FORHAR:  cpu time    0.5829: real time    0.5818
    MIXING:  cpu time    0.0490: real time    0.0495
    OFIELD:  cpu time    0.0000: real time    0.0000

  FORCE on cell =-STRESS in cart. coord.  units (eV):
  Direction    XX          YY          ZZ          XY          YZ          ZX
  --------------------------------------------------------------------------------------
  Alpha Z     1.41310     1.41310     1.41310
  Ewald     902.16505   895.62657   895.07882    -0.40627     0.03571     1.52331
  Hartree  1214.97894  1207.67038  1206.03226    -0.14378     0.24706     0.57431
  E(xc)    -175.64670  -175.73073  -175.78888     0.01343     0.01062    -0.04082
  Local   -2642.91322 -2629.17198 -2627.22510     0.60063    -0.24114    -2.30632
  n-local   309.87065   310.55534   311.03941    -0.10501    -0.09145     0.31019
  augment   -41.34682   -41.35917   -41.37973     0.00383     0.00419    -0.01462
  Kinetic   430.55025   430.10909   430.01545     0.02276     0.02621     0.02202
  Fock        0.00000     0.00000     0.00000     0.00000     0.00000     0.00000
  -------------------------------------------------------------------------------------
  Total      -0.92875    -0.88741    -0.81467    -0.01441    -0.00880     0.06807
  in kB      -0.18600    -0.17772    -0.16316    -0.00289    -0.00176     0.01363
  external pressure =       -0.18 kB  Pullay stress =        0.00 kB


 VOLUME and BASIS-vectors are now :
 -----------------------------------------------------------------------------
  energy-cutoff  :      400.00
  volume of cell :     8000.00
      direct lattice vectors                 reciprocal lattice vectors
    20.000000000  0.000000000  0.000000000     0.050000000  0.000000000  0.000000000
     0.000000000 20.000000000  0.000000000     0.000000000  0.050000000  0.000000000
     0.000000000  0.000000000 20.000000000     0.000000000  0.000000000  0.050000000

  length of vectors
    20.000000000 20.000000000 20.000000000     0.050000000  0.050000000  0.050000000


 FORCES acting on ions
    electron-ion (+dipol)            ewald-force                    non-local-force                 convergence-correction
 -----------------------------------------------------------------------------------------------
   0.129E+02 -.191E+02 0.908E+02   -.130E+02 0.193E+02 -.920E+02   0.794E-01 -.255E+00 0.119E+01   0.729E-03 0.199E-03 -.726E-03
   0.898E+02 -.528E+01 0.475E+02   -.913E+02 0.534E+01 -.482E+02   0.155E+01 -.616E-01 0.693E+00   0.364E-03 0.141E-03 -.563E-03
   -.375E+02 0.555E+02 0.775E+02   0.381E+02 -.564E+02 -.788E+02   -.623E+00 0.942E+00 0.123E+01   0.166E-03 -.694E-05 -.461E-03
   -.295E+02 -.860E+02 0.469E+02   0.300E+02 0.875E+02 -.476E+02   -.489E+00 -.142E+01 0.712E+00   0.155E-03 0.221E-03 -.420E-03
   0.827E+02 0.139E+02 -.426E+02   -.844E+02 -.140E+02 0.425E+02   0.169E+01 0.721E-01 0.102E+00   -.392E-03 0.127E-03 -.686E-03
   -.506E+02 0.785E+02 -.106E+02   0.520E+02 -.793E+02 0.103E+02   -.136E+01 0.747E+00 0.349E+00   0.653E-03 -.343E-03 -.117E-02
   -.422E+02 -.720E+02 -.434E+02   0.435E+02 0.730E+02 0.434E+02   -.126E+01 -.966E+00 -.242E-01   0.583E-03 0.862E-03 -.911E-03
   -.895E+02 0.538E+01 -.479E+02   0.910E+02 -.548E+01 0.488E+02   -.148E+01 0.941E-01 -.811E+00   0.306E-03 0.156E-03 -.671E-03
   0.300E+02 0.866E+02 -.475E+02   -.302E+02 -.871E+02 0.479E+02   0.222E+00 0.565E+00 -.327E+00   0.229E-03 -.698E-03 -.557E-03
   0.380E+02 -.556E+02 -.783E+02   -.382E+02 0.560E+02 0.788E+02   0.273E+00 -.351E+00 -.526E+00   0.135E-03 0.886E-03 -.214E-03
   0.201E+02 0.403E+02 0.557E+01   -.212E+02 -.423E+02 -.663E+01   0.114E+01 0.197E+01 0.106E+01   -.495E-04 -.166E-03 -.178E-03
   0.123E+01 0.220E+02 -.397E+02   -.926E+00 -.225E+02 0.421E+02   -.307E+00 0.541E+00 -.243E+01   0.850E-04 -.158E-03 0.187E-03
   -.274E+02 0.406E+02 -.478E+01   0.290E+02 -.430E+02 0.507E+01   -.161E+01 0.241E+01 -.284E+00   0.259E-04 -.140E-03 -.164E-03
   -.468E+02 -.385E+01 0.553E+01   0.495E+02 0.425E+01 -.673E+01   -.266E+01 -.410E+00 0.120E+01   0.491E-06 0.187E-04 -.874E-04
   -.208E+02 0.795E+01 -.419E+02   0.212E+02 -.854E+01 0.447E+02   -.402E+00 0.599E+00 -.286E+01   0.136E-03 -.111E-04 0.731E-04
   -.370E+02 0.531E+01 0.295E+02   0.396E+02 -.490E+01 -.308E+02   -.260E+01 -.398E+00 0.134E+01   -.230E-03 -.123E-03 0.544E-04
   0.892E+01 0.364E+02 0.293E+02   -.103E+02 -.387E+02 -.306E+02   0.135E+01 0.227E+01 0.132E+01   0.192E-03 0.134E-03 -.341E-04
   0.654E+01 -.101E+02 0.478E+02   -.692E+01 0.107E+02 -.507E+02   0.380E+00 -.590E+00 0.282E+01   0.167E-03 0.647E-05 0.228E-04
   -.230E+02 -.377E+02 -.218E+02   0.244E+02 0.399E+02 0.231E+02   -.135E+01 -.223E+01 -.129E+01   0.755E-05 0.197E-03 -.908E-04
   0.266E+01 -.338E+01 -.450E+02   -.236E+01 0.290E+01 0.475E+02   -.304E+00 0.484E+00 -.245E+01   0.703E-04 0.744E-04 0.239E-03
   0.244E+02 -.367E+02 -.112E+02   -.257E+02 0.388E+02 0.110E+02   0.137E+01 -.209E+01 0.178E+00   -.717E-04 0.218E-03 -.950E-04
   0.435E+02 0.707E+01 -.212E+02   -.461E+02 -.749E+01 0.225E+02   0.260E+01 0.421E+00 -.127E+01   -.302E-03 -.361E-04 0.888E-04
   0.323E+02 0.251E+02 0.242E+02   -.337E+02 -.273E+02 -.255E+02   0.139E+01 0.223E+01 0.134E+01   0.139E-04 -.300E-04 -.578E-04
   0.353E+02 -.292E+02 0.124E+02   -.370E+02 0.316E+02 -.128E+02   0.165E+01 -.242E+01 0.333E+00   0.110E-04 0.546E-04 -.414E-04
   0.135E+02 -.439E+02 0.119E+02   -.151E+02 0.464E+02 -.122E+02   0.161E+01 -.246E+01 0.294E+00   0.205E-03 -.873E-04 -.820E-04
   -.356E+02 -.209E+02 0.239E+02   0.382E+02 0.214E+02 -.252E+02   -.260E+01 -.471E+00 0.132E+01   -.243E-03 0.642E-04 0.938E-04
 -----------------------------------------------------------------------------------------------
   0.173E+01 0.789E+00 -.321E+01   -.355E-13 0.320E-13 -.639E-13   -.173E+01 -.788E+00 0.321E+01   0.295E-02 0.156E-02 -.645E-02
 
 
 POSITION                                       TOTAL-FORCE (eV/Angst)
 -----------------------------------------------------------------------------------
      9.51488     11.11593      7.73731        -0.017014     -0.001388      0.001689
      7.40839     10.78043      8.73913         0.002717      0.000651     -0.002434
     10.82759      9.17448      7.95045        -0.000649      0.000697      0.002344
     10.61752     12.92351      8.76423        -0.000424     -0.001657      0.001691
      7.66799     10.29896     11.02350         0.000911     -0.001954      0.009165
     11.16281      8.69140     10.22537        -0.000162     -0.000030      0.014543
     10.95184     12.45535     11.04240         0.000134     -0.005989      0.013097
     12.24146     10.50100     11.27300        -0.001592     -0.000472      0.001798
      9.02303      8.33040     11.26201        -0.001749      0.008318     -0.001201
      8.81043     12.12496     12.08579        -0.000936     -0.007209     -0.004625
      8.31362      7.11013     10.60267         0.007300     -0.001271      0.002902
      9.21365      7.99565     12.77128        -0.001712     -0.003434     -0.003321
     11.99482      7.45047     10.37144         0.012927     -0.006488     -0.001346
     13.59311     10.71036     10.65699        -0.010708     -0.001626      0.004420
     12.44355     10.19679     12.72722         0.001655      0.001380     -0.005317
     12.14811      9.37948      7.27074        -0.003434      0.004025     -0.001940
     10.14264      8.02127      7.28148        -0.001442     -0.001326     -0.001417
      9.31779     11.42112      6.28014        -0.003523      0.003149     -0.015689
     11.64971     13.60591     11.70772         0.011963      0.007909      0.001585
      8.99921     11.82389     13.60236        -0.002038      0.004294     -0.001697
      7.95992     13.42541     11.97371         0.007168      0.000758      0.003408
      6.33272     10.08283     11.67422        -0.005982      0.001088     -0.006246
      6.70158      9.64715      8.05729         0.005260      0.006775     -0.002264
      6.56876     12.01147      8.57048         0.005687     -0.004806     -0.004612
      9.79789     14.16961      8.61584        -0.001409      0.001669     -0.000882
     11.93637     13.16005      8.09156        -0.002949     -0.003063     -0.003653
 -----------------------------------------------------------------------------------
    total drift:                               -0.002916      0.002526     -0.000105


--------------------------------------------------------------------------------------------------------



  FREE ENERGIE OF THE ION-ELECTRON SYSTEM (eV)
  ---------------------------------------------------
  free  energy   TOTEN  =      -104.71928657 eV

  energy  without entropy=     -104.71928657  energy(sigma->0) =     -104.71928657
 
 d Force = 0.2152728E-03[ 0.966E-04, 0.334E-03]  d Energy = 0.2156979E-03-0.425E-06
 d Force = 0.1550752E+00[ 0.155E+00, 0.155E+00]  d Ewald  = 0.1550752E+00-0.258E-07


--------------------------------------------------------------------------------------------------------


    POTLOK:  cpu time    1.7377: real time    1.7414


--------------------------------------------------------------------------------------------------------


 Conjugate gradient step on ions:
 trial-energy change:   -0.000216  1 .order   -0.000215   -0.000334   -0.000097
  (g-gl).g = 0.279E-03      g.g   = 0.271E-03  gl.gl    = 0.486E-03
 g(Force)  = 0.271E-03   g(Stress)= 0.000E+00 ortho     = 0.102E-04
 gamma     =   0.57348
 trial     =   1.20811
 opt step  =   1.69968  (harmonic =   1.69968) maximal distance =0.00261969
 next E    =  -104.719306   (d E  =  -0.00023)


--------------------------------------------------------------------------------------------------------


  
 reached required accuracy - stopping structural energy minimisation
 writing wavefunctions
     LOOP+:  cpu time   62.5095: real time   63.0293
    4ORBIT:  cpu time    0.0000: real time    0.0000

 total amount of memory used by VASP MPI-rank0   131439. kBytes
=======================================================================

   base      :      30000. kBytes
   nonl-proj :      17624. kBytes
   fftplans  :      26957. kBytes
   grid      :      48673. kBytes
   one-center:         40. kBytes
   wavefun   :       8145. kBytes
 
  
  
 General timing and accounting informations for this job:
 ========================================================
  
                  Total CPU time used (sec):     2048.459
                            User time (sec):     2020.324
                          System time (sec):       28.136
                         Elapsed time (sec):     2054.858
  
                   Maximum memory used (kb):      186272.
                   Average memory used (kb):           0.
  
                          Minor page faults:      4846248
                          Major page faults:            5
                 Voluntary context switches:         7258
