 vasp.5.4.4.18Apr17-6-g9f103f2a35 (build Nov 06 2017 19:16:10) complex          
  
 executed on           IFC91_ompi date 2018.07.11  02:23:01
 running on   12 total cores
 distrk:  each k-point on   12 cores,    1 groups
 distr:  one band on NCORES_PER_BAND=   6 cores,    2 groups


--------------------------------------------------------------------------------------------------------


 INCAR:
 POTCAR:    PAW_PBE Si 05Jan2001                  
 POTCAR:    PAW_PBE Ge 05Jan2001                  
 POTCAR:    PAW_PBE H 15Jun2001                   
 POTCAR:    PAW_PBE Si 05Jan2001                  
   VRHFIN =Si: s2p2                                                             
   LEXCH  = PE                                                                  
   EATOM  =   103.0669 eV,    7.5752 Ry                                         
                                                                                
   TITEL  = PAW_PBE Si 05Jan2001                                                
   LULTRA =        F    use ultrasoft PP ?                                      
   IUNSCR =        1    unscreen: 0-lin 1-nonlin 2-no                           
   RPACOR =    1.500    partial core radius                                     
   POMASS =   28.085; ZVAL   =    4.000    mass and valenz                      
   RCORE  =    1.900    outmost cutoff radius                                   
   RWIGS  =    2.480; RWIGS  =    1.312    wigner-seitz radius (au A)           
   ENMAX  =  245.345; ENMIN  =  184.009 eV                                      
   ICORE  =        2    local potential                                         
   LCOR   =        T    correct aug charges                                     
   LPAW   =        T    paw PP                                                  
   EAUG   =  322.069                                                            
   DEXC   =    0.000                                                            
   RMAX   =    1.950    core radius for proj-oper                               
   RAUG   =    1.300    factor for augmentation sphere                          
   RDEP   =    1.993    radius for radial grids                                 
   RDEPT  =    1.837    core radius for aug-charge                              
                                                                                
   Atomic configuration                                                         
    6 entries                                                                   
     n  l   j            E        occ.                                          
     1  0  0.50     -1785.8828   2.0000                                         
     2  0  0.50      -139.4969   2.0000                                         
     2  1  1.50       -95.5546   6.0000                                         
     3  0  0.50       -10.8127   2.0000                                         
     3  1  0.50        -4.0811   2.0000                                         
     3  2  1.50        -4.0817   0.0000                                         
   Description                                                                  
     l       E           TYP  RCUT    TYP  RCUT                                 
     0    -10.8127223     23  1.900                                             
     0     -7.6451159     23  1.900                                             
     1     -4.0811372     23  1.900                                             
     1      2.4879257     23  1.900                                             
     2     -4.0817478      7  1.900                                             
  local pseudopotential read in
  partial core-charges read in
  partial kinetic energy density read in
  atomic valenz-charges read in
  non local Contribution for L=           0  read in
    real space projection operators read in
  non local Contribution for L=           0  read in
    real space projection operators read in
  non local Contribution for L=           1  read in
    real space projection operators read in
  non local Contribution for L=           1  read in
    real space projection operators read in
    PAW grid and wavefunctions read in
 
   number of l-projection  operators is LMAX  =           4
   number of lm-projection operators is LMMAX =           8
 
 POTCAR:    PAW_PBE Ge 05Jan2001                  
   VRHFIN =Ge: s2p2                                                             
   LEXCH  = PE                                                                  
   EATOM  =   104.9960 eV,    7.7170 Ry                                         
                                                                                
   TITEL  = PAW_PBE Ge 05Jan2001                                                
   LULTRA =        F    use ultrasoft PP ?                                      
   IUNSCR =        1    unscreen: 0-lin 1-nonlin 2-no                           
   RPACOR =    2.170    partial core radius                                     
   POMASS =   72.610; ZVAL   =    4.000    mass and valenz                      
   RCORE  =    2.300    outmost cutoff radius                                   
   RWIGS  =    2.300; RWIGS  =    1.217    wigner-seitz radius (au A)           
   ENMAX  =  173.807; ENMIN  =  130.355 eV                                      
   ICORE  =        3    local potential                                         
   LCOR   =        T    correct aug charges                                     
   LPAW   =        T    paw PP                                                  
   EAUG   =  385.843                                                            
   DEXC   =    0.000                                                            
   RMAX   =    2.342    core radius for proj-oper                               
   RAUG   =    1.300    factor for augmentation sphere                          
   RDEP   =    2.318    radius for radial grids                                 
   RDEPT  =    2.103    core radius for aug-charge                              
                                                                                
   Atomic configuration                                                         
   10 entries                                                                   
     n  l   j            E        occ.                                          
     1  0  0.50    -10959.8463   2.0000                                         
     2  0  0.50     -1371.6056   2.0000                                         
     2  1  1.50     -1198.4791   6.0000                                         
     3  0  0.50      -168.4733   2.0000                                         
     3  1  1.50      -115.6019   6.0000                                         
     3  2  2.50       -29.3106  10.0000                                         
     4  0  0.50       -11.7309   2.0000                                         
     4  1  0.50        -3.8952   2.0000                                         
     4  2  1.50        -4.0817   0.0000                                         
     4  3  2.50        -4.0817   0.0000                                         
   Description                                                                  
     l       E           TYP  RCUT    TYP  RCUT                                 
     0    -11.7309493     23  2.300                                             
     0     -7.4578696     23  2.300                                             
     1     -3.8952261     23  2.300                                             
     1      6.1178114     23  2.300                                             
     2     -4.0817478     23  2.300                                             
     3     -1.3605826      7  2.300                                             
  local pseudopotential read in
  partial core-charges read in
  partial kinetic energy density read in
  atomic valenz-charges read in
  non local Contribution for L=           0  read in
    real space projection operators read in
  non local Contribution for L=           0  read in
    real space projection operators read in
  non local Contribution for L=           1  read in
    real space projection operators read in
  non local Contribution for L=           1  read in
    real space projection operators read in
  non local Contribution for L=           2  read in
    real space projection operators read in
    PAW grid and wavefunctions read in
 
   number of l-projection  operators is LMAX  =           5
   number of lm-projection operators is LMMAX =          13
 
 POTCAR:    PAW_PBE H 15Jun2001                   
   VRHFIN =H: ultrasoft test                                                    
   LEXCH  = PE                                                                  
   EATOM  =    12.4884 eV,    0.9179 Ry                                         
                                                                                
   TITEL  = PAW_PBE H 15Jun2001                                                 
   LULTRA =        F    use ultrasoft PP ?                                      
   IUNSCR =        0    unscreen: 0-lin 1-nonlin 2-no                           
   RPACOR =    0.000    partial core radius                                     
   POMASS =    1.000; ZVAL   =    1.000    mass and valenz                      
   RCORE  =    1.100    outmost cutoff radius                                   
   RWIGS  =    0.700; RWIGS  =    0.370    wigner-seitz radius (au A)           
   ENMAX  =  250.000; ENMIN  =  200.000 eV                                      
   RCLOC  =    0.701    cutoff for local pot                                    
   LCOR   =        T    correct aug charges                                     
   LPAW   =        T    paw PP                                                  
   EAUG   =  400.000                                                            
   RMAX   =    1.123    core radius for proj-oper                               
   RAUG   =    1.200    factor for augmentation sphere                          
   RDEP   =    1.112    radius for radial grids                                 
   RDEPT  =    0.926    core radius for aug-charge                              
                                                                                
   Atomic configuration                                                         
    2 entries                                                                   
     n  l   j            E        occ.                                          
     1  0  0.50        -6.4927   1.0000                                         
     2  1  0.50        -3.4015   0.0000                                         
   Description                                                                  
     l       E           TYP  RCUT    TYP  RCUT                                 
     0     -6.4927494     23  1.100                                             
     0      6.8029130     23  1.100                                             
     1     -4.0817478     23  1.100                                             
  local pseudopotential read in
  atomic valenz-charges read in
  non local Contribution for L=           0  read in
    real space projection operators read in
  non local Contribution for L=           0  read in
    real space projection operators read in
  non local Contribution for L=           1  read in
    real space projection operators read in
    PAW grid and wavefunctions read in
 
   number of l-projection  operators is LMAX  =           3
   number of lm-projection operators is LMMAX =           5
 

 ----------------------------------------------------------------------------- 
|                                                                             |
|  ADVICE TO THIS USER RUNNING 'VASP/VAMP'   (HEAR YOUR MASTER'S VOICE ...):  |
|                                                                             |
|      You have a (more or less) 'large supercell' and for larger cells       |
|      it might be more efficient to use real space projection opertators     |
|      So try LREAL= Auto  in the INCAR   file.                               |
|      Mind:          For very  accurate calculation you might also keep the  |
|      reciprocal projection scheme          (i.e. LREAL=.FALSE.)             |
|                                                                             |
 ----------------------------------------------------------------------------- 

  PAW_PBE Si 05Jan2001                  :
 energy of atom  1       EATOM= -103.0669
 kinetic energy error for atom=    0.0012 (will be added to EATOM!!)
  PAW_PBE Ge 05Jan2001                  :
 energy of atom  2       EATOM= -104.9960
 kinetic energy error for atom=    0.0003 (will be added to EATOM!!)
  PAW_PBE H 15Jun2001                   :
 energy of atom  3       EATOM=  -12.4884
 kinetic energy error for atom=    0.0098 (will be added to EATOM!!)
 
 
 POSCAR: SiGeH16                                 
  positions in direct lattice
  No initial velocities read in
 exchange correlation table for  LEXCH =        8
   RHO(1)=    0.500       N(1)  =     2000
   RHO(2)=  100.500       N(2)  =     4000
 


--------------------------------------------------------------------------------------------------------


 ion  position               nearest neighbor table
   1  0.475  0.556  0.385-  18 1.55   8 2.39   2 2.39   3 2.39
   2  0.369  0.539  0.436-  23 1.55  24 1.55   4 2.39   1 2.39
   3  0.542  0.457  0.396-  17 1.55  16 1.55   9 2.39   1 2.39
   4  0.385  0.515  0.552-  22 1.55  10 2.39   7 2.39   2 2.39
   5  0.547  0.624  0.554-  19 1.55   8 2.39   6 2.39  10 2.39
   6  0.613  0.525  0.565-  15 1.55  14 1.55   5 2.39   9 2.39
   7  0.451  0.416  0.564-  12 1.55  11 1.55   4 2.39   9 2.39
   8  0.531  0.648  0.437-  25 1.55  26 1.55   5 2.39   1 2.39
   9  0.557  0.433  0.512-  13 1.55   3 2.39   6 2.39   7 2.39
  10  0.440  0.606  0.605-  20 1.55  21 1.55   4 2.39   5 2.39
  11  0.415  0.357  0.529-   7 1.55
  12  0.461  0.400  0.639-   7 1.55
  13  0.600  0.369  0.520-   9 1.55
  14  0.682  0.536  0.531-   6 1.55
  15  0.623  0.509  0.640-   6 1.55
  16  0.611  0.469  0.363-   3 1.55
  17  0.506  0.398  0.362-   3 1.55
  18  0.465  0.572  0.309-   1 1.55
  19  0.583  0.683  0.588-   5 1.55
  20  0.451  0.590  0.680-  10 1.55
  21  0.397  0.670  0.598-  10 1.55
  22  0.316  0.504  0.586-   4 1.55
  23  0.333  0.479  0.402-   2 1.55
  24  0.326  0.603  0.429-   2 1.55
  25  0.488  0.712  0.430-   8 1.55
  26  0.600  0.659  0.404-   8 1.55
 
  LATTYP: Found a simple cubic cell.
 ALAT       =    20.0000000000
  
  Lattice vectors:
  
 A1 = (  20.0000000000,   0.0000000000,   0.0000000000)
 A2 = (   0.0000000000,  20.0000000000,   0.0000000000)
 A3 = (   0.0000000000,   0.0000000000,  20.0000000000)


Analysis of symmetry for initial positions (statically):
=====================================================================
 Subroutine PRICEL returns:
 Original cell was already a primitive cell.
 

 Routine SETGRP: Setting up the symmetry group for a 
 simple cubic supercell.


 Subroutine GETGRP returns: Found  1 space group operations
 (whereof  1 operations were pure point group operations)
 out of a pool of 48 trial point group operations.


The static configuration has the point symmetry C_1 .


Analysis of symmetry for dynamics (positions and initial velocities):
=====================================================================
 Subroutine PRICEL returns:
 Original cell was already a primitive cell.
 

 Routine SETGRP: Setting up the symmetry group for a 
 simple cubic supercell.


 Subroutine GETGRP returns: Found  1 space group operations
 (whereof  1 operations were pure point group operations)
 out of a pool of 48 trial point group operations.


The dynamic configuration has the point symmetry C_1 .


 Subroutine INISYM returns: Found  1 space group operations
 (whereof  1 operations are pure point group operations),
 and found     1 'primitive' translations

 
 
 KPOINTS: Automatic mesh                          

Automatic generation of k-mesh.
Space group operators:
 irot       det(A)        alpha          n_x          n_y          n_z        tau_x        tau_y        tau_z
    1     1.000000     0.000000     1.000000     0.000000     0.000000     0.000000     0.000000     0.000000
 
 Subroutine IBZKPT returns following result:
 ===========================================
 
 Found      1 irreducible k-points:
 
 Following reciprocal coordinates:
            Coordinates               Weight
  0.000000  0.000000  0.000000      1.000000
 
 Following cartesian coordinates:
            Coordinates               Weight
  0.000000  0.000000  0.000000      1.000000
 


--------------------------------------------------------------------------------------------------------




 Dimension of arrays:
   k-points           NKPTS =      1   k-points in BZ     NKDIM =      1   number of bands    NBANDS=     42
   number of dos      NEDOS =    301   number of ions     NIONS =     26
   non local maximal  LDIM  =      5   non local SUM 2l+1 LMDIM =     13
   total plane-waves  NPLWV = 941192
   max r-space proj   IRMAX =      1   max aug-charges    IRDMAX=   6593
   dimension x,y,z NGX =    98 NGY =   98 NGZ =   98
   dimension x,y,z NGXF=   196 NGYF=  196 NGZF=  196
   support grid    NGXF=   196 NGYF=  196 NGZF=  196
   ions per type =               7   3  16
   NGX,Y,Z   is equivalent  to a cutoff of   8.15,  8.15,  8.15 a.u.
   NGXF,Y,Z  is equivalent  to a cutoff of  16.29, 16.29, 16.29 a.u.

 SYSTEM =  SiGe                                    
 POSCAR =  SiGeH16                                 

 Startparameter for this run:
   NWRITE =      2    write-flag & timer
   PREC   = normal    normal or accurate (medium, high low for compatibility)
   ISTART =      0    job   : 0-new  1-cont  2-samecut
   ICHARG =      2    charge: 1-file 2-atom 10-const
   ISPIN  =      1    spin polarized calculation?
   LNONCOLLINEAR =      F non collinear calculations
   LSORBIT =      F    spin-orbit coupling
   INIWAV =      1    electr: 0-lowe 1-rand  2-diag
   LASPH  =      F    aspherical Exc in radial PAW
   METAGGA=      F    non-selfconsistent MetaGGA calc.

 Electronic Relaxation 1
   ENCUT  =  400.0 eV  29.40 Ry    5.42 a.u.  32.61 32.61 32.61*2*pi/ulx,y,z
   ENINI  =  400.0     initial cutoff
   ENAUG  =  400.0 eV  augmentation charge cutoff
   NELM   =     60;   NELMIN=  2; NELMDL= -5     # of ELM steps 
   EDIFF  = 0.1E-05   stopping-criterion for ELM
   LREAL  =      F    real-space projection
   NLSPLINE    = F    spline interpolate recip. space projectors
   LCOMPAT=      F    compatible to vasp.4.4
   GGA_COMPAT  = T    GGA compatible to vasp.4.4-vasp.4.6
   LMAXPAW     = -100 max onsite density
   LMAXMIX     =    2 max onsite mixed and CHGCAR
   VOSKOWN=      0    Vosko Wilk Nusair interpolation
   ROPT   =    0.00000   0.00000   0.00000
 Ionic relaxation
   EDIFFG = -.2E-01   stopping-criterion for IOM
   NSW    =    200    number of steps for IOM
   NBLOCK =      1;   KBLOCK =    200    inner block; outer block 
   IBRION =      2    ionic relax: 0-MD 1-quasi-New 2-CG
   NFREE  =      1    steps in history (QN), initial steepest desc. (CG)
   ISIF   =      2    stress and relaxation
   IWAVPR =     11    prediction:  0-non 1-charg 2-wave 3-comb
   ISYM   =      2    0-nonsym 1-usesym 2-fastsym
   LCORR  =      T    Harris-Foulkes like correction to forces

   POTIM  = 0.5000    time-step for ionic-motion
   TEIN   =    0.0    initial temperature
   TEBEG  =    0.0;   TEEND  =   0.0 temperature during run
   SMASS  =  -3.00    Nose mass-parameter (am)
   estimated Nose-frequenzy (Omega)   =  0.10E-29 period in steps =****** mass=  -0.914E-26a.u.
   SCALEE = 1.0000    scale energy and forces
   NPACO  =    256;   APACO  = 16.0  distance and # of slots for P.C.
   PSTRESS=    0.0 pullay stress

  Mass of Ions in am
   POMASS =  28.09 72.61  1.00
  Ionic Valenz
   ZVAL   =   4.00  4.00  1.00
  Atomic Wigner-Seitz radii
   RWIGS  =  -1.00 -1.00 -1.00
  virtual crystal weights 
   VCA    =   1.00  1.00  1.00
   NELECT =      56.0000    total number of electrons
   NUPDOWN=      -1.0000    fix difference up-down

 DOS related values:
   EMIN   =  10.00;   EMAX   =-10.00  energy-range for DOS
   EFERMI =   0.00
   ISMEAR =     0;   SIGMA  =   0.20  broadening in eV -4-tet -1-fermi 0-gaus

 Electronic relaxation 2 (details)
   IALGO  =     38    algorithm
   LDIAG  =      T    sub-space diagonalisation (order eigenvalues)
   LSUBROT=      F    optimize rotation matrix (better conditioning)
   TURBO    =      0    0=normal 1=particle mesh
   IRESTART =      0    0=no restart 2=restart with 2 vectors
   NREBOOT  =      0    no. of reboots
   NMIN     =      0    reboot dimension
   EREF     =   0.00    reference energy to select bands
   IMIX   =      4    mixing-type and parameters
     AMIX     =   0.40;   BMIX     =  1.00
     AMIX_MAG =   1.60;   BMIX_MAG =  1.00
     AMIN     =   0.10
     WC   =   100.;   INIMIX=   1;  MIXPRE=   1;  MAXMIX= -45

 Intra band minimization:
   WEIMIN = 0.0010     energy-eigenvalue tresh-hold
   EBREAK =  0.60E-08  absolut break condition
   DEPER  =   0.30     relativ break condition  

   TIME   =   0.40     timestep for ELM

  volume/ion in A,a.u.               =     307.69      2076.41
  Fermi-wavevector in a.u.,A,eV,Ry     =   0.313166  0.591797  1.334361  0.098073
  Thomas-Fermi vector in A             =   1.193276
 
 Write flags
   LWAVE        =      T    write WAVECAR
   LDOWNSAMPLE  =      F    k-point downsampling of WAVECAR
   LCHARG       =      T    write CHGCAR
   LVTOT        =      F    write LOCPOT, total local potential
   LVHAR        =      F    write LOCPOT, Hartree potential only
   LELF         =      F    write electronic localiz. function (ELF)
   LORBIT       =      0    0 simple, 1 ext, 2 COOP (PROOUT), +10 PAW based schemes


 Dipole corrections
   LMONO  =      F    monopole corrections only (constant potential shift)
   LDIPOL =      F    correct potential (dipole corrections)
   IDIPOL =      0    1-x, 2-y, 3-z, 4-all directions 
   EPSILON=  1.0000000 bulk dielectric constant

 Exchange correlation treatment:
   GGA     =    --    GGA type
   LEXCH   =     8    internal setting for exchange type
   VOSKOWN=      0    Vosko Wilk Nusair interpolation
   LHFCALC =     F    Hartree Fock is set to
   LHFONE  =     F    Hartree Fock one center treatment
   AEXX    =    0.0000 exact exchange contribution

 Linear response parameters
   LEPSILON=     F    determine dielectric tensor
   LRPA    =     F    only Hartree local field effects (RPA)
   LNABLA  =     F    use nabla operator in PAW spheres
   LVEL    =     F    velocity operator in full k-point grid
   LINTERFAST=   F  fast interpolation
   KINTER  =     0    interpolate to denser k-point grid
   CSHIFT  =0.1000    complex shift for real part using Kramers Kronig
   OMEGAMAX=  -1.0    maximum frequency
   DEG_THRESHOLD= 0.2000000E-02 threshold for treating states as degnerate
   RTIME   =   -0.100 relaxation time in fs
  (WPLASMAI=    0.000 imaginary part of plasma frequency in eV, 0.658/RTIME)
   DFIELD  = 0.0000000 0.0000000 0.0000000 field for delta impulse in time
 
 Orbital magnetization related:
   ORBITALMAG=     F  switch on orbital magnetization
   LCHIMAG   =     F  perturbation theory with respect to B field
   DQ        =  0.001000  dq finite difference perturbation B field
   LLRAUG    =     F  two centre corrections for induced B field



--------------------------------------------------------------------------------------------------------


 conjugate gradient relaxation of ions
 charge density and potential will be updated during run
 non-spin polarized calculation
 Variant of blocked Davidson
 Davidson routine will perform the subspace rotation
 perform sub-space diagonalisation
    after iterative eigenvector-optimisation
 modified Broyden-mixing scheme, WC =      100.0
 initial mixing is a Kerker type mixing with AMIX =  0.4000 and BMIX =      1.0000
 Hartree-type preconditioning will be used
 using additional bands           14
 reciprocal scheme for non local part
 use partial core corrections
 calculate Harris-corrections to forces 
   (improved forces if not selfconsistent)
 use gradient corrections 
 use of overlap-Matrix (Vanderbilt PP)
 Gauss-broadening in eV      SIGMA  =   0.20


--------------------------------------------------------------------------------------------------------


  energy-cutoff  :      400.00
  volume of cell :     8000.00
      direct lattice vectors                 reciprocal lattice vectors
    20.000000000  0.000000000  0.000000000     0.050000000  0.000000000  0.000000000
     0.000000000 20.000000000  0.000000000     0.000000000  0.050000000  0.000000000
     0.000000000  0.000000000 20.000000000     0.000000000  0.000000000  0.050000000

  length of vectors
    20.000000000 20.000000000 20.000000000     0.050000000  0.050000000  0.050000000


 
 k-points in units of 2pi/SCALE and weight: Automatic mesh                          
   0.00000000  0.00000000  0.00000000       1.000
 
 k-points in reciprocal lattice and weights: Automatic mesh                          
   0.00000000  0.00000000  0.00000000       1.000
 
 position of ions in fractional coordinates (direct lattice) 
   0.47547100  0.55626000  0.38465300
   0.36907800  0.53906000  0.43641200
   0.54179100  0.45744600  0.39613600
   0.38461900  0.51474100  0.55243500
   0.54669200  0.62364400  0.55351800
   0.61299700  0.52481700  0.56496600
   0.45095700  0.41593600  0.56388300
   0.53111600  0.64794100  0.43749600
   0.55736800  0.43311000  0.51215000
   0.44028400  0.60643000  0.60524300
   0.41490100  0.35665000  0.52940300
   0.46117000  0.40042600  0.63910800
   0.60034800  0.36907000  0.51957800
   0.68182700  0.53600700  0.53118700
   0.62280400  0.50903400  0.64018900
   0.61080000  0.46880600  0.36278200
   0.50550800  0.39805500  0.36207700
   0.46538400  0.57201900  0.30946400
   0.58275500  0.68306700  0.58775000
   0.45052500  0.59044300  0.68036400
   0.39732000  0.67044900  0.59753500
   0.31566200  0.50359800  0.58596500
   0.33322800  0.47946500  0.40225200
   0.32629100  0.60324700  0.42912600
   0.48792300  0.71185500  0.43020800
   0.60015100  0.65882400  0.40403700
 
 position of ions in cartesian coordinates  (Angst):
   9.50942000 11.12520000  7.69306000
   7.38156000 10.78120000  8.72824000
  10.83582000  9.14892000  7.92272000
   7.69238000 10.29482000 11.04870000
  10.93384000 12.47288000 11.07036000
  12.25994000 10.49634000 11.29932000
   9.01914000  8.31872000 11.27766000
  10.62232000 12.95882000  8.74992000
  11.14736000  8.66220000 10.24300000
   8.80568000 12.12860000 12.10486000
   8.29802000  7.13300000 10.58806000
   9.22340000  8.00852000 12.78216000
  12.00696000  7.38140000 10.39156000
  13.63654000 10.72014000 10.62374000
  12.45608000 10.18068000 12.80378000
  12.21600000  9.37612000  7.25564000
  10.11016000  7.96110000  7.24154000
   9.30768000 11.44038000  6.18928000
  11.65510000 13.66134000 11.75500000
   9.01050000 11.80886000 13.60728000
   7.94640000 13.40898000 11.95070000
   6.31324000 10.07196000 11.71930000
   6.66456000  9.58930000  8.04504000
   6.52582000 12.06494000  8.58252000
   9.75846000 14.23710000  8.60416000
  12.00302000 13.17648000  8.08074000
 


--------------------------------------------------------------------------------------------------------


 k-point  1 :   0.0000 0.0000 0.0000  plane waves:  145165

 maximum and minimum number of plane-waves per node :     24209    24180

 maximum number of plane-waves:    145165
 maximum index in each direction: 
   IXMAX=   32   IYMAX=   32   IZMAX=   32
   IXMIN=  -32   IYMIN=  -32   IZMIN=  -32


 parallel 3D FFT for wavefunctions:
    minimum data exchange during FFTs selected (reduces bandwidth)
 parallel 3D FFT for charge:
    minimum data exchange during FFTs selected (reduces bandwidth)


 total amount of memory used by VASP MPI-rank0   131440. kBytes
=======================================================================

   base      :      30000. kBytes
   nonl-proj :      17624. kBytes
   fftplans  :      26957. kBytes
   grid      :      48673. kBytes
   one-center:         40. kBytes
   wavefun   :       8146. kBytes
 
     INWAV:  cpu time    0.0000: real time    0.0000
 Broyden mixing: mesh for mixing (old mesh)
   NGX = 65   NGY = 65   NGZ = 65
  (NGX  =196   NGY  =196   NGZ  =196)
  gives a total of 274625 points

 initial charge density was supplied:
 charge density of overlapping atoms calculated
 number of electron      56.0000000 magnetization 
 keeping initial charge density in first step


--------------------------------------------------------------------------------------------------------


 Maximum index for augmentation-charges          565 (set IRDMAX)


--------------------------------------------------------------------------------------------------------


 First call to EWALD:  gamma=   0.089
 Maximum number of real-space cells 3x 3x 3
 Maximum number of reciprocal cells 3x 3x 3

    FEWALD:  cpu time    0.0030: real time    0.0026


--------------------------------------- Iteration      1(   1)  ---------------------------------------


    POTLOK:  cpu time    1.7607: real time    1.7842
    SETDIJ:  cpu time    0.0080: real time    0.0079
     EDDAV:  cpu time   10.3474: real time   10.3439
       DOS:  cpu time    0.0000: real time    0.0003
    --------------------------------------------
      LOOP:  cpu time   12.1162: real time   12.1364

 eigenvalue-minimisations  :   116
 total energy-change (2. order) : 0.1983990E+03  (-0.1049773E+04)
 number of electron      56.0000000 magnetization 
 augmentation part       56.0000000 magnetization 

 Free energy of the ion-electron system (eV)
  ---------------------------------------------------
  alpha Z        PSCENC =         1.68866877
  Ewald energy   TEWEN  =      2629.98113996
  -Hartree energ DENC   =     -3443.45438769
  -exchange      EXHF   =         0.00000000
  -V(xc)+E(xc)   XCENC  =       -55.14082809
  PAW double counting   =       915.44662188     -748.97298319
  entropy T*S    EENTRO =        -0.43761243
  eigenvalues    EBANDS =      -336.81693700
  atomic energy  EATOM  =      1236.10535615
  Solvation  Ediel_sol  =         0.00000000
  ---------------------------------------------------
  free energy    TOTEN  =       198.39903837 eV

  energy without entropy =      198.83665079  energy(sigma->0) =      198.61784458


--------------------------------------------------------------------------------------------------------




--------------------------------------- Iteration      1(   2)  ---------------------------------------


     EDDAV:  cpu time   11.8382: real time   11.8373
       DOS:  cpu time    0.0010: real time    0.0002
    --------------------------------------------
      LOOP:  cpu time   11.8392: real time   11.8375

 eigenvalue-minimisations  :   136
 total energy-change (2. order) :-0.2276567E+03  (-0.2134003E+03)
 number of electron      56.0000000 magnetization 
 augmentation part       56.0000000 magnetization 

 Free energy of the ion-electron system (eV)
  ---------------------------------------------------
  alpha Z        PSCENC =         1.68866877
  Ewald energy   TEWEN  =      2629.98113996
  -Hartree energ DENC   =     -3443.45438769
  -exchange      EXHF   =         0.00000000
  -V(xc)+E(xc)   XCENC  =       -55.14082809
  PAW double counting   =       915.44662188     -748.97298319
  entropy T*S    EENTRO =        -0.00000000
  eigenvalues    EBANDS =      -564.91124108
  atomic energy  EATOM  =      1236.10535615
  Solvation  Ediel_sol  =         0.00000000
  ---------------------------------------------------
  free energy    TOTEN  =       -29.25765329 eV

  energy without entropy =      -29.25765329  energy(sigma->0) =      -29.25765329


--------------------------------------------------------------------------------------------------------




--------------------------------------- Iteration      1(   3)  ---------------------------------------


     EDDAV:  cpu time   10.1755: real time   10.1725
       DOS:  cpu time    0.0000: real time    0.0003
    --------------------------------------------
      LOOP:  cpu time   10.1755: real time   10.1727

 eigenvalue-minimisations  :   112
 total energy-change (2. order) :-0.7475395E+02  (-0.7457734E+02)
 number of electron      56.0000000 magnetization 
 augmentation part       56.0000000 magnetization 

 Free energy of the ion-electron system (eV)
  ---------------------------------------------------
  alpha Z        PSCENC =         1.68866877
  Ewald energy   TEWEN  =      2629.98113996
  -Hartree energ DENC   =     -3443.45438769
  -exchange      EXHF   =         0.00000000
  -V(xc)+E(xc)   XCENC  =       -55.14082809
  PAW double counting   =       915.44662188     -748.97298319
  entropy T*S    EENTRO =        -0.00000000
  eigenvalues    EBANDS =      -639.66519342
  atomic energy  EATOM  =      1236.10535615
  Solvation  Ediel_sol  =         0.00000000
  ---------------------------------------------------
  free energy    TOTEN  =      -104.01160563 eV

  energy without entropy =     -104.01160563  energy(sigma->0) =     -104.01160563


--------------------------------------------------------------------------------------------------------




--------------------------------------- Iteration      1(   4)  ---------------------------------------


     EDDAV:  cpu time    9.5565: real time    9.5524
       DOS:  cpu time    0.0000: real time    0.0002
    --------------------------------------------
      LOOP:  cpu time    9.5565: real time    9.5526

 eigenvalue-minimisations  :   104
 total energy-change (2. order) :-0.4245522E+01  (-0.4228833E+01)
 number of electron      56.0000000 magnetization 
 augmentation part       56.0000000 magnetization 

 Free energy of the ion-electron system (eV)
  ---------------------------------------------------
  alpha Z        PSCENC =         1.68866877
  Ewald energy   TEWEN  =      2629.98113996
  -Hartree energ DENC   =     -3443.45438769
  -exchange      EXHF   =         0.00000000
  -V(xc)+E(xc)   XCENC  =       -55.14082809
  PAW double counting   =       915.44662188     -748.97298319
  entropy T*S    EENTRO =        -0.00000000
  eigenvalues    EBANDS =      -643.91071544
  atomic energy  EATOM  =      1236.10535615
  Solvation  Ediel_sol  =         0.00000000
  ---------------------------------------------------
  free energy    TOTEN  =      -108.25712765 eV

  energy without entropy =     -108.25712765  energy(sigma->0) =     -108.25712765


--------------------------------------------------------------------------------------------------------




--------------------------------------- Iteration      1(   5)  ---------------------------------------


     EDDAV:  cpu time   11.2333: real time   11.2294
       DOS:  cpu time    0.0010: real time    0.0004
    CHARGE:  cpu time    0.4839: real time    0.4900
    MIXING:  cpu time    0.0420: real time    0.0426
    --------------------------------------------
      LOOP:  cpu time   11.7602: real time   11.7624

 eigenvalue-minimisations  :   128
 total energy-change (2. order) :-0.8777990E-01  (-0.8772105E-01)
 number of electron      56.0000015 magnetization 
 augmentation part       -3.1358955 magnetization 

 Broyden mixing:
  rms(total) = 0.15306E+01    rms(broyden)= 0.15305E+01
  rms(prec ) = 0.16269E+01
  weight for this iteration     100.00

 Free energy of the ion-electron system (eV)
  ---------------------------------------------------
  alpha Z        PSCENC =         1.68866877
  Ewald energy   TEWEN  =      2629.98113996
  -Hartree energ DENC   =     -3443.45438769
  -exchange      EXHF   =         0.00000000
  -V(xc)+E(xc)   XCENC  =       -55.14082809
  PAW double counting   =       915.44662188     -748.97298319
  entropy T*S    EENTRO =        -0.00000000
  eigenvalues    EBANDS =      -643.99849534
  atomic energy  EATOM  =      1236.10535615
  Solvation  Ediel_sol  =         0.00000000
  ---------------------------------------------------
  free energy    TOTEN  =      -108.34490755 eV

  energy without entropy =     -108.34490755  energy(sigma->0) =     -108.34490755


--------------------------------------------------------------------------------------------------------




--------------------------------------- Iteration      1(   6)  ---------------------------------------


    POTLOK:  cpu time    1.7087: real time    1.7077
    SETDIJ:  cpu time    0.0090: real time    0.0087
     EDDAV:  cpu time    9.4886: real time    9.4867
       DOS:  cpu time    0.0010: real time    0.0003
    CHARGE:  cpu time    0.4869: real time    0.4875
    MIXING:  cpu time    0.0450: real time    0.0448
    --------------------------------------------
      LOOP:  cpu time   11.7392: real time   11.7357

 eigenvalue-minimisations  :   104
 total energy-change (2. order) : 0.3257144E+01  (-0.1590237E+00)
 number of electron      56.0000014 magnetization 
 augmentation part       -3.1382782 magnetization 

 Broyden mixing:
  rms(total) = 0.89028E+00    rms(broyden)= 0.89028E+00
  rms(prec ) = 0.94880E+00
  weight for this iteration     100.00

 eigenvalues of (default mixing * dielectric matrix)
  average eigenvalue GAMMA=   2.3184
  2.3184

 Free energy of the ion-electron system (eV)
  ---------------------------------------------------
  alpha Z        PSCENC =         1.68866877
  Ewald energy   TEWEN  =      2629.98113996
  -Hartree energ DENC   =     -3475.12672580
  -exchange      EXHF   =         0.00000000
  -V(xc)+E(xc)   XCENC  =       -51.50038486
  PAW double counting   =      1889.29401421    -1723.53936887
  entropy T*S    EENTRO =        -0.00000000
  eigenvalues    EBANDS =      -611.99046290
  atomic energy  EATOM  =      1236.10535615
  Solvation  Ediel_sol  =         0.00000000
  ---------------------------------------------------
  free energy    TOTEN  =      -105.08776333 eV

  energy without entropy =     -105.08776333  energy(sigma->0) =     -105.08776333


--------------------------------------------------------------------------------------------------------




--------------------------------------- Iteration      1(   7)  ---------------------------------------


    POTLOK:  cpu time    1.7147: real time    1.7141
    SETDIJ:  cpu time    0.0080: real time    0.0078
     EDDAV:  cpu time   10.1045: real time   10.1026
       DOS:  cpu time    0.0010: real time    0.0002
    CHARGE:  cpu time    0.4889: real time    0.4882
    MIXING:  cpu time    0.0470: real time    0.0468
    --------------------------------------------
      LOOP:  cpu time   12.3641: real time   12.3598

 eigenvalue-minimisations  :   112
 total energy-change (2. order) : 0.1715162E+01  (-0.4177925E+00)
 number of electron      56.0000012 magnetization 
 augmentation part       -3.1387079 magnetization 

 Broyden mixing:
  rms(total) = 0.12274E+00    rms(broyden)= 0.12259E+00
  rms(prec ) = 0.15367E+00
  weight for this iteration     100.00

 eigenvalues of (default mixing * dielectric matrix)
  average eigenvalue GAMMA=   1.8287
  1.6484  2.0090

 Free energy of the ion-electron system (eV)
  ---------------------------------------------------
  alpha Z        PSCENC =         1.68866877
  Ewald energy   TEWEN  =      2629.98113996
  -Hartree energ DENC   =     -3531.86471911
  -exchange      EXHF   =         0.00000000
  -V(xc)+E(xc)   XCENC  =       -45.68897538
  PAW double counting   =      4080.05336946    -3915.26996752
  entropy T*S    EENTRO =        -0.00000000
  eigenvalues    EBANDS =      -558.37747415
  atomic energy  EATOM  =      1236.10535615
  Solvation  Ediel_sol  =         0.00000000
  ---------------------------------------------------
  free energy    TOTEN  =      -103.37260181 eV

  energy without entropy =     -103.37260181  energy(sigma->0) =     -103.37260181


--------------------------------------------------------------------------------------------------------




--------------------------------------- Iteration      1(   8)  ---------------------------------------


    POTLOK:  cpu time    1.7237: real time    1.7336
    SETDIJ:  cpu time    0.0140: real time    0.0134
     EDDAV:  cpu time    9.5575: real time    9.5540
       DOS:  cpu time    0.0000: real time    0.0003
    CHARGE:  cpu time    0.4889: real time    0.4886
    MIXING:  cpu time    0.0500: real time    0.0499
    --------------------------------------------
      LOOP:  cpu time   11.8342: real time   11.8399

 eigenvalue-minimisations  :   104
 total energy-change (2. order) : 0.4931976E-01  (-0.2667442E-01)
 number of electron      56.0000012 magnetization 
 augmentation part       -3.1360969 magnetization 

 Broyden mixing:
  rms(total) = 0.62937E-01    rms(broyden)= 0.62922E-01
  rms(prec ) = 0.82363E-01
  weight for this iteration     100.00

 eigenvalues of (default mixing * dielectric matrix)
  average eigenvalue GAMMA=   1.9925
  2.6508  1.6633  1.6633

 Free energy of the ion-electron system (eV)
  ---------------------------------------------------
  alpha Z        PSCENC =         1.68866877
  Ewald energy   TEWEN  =      2629.98113996
  -Hartree energ DENC   =     -3539.26528604
  -exchange      EXHF   =         0.00000000
  -V(xc)+E(xc)   XCENC  =       -45.76077077
  PAW double counting   =      4081.73042203    -3916.85504025
  entropy T*S    EENTRO =        -0.00000000
  eigenvalues    EBANDS =      -550.94777190
  atomic energy  EATOM  =      1236.10535615
  Solvation  Ediel_sol  =         0.00000000
  ---------------------------------------------------
  free energy    TOTEN  =      -103.32328205 eV

  energy without entropy =     -103.32328205  energy(sigma->0) =     -103.32328205


--------------------------------------------------------------------------------------------------------




--------------------------------------- Iteration      1(   9)  ---------------------------------------


    POTLOK:  cpu time    1.7367: real time    1.7364
    SETDIJ:  cpu time    0.0080: real time    0.0084
     EDDAV:  cpu time   10.6744: real time   10.6708
       DOS:  cpu time    0.0000: real time    0.0003
    CHARGE:  cpu time    0.4839: real time    0.4831
    MIXING:  cpu time    0.0540: real time    0.0542
    --------------------------------------------
      LOOP:  cpu time   12.9570: real time   12.9531

 eigenvalue-minimisations  :   120
 total energy-change (2. order) : 0.3629161E-01  (-0.8100657E-02)
 number of electron      56.0000012 magnetization 
 augmentation part       -3.1243093 magnetization 

 Broyden mixing:
  rms(total) = 0.36104E-01    rms(broyden)= 0.36103E-01
  rms(prec ) = 0.46882E-01
  weight for this iteration     100.00

 eigenvalues of (default mixing * dielectric matrix)
  average eigenvalue GAMMA=   1.7389
  2.5045  1.8384  1.8384  0.7744

 Free energy of the ion-electron system (eV)
  ---------------------------------------------------
  alpha Z        PSCENC =         1.68866877
  Ewald energy   TEWEN  =      2629.98113996
  -Hartree energ DENC   =     -3551.42003088
  -exchange      EXHF   =         0.00000000
  -V(xc)+E(xc)   XCENC  =       -45.07083642
  PAW double counting   =      4212.91145119    -4048.05916621
  entropy T*S    EENTRO =        -0.00000000
  eigenvalues    EBANDS =      -539.42357299
  atomic energy  EATOM  =      1236.10535615
  Solvation  Ediel_sol  =         0.00000000
  ---------------------------------------------------
  free energy    TOTEN  =      -103.28699044 eV

  energy without entropy =     -103.28699044  energy(sigma->0) =     -103.28699044


--------------------------------------------------------------------------------------------------------




--------------------------------------- Iteration      1(  10)  ---------------------------------------


    POTLOK:  cpu time    1.7307: real time    1.7305
    SETDIJ:  cpu time    0.0090: real time    0.0084
     EDDAV:  cpu time   10.0975: real time   10.0941
       DOS:  cpu time    0.0000: real time    0.0003
    CHARGE:  cpu time    0.4859: real time    0.4861
    MIXING:  cpu time    0.0550: real time    0.0552
    --------------------------------------------
      LOOP:  cpu time   12.3781: real time   12.3746

 eigenvalue-minimisations  :   112
 total energy-change (2. order) :-0.6200123E-03  (-0.3353803E-03)
 number of electron      56.0000012 magnetization 
 augmentation part       -3.1235764 magnetization 

 Broyden mixing:
  rms(total) = 0.17230E-01    rms(broyden)= 0.17230E-01
  rms(prec ) = 0.29944E-01
  weight for this iteration     100.00

 eigenvalues of (default mixing * dielectric matrix)
  average eigenvalue GAMMA=   1.8893
  2.7946  2.2395  1.0492  1.6816  1.6816

 Free energy of the ion-electron system (eV)
  ---------------------------------------------------
  alpha Z        PSCENC =         1.68866877
  Ewald energy   TEWEN  =      2629.98113996
  -Hartree energ DENC   =     -3553.22560161
  -exchange      EXHF   =         0.00000000
  -V(xc)+E(xc)   XCENC  =       -45.08257178
  PAW double counting   =      4125.88391677    -3960.98746965
  entropy T*S    EENTRO =        -0.00000000
  eigenvalues    EBANDS =      -537.65104907
  atomic energy  EATOM  =      1236.10535615
  Solvation  Ediel_sol  =         0.00000000
  ---------------------------------------------------
  free energy    TOTEN  =      -103.28761045 eV

  energy without entropy =     -103.28761045  energy(sigma->0) =     -103.28761045


--------------------------------------------------------------------------------------------------------




--------------------------------------- Iteration      1(  11)  ---------------------------------------


    POTLOK:  cpu time    1.7397: real time    1.7390
    SETDIJ:  cpu time    0.0090: real time    0.0082
     EDDAV:  cpu time    9.5156: real time    9.5155
       DOS:  cpu time    0.0000: real time    0.0004
    CHARGE:  cpu time    0.4879: real time    0.4861
    MIXING:  cpu time    0.0560: real time    0.0565
    --------------------------------------------
      LOOP:  cpu time   11.8082: real time   11.8058

 eigenvalue-minimisations  :   104
 total energy-change (2. order) : 0.2025735E-03  (-0.7208652E-03)
 number of electron      56.0000012 magnetization 
 augmentation part       -3.1230189 magnetization 

 Broyden mixing:
  rms(total) = 0.80444E-02    rms(broyden)= 0.80441E-02
  rms(prec ) = 0.14408E-01
  weight for this iteration     100.00

 eigenvalues of (default mixing * dielectric matrix)
  average eigenvalue GAMMA=   1.8494
  3.1667  2.5363  1.7492  1.7492  1.0361  0.8590

 Free energy of the ion-electron system (eV)
  ---------------------------------------------------
  alpha Z        PSCENC =         1.68866877
  Ewald energy   TEWEN  =      2629.98113996
  -Hartree energ DENC   =     -3560.30378255
  -exchange      EXHF   =         0.00000000
  -V(xc)+E(xc)   XCENC  =       -44.88425550
  PAW double counting   =      4072.03863371    -3907.09586498
  entropy T*S    EENTRO =        -0.00000000
  eigenvalues    EBANDS =      -530.81730343
  atomic energy  EATOM  =      1236.10535615
  Solvation  Ediel_sol  =         0.00000000
  ---------------------------------------------------
  free energy    TOTEN  =      -103.28740788 eV

  energy without entropy =     -103.28740788  energy(sigma->0) =     -103.28740788


--------------------------------------------------------------------------------------------------------




--------------------------------------- Iteration      1(  12)  ---------------------------------------


    POTLOK:  cpu time    1.7337: real time    1.7695
    SETDIJ:  cpu time    0.0080: real time    0.0081
     EDDAV:  cpu time   10.0825: real time   10.0861
       DOS:  cpu time    0.0000: real time    0.0004
    CHARGE:  cpu time    0.4829: real time    0.4830
    MIXING:  cpu time    0.0610: real time    0.0608
    --------------------------------------------
      LOOP:  cpu time   12.3681: real time   12.4080

 eigenvalue-minimisations  :   112
 total energy-change (2. order) :-0.3650026E-02  (-0.7659545E-04)
 number of electron      56.0000012 magnetization 
 augmentation part       -3.1228791 magnetization 

 Broyden mixing:
  rms(total) = 0.58835E-02    rms(broyden)= 0.58835E-02
  rms(prec ) = 0.10506E-01
  weight for this iteration     100.00

 eigenvalues of (default mixing * dielectric matrix)
  average eigenvalue GAMMA=   1.9922
  4.2160  2.6375  2.0332  1.5711  1.5711  0.9583  0.9583

 Free energy of the ion-electron system (eV)
  ---------------------------------------------------
  alpha Z        PSCENC =         1.68866877
  Ewald energy   TEWEN  =      2629.98113996
  -Hartree energ DENC   =     -3562.16697154
  -exchange      EXHF   =         0.00000000
  -V(xc)+E(xc)   XCENC  =       -44.85324643
  PAW double counting   =      4064.74564257    -3899.80052416
  entropy T*S    EENTRO =        -0.00000000
  eigenvalues    EBANDS =      -528.99112322
  atomic energy  EATOM  =      1236.10535615
  Solvation  Ediel_sol  =         0.00000000
  ---------------------------------------------------
  free energy    TOTEN  =      -103.29105790 eV

  energy without entropy =     -103.29105790  energy(sigma->0) =     -103.29105790


--------------------------------------------------------------------------------------------------------




--------------------------------------- Iteration      1(  13)  ---------------------------------------


    POTLOK:  cpu time    1.7987: real time    1.8017
    SETDIJ:  cpu time    0.0080: real time    0.0080
     EDDAV:  cpu time    9.5336: real time    9.6818
       DOS:  cpu time    0.0010: real time    0.0003
    CHARGE:  cpu time    0.4849: real time    0.4858
    MIXING:  cpu time    0.0650: real time    0.0647
    --------------------------------------------
      LOOP:  cpu time   11.8912: real time   12.0422

 eigenvalue-minimisations  :   104
 total energy-change (2. order) :-0.4845206E-02  (-0.1917940E-03)
 number of electron      56.0000012 magnetization 
 augmentation part       -3.1226068 magnetization 

 Broyden mixing:
  rms(total) = 0.36079E-02    rms(broyden)= 0.36078E-02
  rms(prec ) = 0.54851E-02
  weight for this iteration     100.00

 eigenvalues of (default mixing * dielectric matrix)
  average eigenvalue GAMMA=   2.1626
  5.5974  2.7974  2.4595  1.7711  1.7711  1.0437  0.9303  0.9303

 Free energy of the ion-electron system (eV)
  ---------------------------------------------------
  alpha Z        PSCENC =         1.68866877
  Ewald energy   TEWEN  =      2629.98113996
  -Hartree energ DENC   =     -3565.10387164
  -exchange      EXHF   =         0.00000000
  -V(xc)+E(xc)   XCENC  =       -44.80382732
  PAW double counting   =      4065.91724172    -3900.97784147
  entropy T*S    EENTRO =        -0.00000000
  eigenvalues    EBANDS =      -526.10276928
  atomic energy  EATOM  =      1236.10535615
  Solvation  Ediel_sol  =         0.00000000
  ---------------------------------------------------
  free energy    TOTEN  =      -103.29590311 eV

  energy without entropy =     -103.29590311  energy(sigma->0) =     -103.29590311


--------------------------------------------------------------------------------------------------------




--------------------------------------- Iteration      1(  14)  ---------------------------------------


    POTLOK:  cpu time    1.7487: real time    1.7484
    SETDIJ:  cpu time    0.0080: real time    0.0079
     EDDAV:  cpu time   10.0735: real time   10.0713
       DOS:  cpu time    0.0000: real time    0.0003
    CHARGE:  cpu time    0.4909: real time    0.4896
    MIXING:  cpu time    0.0690: real time    0.0692
    --------------------------------------------
      LOOP:  cpu time   12.3901: real time   12.3868

 eigenvalue-minimisations  :   112
 total energy-change (2. order) :-0.3841602E-02  (-0.3666812E-04)
 number of electron      56.0000012 magnetization 
 augmentation part       -3.1220675 magnetization 

 Broyden mixing:
  rms(total) = 0.17395E-02    rms(broyden)= 0.17395E-02
  rms(prec ) = 0.29873E-02
  weight for this iteration     100.00

 eigenvalues of (default mixing * dielectric matrix)
  average eigenvalue GAMMA=   2.2870
  6.5434  2.8625  2.8625  2.0044  1.6672  1.6672  1.1131  0.9315  0.9315

 Free energy of the ion-electron system (eV)
  ---------------------------------------------------
  alpha Z        PSCENC =         1.68866877
  Ewald energy   TEWEN  =      2629.98113996
  -Hartree energ DENC   =     -3566.04709171
  -exchange      EXHF   =         0.00000000
  -V(xc)+E(xc)   XCENC  =       -44.80363764
  PAW double counting   =      4069.91014009    -3904.97477490
  entropy T*S    EENTRO =        -0.00000000
  eigenvalues    EBANDS =      -525.15954544
  atomic energy  EATOM  =      1236.10535615
  Solvation  Ediel_sol  =         0.00000000
  ---------------------------------------------------
  free energy    TOTEN  =      -103.29974471 eV

  energy without entropy =     -103.29974471  energy(sigma->0) =     -103.29974471


--------------------------------------------------------------------------------------------------------




--------------------------------------- Iteration      1(  15)  ---------------------------------------


    POTLOK:  cpu time    1.7307: real time    1.7314
    SETDIJ:  cpu time    0.0080: real time    0.0078
     EDDAV:  cpu time   10.0815: real time   10.0812
       DOS:  cpu time    0.0020: real time    0.0003
    CHARGE:  cpu time    0.4849: real time    0.4859
    MIXING:  cpu time    0.0770: real time    0.0769
    --------------------------------------------
      LOOP:  cpu time   12.3841: real time   12.3835

 eigenvalue-minimisations  :   112
 total energy-change (2. order) :-0.4843308E-02  (-0.5973724E-04)
 number of electron      56.0000012 magnetization 
 augmentation part       -3.1218551 magnetization 

 Broyden mixing:
  rms(total) = 0.16219E-02    rms(broyden)= 0.16218E-02
  rms(prec ) = 0.20673E-02
  weight for this iteration     100.00

 eigenvalues of (default mixing * dielectric matrix)
  average eigenvalue GAMMA=   2.2849
  6.6824  3.6989  2.5636  2.0978  1.8723  1.8723  1.2132  0.9357  0.9567  0.9567

 Free energy of the ion-electron system (eV)
  ---------------------------------------------------
  alpha Z        PSCENC =         1.68866877
  Ewald energy   TEWEN  =      2629.98113996
  -Hartree energ DENC   =     -3566.28321488
  -exchange      EXHF   =         0.00000000
  -V(xc)+E(xc)   XCENC  =       -44.81695379
  PAW double counting   =      4074.52124790    -3909.58522114
  entropy T*S    EENTRO =        -0.00000000
  eigenvalues    EBANDS =      -524.91561098
  atomic energy  EATOM  =      1236.10535615
  Solvation  Ediel_sol  =         0.00000000
  ---------------------------------------------------
  free energy    TOTEN  =      -103.30458802 eV

  energy without entropy =     -103.30458802  energy(sigma->0) =     -103.30458802


--------------------------------------------------------------------------------------------------------




--------------------------------------- Iteration      1(  16)  ---------------------------------------


    POTLOK:  cpu time    1.7327: real time    1.7326
    SETDIJ:  cpu time    0.0080: real time    0.0075
     EDDAV:  cpu time   10.1015: real time   10.1000
       DOS:  cpu time    0.0010: real time    0.0004
    CHARGE:  cpu time    0.4899: real time    0.4905
    MIXING:  cpu time    0.0860: real time    0.0858
    --------------------------------------------
      LOOP:  cpu time   12.4191: real time   12.4166

 eigenvalue-minimisations  :   112
 total energy-change (2. order) :-0.1083373E-02  (-0.5481514E-05)
 number of electron      56.0000012 magnetization 
 augmentation part       -3.1220284 magnetization 

 Broyden mixing:
  rms(total) = 0.70501E-03    rms(broyden)= 0.70500E-03
  rms(prec ) = 0.10452E-02
  weight for this iteration     100.00

 eigenvalues of (default mixing * dielectric matrix)
  average eigenvalue GAMMA=   2.3901
  7.3283  4.5964  2.5948  2.5948  1.8086  1.8086  1.3550  1.3550  0.9335  0.9335
  0.9827

 Free energy of the ion-electron system (eV)
  ---------------------------------------------------
  alpha Z        PSCENC =         1.68866877
  Ewald energy   TEWEN  =      2629.98113996
  -Hartree energ DENC   =     -3566.39401637
  -exchange      EXHF   =         0.00000000
  -V(xc)+E(xc)   XCENC  =       -44.81549699
  PAW double counting   =      4073.73983574    -3908.80216155
  entropy T*S    EENTRO =        -0.00000000
  eigenvalues    EBANDS =      -524.80899711
  atomic energy  EATOM  =      1236.10535615
  Solvation  Ediel_sol  =         0.00000000
  ---------------------------------------------------
  free energy    TOTEN  =      -103.30567139 eV

  energy without entropy =     -103.30567139  energy(sigma->0) =     -103.30567139


--------------------------------------------------------------------------------------------------------




--------------------------------------- Iteration      1(  17)  ---------------------------------------


    POTLOK:  cpu time    1.7247: real time    1.7262
    SETDIJ:  cpu time    0.0090: real time    0.0089
     EDDAV:  cpu time    9.5296: real time    9.5271
       DOS:  cpu time    0.0010: real time    0.0003
    CHARGE:  cpu time    0.4909: real time    0.4916
    MIXING:  cpu time    0.0960: real time    0.0957
    --------------------------------------------
      LOOP:  cpu time   11.8512: real time   11.8499

 eigenvalue-minimisations  :   104
 total energy-change (2. order) :-0.1090336E-02  (-0.9166765E-05)
 number of electron      56.0000012 magnetization 
 augmentation part       -3.1221594 magnetization 

 Broyden mixing:
  rms(total) = 0.36192E-03    rms(broyden)= 0.36189E-03
  rms(prec ) = 0.50450E-03
  weight for this iteration     100.00

 eigenvalues of (default mixing * dielectric matrix)
  average eigenvalue GAMMA=   2.3509
  7.4312  4.8473  2.6551  2.6551  1.9138  1.9138  1.4864  1.4864  0.9788  0.9788
  0.9320  0.9320

 Free energy of the ion-electron system (eV)
  ---------------------------------------------------
  alpha Z        PSCENC =         1.68866877
  Ewald energy   TEWEN  =      2629.98113996
  -Hartree energ DENC   =     -3566.42938505
  -exchange      EXHF   =         0.00000000
  -V(xc)+E(xc)   XCENC  =       -44.81733446
  PAW double counting   =      4072.52713756    -3907.58858824
  entropy T*S    EENTRO =        -0.00000000
  eigenvalues    EBANDS =      -524.77375642
  atomic energy  EATOM  =      1236.10535615
  Solvation  Ediel_sol  =         0.00000000
  ---------------------------------------------------
  free energy    TOTEN  =      -103.30676173 eV

  energy without entropy =     -103.30676173  energy(sigma->0) =     -103.30676173


--------------------------------------------------------------------------------------------------------




--------------------------------------- Iteration      1(  18)  ---------------------------------------


    POTLOK:  cpu time    1.7817: real time    1.7862
    SETDIJ:  cpu time    0.0080: real time    0.0084
     EDDAV:  cpu time    9.5605: real time    9.5572
       DOS:  cpu time    0.0000: real time    0.0003
    CHARGE:  cpu time    0.4839: real time    0.4843
    MIXING:  cpu time    0.1060: real time    0.1057
    --------------------------------------------
      LOOP:  cpu time   11.9402: real time   11.9420

 eigenvalue-minimisations  :   104
 total energy-change (2. order) :-0.2757955E-03  (-0.7833413E-06)
 number of electron      56.0000012 magnetization 
 augmentation part       -3.1221541 magnetization 

 Broyden mixing:
  rms(total) = 0.21893E-03    rms(broyden)= 0.21891E-03
  rms(prec ) = 0.32004E-03
  weight for this iteration     100.00

 eigenvalues of (default mixing * dielectric matrix)
  average eigenvalue GAMMA=   2.4653
  8.1159  5.6623  3.1277  2.6019  2.2902  1.7635  1.7635  1.4201  1.4201  1.0070
  1.0070  0.9351  0.9351

 Free energy of the ion-electron system (eV)
  ---------------------------------------------------
  alpha Z        PSCENC =         1.68866877
  Ewald energy   TEWEN  =      2629.98113996
  -Hartree energ DENC   =     -3566.44613676
  -exchange      EXHF   =         0.00000000
  -V(xc)+E(xc)   XCENC  =       -44.81778893
  PAW double counting   =      4071.68645012    -3906.74819094
  entropy T*S    EENTRO =        -0.00000000
  eigenvalues    EBANDS =      -524.75653590
  atomic energy  EATOM  =      1236.10535615
  Solvation  Ediel_sol  =         0.00000000
  ---------------------------------------------------
  free energy    TOTEN  =      -103.30703752 eV

  energy without entropy =     -103.30703752  energy(sigma->0) =     -103.30703752


--------------------------------------------------------------------------------------------------------




--------------------------------------- Iteration      1(  19)  ---------------------------------------


    POTLOK:  cpu time    1.7587: real time    1.7579
    SETDIJ:  cpu time    0.0080: real time    0.0082
     EDDAV:  cpu time    8.9636: real time    8.9620
       DOS:  cpu time    0.0000: real time    0.0004
    CHARGE:  cpu time    0.4909: real time    0.4896
    MIXING:  cpu time    0.1200: real time    0.1203
    --------------------------------------------
      LOOP:  cpu time   11.3413: real time   11.3385

 eigenvalue-minimisations  :    96
 total energy-change (2. order) :-0.2205004E-03  (-0.9444698E-06)
 number of electron      56.0000012 magnetization 
 augmentation part       -3.1221879 magnetization 

 Broyden mixing:
  rms(total) = 0.20615E-03    rms(broyden)= 0.20614E-03
  rms(prec ) = 0.24690E-03
  weight for this iteration     100.00

 eigenvalues of (default mixing * dielectric matrix)
  average eigenvalue GAMMA=   2.4678
  8.3065  6.0720  3.2788  2.6881  2.1240  1.8854  1.8854  1.6551  1.6551  1.1974
  0.9779  0.9779  0.9225  0.9225

 Free energy of the ion-electron system (eV)
  ---------------------------------------------------
  alpha Z        PSCENC =         1.68866877
  Ewald energy   TEWEN  =      2629.98113996
  -Hartree energ DENC   =     -3566.47030608
  -exchange      EXHF   =         0.00000000
  -V(xc)+E(xc)   XCENC  =       -44.81606366
  PAW double counting   =      4071.69990790    -3906.76194139
  entropy T*S    EENTRO =        -0.00000000
  eigenvalues    EBANDS =      -524.73401967
  atomic energy  EATOM  =      1236.10535615
  Solvation  Ediel_sol  =         0.00000000
  ---------------------------------------------------
  free energy    TOTEN  =      -103.30725802 eV

  energy without entropy =     -103.30725802  energy(sigma->0) =     -103.30725802


--------------------------------------------------------------------------------------------------------




--------------------------------------- Iteration      1(  20)  ---------------------------------------


    POTLOK:  cpu time    1.7367: real time    1.7367
    SETDIJ:  cpu time    0.0080: real time    0.0077
     EDDAV:  cpu time    8.4147: real time    8.4133
       DOS:  cpu time    0.0010: real time    0.0004
    CHARGE:  cpu time    0.4849: real time    0.4854
    MIXING:  cpu time    0.1300: real time    0.1301
    --------------------------------------------
      LOOP:  cpu time   10.7754: real time   10.7737

 eigenvalue-minimisations  :    88
 total energy-change (2. order) :-0.6031637E-04  (-0.1255132E-06)
 number of electron      56.0000012 magnetization 
 augmentation part       -3.1221703 magnetization 

 Broyden mixing:
  rms(total) = 0.58017E-04    rms(broyden)= 0.58015E-04
  rms(prec ) = 0.84551E-04
  weight for this iteration     100.00

 eigenvalues of (default mixing * dielectric matrix)
  average eigenvalue GAMMA=   2.5060
  8.6010  6.3333  3.9489  2.7330  2.6179  1.8030  1.8030  1.7403  1.5018  1.5018
  1.2397  0.9497  0.9497  0.9635  0.9031

 Free energy of the ion-electron system (eV)
  ---------------------------------------------------
  alpha Z        PSCENC =         1.68866877
  Ewald energy   TEWEN  =      2629.98113996
  -Hartree energ DENC   =     -3566.47424352
  -exchange      EXHF   =         0.00000000
  -V(xc)+E(xc)   XCENC  =       -44.81698883
  PAW double counting   =      4071.57232392    -3906.63446061
  entropy T*S    EENTRO =        -0.00000000
  eigenvalues    EBANDS =      -524.72911418
  atomic energy  EATOM  =      1236.10535615
  Solvation  Ediel_sol  =         0.00000000
  ---------------------------------------------------
  free energy    TOTEN  =      -103.30731834 eV

  energy without entropy =     -103.30731834  energy(sigma->0) =     -103.30731834


--------------------------------------------------------------------------------------------------------




--------------------------------------- Iteration      1(  21)  ---------------------------------------


    POTLOK:  cpu time    1.7297: real time    1.7295
    SETDIJ:  cpu time    0.0090: real time    0.0095
     EDDAV:  cpu time    7.8628: real time    7.8656
       DOS:  cpu time    0.0000: real time    0.0003
    CHARGE:  cpu time    0.4869: real time    0.4874
    MIXING:  cpu time    0.1430: real time    0.1423
    --------------------------------------------
      LOOP:  cpu time   10.2314: real time   10.2345

 eigenvalue-minimisations  :    80
 total energy-change (2. order) :-0.2839346E-04  (-0.9497364E-07)
 number of electron      56.0000012 magnetization 
 augmentation part       -3.1221523 magnetization 

 Broyden mixing:
  rms(total) = 0.61328E-04    rms(broyden)= 0.61325E-04
  rms(prec ) = 0.76722E-04
  weight for this iteration     100.00

 eigenvalues of (default mixing * dielectric matrix)
  average eigenvalue GAMMA=   2.5038
  8.5186  6.6476  4.0939  2.9538  2.6696  1.9489  1.9489  1.7857  1.7321  1.7321
  1.1861  0.9266  0.9266  0.9786  1.0061  1.0061

 Free energy of the ion-electron system (eV)
  ---------------------------------------------------
  alpha Z        PSCENC =         1.68866877
  Ewald energy   TEWEN  =      2629.98113996
  -Hartree energ DENC   =     -3566.48170470
  -exchange      EXHF   =         0.00000000
  -V(xc)+E(xc)   XCENC  =       -44.81705007
  PAW double counting   =      4071.70684084    -3906.76904717
  entropy T*S    EENTRO =        -0.00000000
  eigenvalues    EBANDS =      -524.72155053
  atomic energy  EATOM  =      1236.10535615
  Solvation  Ediel_sol  =         0.00000000
  ---------------------------------------------------
  free energy    TOTEN  =      -103.30734673 eV

  energy without entropy =     -103.30734673  energy(sigma->0) =     -103.30734673


--------------------------------------------------------------------------------------------------------




--------------------------------------- Iteration      1(  22)  ---------------------------------------


    POTLOK:  cpu time    1.7347: real time    1.7338
    SETDIJ:  cpu time    0.0120: real time    0.0123
     EDDAV:  cpu time    8.4447: real time    8.4418
       DOS:  cpu time    0.0000: real time    0.0003
    CHARGE:  cpu time    0.4909: real time    0.4908
    MIXING:  cpu time    0.1520: real time    0.1518
    --------------------------------------------
      LOOP:  cpu time   10.8344: real time   10.8309

 eigenvalue-minimisations  :    88
 total energy-change (2. order) :-0.8373644E-05  (-0.1924639E-07)
 number of electron      56.0000012 magnetization 
 augmentation part       -3.1221601 magnetization 

 Broyden mixing:
  rms(total) = 0.23286E-04    rms(broyden)= 0.23286E-04
  rms(prec ) = 0.30659E-04
  weight for this iteration     100.00

 eigenvalues of (default mixing * dielectric matrix)
  average eigenvalue GAMMA=   2.5035
  8.7812  6.7322  4.5301  3.1410  2.5388  2.5388  1.8486  1.8486  1.6720  1.6720
  1.2402  1.2402  0.9307  0.9307  0.9714  0.9714  0.9714

 Free energy of the ion-electron system (eV)
  ---------------------------------------------------
  alpha Z        PSCENC =         1.68866877
  Ewald energy   TEWEN  =      2629.98113996
  -Hartree energ DENC   =     -3566.48090635
  -exchange      EXHF   =         0.00000000
  -V(xc)+E(xc)   XCENC  =       -44.81692758
  PAW double counting   =      4071.82461142    -3906.88672618
  entropy T*S    EENTRO =        -0.00000000
  eigenvalues    EBANDS =      -524.72257130
  atomic energy  EATOM  =      1236.10535615
  Solvation  Ediel_sol  =         0.00000000
  ---------------------------------------------------
  free energy    TOTEN  =      -103.30735511 eV

  energy without entropy =     -103.30735511  energy(sigma->0) =     -103.30735511


--------------------------------------------------------------------------------------------------------




--------------------------------------- Iteration      1(  23)  ---------------------------------------


    POTLOK:  cpu time    1.7257: real time    1.7263
    SETDIJ:  cpu time    0.0080: real time    0.0079
     EDDAV:  cpu time    7.8498: real time    7.8468
       DOS:  cpu time    0.0000: real time    0.0003
    CHARGE:  cpu time    0.4889: real time    0.4896
    MIXING:  cpu time    0.1650: real time    0.1649
    --------------------------------------------
      LOOP:  cpu time   10.2374: real time   10.2358

 eigenvalue-minimisations  :    80
 total energy-change (2. order) :-0.3436991E-05  (-0.8063015E-08)
 number of electron      56.0000012 magnetization 
 augmentation part       -3.1221687 magnetization 

 Broyden mixing:
  rms(total) = 0.17483E-04    rms(broyden)= 0.17482E-04
  rms(prec ) = 0.21976E-04
  weight for this iteration     100.00

 eigenvalues of (default mixing * dielectric matrix)
  average eigenvalue GAMMA=   2.5378
  8.8170  6.8778  4.7750  3.2825  2.7119  2.7119  2.0000  1.9017  1.9017  1.7223
  1.7223  1.1745  1.1745  0.9320  0.9320  0.9734  0.9734  1.0958

 Free energy of the ion-electron system (eV)
  ---------------------------------------------------
  alpha Z        PSCENC =         1.68866877
  Ewald energy   TEWEN  =      2629.98113996
  -Hartree energ DENC   =     -3566.47980174
  -exchange      EXHF   =         0.00000000
  -V(xc)+E(xc)   XCENC  =       -44.81701074
  PAW double counting   =      4071.77141628    -3906.83347428
  entropy T*S    EENTRO =        -0.00000000
  eigenvalues    EBANDS =      -524.72365295
  atomic energy  EATOM  =      1236.10535615
  Solvation  Ediel_sol  =         0.00000000
  ---------------------------------------------------
  free energy    TOTEN  =      -103.30735855 eV

  energy without entropy =     -103.30735855  energy(sigma->0) =     -103.30735855


--------------------------------------------------------------------------------------------------------




--------------------------------------- Iteration      1(  24)  ---------------------------------------


    POTLOK:  cpu time    1.9137: real time    1.9150
    SETDIJ:  cpu time    0.0090: real time    0.0082
     EDDAV:  cpu time    7.8198: real time    7.8172
       DOS:  cpu time    0.0000: real time    0.0004
    CHARGE:  cpu time    0.4769: real time    0.4771
    MIXING:  cpu time    0.1780: real time    0.1778
    --------------------------------------------
      LOOP:  cpu time   10.3974: real time   10.3957

 eigenvalue-minimisations  :    80
 total energy-change (2. order) :-0.2914825E-05  (-0.4594527E-08)
 number of electron      56.0000012 magnetization 
 augmentation part       -3.1221689 magnetization 

 Broyden mixing:
  rms(total) = 0.67312E-05    rms(broyden)= 0.67304E-05
  rms(prec ) = 0.87767E-05
  weight for this iteration     100.00

 eigenvalues of (default mixing * dielectric matrix)
  average eigenvalue GAMMA=   2.5329
  8.8634  7.0549  5.3026  3.7583  2.8615  2.4426  2.4426  1.8580  1.8580  1.6736
  1.6736  1.2455  1.2455  1.0742  0.9938  0.9281  0.9281  0.9603  0.9603

 Free energy of the ion-electron system (eV)
  ---------------------------------------------------
  alpha Z        PSCENC =         1.68866877
  Ewald energy   TEWEN  =      2629.98113996
  -Hartree energ DENC   =     -3566.48081615
  -exchange      EXHF   =         0.00000000
  -V(xc)+E(xc)   XCENC  =       -44.81700488
  PAW double counting   =      4071.71725193    -3906.77934248
  entropy T*S    EENTRO =        -0.00000000
  eigenvalues    EBANDS =      -524.72261475
  atomic energy  EATOM  =      1236.10535615
  Solvation  Ediel_sol  =         0.00000000
  ---------------------------------------------------
  free energy    TOTEN  =      -103.30736146 eV

  energy without entropy =     -103.30736146  energy(sigma->0) =     -103.30736146


--------------------------------------------------------------------------------------------------------




--------------------------------------- Iteration      1(  25)  ---------------------------------------


    POTLOK:  cpu time    1.7437: real time    1.7431
    SETDIJ:  cpu time    0.0090: real time    0.0086
     EDDAV:  cpu time    8.3867: real time    8.3839
       DOS:  cpu time    0.0000: real time    0.0003
    --------------------------------------------
      LOOP:  cpu time   10.1395: real time   10.1359

 eigenvalue-minimisations  :    88
 total energy-change (2. order) :-0.4704566E-06  (-0.8839436E-09)
 number of electron      56.0000012 magnetization 
 augmentation part       -3.1221689 magnetization 

 Free energy of the ion-electron system (eV)
  ---------------------------------------------------
  alpha Z        PSCENC =         1.68866877
  Ewald energy   TEWEN  =      2629.98113996
  -Hartree energ DENC   =     -3566.48122595
  -exchange      EXHF   =         0.00000000
  -V(xc)+E(xc)   XCENC  =       -44.81698798
  PAW double counting   =      4071.72799074    -3906.79008675
  entropy T*S    EENTRO =        -0.00000000
  eigenvalues    EBANDS =      -524.72221686
  atomic energy  EATOM  =      1236.10535615
  Solvation  Ediel_sol  =         0.00000000
  ---------------------------------------------------
  free energy    TOTEN  =      -103.30736193 eV

  energy without entropy =     -103.30736193  energy(sigma->0) =     -103.30736193


--------------------------------------------------------------------------------------------------------




 average (electrostatic) potential at core
  the test charge radii are     0.9892  1.1631  0.5201
  (the norm of the test charge is              1.0000)
       1 -93.3999       2 -93.4242       3 -93.4704       4 -93.3998       5 -93.4393
       6 -93.4644       7 -93.4705       8 -40.4008       9 -40.3489      10 -40.4007
      11 -40.6963      12 -40.7010      13 -41.0846      14 -40.6971      15 -40.6966
      16 -40.7015      17 -40.6973      18 -40.7007      19 -40.6902      20 -41.0702
      21 -41.0764      22 -40.7008      23 -40.6996      24 -40.7105      25 -41.0762
      26 -41.0703
 
 
 
 E-fermi :  -5.4413     XC(G=0):  -0.6070     alpha+bet : -0.3428


 k-point     1 :       0.0000    0.0000    0.0000
  band No.  band energies     occupation 
      1     -15.0453      2.00000
      2     -14.2493      2.00000
      3     -14.0603      2.00000
      4     -13.7010      2.00000
      5     -12.8897      2.00000
      6     -12.6686      2.00000
      7     -11.5914      2.00000
      8     -11.3340      2.00000
      9     -11.2717      2.00000
     10     -10.3696      2.00000
     11      -8.9531      2.00000
     12      -8.6291      2.00000
     13      -8.6187      2.00000
     14      -8.6123      2.00000
     15      -8.1984      2.00000
     16      -8.1869      2.00000
     17      -8.1738      2.00000
     18      -7.8656      2.00000
     19      -7.8597      2.00000
     20      -7.8547      2.00000
     21      -6.7958      2.00000
     22      -6.7823      2.00000
     23      -6.4884      2.00000
     24      -6.4776      2.00000
     25      -6.4712      2.00000
     26      -6.4085      2.00000
     27      -6.4066      2.00000
     28      -6.3976      2.00000
     29      -1.7825      0.00000
     30      -1.4428      0.00000
     31      -1.3864      0.00000
     32      -1.3089      0.00000
     33      -1.1694      0.00000
     34      -1.1115      0.00000
     35      -1.0517      0.00000
     36      -0.9357      0.00000
     37      -0.8641      0.00000
     38      -0.5475      0.00000
     39      -0.4906      0.00000
     40      -0.4263      0.00000
     41      -0.3844      0.00000
     42      -0.2281      0.00000


--------------------------------------------------------------------------------------------------------


 soft charge-density along one line, spin component           1
         0         1         2         3         4         5         6         7         8         9
 total charge-density along one line
 
 pseudopotential strength for first ion, spin component:           1
 19.614  27.371   0.002   0.003   0.001   0.003   0.005   0.002
 27.371  38.203   0.002   0.004   0.002   0.004   0.008   0.003
  0.002   0.002   4.359   0.000   0.000   8.131   0.000   0.001
  0.003   0.004   0.000   4.359   0.000   0.000   8.131   0.000
  0.001   0.002   0.000   0.000   4.359   0.001   0.000   8.131
  0.003   0.004   8.131   0.000   0.001  15.178   0.001   0.001
  0.005   0.008   0.000   8.131   0.000   0.001  15.177   0.001
  0.002   0.003   0.001   0.000   8.131   0.001   0.001  15.177
 total augmentation occupancy for first ion, spin component:           1
  5.556  -2.037   0.051  -0.340  -0.055  -0.014   0.102   0.017
 -2.037   0.809  -0.035   0.205   0.032   0.008  -0.045  -0.007
  0.051  -0.035   2.836  -0.112  -0.032  -0.615   0.039   0.009
 -0.340   0.205  -0.112   3.282   0.050   0.039  -0.775  -0.019
 -0.055   0.032  -0.032   0.050   2.841   0.009  -0.019  -0.614
 -0.014   0.008  -0.615   0.039   0.009   0.140  -0.011  -0.002
  0.102  -0.045   0.039  -0.775  -0.019  -0.011   0.186   0.006
  0.017  -0.007   0.009  -0.019  -0.614  -0.002   0.006   0.139


------------------------ aborting loop because EDIFF is reached ----------------------------------------


    CHARGE:  cpu time    0.4879: real time    0.4878
    FORLOC:  cpu time    0.1720: real time    0.1716
    FORNL :  cpu time    1.0428: real time    1.0424
    STRESS:  cpu time    7.3219: real time    7.3187
    FORCOR:  cpu time    1.7277: real time    1.7266
    FORHAR:  cpu time    0.5849: real time    0.5857
    MIXING:  cpu time    0.1910: real time    0.1904
    OFIELD:  cpu time    0.0000: real time    0.0000

  FORCE on cell =-STRESS in cart. coord.  units (eV):
  Direction    XX          YY          ZZ          XY          YZ          ZX
  --------------------------------------------------------------------------------------
  Alpha Z     1.68867     1.68867     1.68867
  Ewald     876.64706   876.62235   876.71007    -0.21850     0.02563    -0.50464
  Hartree  1189.24205  1188.24811  1188.99149    -0.04335     0.02387    -0.21410
  E(xc)    -175.66244  -175.69540  -175.60094     0.13091     0.05178     0.00822
  Local   -2579.51864 -2578.56340 -2579.27977     0.36970    -0.01665     0.72494
  n-local   290.04718   290.32953   289.72562    -0.74038    -0.27730    -0.06401
  augment   -34.37689   -34.37901   -34.37723    -0.00394    -0.00262    -0.00162
  Kinetic   426.37161   426.21620   426.48248     0.33107     0.12887     0.05397
  Fock        0.00000     0.00000     0.00000     0.00000     0.00000     0.00000
  -------------------------------------------------------------------------------------
  Total      -5.56141    -5.53295    -5.65962    -0.17449    -0.06641     0.00276
  in kB      -1.11380    -1.10810    -1.13346    -0.03495    -0.01330     0.00055
  external pressure =       -1.12 kB  Pullay stress =        0.00 kB


 VOLUME and BASIS-vectors are now :
 -----------------------------------------------------------------------------
  energy-cutoff  :      400.00
[...]
    SETDIJ:  cpu time    0.0080: real time    0.0079
     EDDAV:  cpu time   11.1703: real time   11.1681
       DOS:  cpu time    0.0000: real time    0.0003
    CHARGE:  cpu time    0.4869: real time    0.4866
    MIXING:  cpu time    0.0480: real time    0.0478
    --------------------------------------------
      LOOP:  cpu time   13.4590: real time   13.4563

 eigenvalue-minimisations  :   128
 total energy-change (2. order) : 0.9573710E-05  (-0.3409372E-05)
 number of electron      55.9999987 magnetization 
 augmentation part       -3.1203371 magnetization 

 Broyden mixing:
  rms(total) = 0.14393E-02    rms(broyden)= 0.14392E-02
  rms(prec ) = 0.15274E-02
  weight for this iteration     100.00

 eigenvalues of (default mixing * dielectric matrix)
  average eigenvalue GAMMA=   1.5793
  1.0751  2.0835

 Free energy of the ion-electron system (eV)
  ---------------------------------------------------
  alpha Z        PSCENC =         1.68866877
  Ewald energy   TEWEN  =      2667.33264943
  -Hartree energ DENC   =     -3602.18369037
  -exchange      EXHF   =         0.00000000
  -V(xc)+E(xc)   XCENC  =       -43.84086490
  PAW double counting   =      4416.64181917    -4251.86048867
  entropy T*S    EENTRO =        -0.00000000
  eigenvalues    EBANDS =      -527.46540081
  atomic energy  EATOM  =      1236.10535615
  Solvation  Ediel_sol  =         0.00000000
  ---------------------------------------------------
  free energy    TOTEN  =      -103.58195124 eV

  energy without entropy =     -103.58195124  energy(sigma->0) =     -103.58195124


--------------------------------------------------------------------------------------------------------




--------------------------------------- Iteration     16(   4)  ---------------------------------------


    POTLOK:  cpu time    1.7447: real time    1.7438
    SETDIJ:  cpu time    0.0080: real time    0.0080
     EDDAV:  cpu time   10.0905: real time   10.0883
       DOS:  cpu time    0.0000: real time    0.0003
    CHARGE:  cpu time    0.4889: real time    0.4887
    MIXING:  cpu time    0.0480: real time    0.0486
    --------------------------------------------
      LOOP:  cpu time   12.3811: real time   12.3778

 eigenvalue-minimisations  :   112
 total energy-change (2. order) :-0.8419406E-06  (-0.1420559E-05)
 number of electron      55.9999987 magnetization 
 augmentation part       -3.1204548 magnetization 

 Broyden mixing:
  rms(total) = 0.37951E-03    rms(broyden)= 0.37947E-03
  rms(prec ) = 0.41408E-03
  weight for this iteration     100.00

 eigenvalues of (default mixing * dielectric matrix)
  average eigenvalue GAMMA=   1.5458
  2.3809  1.1283  1.1283

 Free energy of the ion-electron system (eV)
  ---------------------------------------------------
  alpha Z        PSCENC =         1.68866877
  Ewald energy   TEWEN  =      2667.33264943
  -Hartree energ DENC   =     -3602.18789145
  -exchange      EXHF   =         0.00000000
  -V(xc)+E(xc)   XCENC  =       -43.84006625
  PAW double counting   =      4416.31611570    -4251.53455486
  entropy T*S    EENTRO =        -0.00000000
  eigenvalues    EBANDS =      -527.46222958
  atomic energy  EATOM  =      1236.10535615
  Solvation  Ediel_sol  =         0.00000000
  ---------------------------------------------------
  free energy    TOTEN  =      -103.58195208 eV

  energy without entropy =     -103.58195208  energy(sigma->0) =     -103.58195208


--------------------------------------------------------------------------------------------------------




--------------------------------------- Iteration     16(   5)  ---------------------------------------


    POTLOK:  cpu time    1.7457: real time    1.7456
    SETDIJ:  cpu time    0.0090: real time    0.0085
     EDDAV:  cpu time    8.3887: real time    8.3878
       DOS:  cpu time    0.0010: real time    0.0003
    --------------------------------------------
      LOOP:  cpu time   10.1435: real time   10.1421

 eigenvalue-minimisations  :    88
 total energy-change (2. order) :-0.5785778E-06  (-0.1297127E-06)
 number of electron      55.9999987 magnetization 
 augmentation part       -3.1204548 magnetization 

 Free energy of the ion-electron system (eV)
  ---------------------------------------------------
  alpha Z        PSCENC =         1.68866877
  Ewald energy   TEWEN  =      2667.33264943
  -Hartree energ DENC   =     -3602.19084332
  -exchange      EXHF   =         0.00000000
  -V(xc)+E(xc)   XCENC  =       -43.84014346
  PAW double counting   =      4416.18050177    -4251.39894707
  entropy T*S    EENTRO =        -0.00000000
  eigenvalues    EBANDS =      -527.45919493
  atomic energy  EATOM  =      1236.10535615
  Solvation  Ediel_sol  =         0.00000000
  ---------------------------------------------------
  free energy    TOTEN  =      -103.58195266 eV

  energy without entropy =     -103.58195266  energy(sigma->0) =     -103.58195266


--------------------------------------------------------------------------------------------------------




 average (electrostatic) potential at core
  the test charge radii are     0.9892  1.1631  0.5201
  (the norm of the test charge is              1.0000)
       1 -93.3167       2 -93.2683       3 -93.3302       4 -93.3168       5 -93.3901
       6 -93.3329       7 -93.3304       8 -40.3758       9 -40.3236      10 -40.3758
      11 -40.8380      12 -40.8339      13 -40.9920      14 -40.8379      15 -40.8390
      16 -40.8345      17 -40.8376      18 -40.8829      19 -40.8929      20 -40.9736
      21 -40.9731      22 -40.8824      23 -40.8370      24 -40.8331      25 -40.9728
      26 -40.9733
 
 
 
 E-fermi :  -5.4236     XC(G=0):  -0.6015     alpha+bet : -0.3428


 k-point     1 :       0.0000    0.0000    0.0000
  band No.  band energies     occupation 
      1     -15.0744      2.00000
      2     -14.1877      2.00000
      3     -14.0608      2.00000
      4     -13.8680      2.00000
      5     -12.9751      2.00000
      6     -12.8077      2.00000
      7     -11.6846      2.00000
      8     -11.4532      2.00000
      9     -11.3790      2.00000
     10     -10.4973      2.00000
     11      -9.0543      2.00000
     12      -8.7029      2.00000
     13      -8.6644      2.00000
     14      -8.6016      2.00000
     15      -8.2969      2.00000
     16      -8.1957      2.00000
     17      -8.0882      2.00000
     18      -7.9942      2.00000
     19      -7.9389      2.00000
     20      -7.8174      2.00000
     21      -6.8696      2.00000
     22      -6.8115      2.00000
     23      -6.5461      2.00000
     24      -6.4706      2.00000
     25      -6.4459      2.00000
     26      -6.4421      2.00000
     27      -6.4036      2.00000
     28      -6.3978      2.00000
     29      -1.7139      0.00000
     30      -1.4338      0.00000
     31      -1.3771      0.00000
     32      -1.3035      0.00000
     33      -1.1998      0.00000
     34      -1.1193      0.00000
     35      -0.9823      0.00000
     36      -0.8193      0.00000
     37      -0.7324      0.00000
     38      -0.4560      0.00000
     39      -0.3547      0.00000
     40      -0.3288      0.00000
     41      -0.2570      0.00000
     42      -0.1813      0.00000


--------------------------------------------------------------------------------------------------------


 soft charge-density along one line, spin component           1
         0         1         2         3         4         5         6         7         8         9
 total charge-density along one line
 
 pseudopotential strength for first ion, spin component:           1
 19.612  27.370   0.001   0.003   0.001   0.003   0.006   0.002
 27.370  38.200   0.002   0.004   0.002   0.004   0.008   0.003
  0.001   0.002   4.361   0.000   0.000   8.135   0.000   0.000
  0.003   0.004   0.000   4.361   0.000   0.000   8.136   0.000
  0.001   0.002   0.000   0.000   4.361   0.000   0.000   8.135
  0.003   0.004   8.135   0.000   0.000  15.185   0.000   0.001
  0.006   0.008   0.000   8.136   0.000   0.000  15.186   0.001
  0.002   0.003   0.000   0.000   8.135   0.001   0.001  15.185
 total augmentation occupancy for first ion, spin component:           1
  5.927  -2.238  -0.003  -0.461  -0.107   0.004   0.143   0.034
 -2.238   0.905  -0.012   0.262   0.056   0.000  -0.064  -0.014
 -0.003  -0.012   2.937  -0.193  -0.093  -0.646   0.062   0.026
 -0.461   0.262  -0.193   3.518   0.038   0.063  -0.846  -0.017
 -0.107   0.056  -0.093   0.038   2.992   0.026  -0.017  -0.659
  0.004   0.000  -0.646   0.063   0.026   0.149  -0.018  -0.007
  0.143  -0.064   0.062  -0.846  -0.017  -0.018   0.207   0.006
  0.034  -0.014   0.026  -0.017  -0.659  -0.007   0.006   0.152


------------------------ aborting loop because EDIFF is reached ----------------------------------------


    CHARGE:  cpu time    0.4829: real time    0.4828
    FORLOC:  cpu time    0.1760: real time    0.1763
    FORNL :  cpu time    1.0448: real time    1.0440
    STRESS:  cpu time    7.0699: real time    7.0686
    FORCOR:  cpu time    1.7277: real time    1.7276
    FORHAR:  cpu time    0.5849: real time    0.5852
    MIXING:  cpu time    0.0510: real time    0.0511
    OFIELD:  cpu time    0.0000: real time    0.0000

  FORCE on cell =-STRESS in cart. coord.  units (eV):
  Direction    XX          YY          ZZ          XY          YZ          ZX
  --------------------------------------------------------------------------------------
  Alpha Z     1.68867     1.68867     1.68867
  Ewald     891.95778   884.60247   890.77071     2.21189     0.55805     1.73086
  Hartree  1203.27050  1195.87695  1203.05542     3.85983     1.22163     1.70226
  E(xc)    -176.90245  -176.93749  -176.86355     0.10470     0.04306     0.01505
  Local   -2610.44569 -2595.68592 -2608.82632    -5.71673    -1.63091    -3.44726
  n-local   292.20030   292.59534   291.89606    -0.86846    -0.33653    -0.13497
  augment   -34.51761   -34.52247   -34.50437     0.02432     0.00903     0.00043
  Kinetic   431.93095   431.46716   431.95681     0.38639     0.11392     0.13385
  Fock        0.00000     0.00000     0.00000     0.00000     0.00000     0.00000
  -------------------------------------------------------------------------------------
  Total      -0.81755    -0.91529    -0.82657     0.00193    -0.02175     0.00023
  in kB      -0.16373    -0.18331    -0.16554     0.00039    -0.00436     0.00005
  external pressure =       -0.17 kB  Pullay stress =        0.00 kB


 VOLUME and BASIS-vectors are now :
 -----------------------------------------------------------------------------
  energy-cutoff  :      400.00
  volume of cell :     8000.00
      direct lattice vectors                 reciprocal lattice vectors
    20.000000000  0.000000000  0.000000000     0.050000000  0.000000000  0.000000000
     0.000000000 20.000000000  0.000000000     0.000000000  0.050000000  0.000000000
     0.000000000  0.000000000 20.000000000     0.000000000  0.000000000  0.050000000

  length of vectors
    20.000000000 20.000000000 20.000000000     0.050000000  0.050000000  0.050000000


 FORCES acting on ions
    electron-ion (+dipol)            ewald-force                    non-local-force                 convergence-correction
 -----------------------------------------------------------------------------------------------
   0.114E+02 -.211E+02 0.896E+02   -.119E+02 0.206E+02 -.910E+02   0.513E+00 0.514E+00 0.146E+01   -.966E-03 -.122E-02 -.106E-02
   0.888E+02 -.523E+01 0.470E+02   -.904E+02 0.539E+01 -.478E+02   0.157E+01 -.144E+00 0.814E+00   0.264E-03 -.158E-02 -.248E-03
   -.380E+02 0.553E+02 0.747E+02   0.385E+02 -.560E+02 -.766E+02   -.464E+00 0.665E+00 0.198E+01   -.137E-02 -.795E-03 -.913E-03
   0.823E+02 0.114E+02 -.414E+02   -.836E+02 -.123E+02 0.415E+02   0.136E+01 0.899E+00 -.981E-01   -.115E-02 -.130E-02 -.708E-03
   -.418E+02 -.724E+02 -.406E+02   0.432E+02 0.730E+02 0.415E+02   -.135E+01 -.649E+00 -.893E+00   0.446E-03 -.165E-03 0.214E-03
   -.880E+02 0.710E+01 -.461E+02   0.898E+02 -.649E+01 0.472E+02   -.179E+01 -.596E+00 -.112E+01   0.489E-03 -.282E-03 0.231E-03
   0.274E+02 0.849E+02 -.458E+02   -.286E+02 -.864E+02 0.469E+02   0.119E+01 0.142E+01 -.107E+01   -.134E-02 -.780E-03 -.935E-03
   -.299E+02 -.857E+02 0.469E+02   0.301E+02 0.863E+02 -.472E+02   -.202E+00 -.625E+00 0.299E+00   -.115E-03 -.143E-03 -.113E-02
   -.530E+02 0.779E+02 -.938E+01   0.532E+02 -.783E+02 0.941E+01   -.226E+00 0.378E+00 -.288E-01   -.660E-03 -.100E-02 -.592E-03
   0.376E+02 -.551E+02 -.775E+02   -.378E+02 0.555E+02 0.780E+02   0.248E+00 -.420E+00 -.533E+00   -.930E-03 -.519E-03 0.403E-03
   0.208E+02 0.418E+02 0.627E+01   -.221E+02 -.441E+02 -.753E+01   0.134E+01 0.232E+01 0.126E+01   -.193E-03 -.154E-04 -.187E-03
   0.985E+00 0.225E+02 -.414E+02   -.618E+00 -.231E+02 0.443E+02   -.376E+00 0.624E+00 -.287E+01   -.183E-03 -.168E-03 0.122E-04
   -.262E+02 0.388E+02 -.454E+01   0.276E+02 -.409E+02 0.478E+01   -.137E+01 0.204E+01 -.235E+00   -.486E-04 -.229E-03 -.811E-04
   -.464E+02 -.351E+01 0.603E+01   0.490E+02 0.390E+01 -.728E+01   -.266E+01 -.383E+00 0.125E+01   0.276E-03 0.155E-04 -.577E-04
   -.209E+02 0.826E+01 -.414E+02   0.213E+02 -.889E+01 0.443E+02   -.429E+00 0.635E+00 -.286E+01   0.103E-03 -.619E-04 0.258E-03
   -.371E+02 0.515E+01 0.287E+02   0.397E+02 -.474E+01 -.300E+02   -.263E+01 -.406E+00 0.129E+01   -.665E-04 -.118E-03 -.214E-03
   0.848E+01 0.363E+02 0.289E+02   -.979E+01 -.386E+02 -.302E+02   0.131E+01 0.230E+01 0.132E+01   -.258E-03 -.465E-04 -.726E-04
   0.672E+01 -.105E+02 0.473E+02   -.713E+01 0.111E+02 -.502E+02   0.398E+00 -.632E+00 0.281E+01   -.589E-04 -.265E-03 0.905E-04
   -.224E+02 -.377E+02 -.215E+02   0.237E+02 0.400E+02 0.228E+02   -.132E+01 -.227E+01 -.128E+01   0.240E-03 0.157E-03 0.172E-03
   0.308E+01 -.347E+01 -.450E+02   -.282E+01 0.300E+01 0.474E+02   -.264E+00 0.468E+00 -.245E+01   -.878E-04 -.943E-04 0.234E-03
   0.246E+02 -.365E+02 -.108E+02   -.260E+02 0.386E+02 0.106E+02   0.139E+01 -.208E+01 0.205E+00   -.213E-03 0.111E-04 0.768E-04
   0.437E+02 0.659E+01 -.212E+02   -.463E+02 -.697E+01 0.224E+02   0.260E+01 0.375E+00 -.125E+01   0.948E-04 -.198E-03 -.185E-03
   0.326E+02 0.248E+02 0.239E+02   -.341E+02 -.270E+02 -.252E+02   0.144E+01 0.221E+01 0.133E+01   0.192E-03 -.192E-03 0.549E-04
   0.352E+02 -.293E+02 0.119E+02   -.369E+02 0.318E+02 -.122E+02   0.165E+01 -.243E+01 0.291E+00   0.455E-04 -.283E-03 -.476E-04
   0.125E+02 -.419E+02 0.115E+02   -.139E+02 0.440E+02 -.118E+02   0.137E+01 -.209E+01 0.255E+00   -.659E-04 0.809E-04 -.204E-03
   -.337E+02 -.202E+02 0.227E+02   0.359E+02 0.206E+02 -.239E+02   -.220E+01 -.418E+00 0.113E+01   0.147E-03 0.192E-04 -.214E-03
 -----------------------------------------------------------------------------------------------
   -.109E+01 -.168E+01 -.101E+01   -.711E-14 0.426E-13 -.213E-13   0.110E+01 0.169E+01 0.101E+01   -.541E-02 -.917E-02 -.510E-02
 
 
 POSITION                                       TOTAL-FORCE (eV/Angst)
 -----------------------------------------------------------------------------------
      9.49387     11.09469      7.69804         0.016188      0.000903     -0.005522
      7.41041     10.76069      8.73877         0.003216      0.010665      0.004450
     10.81576      9.16401      7.90835         0.007948      0.011759     -0.005138
      7.69361     10.27199     11.02272         0.004705     -0.004449      0.015958
     10.96775     12.46701     11.08729        -0.005530      0.006861     -0.001220
     12.26233     10.52120     11.30696         0.002384      0.009681      0.003565
      8.99321      8.33110     11.27402        -0.001853      0.007059      0.012920
     10.62639     12.93573      8.75554        -0.002499     -0.011932      0.009126
     11.13282      8.68692     10.24137         0.000489     -0.014149     -0.003376
      8.81700     12.10897     12.09685         0.008093     -0.006869     -0.010777
      8.31419      7.15968     10.63159         0.002799      0.001479      0.002758
      9.18349      8.01664     12.72722        -0.008849      0.000991     -0.009158
     11.99888      7.39610     10.39078         0.005161     -0.001408      0.002396
     13.60524     10.71557     10.67148         0.004361     -0.000778      0.003047
     12.47725     10.20033     12.75464         0.004631     -0.000676      0.002185
     12.14770      9.37166      7.25291        -0.012590     -0.000450     -0.002226
     10.14903      7.99808      7.24345         0.003616      0.001661      0.001464
      9.28736     11.42024      6.24702        -0.012094      0.001871     -0.012685
     11.64742     13.63323     11.74387         0.006668      0.002700      0.004358
      8.98160     11.81625     13.61813        -0.006188     -0.004417     -0.003156
      7.95394     13.39926     11.96745         0.000903     -0.001007      0.000931
      6.35192     10.07873     11.66812        -0.017666     -0.000629     -0.003404
      6.68038      9.63777      8.06569         0.001340     -0.009533     -0.001574
      6.57530     11.99668      8.59242        -0.002125      0.005874      0.000494
      9.77840     14.23295      8.59837         0.001891     -0.000692     -0.000267
     11.99416     13.19252      8.05530        -0.004999     -0.004517     -0.005151
 -----------------------------------------------------------------------------------
    total drift:                               -0.001179      0.001321     -0.000704


--------------------------------------------------------------------------------------------------------



  FREE ENERGIE OF THE ION-ELECTRON SYSTEM (eV)
  ---------------------------------------------------
  free  energy   TOTEN  =      -103.58195266 eV

  energy  without entropy=     -103.58195266  energy(sigma->0) =     -103.58195266
 
 d Force = 0.2445348E-03[ 0.482E-04, 0.441E-03]  d Energy = 0.2494787E-03-0.494E-05
 d Force = 0.7087459E+00[ 0.709E+00, 0.709E+00]  d Ewald  = 0.7087458E+00 0.723E-07


--------------------------------------------------------------------------------------------------------


    POTLOK:  cpu time    1.7557: real time    1.7556


--------------------------------------------------------------------------------------------------------


 Conjugate gradient step on ions:
 trial-energy change:   -0.000249  1 .order   -0.000245   -0.000441   -0.000048
  (g-gl).g = 0.504E-03      g.g   = 0.357E-03  gl.gl    = 0.938E-03
 g(Force)  = 0.357E-03   g(Stress)= 0.000E+00 ortho     = 0.213E-07
 gamma     =   0.53685
 trial     =   1.23545
 opt step  =   1.37545  (harmonic =   1.38723) maximal distance =0.00207716
 next E    =  -103.581955   (d E  =  -0.00025)


--------------------------------------------------------------------------------------------------------


  
 reached required accuracy - stopping structural energy minimisation
 writing wavefunctions
     LOOP+:  cpu time   72.9639: real time   73.4519
    4ORBIT:  cpu time    0.0000: real time    0.0000

 total amount of memory used by VASP MPI-rank0   131440. kBytes
=======================================================================

   base      :      30000. kBytes
   nonl-proj :      17624. kBytes
   fftplans  :      26957. kBytes
   grid      :      48673. kBytes
   one-center:         40. kBytes
   wavefun   :       8146. kBytes
 
  
  
 General timing and accounting informations for this job:
 ========================================================
  
                  Total CPU time used (sec):     1972.965
                            User time (sec):     1947.450
                          System time (sec):       25.515
                         Elapsed time (sec):     1978.213
  
                   Maximum memory used (kb):      185232.
                   Average memory used (kb):           0.
  
                          Minor page faults:      4760682
                          Major page faults:            9
                 Voluntary context switches:         3600
