 vasp.5.4.4.18Apr17-6-g9f103f2a35 (build Nov 06 2017 19:16:10) complex          
  
 executed on           IFC91_ompi date 2018.07.09  19:58:23
 running on   12 total cores
 distrk:  each k-point on   12 cores,    1 groups
 distr:  one band on NCORES_PER_BAND=   6 cores,    2 groups


--------------------------------------------------------------------------------------------------------


 INCAR:
 POTCAR:    PAW_PBE Si 05Jan2001                  
 POTCAR:    PAW_PBE Ge 05Jan2001                  
 POTCAR:    PAW_PBE H 15Jun2001                   
 POTCAR:    PAW_PBE Si 05Jan2001                  
   VRHFIN =Si: s2p2                                                             
   LEXCH  = PE                                                                  
   EATOM  =   103.0669 eV,    7.5752 Ry                                         
                                                                                
   TITEL  = PAW_PBE Si 05Jan2001                                                
   LULTRA =        F    use ultrasoft PP ?                                      
   IUNSCR =        1    unscreen: 0-lin 1-nonlin 2-no                           
   RPACOR =    1.500    partial core radius                                     
   POMASS =   28.085; ZVAL   =    4.000    mass and valenz                      
   RCORE  =    1.900    outmost cutoff radius                                   
   RWIGS  =    2.480; RWIGS  =    1.312    wigner-seitz radius (au A)           
   ENMAX  =  245.345; ENMIN  =  184.009 eV                                      
   ICORE  =        2    local potential                                         
   LCOR   =        T    correct aug charges                                     
   LPAW   =        T    paw PP                                                  
   EAUG   =  322.069                                                            
   DEXC   =    0.000                                                            
   RMAX   =    1.950    core radius for proj-oper                               
   RAUG   =    1.300    factor for augmentation sphere                          
   RDEP   =    1.993    radius for radial grids                                 
   RDEPT  =    1.837    core radius for aug-charge                              
                                                                                
   Atomic configuration                                                         
    6 entries                                                                   
     n  l   j            E        occ.                                          
     1  0  0.50     -1785.8828   2.0000                                         
     2  0  0.50      -139.4969   2.0000                                         
     2  1  1.50       -95.5546   6.0000                                         
     3  0  0.50       -10.8127   2.0000                                         
     3  1  0.50        -4.0811   2.0000                                         
     3  2  1.50        -4.0817   0.0000                                         
   Description                                                                  
     l       E           TYP  RCUT    TYP  RCUT                                 
     0    -10.8127223     23  1.900                                             
     0     -7.6451159     23  1.900                                             
     1     -4.0811372     23  1.900                                             
     1      2.4879257     23  1.900                                             
     2     -4.0817478      7  1.900                                             
  local pseudopotential read in
  partial core-charges read in
  partial kinetic energy density read in
  atomic valenz-charges read in
  non local Contribution for L=           0  read in
    real space projection operators read in
  non local Contribution for L=           0  read in
    real space projection operators read in
  non local Contribution for L=           1  read in
    real space projection operators read in
  non local Contribution for L=           1  read in
    real space projection operators read in
    PAW grid and wavefunctions read in
 
   number of l-projection  operators is LMAX  =           4
   number of lm-projection operators is LMMAX =           8
 
 POTCAR:    PAW_PBE Ge 05Jan2001                  
   VRHFIN =Ge: s2p2                                                             
   LEXCH  = PE                                                                  
   EATOM  =   104.9960 eV,    7.7170 Ry                                         
                                                                                
   TITEL  = PAW_PBE Ge 05Jan2001                                                
   LULTRA =        F    use ultrasoft PP ?                                      
   IUNSCR =        1    unscreen: 0-lin 1-nonlin 2-no                           
   RPACOR =    2.170    partial core radius                                     
   POMASS =   72.610; ZVAL   =    4.000    mass and valenz                      
   RCORE  =    2.300    outmost cutoff radius                                   
   RWIGS  =    2.300; RWIGS  =    1.217    wigner-seitz radius (au A)           
   ENMAX  =  173.807; ENMIN  =  130.355 eV                                      
   ICORE  =        3    local potential                                         
   LCOR   =        T    correct aug charges                                     
   LPAW   =        T    paw PP                                                  
   EAUG   =  385.843                                                            
   DEXC   =    0.000                                                            
   RMAX   =    2.342    core radius for proj-oper                               
   RAUG   =    1.300    factor for augmentation sphere                          
   RDEP   =    2.318    radius for radial grids                                 
   RDEPT  =    2.103    core radius for aug-charge                              
                                                                                
   Atomic configuration                                                         
   10 entries                                                                   
     n  l   j            E        occ.                                          
     1  0  0.50    -10959.8463   2.0000                                         
     2  0  0.50     -1371.6056   2.0000                                         
     2  1  1.50     -1198.4791   6.0000                                         
     3  0  0.50      -168.4733   2.0000                                         
     3  1  1.50      -115.6019   6.0000                                         
     3  2  2.50       -29.3106  10.0000                                         
     4  0  0.50       -11.7309   2.0000                                         
     4  1  0.50        -3.8952   2.0000                                         
     4  2  1.50        -4.0817   0.0000                                         
     4  3  2.50        -4.0817   0.0000                                         
   Description                                                                  
     l       E           TYP  RCUT    TYP  RCUT                                 
     0    -11.7309493     23  2.300                                             
     0     -7.4578696     23  2.300                                             
     1     -3.8952261     23  2.300                                             
     1      6.1178114     23  2.300                                             
     2     -4.0817478     23  2.300                                             
     3     -1.3605826      7  2.300                                             
  local pseudopotential read in
  partial core-charges read in
  partial kinetic energy density read in
  atomic valenz-charges read in
  non local Contribution for L=           0  read in
    real space projection operators read in
  non local Contribution for L=           0  read in
    real space projection operators read in
  non local Contribution for L=           1  read in
    real space projection operators read in
  non local Contribution for L=           1  read in
    real space projection operators read in
  non local Contribution for L=           2  read in
    real space projection operators read in
    PAW grid and wavefunctions read in
 
   number of l-projection  operators is LMAX  =           5
   number of lm-projection operators is LMMAX =          13
 
 POTCAR:    PAW_PBE H 15Jun2001                   
   VRHFIN =H: ultrasoft test                                                    
   LEXCH  = PE                                                                  
   EATOM  =    12.4884 eV,    0.9179 Ry                                         
                                                                                
   TITEL  = PAW_PBE H 15Jun2001                                                 
   LULTRA =        F    use ultrasoft PP ?                                      
   IUNSCR =        0    unscreen: 0-lin 1-nonlin 2-no                           
   RPACOR =    0.000    partial core radius                                     
   POMASS =    1.000; ZVAL   =    1.000    mass and valenz                      
   RCORE  =    1.100    outmost cutoff radius                                   
   RWIGS  =    0.700; RWIGS  =    0.370    wigner-seitz radius (au A)           
   ENMAX  =  250.000; ENMIN  =  200.000 eV                                      
   RCLOC  =    0.701    cutoff for local pot                                    
   LCOR   =        T    correct aug charges                                     
   LPAW   =        T    paw PP                                                  
   EAUG   =  400.000                                                            
   RMAX   =    1.123    core radius for proj-oper                               
   RAUG   =    1.200    factor for augmentation sphere                          
   RDEP   =    1.112    radius for radial grids                                 
   RDEPT  =    0.926    core radius for aug-charge                              
                                                                                
   Atomic configuration                                                         
    2 entries                                                                   
     n  l   j            E        occ.                                          
     1  0  0.50        -6.4927   1.0000                                         
     2  1  0.50        -3.4015   0.0000                                         
   Description                                                                  
     l       E           TYP  RCUT    TYP  RCUT                                 
     0     -6.4927494     23  1.100                                             
     0      6.8029130     23  1.100                                             
     1     -4.0817478     23  1.100                                             
  local pseudopotential read in
  atomic valenz-charges read in
  non local Contribution for L=           0  read in
    real space projection operators read in
  non local Contribution for L=           0  read in
    real space projection operators read in
  non local Contribution for L=           1  read in
    real space projection operators read in
    PAW grid and wavefunctions read in
 
   number of l-projection  operators is LMAX  =           3
   number of lm-projection operators is LMMAX =           5
 

 ----------------------------------------------------------------------------- 
|                                                                             |
|  ADVICE TO THIS USER RUNNING 'VASP/VAMP'   (HEAR YOUR MASTER'S VOICE ...):  |
|                                                                             |
|      You have a (more or less) 'large supercell' and for larger cells       |
|      it might be more efficient to use real space projection opertators     |
|      So try LREAL= Auto  in the INCAR   file.                               |
|      Mind:          For very  accurate calculation you might also keep the  |
|      reciprocal projection scheme          (i.e. LREAL=.FALSE.)             |
|                                                                             |
 ----------------------------------------------------------------------------- 

  PAW_PBE Si 05Jan2001                  :
 energy of atom  1       EATOM= -103.0669
 kinetic energy error for atom=    0.0012 (will be added to EATOM!!)
  PAW_PBE Ge 05Jan2001                  :
 energy of atom  2       EATOM= -104.9960
 kinetic energy error for atom=    0.0003 (will be added to EATOM!!)
  PAW_PBE H 15Jun2001                   :
 energy of atom  3       EATOM=  -12.4884
 kinetic energy error for atom=    0.0098 (will be added to EATOM!!)
 
 
 POSCAR: SiGeH16                                 
  positions in direct lattice
  No initial velocities read in
 exchange correlation table for  LEXCH =        8
   RHO(1)=    0.500       N(1)  =     2000
   RHO(2)=  100.500       N(2)  =     4000
 


--------------------------------------------------------------------------------------------------------


 ion  position               nearest neighbor table
   1  0.475  0.556  0.385-  18 1.55   8 2.39   2 2.39   3 2.39
   2  0.369  0.539  0.436-  23 1.55  24 1.55   4 2.39   1 2.39
   3  0.542  0.457  0.396-  17 1.55  16 1.55   5 2.39   1 2.39
   4  0.385  0.515  0.552-  22 1.55  10 2.39   9 2.39   2 2.39
   5  0.557  0.433  0.512-  13 1.55   3 2.39   7 2.39   9 2.39
   6  0.547  0.624  0.554-  19 1.55   8 2.39   7 2.39  10 2.39
   7  0.613  0.525  0.565-  15 1.55  14 1.55   6 2.39   5 2.39
   8  0.531  0.648  0.437-  25 1.55  26 1.55   6 2.39   1 2.39
   9  0.451  0.416  0.564-  12 1.55  11 1.55   4 2.39   5 2.39
  10  0.440  0.606  0.605-  20 1.55  21 1.55   4 2.39   6 2.39
  11  0.415  0.357  0.529-   9 1.55
  12  0.461  0.400  0.639-   9 1.55
  13  0.600  0.369  0.520-   5 1.55
  14  0.682  0.536  0.531-   7 1.55
  15  0.623  0.509  0.640-   7 1.55
  16  0.611  0.469  0.363-   3 1.55
  17  0.506  0.398  0.362-   3 1.55
  18  0.465  0.572  0.309-   1 1.55
  19  0.583  0.683  0.588-   6 1.55
  20  0.451  0.590  0.680-  10 1.55
  21  0.397  0.670  0.598-  10 1.55
  22  0.316  0.504  0.586-   4 1.55
  23  0.333  0.479  0.402-   2 1.55
  24  0.326  0.603  0.429-   2 1.55
  25  0.488  0.712  0.430-   8 1.55
  26  0.600  0.659  0.404-   8 1.55
 
  LATTYP: Found a simple cubic cell.
 ALAT       =    20.0000000000
  
  Lattice vectors:
  
 A1 = (  20.0000000000,   0.0000000000,   0.0000000000)
 A2 = (   0.0000000000,  20.0000000000,   0.0000000000)
 A3 = (   0.0000000000,   0.0000000000,  20.0000000000)


Analysis of symmetry for initial positions (statically):
=====================================================================
 Subroutine PRICEL returns:
 Original cell was already a primitive cell.
 

 Routine SETGRP: Setting up the symmetry group for a 
 simple cubic supercell.


 Subroutine GETGRP returns: Found  1 space group operations
 (whereof  1 operations were pure point group operations)
 out of a pool of 48 trial point group operations.


The static configuration has the point symmetry C_1 .


Analysis of symmetry for dynamics (positions and initial velocities):
=====================================================================
 Subroutine PRICEL returns:
 Original cell was already a primitive cell.
 

 Routine SETGRP: Setting up the symmetry group for a 
 simple cubic supercell.


 Subroutine GETGRP returns: Found  1 space group operations
 (whereof  1 operations were pure point group operations)
 out of a pool of 48 trial point group operations.


The dynamic configuration has the point symmetry C_1 .


 Subroutine INISYM returns: Found  1 space group operations
 (whereof  1 operations are pure point group operations),
 and found     1 'primitive' translations

 
 
 KPOINTS: Automatic mesh                          

Automatic generation of k-mesh.
Space group operators:
 irot       det(A)        alpha          n_x          n_y          n_z        tau_x        tau_y        tau_z
    1     1.000000     0.000000     1.000000     0.000000     0.000000     0.000000     0.000000     0.000000
 
 Subroutine IBZKPT returns following result:
 ===========================================
 
 Found      1 irreducible k-points:
 
 Following reciprocal coordinates:
            Coordinates               Weight
  0.000000  0.000000  0.000000      1.000000
 
 Following cartesian coordinates:
            Coordinates               Weight
  0.000000  0.000000  0.000000      1.000000
 


--------------------------------------------------------------------------------------------------------




 Dimension of arrays:
   k-points           NKPTS =      1   k-points in BZ     NKDIM =      1   number of bands    NBANDS=     42
   number of dos      NEDOS =    301   number of ions     NIONS =     26
   non local maximal  LDIM  =      5   non local SUM 2l+1 LMDIM =     13
   total plane-waves  NPLWV = 941192
   max r-space proj   IRMAX =      1   max aug-charges    IRDMAX=   6593
   dimension x,y,z NGX =    98 NGY =   98 NGZ =   98
   dimension x,y,z NGXF=   196 NGYF=  196 NGZF=  196
   support grid    NGXF=   196 NGYF=  196 NGZF=  196
   ions per type =               7   3  16
   NGX,Y,Z   is equivalent  to a cutoff of   8.15,  8.15,  8.15 a.u.
   NGXF,Y,Z  is equivalent  to a cutoff of  16.29, 16.29, 16.29 a.u.

 SYSTEM =  SiGe                                    
 POSCAR =  SiGeH16                                 

 Startparameter for this run:
   NWRITE =      2    write-flag & timer
   PREC   = normal    normal or accurate (medium, high low for compatibility)
   ISTART =      0    job   : 0-new  1-cont  2-samecut
   ICHARG =      2    charge: 1-file 2-atom 10-const
   ISPIN  =      1    spin polarized calculation?
   LNONCOLLINEAR =      F non collinear calculations
   LSORBIT =      F    spin-orbit coupling
   INIWAV =      1    electr: 0-lowe 1-rand  2-diag
   LASPH  =      F    aspherical Exc in radial PAW
   METAGGA=      F    non-selfconsistent MetaGGA calc.

 Electronic Relaxation 1
   ENCUT  =  400.0 eV  29.40 Ry    5.42 a.u.  32.61 32.61 32.61*2*pi/ulx,y,z
   ENINI  =  400.0     initial cutoff
   ENAUG  =  400.0 eV  augmentation charge cutoff
   NELM   =     60;   NELMIN=  2; NELMDL= -5     # of ELM steps 
   EDIFF  = 0.1E-05   stopping-criterion for ELM
   LREAL  =      F    real-space projection
   NLSPLINE    = F    spline interpolate recip. space projectors
   LCOMPAT=      F    compatible to vasp.4.4
   GGA_COMPAT  = T    GGA compatible to vasp.4.4-vasp.4.6
   LMAXPAW     = -100 max onsite density
   LMAXMIX     =    2 max onsite mixed and CHGCAR
   VOSKOWN=      0    Vosko Wilk Nusair interpolation
   ROPT   =    0.00000   0.00000   0.00000
 Ionic relaxation
   EDIFFG = -.2E-01   stopping-criterion for IOM
   NSW    =    200    number of steps for IOM
   NBLOCK =      1;   KBLOCK =    200    inner block; outer block 
   IBRION =      2    ionic relax: 0-MD 1-quasi-New 2-CG
   NFREE  =      1    steps in history (QN), initial steepest desc. (CG)
   ISIF   =      2    stress and relaxation
   IWAVPR =     11    prediction:  0-non 1-charg 2-wave 3-comb
   ISYM   =      2    0-nonsym 1-usesym 2-fastsym
   LCORR  =      T    Harris-Foulkes like correction to forces

   POTIM  = 0.5000    time-step for ionic-motion
   TEIN   =    0.0    initial temperature
   TEBEG  =    0.0;   TEEND  =   0.0 temperature during run
   SMASS  =  -3.00    Nose mass-parameter (am)
   estimated Nose-frequenzy (Omega)   =  0.10E-29 period in steps =****** mass=  -0.914E-26a.u.
   SCALEE = 1.0000    scale energy and forces
   NPACO  =    256;   APACO  = 16.0  distance and # of slots for P.C.
   PSTRESS=    0.0 pullay stress

  Mass of Ions in am
   POMASS =  28.09 72.61  1.00
  Ionic Valenz
   ZVAL   =   4.00  4.00  1.00
  Atomic Wigner-Seitz radii
   RWIGS  =  -1.00 -1.00 -1.00
  virtual crystal weights 
   VCA    =   1.00  1.00  1.00
   NELECT =      56.0000    total number of electrons
   NUPDOWN=      -1.0000    fix difference up-down

 DOS related values:
   EMIN   =  10.00;   EMAX   =-10.00  energy-range for DOS
   EFERMI =   0.00
   ISMEAR =     0;   SIGMA  =   0.20  broadening in eV -4-tet -1-fermi 0-gaus

 Electronic relaxation 2 (details)
   IALGO  =     38    algorithm
   LDIAG  =      T    sub-space diagonalisation (order eigenvalues)
   LSUBROT=      F    optimize rotation matrix (better conditioning)
   TURBO    =      0    0=normal 1=particle mesh
   IRESTART =      0    0=no restart 2=restart with 2 vectors
   NREBOOT  =      0    no. of reboots
   NMIN     =      0    reboot dimension
   EREF     =   0.00    reference energy to select bands
   IMIX   =      4    mixing-type and parameters
     AMIX     =   0.40;   BMIX     =  1.00
     AMIX_MAG =   1.60;   BMIX_MAG =  1.00
     AMIN     =   0.10
     WC   =   100.;   INIMIX=   1;  MIXPRE=   1;  MAXMIX= -45

 Intra band minimization:
   WEIMIN = 0.0010     energy-eigenvalue tresh-hold
   EBREAK =  0.60E-08  absolut break condition
   DEPER  =   0.30     relativ break condition  

   TIME   =   0.40     timestep for ELM

  volume/ion in A,a.u.               =     307.69      2076.41
  Fermi-wavevector in a.u.,A,eV,Ry     =   0.313166  0.591797  1.334361  0.098073
  Thomas-Fermi vector in A             =   1.193276
 
 Write flags
   LWAVE        =      T    write WAVECAR
   LDOWNSAMPLE  =      F    k-point downsampling of WAVECAR
   LCHARG       =      T    write CHGCAR
   LVTOT        =      F    write LOCPOT, total local potential
   LVHAR        =      F    write LOCPOT, Hartree potential only
   LELF         =      F    write electronic localiz. function (ELF)
   LORBIT       =      0    0 simple, 1 ext, 2 COOP (PROOUT), +10 PAW based schemes


 Dipole corrections
   LMONO  =      F    monopole corrections only (constant potential shift)
   LDIPOL =      F    correct potential (dipole corrections)
   IDIPOL =      0    1-x, 2-y, 3-z, 4-all directions 
   EPSILON=  1.0000000 bulk dielectric constant

 Exchange correlation treatment:
   GGA     =    --    GGA type
   LEXCH   =     8    internal setting for exchange type
   VOSKOWN=      0    Vosko Wilk Nusair interpolation
   LHFCALC =     F    Hartree Fock is set to
   LHFONE  =     F    Hartree Fock one center treatment
   AEXX    =    0.0000 exact exchange contribution

 Linear response parameters
   LEPSILON=     F    determine dielectric tensor
   LRPA    =     F    only Hartree local field effects (RPA)
   LNABLA  =     F    use nabla operator in PAW spheres
   LVEL    =     F    velocity operator in full k-point grid
   LINTERFAST=   F  fast interpolation
   KINTER  =     0    interpolate to denser k-point grid
   CSHIFT  =0.1000    complex shift for real part using Kramers Kronig
   OMEGAMAX=  -1.0    maximum frequency
   DEG_THRESHOLD= 0.2000000E-02 threshold for treating states as degnerate
   RTIME   =   -0.100 relaxation time in fs
  (WPLASMAI=    0.000 imaginary part of plasma frequency in eV, 0.658/RTIME)
   DFIELD  = 0.0000000 0.0000000 0.0000000 field for delta impulse in time
 
 Orbital magnetization related:
   ORBITALMAG=     F  switch on orbital magnetization
   LCHIMAG   =     F  perturbation theory with respect to B field
   DQ        =  0.001000  dq finite difference perturbation B field
   LLRAUG    =     F  two centre corrections for induced B field



--------------------------------------------------------------------------------------------------------


 conjugate gradient relaxation of ions
 charge density and potential will be updated during run
 non-spin polarized calculation
 Variant of blocked Davidson
 Davidson routine will perform the subspace rotation
 perform sub-space diagonalisation
    after iterative eigenvector-optimisation
 modified Broyden-mixing scheme, WC =      100.0
 initial mixing is a Kerker type mixing with AMIX =  0.4000 and BMIX =      1.0000
 Hartree-type preconditioning will be used
 using additional bands           14
 reciprocal scheme for non local part
 use partial core corrections
 calculate Harris-corrections to forces 
   (improved forces if not selfconsistent)
 use gradient corrections 
 use of overlap-Matrix (Vanderbilt PP)
 Gauss-broadening in eV      SIGMA  =   0.20


--------------------------------------------------------------------------------------------------------


  energy-cutoff  :      400.00
  volume of cell :     8000.00
      direct lattice vectors                 reciprocal lattice vectors
    20.000000000  0.000000000  0.000000000     0.050000000  0.000000000  0.000000000
     0.000000000 20.000000000  0.000000000     0.000000000  0.050000000  0.000000000
     0.000000000  0.000000000 20.000000000     0.000000000  0.000000000  0.050000000

  length of vectors
    20.000000000 20.000000000 20.000000000     0.050000000  0.050000000  0.050000000


 
 k-points in units of 2pi/SCALE and weight: Automatic mesh                          
   0.00000000  0.00000000  0.00000000       1.000
 
 k-points in reciprocal lattice and weights: Automatic mesh                          
   0.00000000  0.00000000  0.00000000       1.000
 
 position of ions in fractional coordinates (direct lattice) 
   0.47547100  0.55626000  0.38465300
   0.36907800  0.53906000  0.43641200
   0.54179100  0.45744600  0.39613600
   0.38461900  0.51474100  0.55243500
   0.55736800  0.43311000  0.51215000
   0.54669200  0.62364400  0.55351800
   0.61299700  0.52481700  0.56496600
   0.53111600  0.64794100  0.43749600
   0.45095700  0.41593600  0.56388300
   0.44028400  0.60643000  0.60524300
   0.41490100  0.35665000  0.52940300
   0.46117000  0.40042600  0.63910800
   0.60034800  0.36907000  0.51957800
   0.68182700  0.53600700  0.53118700
   0.62280400  0.50903400  0.64018900
   0.61080000  0.46880600  0.36278200
   0.50550800  0.39805500  0.36207700
   0.46538400  0.57201900  0.30946400
   0.58275500  0.68306700  0.58775000
   0.45052500  0.59044300  0.68036400
   0.39732000  0.67044900  0.59753500
   0.31566200  0.50359800  0.58596500
   0.33322800  0.47946500  0.40225200
   0.32629100  0.60324700  0.42912600
   0.48792300  0.71185500  0.43020800
   0.60015100  0.65882400  0.40403700
 
 position of ions in cartesian coordinates  (Angst):
   9.50942000 11.12520000  7.69306000
   7.38156000 10.78120000  8.72824000
  10.83582000  9.14892000  7.92272000
   7.69238000 10.29482000 11.04870000
  11.14736000  8.66220000 10.24300000
  10.93384000 12.47288000 11.07036000
  12.25994000 10.49634000 11.29932000
  10.62232000 12.95882000  8.74992000
   9.01914000  8.31872000 11.27766000
   8.80568000 12.12860000 12.10486000
   8.29802000  7.13300000 10.58806000
   9.22340000  8.00852000 12.78216000
  12.00696000  7.38140000 10.39156000
  13.63654000 10.72014000 10.62374000
  12.45608000 10.18068000 12.80378000
  12.21600000  9.37612000  7.25564000
  10.11016000  7.96110000  7.24154000
   9.30768000 11.44038000  6.18928000
  11.65510000 13.66134000 11.75500000
   9.01050000 11.80886000 13.60728000
   7.94640000 13.40898000 11.95070000
   6.31324000 10.07196000 11.71930000
   6.66456000  9.58930000  8.04504000
   6.52582000 12.06494000  8.58252000
   9.75846000 14.23710000  8.60416000
  12.00302000 13.17648000  8.08074000
 


--------------------------------------------------------------------------------------------------------


 k-point  1 :   0.0000 0.0000 0.0000  plane waves:  145165

 maximum and minimum number of plane-waves per node :     24209    24180

 maximum number of plane-waves:    145165
 maximum index in each direction: 
   IXMAX=   32   IYMAX=   32   IZMAX=   32
   IXMIN=  -32   IYMIN=  -32   IZMIN=  -32


 parallel 3D FFT for wavefunctions:
    minimum data exchange during FFTs selected (reduces bandwidth)
 parallel 3D FFT for charge:
    minimum data exchange during FFTs selected (reduces bandwidth)


 total amount of memory used by VASP MPI-rank0   131440. kBytes
=======================================================================

   base      :      30000. kBytes
   nonl-proj :      17624. kBytes
   fftplans  :      26957. kBytes
   grid      :      48673. kBytes
   one-center:         40. kBytes
   wavefun   :       8146. kBytes
 
     INWAV:  cpu time    0.0000: real time    0.0004
 Broyden mixing: mesh for mixing (old mesh)
   NGX = 65   NGY = 65   NGZ = 65
  (NGX  =196   NGY  =196   NGZ  =196)
  gives a total of 274625 points

 initial charge density was supplied:
 charge density of overlapping atoms calculated
 number of electron      56.0000000 magnetization 
 keeping initial charge density in first step


--------------------------------------------------------------------------------------------------------


 Maximum index for augmentation-charges          565 (set IRDMAX)


--------------------------------------------------------------------------------------------------------


 First call to EWALD:  gamma=   0.089
 Maximum number of real-space cells 3x 3x 3
 Maximum number of reciprocal cells 3x 3x 3

    FEWALD:  cpu time    0.0030: real time    0.0035


--------------------------------------- Iteration      1(   1)  ---------------------------------------


    POTLOK:  cpu time    1.7677: real time    1.7692
    SETDIJ:  cpu time    0.0070: real time    0.0073
     EDDAV:  cpu time   10.5394: real time   10.5344
       DOS:  cpu time    0.0000: real time    0.0003
    --------------------------------------------
      LOOP:  cpu time   12.3141: real time   12.3112

 eigenvalue-minimisations  :   116
 total energy-change (2. order) : 0.1980410E+03  (-0.1050150E+04)
 number of electron      56.0000000 magnetization 
 augmentation part       56.0000000 magnetization 

 Free energy of the ion-electron system (eV)
  ---------------------------------------------------
  alpha Z        PSCENC =         1.68866877
  Ewald energy   TEWEN  =      2629.98113996
  -Hartree energ DENC   =     -3443.50415921
  -exchange      EXHF   =         0.00000000
  -V(xc)+E(xc)   XCENC  =       -55.16163016
  PAW double counting   =       915.44662188     -748.97298319
  entropy T*S    EENTRO =        -0.44115522
  eigenvalues    EBANDS =      -337.10087698
  atomic energy  EATOM  =      1236.10535615
  Solvation  Ediel_sol  =         0.00000000
  ---------------------------------------------------
  free energy    TOTEN  =       198.04098200 eV

  energy without entropy =      198.48213722  energy(sigma->0) =      198.26155961


--------------------------------------------------------------------------------------------------------




--------------------------------------- Iteration      1(   2)  ---------------------------------------


     EDDAV:  cpu time   11.5182: real time   11.5183
       DOS:  cpu time    0.0000: real time    0.0002
    --------------------------------------------
      LOOP:  cpu time   11.5182: real time   11.5186

 eigenvalue-minimisations  :   128
 total energy-change (2. order) :-0.2257686E+03  (-0.2114486E+03)
 number of electron      56.0000000 magnetization 
 augmentation part       56.0000000 magnetization 

 Free energy of the ion-electron system (eV)
  ---------------------------------------------------
  alpha Z        PSCENC =         1.68866877
  Ewald energy   TEWEN  =      2629.98113996
  -Hartree energ DENC   =     -3443.50415921
  -exchange      EXHF   =         0.00000000
  -V(xc)+E(xc)   XCENC  =       -55.16163016
  PAW double counting   =       915.44662188     -748.97298319
  entropy T*S    EENTRO =        -0.00000000
  eigenvalues    EBANDS =      -563.31065574
  atomic energy  EATOM  =      1236.10535615
  Solvation  Ediel_sol  =         0.00000000
  ---------------------------------------------------
  free energy    TOTEN  =       -27.72764154 eV

  energy without entropy =      -27.72764154  energy(sigma->0) =      -27.72764154


--------------------------------------------------------------------------------------------------------




--------------------------------------- Iteration      1(   3)  ---------------------------------------


     EDDAV:  cpu time   10.4194: real time   10.4159
       DOS:  cpu time    0.0010: real time    0.0002
    --------------------------------------------
      LOOP:  cpu time   10.4204: real time   10.4162

 eigenvalue-minimisations  :   112
 total energy-change (2. order) :-0.7604543E+02  (-0.7585606E+02)
 number of electron      56.0000000 magnetization 
 augmentation part       56.0000000 magnetization 

 Free energy of the ion-electron system (eV)
  ---------------------------------------------------
  alpha Z        PSCENC =         1.68866877
  Ewald energy   TEWEN  =      2629.98113996
  -Hartree energ DENC   =     -3443.50415921
  -exchange      EXHF   =         0.00000000
  -V(xc)+E(xc)   XCENC  =       -55.16163016
  PAW double counting   =       915.44662188     -748.97298319
  entropy T*S    EENTRO =        -0.00000000
  eigenvalues    EBANDS =      -639.35608173
  atomic energy  EATOM  =      1236.10535615
  Solvation  Ediel_sol  =         0.00000000
  ---------------------------------------------------
  free energy    TOTEN  =      -103.77306754 eV

  energy without entropy =     -103.77306754  energy(sigma->0) =     -103.77306754


--------------------------------------------------------------------------------------------------------




--------------------------------------- Iteration      1(   4)  ---------------------------------------


     EDDAV:  cpu time    9.7005: real time    9.6975
       DOS:  cpu time    0.0000: real time    0.0002
    --------------------------------------------
      LOOP:  cpu time    9.7005: real time    9.6977

 eigenvalue-minimisations  :   104
 total energy-change (2. order) :-0.4339963E+01  (-0.4322080E+01)
 number of electron      56.0000000 magnetization 
 augmentation part       56.0000000 magnetization 

 Free energy of the ion-electron system (eV)
  ---------------------------------------------------
  alpha Z        PSCENC =         1.68866877
  Ewald energy   TEWEN  =      2629.98113996
  -Hartree energ DENC   =     -3443.50415921
  -exchange      EXHF   =         0.00000000
  -V(xc)+E(xc)   XCENC  =       -55.16163016
  PAW double counting   =       915.44662188     -748.97298319
  entropy T*S    EENTRO =        -0.00000000
  eigenvalues    EBANDS =      -643.69604433
  atomic energy  EATOM  =      1236.10535615
  Solvation  Ediel_sol  =         0.00000000
  ---------------------------------------------------
  free energy    TOTEN  =      -108.11303014 eV

  energy without entropy =     -108.11303014  energy(sigma->0) =     -108.11303014


--------------------------------------------------------------------------------------------------------




--------------------------------------- Iteration      1(   5)  ---------------------------------------


     EDDAV:  cpu time   12.5681: real time   12.5641
       DOS:  cpu time    0.0010: real time    0.0003
    CHARGE:  cpu time    0.4849: real time    0.4848
    MIXING:  cpu time    0.0430: real time    0.0437
    --------------------------------------------
      LOOP:  cpu time   13.0970: real time   13.0930

 eigenvalue-minimisations  :   144
 total energy-change (2. order) :-0.9075885E-01  (-0.9071151E-01)
 number of electron      56.0000022 magnetization 
 augmentation part       -3.1294404 magnetization 

 Broyden mixing:
  rms(total) = 0.15240E+01    rms(broyden)= 0.15239E+01
  rms(prec ) = 0.16200E+01
  weight for this iteration     100.00

 Free energy of the ion-electron system (eV)
  ---------------------------------------------------
  alpha Z        PSCENC =         1.68866877
  Ewald energy   TEWEN  =      2629.98113996
  -Hartree energ DENC   =     -3443.50415921
  -exchange      EXHF   =         0.00000000
  -V(xc)+E(xc)   XCENC  =       -55.16163016
  PAW double counting   =       915.44662188     -748.97298319
  entropy T*S    EENTRO =        -0.00000000
  eigenvalues    EBANDS =      -643.78680318
  atomic energy  EATOM  =      1236.10535615
  Solvation  Ediel_sol  =         0.00000000
  ---------------------------------------------------
  free energy    TOTEN  =      -108.20378899 eV

  energy without entropy =     -108.20378899  energy(sigma->0) =     -108.20378899


--------------------------------------------------------------------------------------------------------




--------------------------------------- Iteration      1(   6)  ---------------------------------------


    POTLOK:  cpu time    1.7167: real time    1.7153
    SETDIJ:  cpu time    0.0110: real time    0.0118
     EDDAV:  cpu time    9.7145: real time    9.7103
       DOS:  cpu time    0.0000: real time    0.0004
    CHARGE:  cpu time    0.4829: real time    0.4829
    MIXING:  cpu time    0.0460: real time    0.0458
    --------------------------------------------
      LOOP:  cpu time   11.9712: real time   11.9666

 eigenvalue-minimisations  :   104
 total energy-change (2. order) : 0.3238811E+01  (-0.1591142E+00)
 number of electron      56.0000021 magnetization 
 augmentation part       -3.1318901 magnetization 

 Broyden mixing:
  rms(total) = 0.88647E+00    rms(broyden)= 0.88647E+00
  rms(prec ) = 0.94485E+00
  weight for this iteration     100.00

 eigenvalues of (default mixing * dielectric matrix)
  average eigenvalue GAMMA=   2.3182
  2.3182

 Free energy of the ion-electron system (eV)
  ---------------------------------------------------
  alpha Z        PSCENC =         1.68866877
  Ewald energy   TEWEN  =      2629.98113996
  -Hartree energ DENC   =     -3475.16615055
  -exchange      EXHF   =         0.00000000
  -V(xc)+E(xc)   XCENC  =       -51.52514130
  PAW double counting   =      1884.38039791    -1718.63719532
  entropy T*S    EENTRO =        -0.00000000
  eigenvalues    EBANDS =      -611.79205364
  atomic energy  EATOM  =      1236.10535615
  Solvation  Ediel_sol  =         0.00000000
  ---------------------------------------------------
  free energy    TOTEN  =      -104.96497803 eV

  energy without entropy =     -104.96497803  energy(sigma->0) =     -104.96497803


--------------------------------------------------------------------------------------------------------




--------------------------------------- Iteration      1(   7)  ---------------------------------------


    POTLOK:  cpu time    1.7007: real time    1.7014
    SETDIJ:  cpu time    0.0080: real time    0.0075
     EDDAV:  cpu time    9.6555: real time    9.6529
       DOS:  cpu time    0.0000: real time    0.0005
    CHARGE:  cpu time    0.4919: real time    0.4910
    MIXING:  cpu time    0.0480: real time    0.0481
    --------------------------------------------
      LOOP:  cpu time   11.9042: real time   11.9013

 eigenvalue-minimisations  :   104
 total energy-change (2. order) : 0.1707607E+01  (-0.4127458E+00)
 number of electron      56.0000019 magnetization 
 augmentation part       -3.1345229 magnetization 

 Broyden mixing:
  rms(total) = 0.12323E+00    rms(broyden)= 0.12308E+00
  rms(prec ) = 0.15407E+00
  weight for this iteration     100.00

 eigenvalues of (default mixing * dielectric matrix)
  average eigenvalue GAMMA=   1.8371
  1.6592  2.0150

 Free energy of the ion-electron system (eV)
  ---------------------------------------------------
  alpha Z        PSCENC =         1.68866877
  Ewald energy   TEWEN  =      2629.98113996
  -Hartree energ DENC   =     -3531.78280626
  -exchange      EXHF   =         0.00000000
  -V(xc)+E(xc)   XCENC  =       -45.72702194
  PAW double counting   =      4064.25642470    -3899.49601837
  entropy T*S    EENTRO =        -0.00000000
  eigenvalues    EBANDS =      -558.28311427
  atomic energy  EATOM  =      1236.10535615
  Solvation  Ediel_sol  =         0.00000000
  ---------------------------------------------------
  free energy    TOTEN  =      -103.25737126 eV

  energy without entropy =     -103.25737126  energy(sigma->0) =     -103.25737126


--------------------------------------------------------------------------------------------------------




--------------------------------------- Iteration      1(   8)  ---------------------------------------


    POTLOK:  cpu time    1.7097: real time    1.7240
    SETDIJ:  cpu time    0.0080: real time    0.0075
     EDDAV:  cpu time    9.6595: real time    9.6573
       DOS:  cpu time    0.0010: real time    0.0005
    CHARGE:  cpu time    0.4809: real time    0.4802
    MIXING:  cpu time    0.0500: real time    0.0501
    --------------------------------------------
      LOOP:  cpu time   11.9092: real time   11.9197

 eigenvalue-minimisations  :   104
 total energy-change (2. order) : 0.5109369E-01  (-0.2626340E-01)
 number of electron      56.0000019 magnetization 
 augmentation part       -3.1310527 magnetization 

 Broyden mixing:
  rms(total) = 0.62196E-01    rms(broyden)= 0.62181E-01
  rms(prec ) = 0.81487E-01
  weight for this iteration     100.00

 eigenvalues of (default mixing * dielectric matrix)
  average eigenvalue GAMMA=   1.9854
  2.6262  1.6649  1.6649

 Free energy of the ion-electron system (eV)
  ---------------------------------------------------
  alpha Z        PSCENC =         1.68866877
  Ewald energy   TEWEN  =      2629.98113996
  -Hartree energ DENC   =     -3539.40476304
  -exchange      EXHF   =         0.00000000
  -V(xc)+E(xc)   XCENC  =       -45.78610871
  PAW double counting   =      4081.05437536    -3916.19992403
  entropy T*S    EENTRO =        -0.00000000
  eigenvalues    EBANDS =      -550.64502204
  atomic energy  EATOM  =      1236.10535615
  Solvation  Ediel_sol  =         0.00000000
  ---------------------------------------------------
  free energy    TOTEN  =      -103.20627757 eV

  energy without entropy =     -103.20627757  energy(sigma->0) =     -103.20627757


--------------------------------------------------------------------------------------------------------




--------------------------------------- Iteration      1(   9)  ---------------------------------------


    POTLOK:  cpu time    1.7257: real time    1.7253
    SETDIJ:  cpu time    0.0080: real time    0.0075
     EDDAV:  cpu time   11.4243: real time   11.4208
       DOS:  cpu time    0.0000: real time    0.0004
    CHARGE:  cpu time    0.4809: real time    0.4802
    MIXING:  cpu time    0.0530: real time    0.0524
    --------------------------------------------
      LOOP:  cpu time   13.6919: real time   13.6866

 eigenvalue-minimisations  :   128
 total energy-change (2. order) : 0.3492200E-01  (-0.7484152E-02)
 number of electron      56.0000019 magnetization 
 augmentation part       -3.1200885 magnetization 

 Broyden mixing:
  rms(total) = 0.34953E-01    rms(broyden)= 0.34953E-01
  rms(prec ) = 0.46250E-01
  weight for this iteration     100.00

 eigenvalues of (default mixing * dielectric matrix)
  average eigenvalue GAMMA=   1.7342
  2.4779  1.8380  1.8380  0.7828

 Free energy of the ion-electron system (eV)
  ---------------------------------------------------
  alpha Z        PSCENC =         1.68866877
  Ewald energy   TEWEN  =      2629.98113996
  -Hartree energ DENC   =     -3551.11903409
  -exchange      EXHF   =         0.00000000
  -V(xc)+E(xc)   XCENC  =       -45.11739846
  PAW double counting   =      4203.91236829    -4039.07782789
  entropy T*S    EENTRO =        -0.00000000
  eigenvalues    EBANDS =      -539.54462832
  atomic energy  EATOM  =      1236.10535615
  Solvation  Ediel_sol  =         0.00000000
  ---------------------------------------------------
  free energy    TOTEN  =      -103.17135558 eV

  energy without entropy =     -103.17135558  energy(sigma->0) =     -103.17135558


--------------------------------------------------------------------------------------------------------




--------------------------------------- Iteration      1(  10)  ---------------------------------------


    POTLOK:  cpu time    1.7227: real time    1.7230
    SETDIJ:  cpu time    0.0070: real time    0.0075
     EDDAV:  cpu time   10.2574: real time   10.2544
       DOS:  cpu time    0.0010: real time    0.0004
    CHARGE:  cpu time    0.4939: real time    0.4931
    MIXING:  cpu time    0.0560: real time    0.0563
    --------------------------------------------
      LOOP:  cpu time   12.5381: real time   12.5348

 eigenvalue-minimisations  :   112
 total energy-change (2. order) :-0.1971510E-03  (-0.2769075E-03)
 number of electron      56.0000019 magnetization 
 augmentation part       -3.1192415 magnetization 

 Broyden mixing:
  rms(total) = 0.16537E-01    rms(broyden)= 0.16537E-01
  rms(prec ) = 0.29606E-01
  weight for this iteration     100.00

 eigenvalues of (default mixing * dielectric matrix)
  average eigenvalue GAMMA=   1.9149
  2.8682  2.3107  1.0382  1.6786  1.6786

 Free energy of the ion-electron system (eV)
  ---------------------------------------------------
  alpha Z        PSCENC =         1.68866877
  Ewald energy   TEWEN  =      2629.98113996
  -Hartree energ DENC   =     -3553.12034010
  -exchange      EXHF   =         0.00000000
  -V(xc)+E(xc)   XCENC  =       -45.12471288
  PAW double counting   =      4117.25611746    -3952.37588400
  entropy T*S    EENTRO =        -0.00000000
  eigenvalues    EBANDS =      -537.58189810
  atomic energy  EATOM  =      1236.10535615
  Solvation  Ediel_sol  =         0.00000000
  ---------------------------------------------------
  free energy    TOTEN  =      -103.17155273 eV

  energy without entropy =     -103.17155273  energy(sigma->0) =     -103.17155273


--------------------------------------------------------------------------------------------------------




--------------------------------------- Iteration      1(  11)  ---------------------------------------


    POTLOK:  cpu time    1.7497: real time    1.7490
    SETDIJ:  cpu time    0.0080: real time    0.0077
     EDDAV:  cpu time    9.7105: real time    9.7081
       DOS:  cpu time    0.0010: real time    0.0005
    CHARGE:  cpu time    0.4799: real time    0.4798
    MIXING:  cpu time    0.0610: real time    0.0604
    --------------------------------------------
      LOOP:  cpu time   12.0102: real time   12.0054

 eigenvalue-minimisations  :   104
 total energy-change (2. order) : 0.5942063E-03  (-0.7684027E-03)
 number of electron      56.0000019 magnetization 
 augmentation part       -3.1183939 magnetization 

 Broyden mixing:
  rms(total) = 0.82110E-02    rms(broyden)= 0.82107E-02
  rms(prec ) = 0.14318E-01
  weight for this iteration     100.00

 eigenvalues of (default mixing * dielectric matrix)
  average eigenvalue GAMMA=   1.8458
  3.1830  2.5246  1.7404  1.7404  1.0344  0.8521

 Free energy of the ion-electron system (eV)
  ---------------------------------------------------
  alpha Z        PSCENC =         1.68866877
  Ewald energy   TEWEN  =      2629.98113996
  -Hartree energ DENC   =     -3560.45669686
  -exchange      EXHF   =         0.00000000
  -V(xc)+E(xc)   XCENC  =       -44.91307620
  PAW double counting   =      4066.87588548    -3901.94998754
  entropy T*S    EENTRO =        -0.00000000
  eigenvalues    EBANDS =      -530.50224828
  atomic energy  EATOM  =      1236.10535615
  Solvation  Ediel_sol  =         0.00000000
  ---------------------------------------------------
  free energy    TOTEN  =      -103.17095852 eV

  energy without entropy =     -103.17095852  energy(sigma->0) =     -103.17095852


--------------------------------------------------------------------------------------------------------




--------------------------------------- Iteration      1(  12)  ---------------------------------------


    POTLOK:  cpu time    1.7337: real time    1.7356
    SETDIJ:  cpu time    0.0080: real time    0.0075
     EDDAV:  cpu time    9.1436: real time    9.1402
       DOS:  cpu time    0.0010: real time    0.0007
    CHARGE:  cpu time    0.4789: real time    0.4791
    MIXING:  cpu time    0.0630: real time    0.0628
    --------------------------------------------
      LOOP:  cpu time   11.4283: real time   11.4259

 eigenvalue-minimisations  :    96
 total energy-change (2. order) :-0.3732667E-02  (-0.7217331E-04)
 number of electron      56.0000019 magnetization 
 augmentation part       -3.1180731 magnetization 

 Broyden mixing:
  rms(total) = 0.59971E-02    rms(broyden)= 0.59971E-02
  rms(prec ) = 0.10565E-01
  weight for this iteration     100.00

 eigenvalues of (default mixing * dielectric matrix)
  average eigenvalue GAMMA=   2.0432
  4.3251  2.4519  2.4519  1.5829  1.5829  0.9537  0.9537

 Free energy of the ion-electron system (eV)
  ---------------------------------------------------
  alpha Z        PSCENC =         1.68866877
  Ewald energy   TEWEN  =      2629.98113996
  -Hartree energ DENC   =     -3562.15805690
  -exchange      EXHF   =         0.00000000
  -V(xc)+E(xc)   XCENC  =       -44.88733383
  PAW double counting   =      4062.16835334    -3897.24172890
  entropy T*S    EENTRO =        -0.00000000
  eigenvalues    EBANDS =      -528.83108978
  atomic energy  EATOM  =      1236.10535615
  Solvation  Ediel_sol  =         0.00000000
  ---------------------------------------------------
  free energy    TOTEN  =      -103.17469119 eV

  energy without entropy =     -103.17469119  energy(sigma->0) =     -103.17469119


--------------------------------------------------------------------------------------------------------




--------------------------------------- Iteration      1(  13)  ---------------------------------------


    POTLOK:  cpu time    1.8117: real time    1.8131
    SETDIJ:  cpu time    0.0070: real time    0.0075
     EDDAV:  cpu time    9.6685: real time    9.6646
       DOS:  cpu time    0.0000: real time    0.0006
    CHARGE:  cpu time    0.4849: real time    0.4846
    MIXING:  cpu time    0.0660: real time    0.0663
    --------------------------------------------
      LOOP:  cpu time   12.0382: real time   12.0368

 eigenvalue-minimisations  :   104
 total energy-change (2. order) :-0.5362366E-02  (-0.2085493E-03)
 number of electron      56.0000019 magnetization 
 augmentation part       -3.1178980 magnetization 

 Broyden mixing:
  rms(total) = 0.35176E-02    rms(broyden)= 0.35174E-02
  rms(prec ) = 0.52927E-02
  weight for this iteration     100.00

 eigenvalues of (default mixing * dielectric matrix)
  average eigenvalue GAMMA=   2.1841
  5.7146  2.9026  2.3517  1.7747  1.7747  1.0709  0.9420  0.9420

 Free energy of the ion-electron system (eV)
  ---------------------------------------------------
  alpha Z        PSCENC =         1.68866877
  Ewald energy   TEWEN  =      2629.98113996
  -Hartree energ DENC   =     -3565.24869088
  -exchange      EXHF   =         0.00000000
  -V(xc)+E(xc)   XCENC  =       -44.83207348
  PAW double counting   =      4068.75261335    -3903.83352459
  entropy T*S    EENTRO =        -0.00000000
  eigenvalues    EBANDS =      -525.79354284
  atomic energy  EATOM  =      1236.10535615
  Solvation  Ediel_sol  =         0.00000000
  ---------------------------------------------------
  free energy    TOTEN  =      -103.18005356 eV

  energy without entropy =     -103.18005356  energy(sigma->0) =     -103.18005356


--------------------------------------------------------------------------------------------------------




--------------------------------------- Iteration      1(  14)  ---------------------------------------


    POTLOK:  cpu time    1.7297: real time    1.7287
    SETDIJ:  cpu time    0.0080: real time    0.0075
     EDDAV:  cpu time   10.2954: real time   10.2928
       DOS:  cpu time    0.0010: real time    0.0006
    CHARGE:  cpu time    0.4839: real time    0.4838
    MIXING:  cpu time    0.0720: real time    0.0719
    --------------------------------------------
      LOOP:  cpu time   12.5901: real time   12.5853

 eigenvalue-minimisations  :   112
 total energy-change (2. order) :-0.3365796E-02  (-0.2676077E-04)
 number of electron      56.0000019 magnetization 
 augmentation part       -3.1175005 magnetization 

 Broyden mixing:
  rms(total) = 0.17608E-02    rms(broyden)= 0.17608E-02
  rms(prec ) = 0.29589E-02
  weight for this iteration     100.00

 eigenvalues of (default mixing * dielectric matrix)
  average eigenvalue GAMMA=   2.2738
  6.4760  2.8146  2.8146  2.1424  1.6325  1.6325  1.0532  0.9493  0.9493

 Free energy of the ion-electron system (eV)
  ---------------------------------------------------
  alpha Z        PSCENC =         1.68866877
  Ewald energy   TEWEN  =      2629.98113996
  -Hartree energ DENC   =     -3566.01663958
  -exchange      EXHF   =         0.00000000
  -V(xc)+E(xc)   XCENC  =       -44.84113716
  PAW double counting   =      4066.58228525    -3901.66389282
  entropy T*S    EENTRO =        -0.00000000
  eigenvalues    EBANDS =      -525.01919993
  atomic energy  EATOM  =      1236.10535615
  Solvation  Ediel_sol  =         0.00000000
  ---------------------------------------------------
  free energy    TOTEN  =      -103.18341935 eV

  energy without entropy =     -103.18341935  energy(sigma->0) =     -103.18341935


--------------------------------------------------------------------------------------------------------




--------------------------------------- Iteration      1(  15)  ---------------------------------------


    POTLOK:  cpu time    1.7287: real time    1.7281
    SETDIJ:  cpu time    0.0070: real time    0.0075
     EDDAV:  cpu time   10.1095: real time   10.1053
       DOS:  cpu time    0.0000: real time    0.0004
    CHARGE:  cpu time    0.4859: real time    0.4847
    MIXING:  cpu time    0.0770: real time    0.0775
    --------------------------------------------
      LOOP:  cpu time   12.4081: real time   12.4035

 eigenvalue-minimisations  :   110
 total energy-change (2. order) :-0.5079273E-02  (-0.6883656E-04)
 number of electron      56.0000019 magnetization 
 augmentation part       -3.1172050 magnetization 

 Broyden mixing:
  rms(total) = 0.18299E-02    rms(broyden)= 0.18298E-02
  rms(prec ) = 0.22320E-02
  weight for this iteration     100.00

 eigenvalues of (default mixing * dielectric matrix)
  average eigenvalue GAMMA=   2.3081
  6.8164  3.8233  2.6457  2.1240  1.8318  1.8318  1.1648  0.9226  0.9603  0.9603

 Free energy of the ion-electron system (eV)
  ---------------------------------------------------
  alpha Z        PSCENC =         1.68866877
  Ewald energy   TEWEN  =      2629.98113996
  -Hartree energ DENC   =     -3566.28010341
  -exchange      EXHF   =         0.00000000
  -V(xc)+E(xc)   XCENC  =       -44.85226823
  PAW double counting   =      4071.15228777    -3906.23388033
  entropy T*S    EENTRO =        -0.00000000
  eigenvalues    EBANDS =      -524.74969931
  atomic energy  EATOM  =      1236.10535615
  Solvation  Ediel_sol  =         0.00000000
  ---------------------------------------------------
  free energy    TOTEN  =      -103.18849862 eV

  energy without entropy =     -103.18849862  energy(sigma->0) =     -103.18849862


--------------------------------------------------------------------------------------------------------




--------------------------------------- Iteration      1(  16)  ---------------------------------------


    POTLOK:  cpu time    1.7207: real time    1.7212
    SETDIJ:  cpu time    0.0080: real time    0.0079
     EDDAV:  cpu time   10.2554: real time   10.2507
       DOS:  cpu time    0.0000: real time    0.0003
    CHARGE:  cpu time    0.4849: real time    0.4843
    MIXING:  cpu time    0.0850: real time    0.0857
    --------------------------------------------
      LOOP:  cpu time   12.5541: real time   12.5501

 eigenvalue-minimisations  :   112
 total energy-change (2. order) :-0.9964986E-03  (-0.5317853E-05)
 number of electron      56.0000019 magnetization 
 augmentation part       -3.1173493 magnetization 

 Broyden mixing:
  rms(total) = 0.87440E-03    rms(broyden)= 0.87438E-03
  rms(prec ) = 0.11616E-02
  weight for this iteration     100.00

 eigenvalues of (default mixing * dielectric matrix)
  average eigenvalue GAMMA=   2.4439
  7.4781  4.7606  2.7523  2.5731  1.8396  1.8396  1.3774  1.3774  0.9875  0.9486
  0.9486

 Free energy of the ion-electron system (eV)
  ---------------------------------------------------
  alpha Z        PSCENC =         1.68866877
  Ewald energy   TEWEN  =      2629.98113996
  -Hartree energ DENC   =     -3566.37951416
  -exchange      EXHF   =         0.00000000
  -V(xc)+E(xc)   XCENC  =       -44.85078704
  PAW double counting   =      4071.26973633    -3906.35037380
  entropy T*S    EENTRO =        -0.00000000
  eigenvalues    EBANDS =      -524.65372133
  atomic energy  EATOM  =      1236.10535615
  Solvation  Ediel_sol  =         0.00000000
  ---------------------------------------------------
  free energy    TOTEN  =      -103.18949512 eV

  energy without entropy =     -103.18949512  energy(sigma->0) =     -103.18949512


--------------------------------------------------------------------------------------------------------




--------------------------------------- Iteration      1(  17)  ---------------------------------------


    POTLOK:  cpu time    1.7407: real time    1.7403
    SETDIJ:  cpu time    0.0070: real time    0.0075
     EDDAV:  cpu time    9.7295: real time    9.7262
       DOS:  cpu time    0.0010: real time    0.0002
    CHARGE:  cpu time    0.4859: real time    0.4849
    MIXING:  cpu time    0.0950: real time    0.0960
    --------------------------------------------
      LOOP:  cpu time   12.0602: real time   12.0551

 eigenvalue-minimisations  :   104
 total energy-change (2. order) :-0.1063825E-02  (-0.9703695E-05)
 number of electron      56.0000019 magnetization 
 augmentation part       -3.1175626 magnetization 

 Broyden mixing:
  rms(total) = 0.33604E-03    rms(broyden)= 0.33599E-03
  rms(prec ) = 0.46733E-03
  weight for this iteration     100.00

 eigenvalues of (default mixing * dielectric matrix)
  average eigenvalue GAMMA=   2.3705
  7.6088  5.0163  2.6840  2.6840  1.8959  1.8959  1.4493  1.4493  0.9771  0.9649
  0.9649  0.8555

 Free energy of the ion-electron system (eV)
  ---------------------------------------------------
  alpha Z        PSCENC =         1.68866877
  Ewald energy   TEWEN  =      2629.98113996
  -Hartree energ DENC   =     -3566.41491252
  -exchange      EXHF   =         0.00000000
  -V(xc)+E(xc)   XCENC  =       -44.85118336
  PAW double counting   =      4069.46864276    -3904.54781636
  entropy T*S    EENTRO =        -0.00000000
  eigenvalues    EBANDS =      -524.62045434
  atomic energy  EATOM  =      1236.10535615
  Solvation  Ediel_sol  =         0.00000000
  ---------------------------------------------------
  free energy    TOTEN  =      -103.19055895 eV

  energy without entropy =     -103.19055895  energy(sigma->0) =     -103.19055895


--------------------------------------------------------------------------------------------------------




--------------------------------------- Iteration      1(  18)  ---------------------------------------


    POTLOK:  cpu time    1.7477: real time    1.7497
    SETDIJ:  cpu time    0.0080: real time    0.0074
     EDDAV:  cpu time   10.8813: real time   10.8835
       DOS:  cpu time    0.0000: real time    0.0003
    CHARGE:  cpu time    0.4869: real time    0.4875
    MIXING:  cpu time    0.1070: real time    0.1067
    --------------------------------------------
      LOOP:  cpu time   13.2300: real time   13.2350

 eigenvalue-minimisations  :   120
 total energy-change (2. order) :-0.1884213E-03  (-0.5764860E-06)
 number of electron      56.0000019 magnetization 
 augmentation part       -3.1175764 magnetization 

 Broyden mixing:
  rms(total) = 0.22291E-03    rms(broyden)= 0.22287E-03
  rms(prec ) = 0.31604E-03
  weight for this iteration     100.00

 eigenvalues of (default mixing * dielectric matrix)
  average eigenvalue GAMMA=   2.4663
  8.1709  5.5384  3.1566  2.6340  2.1465  1.8307  1.8307  1.4203  1.4203  0.9997
  0.9997  0.9568  0.9568

 Free energy of the ion-electron system (eV)
  ---------------------------------------------------
  alpha Z        PSCENC =         1.68866877
  Ewald energy   TEWEN  =      2629.98113996
  -Hartree energ DENC   =     -3566.42107615
  -exchange      EXHF   =         0.00000000
  -V(xc)+E(xc)   XCENC  =       -44.85222874
  PAW double counting   =      4069.16897945    -3904.24859110
  entropy T*S    EENTRO =        -0.00000000
  eigenvalues    EBANDS =      -524.61299571
  atomic energy  EATOM  =      1236.10535615
  Solvation  Ediel_sol  =         0.00000000
  ---------------------------------------------------
  free energy    TOTEN  =      -103.19074737 eV

  energy without entropy =     -103.19074737  energy(sigma->0) =     -103.19074737


--------------------------------------------------------------------------------------------------------




--------------------------------------- Iteration      1(  19)  ---------------------------------------


    POTLOK:  cpu time    1.7257: real time    1.7297
    SETDIJ:  cpu time    0.0080: real time    0.0075
     EDDAV:  cpu time    9.1126: real time    9.1170
       DOS:  cpu time    0.0000: real time    0.0003
    CHARGE:  cpu time    0.4849: real time    0.4854
    MIXING:  cpu time    0.1180: real time    0.1176
    --------------------------------------------
      LOOP:  cpu time   11.4493: real time   11.4573

 eigenvalue-minimisations  :    96
 total energy-change (2. order) :-0.2164307E-03  (-0.8737372E-06)
 number of electron      56.0000019 magnetization 
 augmentation part       -3.1175883 magnetization 

 Broyden mixing:
  rms(total) = 0.17479E-03    rms(broyden)= 0.17478E-03
  rms(prec ) = 0.21407E-03
  weight for this iteration     100.00

 eigenvalues of (default mixing * dielectric matrix)
  average eigenvalue GAMMA=   2.4661
  8.2502  6.1774  3.3625  2.6799  2.3490  1.8712  1.8712  1.4999  1.4999  1.1352
  0.9845  0.9845  0.9302  0.9302

 Free energy of the ion-electron system (eV)
  ---------------------------------------------------
  alpha Z        PSCENC =         1.68866877
  Ewald energy   TEWEN  =      2629.98113996
  -Hartree energ DENC   =     -3566.44362803
  -exchange      EXHF   =         0.00000000
  -V(xc)+E(xc)   XCENC  =       -44.85107062
  PAW double counting   =      4068.73063939    -3903.81066634
  entropy T*S    EENTRO =        -0.00000000
  eigenvalues    EBANDS =      -524.59140308
  atomic energy  EATOM  =      1236.10535615
  Solvation  Ediel_sol  =         0.00000000
  ---------------------------------------------------
  free energy    TOTEN  =      -103.19096380 eV

  energy without entropy =     -103.19096380  energy(sigma->0) =     -103.19096380


--------------------------------------------------------------------------------------------------------




--------------------------------------- Iteration      1(  20)  ---------------------------------------


    POTLOK:  cpu time    1.7307: real time    1.7351
    SETDIJ:  cpu time    0.0070: real time    0.0074
     EDDAV:  cpu time    8.5547: real time    8.5537
       DOS:  cpu time    0.0000: real time    0.0003
    CHARGE:  cpu time    0.4819: real time    0.4810
    MIXING:  cpu time    0.1300: real time    0.1301
    --------------------------------------------
      LOOP:  cpu time   10.9043: real time   10.9076

 eigenvalue-minimisations  :    88
 total energy-change (2. order) :-0.4315320E-04  (-0.7688393E-07)
 number of electron      56.0000019 magnetization 
 augmentation part       -3.1175661 magnetization 

 Broyden mixing:
  rms(total) = 0.66133E-04    rms(broyden)= 0.66133E-04
  rms(prec ) = 0.92355E-04
  weight for this iteration     100.00

 eigenvalues of (default mixing * dielectric matrix)
  average eigenvalue GAMMA=   2.4925
  8.5462  6.3411  3.8565  2.8447  2.5668  1.8352  1.8352  1.6315  1.6315  1.2549
  1.2549  0.9659  0.9659  0.9675  0.8904

 Free energy of the ion-electron system (eV)
  ---------------------------------------------------
  alpha Z        PSCENC =         1.68866877
  Ewald energy   TEWEN  =      2629.98113996
  -Hartree energ DENC   =     -3566.45333496
  -exchange      EXHF   =         0.00000000
  -V(xc)+E(xc)   XCENC  =       -44.85144609
  PAW double counting   =      4068.82109381    -3903.90129027
  entropy T*S    EENTRO =        -0.00000000
  eigenvalues    EBANDS =      -524.58119432
  atomic energy  EATOM  =      1236.10535615
  Solvation  Ediel_sol  =         0.00000000
  ---------------------------------------------------
  free energy    TOTEN  =      -103.19100695 eV

  energy without entropy =     -103.19100695  energy(sigma->0) =     -103.19100695


--------------------------------------------------------------------------------------------------------




--------------------------------------- Iteration      1(  21)  ---------------------------------------


    POTLOK:  cpu time    1.7187: real time    1.7276
    SETDIJ:  cpu time    0.0080: real time    0.0079
     EDDAV:  cpu time    7.9598: real time    7.9598
       DOS:  cpu time    0.0000: real time    0.0006
    CHARGE:  cpu time    0.4819: real time    0.4815
    MIXING:  cpu time    0.1420: real time    0.1411
    --------------------------------------------
      LOOP:  cpu time   10.3104: real time   10.3184

 eigenvalue-minimisations  :    80
 total energy-change (2. order) :-0.3006844E-04  (-0.8420899E-07)
 number of electron      56.0000019 magnetization 
 augmentation part       -3.1175476 magnetization 

 Broyden mixing:
  rms(total) = 0.56271E-04    rms(broyden)= 0.56267E-04
  rms(prec ) = 0.70745E-04
  weight for this iteration     100.00

 eigenvalues of (default mixing * dielectric matrix)
  average eigenvalue GAMMA=   2.5097
  8.6040  6.6112  4.2184  3.0159  2.6508  2.2160  1.9006  1.9006  1.5271  1.5271
  1.1583  0.9579  0.9361  0.9361  0.9976  0.9976

 Free energy of the ion-electron system (eV)
  ---------------------------------------------------
  alpha Z        PSCENC =         1.68866877
  Ewald energy   TEWEN  =      2629.98113996
  -Hartree energ DENC   =     -3566.45753346
  -exchange      EXHF   =         0.00000000
  -V(xc)+E(xc)   XCENC  =       -44.85168080
  PAW double counting   =      4069.05024459    -3904.13046100
  entropy T*S    EENTRO =        -0.00000000
  eigenvalues    EBANDS =      -524.57677123
  atomic energy  EATOM  =      1236.10535615
  Solvation  Ediel_sol  =         0.00000000
  ---------------------------------------------------
  free energy    TOTEN  =      -103.19103702 eV

  energy without entropy =     -103.19103702  energy(sigma->0) =     -103.19103702


--------------------------------------------------------------------------------------------------------




--------------------------------------- Iteration      1(  22)  ---------------------------------------


    POTLOK:  cpu time    1.7217: real time    1.7217
    SETDIJ:  cpu time    0.0110: real time    0.0114
     EDDAV:  cpu time    7.9998: real time    7.9965
       DOS:  cpu time    0.0000: real time    0.0005
    CHARGE:  cpu time    0.4839: real time    0.4826
    MIXING:  cpu time    0.1530: real time    0.1531
    --------------------------------------------
      LOOP:  cpu time   10.3694: real time   10.3658

 eigenvalue-minimisations  :    80
 total energy-change (2. order) :-0.8946346E-05  (-0.2237067E-07)
 number of electron      56.0000019 magnetization 
 augmentation part       -3.1175555 magnetization 

 Broyden mixing:
  rms(total) = 0.27660E-04    rms(broyden)= 0.27660E-04
  rms(prec ) = 0.33411E-04
  weight for this iteration     100.00

 eigenvalues of (default mixing * dielectric matrix)
  average eigenvalue GAMMA=   2.4834
  8.7816  6.7017  4.5619  3.1097  2.5229  2.5229  1.8222  1.8222  1.6002  1.6002
  1.1783  1.1783  0.9612  0.9612  1.0145  0.9392  0.9392

 Free energy of the ion-electron system (eV)
  ---------------------------------------------------
  alpha Z        PSCENC =         1.68866877
  Ewald energy   TEWEN  =      2629.98113996
  -Hartree energ DENC   =     -3566.45717767
  -exchange      EXHF   =         0.00000000
  -V(xc)+E(xc)   XCENC  =       -44.85162863
  PAW double counting   =      4069.08830630    -3904.16836775
  entropy T*S    EENTRO =        -0.00000000
  eigenvalues    EBANDS =      -524.57734310
  atomic energy  EATOM  =      1236.10535615
  Solvation  Ediel_sol  =         0.00000000
  ---------------------------------------------------
  free energy    TOTEN  =      -103.19104597 eV

  energy without entropy =     -103.19104597  energy(sigma->0) =     -103.19104597


--------------------------------------------------------------------------------------------------------




--------------------------------------- Iteration      1(  23)  ---------------------------------------


    POTLOK:  cpu time    1.7177: real time    1.7297
    SETDIJ:  cpu time    0.0080: real time    0.0080
     EDDAV:  cpu time    8.5457: real time    8.5452
       DOS:  cpu time    0.0000: real time    0.0005
    CHARGE:  cpu time    0.4719: real time    0.4782
    MIXING:  cpu time    0.1680: real time    0.1680
    --------------------------------------------
      LOOP:  cpu time   10.9113: real time   10.9296

 eigenvalue-minimisations  :    88
 total energy-change (2. order) :-0.2676424E-05  (-0.4716012E-08)
 number of electron      56.0000019 magnetization 
 augmentation part       -3.1175592 magnetization 

 Broyden mixing:
  rms(total) = 0.22107E-04    rms(broyden)= 0.22107E-04
  rms(prec ) = 0.26177E-04
  weight for this iteration     100.00

 eigenvalues of (default mixing * dielectric matrix)
  average eigenvalue GAMMA=   2.5218
  8.8185  6.8236  4.7775  3.0757  3.0757  2.5698  2.1519  1.8983  1.8983  1.5461
  1.5461  1.1670  1.0877  1.0877  0.9428  0.9428  0.9915  0.9915

 Free energy of the ion-electron system (eV)
  ---------------------------------------------------
  alpha Z        PSCENC =         1.68866877
  Ewald energy   TEWEN  =      2629.98113996
  -Hartree energ DENC   =     -3566.45697390
  -exchange      EXHF   =         0.00000000
  -V(xc)+E(xc)   XCENC  =       -44.85171496
  PAW double counting   =      4068.99724672    -3904.07729888
  entropy T*S    EENTRO =        -0.00000000
  eigenvalues    EBANDS =      -524.57747250
  atomic energy  EATOM  =      1236.10535615
  Solvation  Ediel_sol  =         0.00000000
  ---------------------------------------------------
  free energy    TOTEN  =      -103.19104864 eV

  energy without entropy =     -103.19104864  energy(sigma->0) =     -103.19104864


--------------------------------------------------------------------------------------------------------




--------------------------------------- Iteration      1(  24)  ---------------------------------------


    POTLOK:  cpu time    1.7937: real time    1.7951
    SETDIJ:  cpu time    0.0090: real time    0.0113
     EDDAV:  cpu time    7.8178: real time    7.8168
       DOS:  cpu time    0.0010: real time    0.0004
    CHARGE:  cpu time    0.4749: real time    0.4804
    MIXING:  cpu time    0.1830: real time    0.1867
    --------------------------------------------
      LOOP:  cpu time   10.2794: real time   10.2906

 eigenvalue-minimisations  :    78
 total energy-change (2. order) :-0.3460782E-05  (-0.5707843E-08)
 number of electron      56.0000019 magnetization 
 augmentation part       -3.1175606 magnetization 

 Broyden mixing:
  rms(total) = 0.11235E-04    rms(broyden)= 0.11235E-04
  rms(prec ) = 0.12543E-04
  weight for this iteration     100.00

 eigenvalues of (default mixing * dielectric matrix)
  average eigenvalue GAMMA=   2.5139
  8.8405  7.0753  5.2964  3.8466  2.8475  2.5380  2.2446  1.8524  1.8524  1.5567
  1.5567  1.1750  1.1750  1.1651  0.9717  0.9717  0.9609  0.9188  0.9188

 Free energy of the ion-electron system (eV)
  ---------------------------------------------------
  alpha Z        PSCENC =         1.68866877
  Ewald energy   TEWEN  =      2629.98113996
  -Hartree energ DENC   =     -3566.45788315
  -exchange      EXHF   =         0.00000000
  -V(xc)+E(xc)   XCENC  =       -44.85165136
  PAW double counting   =      4068.94814896    -3904.02822553
  entropy T*S    EENTRO =        -0.00000000
  eigenvalues    EBANDS =      -524.57660590
  atomic energy  EATOM  =      1236.10535615
  Solvation  Ediel_sol  =         0.00000000
  ---------------------------------------------------
  free energy    TOTEN  =      -103.19105210 eV

  energy without entropy =     -103.19105210  energy(sigma->0) =     -103.19105210


--------------------------------------------------------------------------------------------------------




--------------------------------------- Iteration      1(  25)  ---------------------------------------


    POTLOK:  cpu time    1.7217: real time    1.7344
    SETDIJ:  cpu time    0.0080: real time    0.0075
     EDDAV:  cpu time    7.9508: real time    7.9476
       DOS:  cpu time    0.0010: real time    0.0004
    --------------------------------------------
      LOOP:  cpu time    9.6815: real time    9.6899

 eigenvalue-minimisations  :    80
 total energy-change (2. order) :-0.3710106E-06  (-0.9449295E-09)
 number of electron      56.0000019 magnetization 
 augmentation part       -3.1175606 magnetization 

 Free energy of the ion-electron system (eV)
  ---------------------------------------------------
  alpha Z        PSCENC =         1.68866877
  Ewald energy   TEWEN  =      2629.98113996
  -Hartree energ DENC   =     -3566.45784943
  -exchange      EXHF   =         0.00000000
  -V(xc)+E(xc)   XCENC  =       -44.85165006
  PAW double counting   =      4068.96978449    -3904.04986085
  entropy T*S    EENTRO =        -0.00000000
  eigenvalues    EBANDS =      -524.57664150
  atomic energy  EATOM  =      1236.10535615
  Solvation  Ediel_sol  =         0.00000000
  ---------------------------------------------------
  free energy    TOTEN  =      -103.19105248 eV

  energy without entropy =     -103.19105248  energy(sigma->0) =     -103.19105248


--------------------------------------------------------------------------------------------------------




 average (electrostatic) potential at core
  the test charge radii are     0.9892  1.1631  0.5201
  (the norm of the test charge is              1.0000)
       1 -93.4023       2 -93.4166       3 -93.4226       4 -93.4415       5 -93.4023
       6 -93.4415       7 -93.4165       8 -40.3989       9 -40.3989      10 -40.3929
      11 -41.0686      12 -41.0735      13 -40.7026      14 -40.6985      15 -40.7032
      16 -40.7031      17 -40.7039      18 -40.7027      19 -40.6917      20 -41.0684
      21 -41.0687      22 -40.6915      23 -40.6984      24 -40.7036      25 -41.0735
      26 -41.0685
 
 
 
 E-fermi :  -5.4306     XC(G=0):  -0.6075     alpha+bet : -0.3428


 k-point     1 :       0.0000    0.0000    0.0000
  band No.  band energies     occupation 
      1     -15.0264      2.00000
      2     -14.2518      2.00000
      3     -14.0055      2.00000
      4     -13.6463      2.00000
      5     -13.1538      2.00000
      6     -12.6869      2.00000
      7     -11.4646      2.00000
      8     -11.3437      2.00000
      9     -11.2358      2.00000
     10     -10.3412      2.00000
     11      -8.9405      2.00000
     12      -8.6276      2.00000
     13      -8.6206      2.00000
     14      -8.6138      2.00000
     15      -8.1842      2.00000
     16      -8.1752      2.00000
     17      -8.1655      2.00000
     18      -7.8643      2.00000
     19      -7.8571      2.00000
     20      -7.8498      2.00000
     21      -6.8018      2.00000
     22      -6.7788      2.00000
     23      -6.4918      2.00000
     24      -6.4767      2.00000
     25      -6.4682      2.00000
     26      -6.4103      2.00000
     27      -6.4073      2.00000
     28      -6.3991      2.00000
     29      -1.8092      0.00000
     30      -1.4601      0.00000
     31      -1.3477      0.00000
     32      -1.2266      0.00000
     33      -1.2236      0.00000
     34      -1.1212      0.00000
     35      -1.0905      0.00000
     36      -0.9879      0.00000
     37      -0.8759      0.00000
     38      -0.5543      0.00000
     39      -0.5420      0.00000
     40      -0.4452      0.00000
     41      -0.3270      0.00000
     42      -0.2225      0.00000


--------------------------------------------------------------------------------------------------------


 soft charge-density along one line, spin component           1
         0         1         2         3         4         5         6         7         8         9
 total charge-density along one line
 
 pseudopotential strength for first ion, spin component:           1
 19.614  27.372   0.001   0.003   0.001   0.003   0.005   0.003
 27.372  38.203   0.002   0.004   0.002   0.004   0.008   0.004
  0.001   0.002   4.359   0.000   0.000   8.131   0.000   0.000
  0.003   0.004   0.000   4.359   0.000   0.000   8.131   0.000
  0.001   0.002   0.000   0.000   4.359   0.000   0.000   8.131
  0.003   0.004   8.131   0.000   0.000  15.178   0.001   0.001
  0.005   0.008   0.000   8.131   0.000   0.001  15.177   0.001
  0.003   0.004   0.000   0.000   8.131   0.001   0.001  15.177
 total augmentation occupancy for first ion, spin component:           1
  5.552  -2.034   0.052  -0.341  -0.055  -0.015   0.102   0.017
 -2.034   0.808  -0.035   0.206   0.032   0.009  -0.046  -0.007
  0.052  -0.035   2.833  -0.111  -0.030  -0.614   0.038   0.009
 -0.341   0.206  -0.111   3.281   0.049   0.039  -0.774  -0.019
 -0.055   0.032  -0.030   0.049   2.840   0.009  -0.019  -0.614
 -0.015   0.009  -0.614   0.039   0.009   0.140  -0.011  -0.002
  0.102  -0.046   0.038  -0.774  -0.019  -0.011   0.186   0.006
  0.017  -0.007   0.009  -0.019  -0.614  -0.002   0.006   0.139


------------------------ aborting loop because EDIFF is reached ----------------------------------------


    CHARGE:  cpu time    0.4789: real time    0.4778
    FORLOC:  cpu time    0.1790: real time    0.1796
    FORNL :  cpu time    1.0478: real time    1.0475
    STRESS:  cpu time    7.3139: real time    7.3112
    FORCOR:  cpu time    1.7147: real time    1.7138
    FORHAR:  cpu time    0.5819: real time    0.5822
    MIXING:  cpu time    0.1920: real time    0.1921
    OFIELD:  cpu time    0.0010: real time    0.0001

  FORCE on cell =-STRESS in cart. coord.  units (eV):
  Direction    XX          YY          ZZ          XY          YZ          ZX
  --------------------------------------------------------------------------------------
  Alpha Z     1.68867     1.68867     1.68867
  Ewald     876.64706   876.62235   876.71007    -0.21850     0.02563    -0.50464
  Hartree  1189.42685  1188.13902  1188.89277    -0.47330     0.29152    -0.05921
  E(xc)    -175.58923  -175.62260  -175.65061     0.05201     0.02634    -0.02169
  Local   -2579.74311 -2578.47268 -2579.31780     0.71672    -0.29594     0.56167
  n-local   290.23303   290.50991   290.60492    -0.25292    -0.16596     0.07627
  augment   -34.41738   -34.41466   -34.41298    -0.00234    -0.00184     0.00020
  Kinetic   426.25433   426.05602   426.04456     0.10725     0.09775    -0.01275
  Fock        0.00000     0.00000     0.00000     0.00000     0.00000     0.00000
  -------------------------------------------------------------------------------------
  Total      -5.49979    -5.49397    -5.44040    -0.07108    -0.02249     0.03985
  in kB      -1.10146    -1.10029    -1.08956    -0.01423    -0.00450     0.00798
  external pressure =       -1.10 kB  Pullay stress =        0.00 kB


 VOLUME and BASIS-vectors are now :
 -----------------------------------------------------------------------------
  energy-cutoff  :      400.00
[...]
    SETDIJ:  cpu time    0.0070: real time    0.0075
     EDDAV:  cpu time   10.9113: real time   10.9301
       DOS:  cpu time    0.0010: real time    0.0005
    CHARGE:  cpu time    0.4849: real time    0.4867
    MIXING:  cpu time    0.0450: real time    0.0454
    --------------------------------------------
      LOOP:  cpu time   13.1840: real time   13.2103

 eigenvalue-minimisations  :   120
 total energy-change (2. order) :-0.6900981E-05  (-0.1867158E-04)
 number of electron      55.9999988 magnetization 
 augmentation part       -3.1165496 magnetization 

 Broyden mixing:
  rms(total) = 0.15134E-02    rms(broyden)= 0.15131E-02
  rms(prec ) = 0.16233E-02
  weight for this iteration     100.00

 eigenvalues of (default mixing * dielectric matrix)
  average eigenvalue GAMMA=   1.1767
  1.1767

 Free energy of the ion-electron system (eV)
  ---------------------------------------------------
  alpha Z        PSCENC =         1.68866877
  Ewald energy   TEWEN  =      2672.05924045
  -Hartree energ DENC   =     -3606.71405713
  -exchange      EXHF   =         0.00000000
  -V(xc)+E(xc)   XCENC  =       -43.90508035
  PAW double counting   =      4414.27606604    -4249.51209556
  entropy T*S    EENTRO =        -0.00000000
  eigenvalues    EBANDS =      -527.44338169
  atomic energy  EATOM  =      1236.10535615
  Solvation  Ediel_sol  =         0.00000000
  ---------------------------------------------------
  free energy    TOTEN  =      -103.44528333 eV

  energy without entropy =     -103.44528333  energy(sigma->0) =     -103.44528333


--------------------------------------------------------------------------------------------------------




--------------------------------------- Iteration     19(   3)  ---------------------------------------


    POTLOK:  cpu time    1.7397: real time    1.7459
    SETDIJ:  cpu time    0.0070: real time    0.0077
     EDDAV:  cpu time   10.8953: real time   10.9145
       DOS:  cpu time    0.0010: real time    0.0005
    CHARGE:  cpu time    0.4799: real time    0.4828
    MIXING:  cpu time    0.0470: real time    0.0467
    --------------------------------------------
      LOOP:  cpu time   13.1700: real time   13.1981

 eigenvalue-minimisations  :   120
 total energy-change (2. order) : 0.3244388E-05  (-0.1060721E-05)
 number of electron      55.9999988 magnetization 
 augmentation part       -3.1165977 magnetization 

 Broyden mixing:
  rms(total) = 0.75703E-03    rms(broyden)= 0.75699E-03
  rms(prec ) = 0.80402E-03
  weight for this iteration     100.00

 eigenvalues of (default mixing * dielectric matrix)
  average eigenvalue GAMMA=   1.5842
  1.0573  2.1110

 Free energy of the ion-electron system (eV)
  ---------------------------------------------------
  alpha Z        PSCENC =         1.68866877
  Ewald energy   TEWEN  =      2672.05924045
  -Hartree energ DENC   =     -3606.70621337
  -exchange      EXHF   =         0.00000000
  -V(xc)+E(xc)   XCENC  =       -43.90481077
  PAW double counting   =      4414.01165611    -4249.24735249
  entropy T*S    EENTRO =        -0.00000000
  eigenvalues    EBANDS =      -527.45182493
  atomic energy  EATOM  =      1236.10535615
  Solvation  Ediel_sol  =         0.00000000
  ---------------------------------------------------
  free energy    TOTEN  =      -103.44528008 eV

  energy without entropy =     -103.44528008  energy(sigma->0) =     -103.44528008


--------------------------------------------------------------------------------------------------------




--------------------------------------- Iteration     19(   4)  ---------------------------------------


    POTLOK:  cpu time    1.7377: real time    1.7416
    SETDIJ:  cpu time    0.0070: real time    0.0075
     EDDAV:  cpu time   10.3474: real time   10.3692
       DOS:  cpu time    0.0010: real time    0.0004
    --------------------------------------------
      LOOP:  cpu time   12.0932: real time   12.1185

 eigenvalue-minimisations  :   112
 total energy-change (2. order) : 0.4924677E-06  (-0.3320157E-06)
 number of electron      55.9999988 magnetization 
 augmentation part       -3.1165977 magnetization 

 Free energy of the ion-electron system (eV)
  ---------------------------------------------------
  alpha Z        PSCENC =         1.68866877
  Ewald energy   TEWEN  =      2672.05924045
  -Hartree energ DENC   =     -3606.70113141
  -exchange      EXHF   =         0.00000000
  -V(xc)+E(xc)   XCENC  =       -43.90473296
  PAW double counting   =      4413.72218646    -4248.95770810
  entropy T*S    EENTRO =        -0.00000000
  eigenvalues    EBANDS =      -527.45715895
  atomic energy  EATOM  =      1236.10535615
  Solvation  Ediel_sol  =         0.00000000
  ---------------------------------------------------
  free energy    TOTEN  =      -103.44527959 eV

  energy without entropy =     -103.44527959  energy(sigma->0) =     -103.44527959


--------------------------------------------------------------------------------------------------------




 average (electrostatic) potential at core
  the test charge radii are     0.9892  1.1631  0.5201
  (the norm of the test charge is              1.0000)
       1 -93.3178       2 -93.2655       3 -93.2620       4 -93.3939       5 -93.3178
       6 -93.3937       7 -93.2653       8 -40.3743       9 -40.3744      10 -40.3749
      11 -40.9769      12 -40.9770      13 -40.8837      14 -40.8344      15 -40.8341
      16 -40.8377      17 -40.8371      18 -40.8839      19 -40.8927      20 -40.9725
      21 -40.9721      22 -40.8934      23 -40.8339      24 -40.8338      25 -40.9768
      26 -40.9771
 
 
 
 E-fermi :  -5.4144     XC(G=0):  -0.6006     alpha+bet : -0.3428


 k-point     1 :       0.0000    0.0000    0.0000
  band No.  band energies     occupation 
      1     -15.0676      2.00000
      2     -14.2046      2.00000
      3     -14.0418      2.00000
      4     -13.8303      2.00000
      5     -13.1719      2.00000
      6     -12.8397      2.00000
      7     -11.5748      2.00000
      8     -11.4587      2.00000
      9     -11.3531      2.00000
     10     -10.4590      2.00000
     11      -9.0840      2.00000
     12      -8.6905      2.00000
     13      -8.6438      2.00000
     14      -8.5852      2.00000
     15      -8.2325      2.00000
     16      -8.1441      2.00000
     17      -8.0652      2.00000
     18      -7.9710      2.00000
     19      -7.9375      2.00000
     20      -7.9023      2.00000
     21      -6.8838      2.00000
     22      -6.7935      2.00000
     23      -6.5619      2.00000
     24      -6.5233      2.00000
     25      -6.4922      2.00000
     26      -6.4113      2.00000
     27      -6.4063      2.00000
     28      -6.3989      2.00000
     29      -1.7298      0.00000
     30      -1.4520      0.00000
     31      -1.3602      0.00000
     32      -1.2599      0.00000
     33      -1.2172      0.00000
     34      -1.0924      0.00000
     35      -1.0909      0.00000
     36      -0.8967      0.00000
     37      -0.7428      0.00000
     38      -0.4762      0.00000
     39      -0.3980      0.00000
     40      -0.3201      0.00000
     41      -0.2199      0.00000
     42      -0.1706      0.00000


--------------------------------------------------------------------------------------------------------


 soft charge-density along one line, spin component           1
         0         1         2         3         4         5         6         7         8         9
 total charge-density along one line
 
 pseudopotential strength for first ion, spin component:           1
 19.613  27.370   0.001   0.003   0.001   0.002   0.006   0.002
 27.370  38.200   0.002   0.004   0.002   0.003   0.008   0.003
  0.001   0.002   4.361   0.000   0.000   8.135   0.000   0.000
  0.003   0.004   0.000   4.362   0.000   0.000   8.136   0.000
  0.001   0.002   0.000   0.000   4.361   0.000   0.000   8.135
  0.002   0.003   8.135   0.000   0.000  15.186   0.000   0.001
  0.006   0.008   0.000   8.136   0.000   0.000  15.186   0.001
  0.002   0.003   0.000   0.000   8.135   0.001   0.001  15.185
 total augmentation occupancy for first ion, spin component:           1
  5.926  -2.237  -0.002  -0.468  -0.102   0.003   0.146   0.033
 -2.237   0.904  -0.012   0.267   0.053   0.001  -0.066  -0.014
 -0.002  -0.012   2.927  -0.178  -0.088  -0.643   0.057   0.025
 -0.468   0.267  -0.178   3.525   0.039   0.058  -0.848  -0.017
 -0.102   0.053  -0.088   0.039   2.994   0.025  -0.017  -0.660
  0.003   0.001  -0.643   0.058   0.025   0.148  -0.016  -0.006
  0.146  -0.066   0.057  -0.848  -0.017  -0.016   0.207   0.006
  0.033  -0.014   0.025  -0.017  -0.660  -0.006   0.006   0.152


------------------------ aborting loop because EDIFF is reached ----------------------------------------


    CHARGE:  cpu time    0.4869: real time    0.4867
    FORLOC:  cpu time    0.1700: real time    0.1722
    FORNL :  cpu time    1.0448: real time    1.0466
    STRESS:  cpu time    7.4419: real time    7.4567
    FORCOR:  cpu time    1.7187: real time    1.7223
    FORHAR:  cpu time    0.5809: real time    0.5818
    MIXING:  cpu time    0.0490: real time    0.0492
    OFIELD:  cpu time    0.0000: real time    0.0000

  FORCE on cell =-STRESS in cart. coord.  units (eV):
  Direction    XX          YY          ZZ          XY          YZ          ZX
  --------------------------------------------------------------------------------------
  Alpha Z     1.68867     1.68867     1.68867
  Ewald     895.94416   886.03898   890.07442    -1.36652     2.32593     2.33458
  Hartree  1207.59780  1197.84761  1201.25634    -0.57623     2.55231     1.87822
  E(xc)    -176.78905  -176.84588  -176.85641     0.03957     0.02887    -0.00728
  Local   -2618.81712 -2599.04619 -2606.67975     2.13424    -4.86957    -4.34876
  n-local   292.42935   292.90980   292.97231    -0.30057    -0.23562     0.04177
  augment   -34.54823   -34.54601   -34.55606     0.01316     0.00373    -0.00833
  Kinetic   431.63061   431.06389   431.27801    -0.01710     0.18688     0.15835
  Fock        0.00000     0.00000     0.00000     0.00000     0.00000     0.00000
  -------------------------------------------------------------------------------------
  Total      -0.86382    -0.88914    -0.82247    -0.07346    -0.00748     0.04856
  in kB      -0.17300    -0.17807    -0.16472    -0.01471    -0.00150     0.00972
  external pressure =       -0.17 kB  Pullay stress =        0.00 kB


 VOLUME and BASIS-vectors are now :
 -----------------------------------------------------------------------------
  energy-cutoff  :      400.00
  volume of cell :     8000.00
      direct lattice vectors                 reciprocal lattice vectors
    20.000000000  0.000000000  0.000000000     0.050000000  0.000000000  0.000000000
     0.000000000 20.000000000  0.000000000     0.000000000  0.050000000  0.000000000
     0.000000000  0.000000000 20.000000000     0.000000000  0.000000000  0.050000000

  length of vectors
    20.000000000 20.000000000 20.000000000     0.050000000  0.050000000  0.050000000


 FORCES acting on ions
    electron-ion (+dipol)            ewald-force                    non-local-force                 convergence-correction
 -----------------------------------------------------------------------------------------------
   0.118E+02 -.208E+02 0.897E+02   -.123E+02 0.203E+02 -.911E+02   0.488E+00 0.460E+00 0.148E+01   0.234E-03 -.570E-03 -.110E-02
   0.891E+02 -.547E+01 0.471E+02   -.906E+02 0.557E+01 -.478E+02   0.152E+01 -.965E-01 0.746E+00   -.284E-03 -.351E-03 -.729E-03
   -.374E+02 0.549E+02 0.770E+02   0.380E+02 -.558E+02 -.782E+02   -.609E+00 0.894E+00 0.126E+01   0.383E-03 -.606E-03 -.836E-03
   0.819E+02 0.132E+02 -.421E+02   -.836E+02 -.133E+02 0.420E+02   0.174E+01 0.135E+00 0.745E-01   -.368E-03 -.730E-03 -.726E-03
   -.504E+02 0.773E+02 -.103E+02   0.518E+02 -.782E+02 0.996E+01   -.137E+01 0.823E+00 0.321E+00   0.652E-03 -.765E-03 -.749E-03
   -.417E+02 -.724E+02 -.411E+02   0.430E+02 0.731E+02 0.420E+02   -.136E+01 -.686E+00 -.846E+00   0.954E-03 -.130E-03 -.482E-03
   -.889E+02 0.526E+01 -.473E+02   0.904E+02 -.531E+01 0.481E+02   -.149E+01 0.472E-01 -.816E+00   0.743E-03 -.346E-03 -.211E-03
   -.298E+02 -.865E+02 0.472E+02   0.300E+02 0.871E+02 -.474E+02   -.196E+00 -.583E+00 0.287E+00   0.379E-03 -.139E-03 -.614E-03
   0.299E+02 0.863E+02 -.474E+02   -.302E+02 -.869E+02 0.477E+02   0.215E+00 0.557E+00 -.324E+00   0.125E-03 -.599E-03 -.424E-03
   0.378E+02 -.553E+02 -.775E+02   -.380E+02 0.557E+02 0.780E+02   0.254E+00 -.373E+00 -.523E+00   0.181E-03 -.247E-03 -.355E-03
   0.200E+02 0.403E+02 0.555E+01   -.211E+02 -.422E+02 -.661E+01   0.114E+01 0.197E+01 0.106E+01   0.279E-04 -.111E-04 -.664E-04
   0.124E+01 0.220E+02 -.397E+02   -.931E+00 -.225E+02 0.421E+02   -.307E+00 0.542E+00 -.243E+01   0.616E-04 -.141E-03 -.518E-04
   -.274E+02 0.405E+02 -.473E+01   0.291E+02 -.430E+02 0.501E+01   -.162E+01 0.241E+01 -.280E+00   0.278E-04 -.136E-03 -.113E-03
   -.467E+02 -.395E+01 0.572E+01   0.493E+02 0.437E+01 -.694E+01   -.265E+01 -.419E+00 0.122E+01   -.166E-04 -.998E-04 0.114E-04
   -.209E+02 0.834E+01 -.417E+02   0.213E+02 -.898E+01 0.445E+02   -.418E+00 0.636E+00 -.285E+01   0.173E-03 -.342E-04 -.683E-04
   -.370E+02 0.505E+01 0.294E+02   0.396E+02 -.463E+01 -.307E+02   -.260E+01 -.417E+00 0.134E+01   -.181E-03 -.216E-03 -.229E-05
   0.862E+01 0.366E+02 0.290E+02   -.994E+01 -.389E+02 -.303E+02   0.132E+01 0.230E+01 0.130E+01   0.213E-03 0.159E-03 -.730E-04
   0.653E+01 -.998E+01 0.476E+02   -.692E+01 0.106E+02 -.504E+02   0.382E+00 -.592E+00 0.283E+01   0.940E-04 -.499E-04 -.140E-03
   -.229E+02 -.374E+02 -.217E+02   0.242E+02 0.397E+02 0.230E+02   -.136E+01 -.224E+01 -.129E+01   0.165E-03 0.667E-04 -.867E-04
   0.305E+01 -.326E+01 -.449E+02   -.278E+01 0.277E+01 0.474E+02   -.269E+00 0.489E+00 -.245E+01   0.134E-03 -.110E-03 0.144E-03
   0.242E+02 -.367E+02 -.110E+02   -.256E+02 0.388E+02 0.108E+02   0.136E+01 -.210E+01 0.189E+00   -.129E-03 0.107E-03 -.140E-03
   0.435E+02 0.701E+01 -.212E+02   -.461E+02 -.742E+01 0.224E+02   0.260E+01 0.419E+00 -.126E+01   -.100E-03 -.166E-03 -.507E-04
   0.325E+02 0.250E+02 0.238E+02   -.339E+02 -.272E+02 -.251E+02   0.142E+01 0.222E+01 0.131E+01   0.472E-04 0.540E-04 -.693E-04
   0.351E+02 -.293E+02 0.124E+02   -.367E+02 0.317E+02 -.127E+02   0.164E+01 -.243E+01 0.333E+00   -.742E-04 -.116E-03 -.133E-03
   0.125E+02 -.419E+02 0.115E+02   -.139E+02 0.440E+02 -.118E+02   0.136E+01 -.209E+01 0.255E+00   0.421E-04 -.627E-05 -.155E-03
   -.337E+02 -.202E+02 0.228E+02   0.359E+02 0.206E+02 -.239E+02   -.220E+01 -.410E+00 0.113E+01   0.196E-04 -.548E-04 -.359E-04
 -----------------------------------------------------------------------------------------------
   0.994E+00 -.146E+01 -.205E+01   0.711E-13 -.213E-13 -.142E-13   -.100E+01 0.147E+01 0.205E+01   0.350E-02 -.524E-02 -.726E-02
 
 
 POSITION                                       TOTAL-FORCE (eV/Angst)
 -----------------------------------------------------------------------------------
      9.49661     11.09039      7.71146        -0.011964      0.004468     -0.001826
      7.40064     10.77304      8.73480         0.003923      0.001539      0.001720
     10.82494      9.16496      7.94523        -0.001445      0.002332      0.003191
      7.67163     10.30056     11.02143        -0.005050      0.004240      0.006109
     11.16021      8.69685     10.22447         0.007955      0.001248      0.010159
     10.96176     12.45632     11.08248        -0.001533      0.005149      0.007089
     12.24555     10.49754     11.28301        -0.004490     -0.000682     -0.000644
     10.62420     12.93970      8.75477        -0.001173     -0.001784      0.006852
      9.02265      8.33002     11.26191        -0.002328      0.006773      0.000322
      8.80882     12.12395     12.09823         0.001349     -0.002138     -0.003059
      8.31471      7.10867     10.60291         0.006649      0.002455      0.001298
      9.21327      7.99516     12.77110        -0.000568     -0.001655     -0.002729
     11.99490      7.45776     10.36873         0.015084     -0.011794     -0.000035
     13.59340     10.71098     10.66093        -0.005046     -0.001618      0.002855
     12.45591     10.17438     12.73181         0.003047     -0.003053     -0.000928
     12.14492      9.37883      7.26779         0.001204      0.001200     -0.003770
     10.15434      7.99812      7.28511         0.000685     -0.004195     -0.000339
      9.29918     11.39457      6.25496        -0.005941     -0.001052     -0.018054
     11.66131     13.60629     11.74687         0.005068     -0.001281      0.004562
      8.97632     11.81896     13.61709        -0.005209      0.001524     -0.006743
      7.96197     13.42651     11.97912         0.007123     -0.003826      0.002963
      6.33478     10.08578     11.66948        -0.005691      0.002133     -0.003531
      6.67889      9.64049      8.06722         0.002624      0.004872      0.001936
      6.56856     12.00880      8.56658        -0.000337     -0.000787     -0.004293
      9.77744     14.23749      8.59710         0.002605     -0.001334     -0.001622
     11.99250     13.19189      8.05377        -0.006544     -0.002735     -0.001481
 -----------------------------------------------------------------------------------
    total drift:                               -0.002019      0.003174      0.000127


--------------------------------------------------------------------------------------------------------



  FREE ENERGIE OF THE ION-ELECTRON SYSTEM (eV)
  ---------------------------------------------------
  free  energy   TOTEN  =      -103.44527959 eV

  energy  without entropy=     -103.44527959  energy(sigma->0) =     -103.44527959
 
 d Force = 0.1947919E-03[ 0.984E-04, 0.291E-03]  d Energy = 0.1941914E-03 0.601E-06
 d Force = 0.3093415E+00[ 0.309E+00, 0.309E+00]  d Ewald  = 0.3093416E+00-0.266E-07


--------------------------------------------------------------------------------------------------------


    POTLOK:  cpu time    1.7417: real time    1.7463


--------------------------------------------------------------------------------------------------------


 Conjugate gradient step on ions:
 trial-energy change:   -0.000194  1 .order   -0.000195   -0.000291   -0.000098
  (g-gl).g = 0.230E-03      g.g   = 0.258E-03  gl.gl    = 0.520E-03
 g(Force)  = 0.258E-03   g(Stress)= 0.000E+00 ortho     = 0.301E-04
 gamma     =   0.44164
 trial     =   1.07260
 opt step  =   1.61994  (harmonic =   1.61994) maximal distance =0.00242108
 next E    =  -103.445305   (d E  =  -0.00022)


--------------------------------------------------------------------------------------------------------


  
 reached required accuracy - stopping structural energy minimisation
 writing wavefunctions
     LOOP+:  cpu time   62.9474: real time   63.5518
    4ORBIT:  cpu time    0.0000: real time    0.0000

 total amount of memory used by VASP MPI-rank0   131440. kBytes
=======================================================================

   base      :      30000. kBytes
   nonl-proj :      17624. kBytes
   fftplans  :      26957. kBytes
   grid      :      48673. kBytes
   one-center:         40. kBytes
   wavefun   :       8146. kBytes
 
  
  
 General timing and accounting informations for this job:
 ========================================================
  
                  Total CPU time used (sec):     2294.528
                            User time (sec):     2264.654
                          System time (sec):       29.874
                         Elapsed time (sec):     2301.561
  
                   Maximum memory used (kb):      184480.
                   Average memory used (kb):           0.
  
                          Minor page faults:      5514613
                          Major page faults:           11
                 Voluntary context switches:         3716
