 vasp.5.4.4.18Apr17-6-g9f103f2a35 (build Nov 06 2017 19:16:10) complex          
  
 executed on           IFC91_ompi date 2018.07.07  16:29:05
 running on   12 total cores
 distrk:  each k-point on   12 cores,    1 groups
 distr:  one band on NCORES_PER_BAND=   6 cores,    2 groups


--------------------------------------------------------------------------------------------------------


 INCAR:
 POTCAR:    PAW_PBE Si 05Jan2001                  
 POTCAR:    PAW_PBE Ge 05Jan2001                  
 POTCAR:    PAW_PBE H 15Jun2001                   
 POTCAR:    PAW_PBE Si 05Jan2001                  
   VRHFIN =Si: s2p2                                                             
   LEXCH  = PE                                                                  
   EATOM  =   103.0669 eV,    7.5752 Ry                                         
                                                                                
   TITEL  = PAW_PBE Si 05Jan2001                                                
   LULTRA =        F    use ultrasoft PP ?                                      
   IUNSCR =        1    unscreen: 0-lin 1-nonlin 2-no                           
   RPACOR =    1.500    partial core radius                                     
   POMASS =   28.085; ZVAL   =    4.000    mass and valenz                      
   RCORE  =    1.900    outmost cutoff radius                                   
   RWIGS  =    2.480; RWIGS  =    1.312    wigner-seitz radius (au A)           
   ENMAX  =  245.345; ENMIN  =  184.009 eV                                      
   ICORE  =        2    local potential                                         
   LCOR   =        T    correct aug charges                                     
   LPAW   =        T    paw PP                                                  
   EAUG   =  322.069                                                            
   DEXC   =    0.000                                                            
   RMAX   =    1.950    core radius for proj-oper                               
   RAUG   =    1.300    factor for augmentation sphere                          
   RDEP   =    1.993    radius for radial grids                                 
   RDEPT  =    1.837    core radius for aug-charge                              
                                                                                
   Atomic configuration                                                         
    6 entries                                                                   
     n  l   j            E        occ.                                          
     1  0  0.50     -1785.8828   2.0000                                         
     2  0  0.50      -139.4969   2.0000                                         
     2  1  1.50       -95.5546   6.0000                                         
     3  0  0.50       -10.8127   2.0000                                         
     3  1  0.50        -4.0811   2.0000                                         
     3  2  1.50        -4.0817   0.0000                                         
   Description                                                                  
     l       E           TYP  RCUT    TYP  RCUT                                 
     0    -10.8127223     23  1.900                                             
     0     -7.6451159     23  1.900                                             
     1     -4.0811372     23  1.900                                             
     1      2.4879257     23  1.900                                             
     2     -4.0817478      7  1.900                                             
  local pseudopotential read in
  partial core-charges read in
  partial kinetic energy density read in
  atomic valenz-charges read in
  non local Contribution for L=           0  read in
    real space projection operators read in
  non local Contribution for L=           0  read in
    real space projection operators read in
  non local Contribution for L=           1  read in
    real space projection operators read in
  non local Contribution for L=           1  read in
    real space projection operators read in
    PAW grid and wavefunctions read in
 
   number of l-projection  operators is LMAX  =           4
   number of lm-projection operators is LMMAX =           8
 
 POTCAR:    PAW_PBE Ge 05Jan2001                  
   VRHFIN =Ge: s2p2                                                             
   LEXCH  = PE                                                                  
   EATOM  =   104.9960 eV,    7.7170 Ry                                         
                                                                                
   TITEL  = PAW_PBE Ge 05Jan2001                                                
   LULTRA =        F    use ultrasoft PP ?                                      
   IUNSCR =        1    unscreen: 0-lin 1-nonlin 2-no                           
   RPACOR =    2.170    partial core radius                                     
   POMASS =   72.610; ZVAL   =    4.000    mass and valenz                      
   RCORE  =    2.300    outmost cutoff radius                                   
   RWIGS  =    2.300; RWIGS  =    1.217    wigner-seitz radius (au A)           
   ENMAX  =  173.807; ENMIN  =  130.355 eV                                      
   ICORE  =        3    local potential                                         
   LCOR   =        T    correct aug charges                                     
   LPAW   =        T    paw PP                                                  
   EAUG   =  385.843                                                            
   DEXC   =    0.000                                                            
   RMAX   =    2.342    core radius for proj-oper                               
   RAUG   =    1.300    factor for augmentation sphere                          
   RDEP   =    2.318    radius for radial grids                                 
   RDEPT  =    2.103    core radius for aug-charge                              
                                                                                
   Atomic configuration                                                         
   10 entries                                                                   
     n  l   j            E        occ.                                          
     1  0  0.50    -10959.8463   2.0000                                         
     2  0  0.50     -1371.6056   2.0000                                         
     2  1  1.50     -1198.4791   6.0000                                         
     3  0  0.50      -168.4733   2.0000                                         
     3  1  1.50      -115.6019   6.0000                                         
     3  2  2.50       -29.3106  10.0000                                         
     4  0  0.50       -11.7309   2.0000                                         
     4  1  0.50        -3.8952   2.0000                                         
     4  2  1.50        -4.0817   0.0000                                         
     4  3  2.50        -4.0817   0.0000                                         
   Description                                                                  
     l       E           TYP  RCUT    TYP  RCUT                                 
     0    -11.7309493     23  2.300                                             
     0     -7.4578696     23  2.300                                             
     1     -3.8952261     23  2.300                                             
     1      6.1178114     23  2.300                                             
     2     -4.0817478     23  2.300                                             
     3     -1.3605826      7  2.300                                             
  local pseudopotential read in
  partial core-charges read in
  partial kinetic energy density read in
  atomic valenz-charges read in
  non local Contribution for L=           0  read in
    real space projection operators read in
  non local Contribution for L=           0  read in
    real space projection operators read in
  non local Contribution for L=           1  read in
    real space projection operators read in
  non local Contribution for L=           1  read in
    real space projection operators read in
  non local Contribution for L=           2  read in
    real space projection operators read in
    PAW grid and wavefunctions read in
 
   number of l-projection  operators is LMAX  =           5
   number of lm-projection operators is LMMAX =          13
 
 POTCAR:    PAW_PBE H 15Jun2001                   
   VRHFIN =H: ultrasoft test                                                    
   LEXCH  = PE                                                                  
   EATOM  =    12.4884 eV,    0.9179 Ry                                         
                                                                                
   TITEL  = PAW_PBE H 15Jun2001                                                 
   LULTRA =        F    use ultrasoft PP ?                                      
   IUNSCR =        0    unscreen: 0-lin 1-nonlin 2-no                           
   RPACOR =    0.000    partial core radius                                     
   POMASS =    1.000; ZVAL   =    1.000    mass and valenz                      
   RCORE  =    1.100    outmost cutoff radius                                   
   RWIGS  =    0.700; RWIGS  =    0.370    wigner-seitz radius (au A)           
   ENMAX  =  250.000; ENMIN  =  200.000 eV                                      
   RCLOC  =    0.701    cutoff for local pot                                    
   LCOR   =        T    correct aug charges                                     
   LPAW   =        T    paw PP                                                  
   EAUG   =  400.000                                                            
   RMAX   =    1.123    core radius for proj-oper                               
   RAUG   =    1.200    factor for augmentation sphere                          
   RDEP   =    1.112    radius for radial grids                                 
   RDEPT  =    0.926    core radius for aug-charge                              
                                                                                
   Atomic configuration                                                         
    2 entries                                                                   
     n  l   j            E        occ.                                          
     1  0  0.50        -6.4927   1.0000                                         
     2  1  0.50        -3.4015   0.0000                                         
   Description                                                                  
     l       E           TYP  RCUT    TYP  RCUT                                 
     0     -6.4927494     23  1.100                                             
     0      6.8029130     23  1.100                                             
     1     -4.0817478     23  1.100                                             
  local pseudopotential read in
  atomic valenz-charges read in
  non local Contribution for L=           0  read in
    real space projection operators read in
  non local Contribution for L=           0  read in
    real space projection operators read in
  non local Contribution for L=           1  read in
    real space projection operators read in
    PAW grid and wavefunctions read in
 
   number of l-projection  operators is LMAX  =           3
   number of lm-projection operators is LMMAX =           5
 

 ----------------------------------------------------------------------------- 
|                                                                             |
|  ADVICE TO THIS USER RUNNING 'VASP/VAMP'   (HEAR YOUR MASTER'S VOICE ...):  |
|                                                                             |
|      You have a (more or less) 'large supercell' and for larger cells       |
|      it might be more efficient to use real space projection opertators     |
|      So try LREAL= Auto  in the INCAR   file.                               |
|      Mind:          For very  accurate calculation you might also keep the  |
|      reciprocal projection scheme          (i.e. LREAL=.FALSE.)             |
|                                                                             |
 ----------------------------------------------------------------------------- 

  PAW_PBE Si 05Jan2001                  :
 energy of atom  1       EATOM= -103.0669
 kinetic energy error for atom=    0.0012 (will be added to EATOM!!)
  PAW_PBE Ge 05Jan2001                  :
 energy of atom  2       EATOM= -104.9960
 kinetic energy error for atom=    0.0003 (will be added to EATOM!!)
  PAW_PBE H 15Jun2001                   :
 energy of atom  3       EATOM=  -12.4884
 kinetic energy error for atom=    0.0098 (will be added to EATOM!!)
 
 
 POSCAR: SiGeH16                                 
  positions in direct lattice
  No initial velocities read in
 exchange correlation table for  LEXCH =        8
   RHO(1)=    0.500       N(1)  =     2000
   RHO(2)=  100.500       N(2)  =     4000
 


--------------------------------------------------------------------------------------------------------


 ion  position               nearest neighbor table
   1  0.475  0.556  0.385-  18 1.55   4 2.39   2 2.39   3 2.39
   2  0.369  0.539  0.436-  23 1.55  24 1.55   5 2.39   1 2.39
   3  0.542  0.457  0.396-  17 1.55  16 1.55   6 2.39   1 2.39
   4  0.531  0.648  0.437-  25 1.55  26 1.55   8 2.39   1 2.39
   5  0.385  0.515  0.552-  22 1.55  10 2.39   9 2.39   2 2.39
   6  0.557  0.433  0.512-  13 1.55   3 2.39   7 2.39   9 2.39
   7  0.613  0.525  0.565-  15 1.55  14 1.55   8 2.39   6 2.39
   8  0.547  0.624  0.554-  19 1.55   4 2.39   7 2.39  10 2.39
   9  0.451  0.416  0.564-  12 1.55  11 1.55   5 2.39   6 2.39
  10  0.440  0.606  0.605-  20 1.55  21 1.55   5 2.39   8 2.39
  11  0.415  0.357  0.529-   9 1.55
  12  0.461  0.400  0.639-   9 1.55
  13  0.600  0.369  0.520-   6 1.55
  14  0.682  0.536  0.531-   7 1.55
  15  0.623  0.509  0.640-   7 1.55
  16  0.611  0.469  0.363-   3 1.55
  17  0.506  0.398  0.362-   3 1.55
  18  0.465  0.572  0.309-   1 1.55
  19  0.583  0.683  0.588-   8 1.55
  20  0.451  0.590  0.680-  10 1.55
  21  0.397  0.670  0.598-  10 1.55
  22  0.316  0.504  0.586-   5 1.55
  23  0.333  0.479  0.402-   2 1.55
  24  0.326  0.603  0.429-   2 1.55
  25  0.488  0.712  0.430-   4 1.55
  26  0.600  0.659  0.404-   4 1.55
 
  LATTYP: Found a simple cubic cell.
 ALAT       =    20.0000000000
  
  Lattice vectors:
  
 A1 = (  20.0000000000,   0.0000000000,   0.0000000000)
 A2 = (   0.0000000000,  20.0000000000,   0.0000000000)
 A3 = (   0.0000000000,   0.0000000000,  20.0000000000)


Analysis of symmetry for initial positions (statically):
=====================================================================
 Subroutine PRICEL returns:
 Original cell was already a primitive cell.
 

 Routine SETGRP: Setting up the symmetry group for a 
 simple cubic supercell.


 Subroutine GETGRP returns: Found  1 space group operations
 (whereof  1 operations were pure point group operations)
 out of a pool of 48 trial point group operations.


The static configuration has the point symmetry C_1 .


Analysis of symmetry for dynamics (positions and initial velocities):
=====================================================================
 Subroutine PRICEL returns:
 Original cell was already a primitive cell.
 

 Routine SETGRP: Setting up the symmetry group for a 
 simple cubic supercell.


 Subroutine GETGRP returns: Found  1 space group operations
 (whereof  1 operations were pure point group operations)
 out of a pool of 48 trial point group operations.


The dynamic configuration has the point symmetry C_1 .


 Subroutine INISYM returns: Found  1 space group operations
 (whereof  1 operations are pure point group operations),
 and found     1 'primitive' translations

 
 
 KPOINTS: Automatic mesh                          

Automatic generation of k-mesh.
Space group operators:
 irot       det(A)        alpha          n_x          n_y          n_z        tau_x        tau_y        tau_z
    1     1.000000     0.000000     1.000000     0.000000     0.000000     0.000000     0.000000     0.000000
 
 Subroutine IBZKPT returns following result:
 ===========================================
 
 Found      1 irreducible k-points:
 
 Following reciprocal coordinates:
            Coordinates               Weight
  0.000000  0.000000  0.000000      1.000000
 
 Following cartesian coordinates:
            Coordinates               Weight
  0.000000  0.000000  0.000000      1.000000
 


--------------------------------------------------------------------------------------------------------




 Dimension of arrays:
   k-points           NKPTS =      1   k-points in BZ     NKDIM =      1   number of bands    NBANDS=     42
   number of dos      NEDOS =    301   number of ions     NIONS =     26
   non local maximal  LDIM  =      5   non local SUM 2l+1 LMDIM =     13
   total plane-waves  NPLWV = 941192
   max r-space proj   IRMAX =      1   max aug-charges    IRDMAX=   6593
   dimension x,y,z NGX =    98 NGY =   98 NGZ =   98
   dimension x,y,z NGXF=   196 NGYF=  196 NGZF=  196
   support grid    NGXF=   196 NGYF=  196 NGZF=  196
   ions per type =               7   3  16
   NGX,Y,Z   is equivalent  to a cutoff of   8.15,  8.15,  8.15 a.u.
   NGXF,Y,Z  is equivalent  to a cutoff of  16.29, 16.29, 16.29 a.u.

 SYSTEM =  SiGe                                    
 POSCAR =  SiGeH16                                 

 Startparameter for this run:
   NWRITE =      2    write-flag & timer
   PREC   = normal    normal or accurate (medium, high low for compatibility)
   ISTART =      0    job   : 0-new  1-cont  2-samecut
   ICHARG =      2    charge: 1-file 2-atom 10-const
   ISPIN  =      1    spin polarized calculation?
   LNONCOLLINEAR =      F non collinear calculations
   LSORBIT =      F    spin-orbit coupling
   INIWAV =      1    electr: 0-lowe 1-rand  2-diag
   LASPH  =      F    aspherical Exc in radial PAW
   METAGGA=      F    non-selfconsistent MetaGGA calc.

 Electronic Relaxation 1
   ENCUT  =  400.0 eV  29.40 Ry    5.42 a.u.  32.61 32.61 32.61*2*pi/ulx,y,z
   ENINI  =  400.0     initial cutoff
   ENAUG  =  400.0 eV  augmentation charge cutoff
   NELM   =     60;   NELMIN=  2; NELMDL= -5     # of ELM steps 
   EDIFF  = 0.1E-05   stopping-criterion for ELM
   LREAL  =      F    real-space projection
   NLSPLINE    = F    spline interpolate recip. space projectors
   LCOMPAT=      F    compatible to vasp.4.4
   GGA_COMPAT  = T    GGA compatible to vasp.4.4-vasp.4.6
   LMAXPAW     = -100 max onsite density
   LMAXMIX     =    2 max onsite mixed and CHGCAR
   VOSKOWN=      0    Vosko Wilk Nusair interpolation
   ROPT   =    0.00000   0.00000   0.00000
 Ionic relaxation
   EDIFFG = -.2E-01   stopping-criterion for IOM
   NSW    =    200    number of steps for IOM
   NBLOCK =      1;   KBLOCK =    200    inner block; outer block 
   IBRION =      2    ionic relax: 0-MD 1-quasi-New 2-CG
   NFREE  =      1    steps in history (QN), initial steepest desc. (CG)
   ISIF   =      2    stress and relaxation
   IWAVPR =     11    prediction:  0-non 1-charg 2-wave 3-comb
   ISYM   =      2    0-nonsym 1-usesym 2-fastsym
   LCORR  =      T    Harris-Foulkes like correction to forces

   POTIM  = 0.5000    time-step for ionic-motion
   TEIN   =    0.0    initial temperature
   TEBEG  =    0.0;   TEEND  =   0.0 temperature during run
   SMASS  =  -3.00    Nose mass-parameter (am)
   estimated Nose-frequenzy (Omega)   =  0.10E-29 period in steps =****** mass=  -0.914E-26a.u.
   SCALEE = 1.0000    scale energy and forces
   NPACO  =    256;   APACO  = 16.0  distance and # of slots for P.C.
   PSTRESS=    0.0 pullay stress

  Mass of Ions in am
   POMASS =  28.09 72.61  1.00
  Ionic Valenz
   ZVAL   =   4.00  4.00  1.00
  Atomic Wigner-Seitz radii
   RWIGS  =  -1.00 -1.00 -1.00
  virtual crystal weights 
   VCA    =   1.00  1.00  1.00
   NELECT =      56.0000    total number of electrons
   NUPDOWN=      -1.0000    fix difference up-down

 DOS related values:
   EMIN   =  10.00;   EMAX   =-10.00  energy-range for DOS
   EFERMI =   0.00
   ISMEAR =     0;   SIGMA  =   0.20  broadening in eV -4-tet -1-fermi 0-gaus

 Electronic relaxation 2 (details)
   IALGO  =     38    algorithm
   LDIAG  =      T    sub-space diagonalisation (order eigenvalues)
   LSUBROT=      F    optimize rotation matrix (better conditioning)
   TURBO    =      0    0=normal 1=particle mesh
   IRESTART =      0    0=no restart 2=restart with 2 vectors
   NREBOOT  =      0    no. of reboots
   NMIN     =      0    reboot dimension
   EREF     =   0.00    reference energy to select bands
   IMIX   =      4    mixing-type and parameters
     AMIX     =   0.40;   BMIX     =  1.00
     AMIX_MAG =   1.60;   BMIX_MAG =  1.00
     AMIN     =   0.10
     WC   =   100.;   INIMIX=   1;  MIXPRE=   1;  MAXMIX= -45

 Intra band minimization:
   WEIMIN = 0.0010     energy-eigenvalue tresh-hold
   EBREAK =  0.60E-08  absolut break condition
   DEPER  =   0.30     relativ break condition  

   TIME   =   0.40     timestep for ELM

  volume/ion in A,a.u.               =     307.69      2076.41
  Fermi-wavevector in a.u.,A,eV,Ry     =   0.313166  0.591797  1.334361  0.098073
  Thomas-Fermi vector in A             =   1.193276
 
 Write flags
   LWAVE        =      T    write WAVECAR
   LDOWNSAMPLE  =      F    k-point downsampling of WAVECAR
   LCHARG       =      T    write CHGCAR
   LVTOT        =      F    write LOCPOT, total local potential
   LVHAR        =      F    write LOCPOT, Hartree potential only
   LELF         =      F    write electronic localiz. function (ELF)
   LORBIT       =      0    0 simple, 1 ext, 2 COOP (PROOUT), +10 PAW based schemes


 Dipole corrections
   LMONO  =      F    monopole corrections only (constant potential shift)
   LDIPOL =      F    correct potential (dipole corrections)
   IDIPOL =      0    1-x, 2-y, 3-z, 4-all directions 
   EPSILON=  1.0000000 bulk dielectric constant

 Exchange correlation treatment:
   GGA     =    --    GGA type
   LEXCH   =     8    internal setting for exchange type
   VOSKOWN=      0    Vosko Wilk Nusair interpolation
   LHFCALC =     F    Hartree Fock is set to
   LHFONE  =     F    Hartree Fock one center treatment
   AEXX    =    0.0000 exact exchange contribution

 Linear response parameters
   LEPSILON=     F    determine dielectric tensor
   LRPA    =     F    only Hartree local field effects (RPA)
   LNABLA  =     F    use nabla operator in PAW spheres
   LVEL    =     F    velocity operator in full k-point grid
   LINTERFAST=   F  fast interpolation
   KINTER  =     0    interpolate to denser k-point grid
   CSHIFT  =0.1000    complex shift for real part using Kramers Kronig
   OMEGAMAX=  -1.0    maximum frequency
   DEG_THRESHOLD= 0.2000000E-02 threshold for treating states as degnerate
   RTIME   =   -0.100 relaxation time in fs
  (WPLASMAI=    0.000 imaginary part of plasma frequency in eV, 0.658/RTIME)
   DFIELD  = 0.0000000 0.0000000 0.0000000 field for delta impulse in time
 
 Orbital magnetization related:
   ORBITALMAG=     F  switch on orbital magnetization
   LCHIMAG   =     F  perturbation theory with respect to B field
   DQ        =  0.001000  dq finite difference perturbation B field
   LLRAUG    =     F  two centre corrections for induced B field



--------------------------------------------------------------------------------------------------------


 conjugate gradient relaxation of ions
 charge density and potential will be updated during run
 non-spin polarized calculation
 Variant of blocked Davidson
 Davidson routine will perform the subspace rotation
 perform sub-space diagonalisation
    after iterative eigenvector-optimisation
 modified Broyden-mixing scheme, WC =      100.0
 initial mixing is a Kerker type mixing with AMIX =  0.4000 and BMIX =      1.0000
 Hartree-type preconditioning will be used
 using additional bands           14
 reciprocal scheme for non local part
 use partial core corrections
 calculate Harris-corrections to forces 
   (improved forces if not selfconsistent)
 use gradient corrections 
 use of overlap-Matrix (Vanderbilt PP)
 Gauss-broadening in eV      SIGMA  =   0.20


--------------------------------------------------------------------------------------------------------


  energy-cutoff  :      400.00
  volume of cell :     8000.00
      direct lattice vectors                 reciprocal lattice vectors
    20.000000000  0.000000000  0.000000000     0.050000000  0.000000000  0.000000000
     0.000000000 20.000000000  0.000000000     0.000000000  0.050000000  0.000000000
     0.000000000  0.000000000 20.000000000     0.000000000  0.000000000  0.050000000

  length of vectors
    20.000000000 20.000000000 20.000000000     0.050000000  0.050000000  0.050000000


 
 k-points in units of 2pi/SCALE and weight: Automatic mesh                          
   0.00000000  0.00000000  0.00000000       1.000
 
 k-points in reciprocal lattice and weights: Automatic mesh                          
   0.00000000  0.00000000  0.00000000       1.000
 
 position of ions in fractional coordinates (direct lattice) 
   0.47547100  0.55626000  0.38465300
   0.36907800  0.53906000  0.43641200
   0.54179100  0.45744600  0.39613600
   0.53111600  0.64794100  0.43749600
   0.38461900  0.51474100  0.55243500
   0.55736800  0.43311000  0.51215000
   0.61299700  0.52481700  0.56496600
   0.54669200  0.62364400  0.55351800
   0.45095700  0.41593600  0.56388300
   0.44028400  0.60643000  0.60524300
   0.41490100  0.35665000  0.52940300
   0.46117000  0.40042600  0.63910800
   0.60034800  0.36907000  0.51957800
   0.68182700  0.53600700  0.53118700
   0.62280400  0.50903400  0.64018900
   0.61080000  0.46880600  0.36278200
   0.50550800  0.39805500  0.36207700
   0.46538400  0.57201900  0.30946400
   0.58275500  0.68306700  0.58775000
   0.45052500  0.59044300  0.68036400
   0.39732000  0.67044900  0.59753500
   0.31566200  0.50359800  0.58596500
   0.33322800  0.47946500  0.40225200
   0.32629100  0.60324700  0.42912600
   0.48792300  0.71185500  0.43020800
   0.60015100  0.65882400  0.40403700
 
 position of ions in cartesian coordinates  (Angst):
   9.50942000 11.12520000  7.69306000
   7.38156000 10.78120000  8.72824000
  10.83582000  9.14892000  7.92272000
  10.62232000 12.95882000  8.74992000
   7.69238000 10.29482000 11.04870000
  11.14736000  8.66220000 10.24300000
  12.25994000 10.49634000 11.29932000
  10.93384000 12.47288000 11.07036000
   9.01914000  8.31872000 11.27766000
   8.80568000 12.12860000 12.10486000
   8.29802000  7.13300000 10.58806000
   9.22340000  8.00852000 12.78216000
  12.00696000  7.38140000 10.39156000
  13.63654000 10.72014000 10.62374000
  12.45608000 10.18068000 12.80378000
  12.21600000  9.37612000  7.25564000
  10.11016000  7.96110000  7.24154000
   9.30768000 11.44038000  6.18928000
  11.65510000 13.66134000 11.75500000
   9.01050000 11.80886000 13.60728000
   7.94640000 13.40898000 11.95070000
   6.31324000 10.07196000 11.71930000
   6.66456000  9.58930000  8.04504000
   6.52582000 12.06494000  8.58252000
   9.75846000 14.23710000  8.60416000
  12.00302000 13.17648000  8.08074000
 


--------------------------------------------------------------------------------------------------------


 k-point  1 :   0.0000 0.0000 0.0000  plane waves:  145165

 maximum and minimum number of plane-waves per node :     24209    24180

 maximum number of plane-waves:    145165
 maximum index in each direction: 
   IXMAX=   32   IYMAX=   32   IZMAX=   32
   IXMIN=  -32   IYMIN=  -32   IZMIN=  -32


 parallel 3D FFT for wavefunctions:
    minimum data exchange during FFTs selected (reduces bandwidth)
 parallel 3D FFT for charge:
    minimum data exchange during FFTs selected (reduces bandwidth)


 total amount of memory used by VASP MPI-rank0   131440. kBytes
=======================================================================

   base      :      30000. kBytes
   nonl-proj :      17624. kBytes
   fftplans  :      26957. kBytes
   grid      :      48673. kBytes
   one-center:         40. kBytes
   wavefun   :       8146. kBytes
 
     INWAV:  cpu time    0.0000: real time    0.0000
 Broyden mixing: mesh for mixing (old mesh)
   NGX = 65   NGY = 65   NGZ = 65
  (NGX  =196   NGY  =196   NGZ  =196)
  gives a total of 274625 points

 initial charge density was supplied:
 charge density of overlapping atoms calculated
 number of electron      56.0000000 magnetization 
 keeping initial charge density in first step


--------------------------------------------------------------------------------------------------------


 Maximum index for augmentation-charges          558 (set IRDMAX)


--------------------------------------------------------------------------------------------------------


 First call to EWALD:  gamma=   0.089
 Maximum number of real-space cells 3x 3x 3
 Maximum number of reciprocal cells 3x 3x 3

    FEWALD:  cpu time    0.0020: real time    0.0026


--------------------------------------- Iteration      1(   1)  ---------------------------------------


    POTLOK:  cpu time    1.7537: real time    1.7557
    SETDIJ:  cpu time    0.0080: real time    0.0083
     EDDAV:  cpu time   10.4674: real time   10.4784
       DOS:  cpu time    0.0000: real time    0.0004
    --------------------------------------------
      LOOP:  cpu time   12.2291: real time   12.2427

 eigenvalue-minimisations  :   116
 total energy-change (2. order) : 0.1984029E+03  (-0.1049870E+04)
 number of electron      56.0000000 magnetization 
 augmentation part       56.0000000 magnetization 

 Free energy of the ion-electron system (eV)
  ---------------------------------------------------
  alpha Z        PSCENC =         1.68866877
  Ewald energy   TEWEN  =      2629.98113996
  -Hartree energ DENC   =     -3443.45476224
  -exchange      EXHF   =         0.00000000
  -V(xc)+E(xc)   XCENC  =       -55.14273704
  PAW double counting   =       915.44662188     -748.97298319
  entropy T*S    EENTRO =        -0.43184892
  eigenvalues    EBANDS =      -336.81657857
  atomic energy  EATOM  =      1236.10535615
  Solvation  Ediel_sol  =         0.00000000
  ---------------------------------------------------
  free energy    TOTEN  =       198.40287680 eV

  energy without entropy =      198.83472572  energy(sigma->0) =      198.61880126


--------------------------------------------------------------------------------------------------------




--------------------------------------- Iteration      1(   2)  ---------------------------------------


     EDDAV:  cpu time   12.5161: real time   12.5179
       DOS:  cpu time    0.0000: real time    0.0003
    --------------------------------------------
      LOOP:  cpu time   12.5161: real time   12.5181

 eigenvalue-minimisations  :   144
 total energy-change (2. order) :-0.2294340E+03  (-0.2145274E+03)
 number of electron      56.0000000 magnetization 
 augmentation part       56.0000000 magnetization 

 Free energy of the ion-electron system (eV)
  ---------------------------------------------------
  alpha Z        PSCENC =         1.68866877
  Ewald energy   TEWEN  =      2629.98113996
  -Hartree energ DENC   =     -3443.45476224
  -exchange      EXHF   =         0.00000000
  -V(xc)+E(xc)   XCENC  =       -55.14273704
  PAW double counting   =       915.44662188     -748.97298319
  entropy T*S    EENTRO =        -0.00000000
  eigenvalues    EBANDS =      -566.68240531
  atomic energy  EATOM  =      1236.10535615
  Solvation  Ediel_sol  =         0.00000000
  ---------------------------------------------------
  free energy    TOTEN  =       -31.03110102 eV

  energy without entropy =      -31.03110102  energy(sigma->0) =      -31.03110102


--------------------------------------------------------------------------------------------------------




--------------------------------------- Iteration      1(   3)  ---------------------------------------


     EDDAV:  cpu time   10.5724: real time   10.5827
       DOS:  cpu time    0.0000: real time    0.0004
    --------------------------------------------
      LOOP:  cpu time   10.5724: real time   10.5831

 eigenvalue-minimisations  :   112
 total energy-change (2. order) :-0.7313455E+02  (-0.7295398E+02)
 number of electron      56.0000000 magnetization 
 augmentation part       56.0000000 magnetization 

 Free energy of the ion-electron system (eV)
  ---------------------------------------------------
  alpha Z        PSCENC =         1.68866877
  Ewald energy   TEWEN  =      2629.98113996
  -Hartree energ DENC   =     -3443.45476224
  -exchange      EXHF   =         0.00000000
  -V(xc)+E(xc)   XCENC  =       -55.14273704
  PAW double counting   =       915.44662188     -748.97298319
  entropy T*S    EENTRO =        -0.00000000
  eigenvalues    EBANDS =      -639.81695075
  atomic energy  EATOM  =      1236.10535615
  Solvation  Ediel_sol  =         0.00000000
  ---------------------------------------------------
  free energy    TOTEN  =      -104.16564646 eV

  energy without entropy =     -104.16564646  energy(sigma->0) =     -104.16564646


--------------------------------------------------------------------------------------------------------




--------------------------------------- Iteration      1(   4)  ---------------------------------------


     EDDAV:  cpu time    9.6135: real time    9.6101
       DOS:  cpu time    0.0000: real time    0.0003
    --------------------------------------------
      LOOP:  cpu time    9.6135: real time    9.6103

 eigenvalue-minimisations  :   104
 total energy-change (2. order) :-0.4089950E+01  (-0.4073668E+01)
 number of electron      56.0000000 magnetization 
 augmentation part       56.0000000 magnetization 

 Free energy of the ion-electron system (eV)
  ---------------------------------------------------
  alpha Z        PSCENC =         1.68866877
  Ewald energy   TEWEN  =      2629.98113996
  -Hartree energ DENC   =     -3443.45476224
  -exchange      EXHF   =         0.00000000
  -V(xc)+E(xc)   XCENC  =       -55.14273704
  PAW double counting   =       915.44662188     -748.97298319
  entropy T*S    EENTRO =        -0.00000000
  eigenvalues    EBANDS =      -643.90690065
  atomic energy  EATOM  =      1236.10535615
  Solvation  Ediel_sol  =         0.00000000
  ---------------------------------------------------
  free energy    TOTEN  =      -108.25559636 eV

  energy without entropy =     -108.25559636  energy(sigma->0) =     -108.25559636


--------------------------------------------------------------------------------------------------------




--------------------------------------- Iteration      1(   5)  ---------------------------------------


     EDDAV:  cpu time   12.5011: real time   12.4953
       DOS:  cpu time    0.0000: real time    0.0002
    CHARGE:  cpu time    0.4919: real time    0.4917
    MIXING:  cpu time    0.0430: real time    0.0438
    --------------------------------------------
      LOOP:  cpu time   13.0360: real time   13.0310

 eigenvalue-minimisations  :   144
 total energy-change (2. order) :-0.8644858E-01  (-0.8640574E-01)
 number of electron      56.0000032 magnetization 
 augmentation part       -3.1382230 magnetization 

 Broyden mixing:
  rms(total) = 0.15302E+01    rms(broyden)= 0.15301E+01
  rms(prec ) = 0.16265E+01
  weight for this iteration     100.00

 Free energy of the ion-electron system (eV)
  ---------------------------------------------------
  alpha Z        PSCENC =         1.68866877
  Ewald energy   TEWEN  =      2629.98113996
  -Hartree energ DENC   =     -3443.45476224
  -exchange      EXHF   =         0.00000000
  -V(xc)+E(xc)   XCENC  =       -55.14273704
  PAW double counting   =       915.44662188     -748.97298319
  entropy T*S    EENTRO =        -0.00000000
  eigenvalues    EBANDS =      -643.99334923
  atomic energy  EATOM  =      1236.10535615
  Solvation  Ediel_sol  =         0.00000000
  ---------------------------------------------------
  free energy    TOTEN  =      -108.34204494 eV

  energy without entropy =     -108.34204494  energy(sigma->0) =     -108.34204494


--------------------------------------------------------------------------------------------------------




--------------------------------------- Iteration      1(   6)  ---------------------------------------


    POTLOK:  cpu time    1.6887: real time    1.6879
    SETDIJ:  cpu time    0.0090: real time    0.0084
     EDDAV:  cpu time    9.0596: real time    9.0573
       DOS:  cpu time    0.0000: real time    0.0005
    CHARGE:  cpu time    0.4849: real time    0.4837
    MIXING:  cpu time    0.0450: real time    0.0448
    --------------------------------------------
      LOOP:  cpu time   11.2873: real time   11.2827

 eigenvalue-minimisations  :    96
 total energy-change (2. order) : 0.3258342E+01  (-0.1577843E+00)
 number of electron      56.0000030 magnetization 
 augmentation part       -3.1397031 magnetization 

 Broyden mixing:
  rms(total) = 0.88979E+00    rms(broyden)= 0.88979E+00
  rms(prec ) = 0.94833E+00
  weight for this iteration     100.00

 eigenvalues of (default mixing * dielectric matrix)
  average eigenvalue GAMMA=   2.3181
  2.3181

 Free energy of the ion-electron system (eV)
  ---------------------------------------------------
  alpha Z        PSCENC =         1.68866877
  Ewald energy   TEWEN  =      2629.98113996
  -Hartree energ DENC   =     -3475.12346643
  -exchange      EXHF   =         0.00000000
  -V(xc)+E(xc)   XCENC  =       -51.50349815
  PAW double counting   =      1887.69609399    -1721.94033256
  entropy T*S    EENTRO =        -0.00000000
  eigenvalues    EBANDS =      -611.98766463
  atomic energy  EATOM  =      1236.10535615
  Solvation  Ediel_sol  =         0.00000000
  ---------------------------------------------------
  free energy    TOTEN  =      -105.08370290 eV

  energy without entropy =     -105.08370290  energy(sigma->0) =     -105.08370290


--------------------------------------------------------------------------------------------------------




--------------------------------------- Iteration      1(   7)  ---------------------------------------


    POTLOK:  cpu time    1.6977: real time    1.6982
    SETDIJ:  cpu time    0.0090: real time    0.0085
     EDDAV:  cpu time    9.6645: real time    9.6610
       DOS:  cpu time    0.0000: real time    0.0004
    CHARGE:  cpu time    0.4889: real time    0.4890
    MIXING:  cpu time    0.0470: real time    0.0469
    --------------------------------------------
      LOOP:  cpu time   11.9072: real time   11.9040

 eigenvalue-minimisations  :   104
 total energy-change (2. order) : 0.1714151E+01  (-0.4179535E+00)
 number of electron      56.0000029 magnetization 
 augmentation part       -3.1396037 magnetization 

 Broyden mixing:
  rms(total) = 0.12353E+00    rms(broyden)= 0.12338E+00
  rms(prec ) = 0.15452E+00
  weight for this iteration     100.00

 eigenvalues of (default mixing * dielectric matrix)
  average eigenvalue GAMMA=   1.8332
  1.6612  2.0053

 Free energy of the ion-electron system (eV)
  ---------------------------------------------------
  alpha Z        PSCENC =         1.68866877
  Ewald energy   TEWEN  =      2629.98113996
  -Hartree energ DENC   =     -3531.83620696
  -exchange      EXHF   =         0.00000000
  -V(xc)+E(xc)   XCENC  =       -45.69197333
  PAW double counting   =      4073.78277509    -3908.99795969
  entropy T*S    EENTRO =        -0.00000000
  eigenvalues    EBANDS =      -558.40135183
  atomic energy  EATOM  =      1236.10535615
  Solvation  Ediel_sol  =         0.00000000
  ---------------------------------------------------
  free energy    TOTEN  =      -103.36955184 eV

  energy without entropy =     -103.36955184  energy(sigma->0) =     -103.36955184


--------------------------------------------------------------------------------------------------------




--------------------------------------- Iteration      1(   8)  ---------------------------------------


    POTLOK:  cpu time    1.6987: real time    1.6978
    SETDIJ:  cpu time    0.0070: real time    0.0075
     EDDAV:  cpu time    9.6845: real time    9.6810
       DOS:  cpu time    0.0010: real time    0.0003
    CHARGE:  cpu time    0.4819: real time    0.4867
    MIXING:  cpu time    0.0500: real time    0.0500
    --------------------------------------------
      LOOP:  cpu time   11.9232: real time   11.9234

 eigenvalue-minimisations  :   104
 total energy-change (2. order) : 0.5028716E-01  (-0.2733382E-01)
 number of electron      56.0000029 magnetization 
 augmentation part       -3.1374429 magnetization 

 Broyden mixing:
  rms(total) = 0.62808E-01    rms(broyden)= 0.62793E-01
  rms(prec ) = 0.82103E-01
  weight for this iteration     100.00

 eigenvalues of (default mixing * dielectric matrix)
  average eigenvalue GAMMA=   1.9725
  2.6129  1.6522  1.6522

 Free energy of the ion-electron system (eV)
  ---------------------------------------------------
  alpha Z        PSCENC =         1.68866877
  Ewald energy   TEWEN  =      2629.98113996
  -Hartree energ DENC   =     -3539.35074892
  -exchange      EXHF   =         0.00000000
  -V(xc)+E(xc)   XCENC  =       -45.76159972
  PAW double counting   =      4080.56495345    -3915.68911405
  entropy T*S    EENTRO =        -0.00000000
  eigenvalues    EBANDS =      -550.85792031
  atomic energy  EATOM  =      1236.10535615
  Solvation  Ediel_sol  =         0.00000000
  ---------------------------------------------------
  free energy    TOTEN  =      -103.31926467 eV

  energy without entropy =     -103.31926467  energy(sigma->0) =     -103.31926467


--------------------------------------------------------------------------------------------------------




--------------------------------------- Iteration      1(   9)  ---------------------------------------


    POTLOK:  cpu time    1.8197: real time    1.8520
    SETDIJ:  cpu time    0.0090: real time    0.0083
     EDDAV:  cpu time   11.3063: real time   11.3437
       DOS:  cpu time    0.0010: real time    0.0004
    CHARGE:  cpu time    0.4859: real time    0.4857
    MIXING:  cpu time    0.0540: real time    0.0539
    --------------------------------------------
      LOOP:  cpu time   13.6759: real time   13.7440

 eigenvalue-minimisations  :   128
 total energy-change (2. order) : 0.3483379E-01  (-0.7744019E-02)
 number of electron      56.0000029 magnetization 
 augmentation part       -3.1263087 magnetization 

 Broyden mixing:
  rms(total) = 0.34740E-01    rms(broyden)= 0.34739E-01
  rms(prec ) = 0.46189E-01
  weight for this iteration     100.00

 eigenvalues of (default mixing * dielectric matrix)
  average eigenvalue GAMMA=   1.7352
  2.4785  1.8348  1.8348  0.7928

 Free energy of the ion-electron system (eV)
  ---------------------------------------------------
  alpha Z        PSCENC =         1.68866877
  Ewald energy   TEWEN  =      2629.98113996
  -Hartree energ DENC   =     -3551.00169327
  -exchange      EXHF   =         0.00000000
  -V(xc)+E(xc)   XCENC  =       -45.09625757
  PAW double counting   =      4208.18508663    -4043.33257528
  entropy T*S    EENTRO =        -0.00000000
  eigenvalues    EBANDS =      -539.81415627
  atomic energy  EATOM  =      1236.10535615
  Solvation  Ediel_sol  =         0.00000000
  ---------------------------------------------------
  free energy    TOTEN  =      -103.28443088 eV

  energy without entropy =     -103.28443088  energy(sigma->0) =     -103.28443088


--------------------------------------------------------------------------------------------------------




--------------------------------------- Iteration      1(  10)  ---------------------------------------


    POTLOK:  cpu time    1.7107: real time    1.7103
    SETDIJ:  cpu time    0.0080: real time    0.0079
     EDDAV:  cpu time   10.2444: real time   10.2436
       DOS:  cpu time    0.0010: real time    0.0003
    CHARGE:  cpu time    0.4849: real time    0.4851
    MIXING:  cpu time    0.0550: real time    0.0549
    --------------------------------------------
      LOOP:  cpu time   12.5041: real time   12.5021

 eigenvalue-minimisations  :   112
 total energy-change (2. order) : 0.1004225E-03  (-0.2933261E-03)
 number of electron      56.0000029 magnetization 
 augmentation part       -3.1253926 magnetization 

 Broyden mixing:
  rms(total) = 0.16753E-01    rms(broyden)= 0.16753E-01
  rms(prec ) = 0.29810E-01
  weight for this iteration     100.00

 eigenvalues of (default mixing * dielectric matrix)
  average eigenvalue GAMMA=   1.8692
  2.8065  2.1489  1.0775  1.6566  1.6566

 Free energy of the ion-electron system (eV)
  ---------------------------------------------------
  alpha Z        PSCENC =         1.68866877
  Ewald energy   TEWEN  =      2629.98113996
  -Hartree energ DENC   =     -3553.10474489
  -exchange      EXHF   =         0.00000000
  -V(xc)+E(xc)   XCENC  =       -45.09232822
  PAW double counting   =      4126.26429712    -3961.36770635
  entropy T*S    EENTRO =        -0.00000000
  eigenvalues    EBANDS =      -537.75901300
  atomic energy  EATOM  =      1236.10535615
  Solvation  Ediel_sol  =         0.00000000
  ---------------------------------------------------
  free energy    TOTEN  =      -103.28433046 eV

  energy without entropy =     -103.28433046  energy(sigma->0) =     -103.28433046


--------------------------------------------------------------------------------------------------------




--------------------------------------- Iteration      1(  11)  ---------------------------------------


    POTLOK:  cpu time    1.7177: real time    1.7172
    SETDIJ:  cpu time    0.0080: real time    0.0079
     EDDAV:  cpu time    9.6175: real time    9.6553
       DOS:  cpu time    0.0000: real time    0.0002
    CHARGE:  cpu time    0.4869: real time    0.4859
    MIXING:  cpu time    0.0580: real time    0.0576
    --------------------------------------------
      LOOP:  cpu time   11.8882: real time   11.9241

 eigenvalue-minimisations  :   104
 total energy-change (2. order) : 0.6352377E-03  (-0.7169338E-03)
 number of electron      56.0000029 magnetization 
 augmentation part       -3.1245084 magnetization 

 Broyden mixing:
  rms(total) = 0.80443E-02    rms(broyden)= 0.80440E-02
  rms(prec ) = 0.14697E-01
  weight for this iteration     100.00

 eigenvalues of (default mixing * dielectric matrix)
  average eigenvalue GAMMA=   1.8424
  3.1460  2.5176  1.7363  1.7363  1.0543  0.8639

 Free energy of the ion-electron system (eV)
  ---------------------------------------------------
  alpha Z        PSCENC =         1.68866877
  Ewald energy   TEWEN  =      2629.98113996
  -Hartree energ DENC   =     -3560.10785736
  -exchange      EXHF   =         0.00000000
  -V(xc)+E(xc)   XCENC  =       -44.89036702
  PAW double counting   =      4080.43370950    -3915.49326989
  entropy T*S    EENTRO =        -0.00000000
  eigenvalues    EBANDS =      -531.00107533
  atomic energy  EATOM  =      1236.10535615
  Solvation  Ediel_sol  =         0.00000000
  ---------------------------------------------------
  free energy    TOTEN  =      -103.28369522 eV

  energy without entropy =     -103.28369522  energy(sigma->0) =     -103.28369522


--------------------------------------------------------------------------------------------------------




--------------------------------------- Iteration      1(  12)  ---------------------------------------


    POTLOK:  cpu time    1.7307: real time    1.7318
    SETDIJ:  cpu time    0.0080: real time    0.0078
     EDDAV:  cpu time    9.6865: real time    9.6834
       DOS:  cpu time    0.0000: real time    0.0003
    CHARGE:  cpu time    0.4839: real time    0.4837
    MIXING:  cpu time    0.0610: real time    0.0611
    --------------------------------------------
      LOOP:  cpu time   11.9702: real time   11.9681

 eigenvalue-minimisations  :   104
 total energy-change (2. order) :-0.4007209E-02  (-0.8665033E-04)
 number of electron      56.0000029 magnetization 
 augmentation part       -3.1242369 magnetization 

 Broyden mixing:
  rms(total) = 0.57955E-02    rms(broyden)= 0.57955E-02
  rms(prec ) = 0.10397E-01
  weight for this iteration     100.00

 eigenvalues of (default mixing * dielectric matrix)
  average eigenvalue GAMMA=   2.0333
  4.3451  2.5809  2.2336  1.5704  1.5704  0.9662  0.9662

 Free energy of the ion-electron system (eV)
  ---------------------------------------------------
  alpha Z        PSCENC =         1.68866877
  Ewald energy   TEWEN  =      2629.98113996
  -Hartree energ DENC   =     -3562.19692882
  -exchange      EXHF   =         0.00000000
  -V(xc)+E(xc)   XCENC  =       -44.85690262
  PAW double counting   =      4070.20895696    -3905.26433827
  entropy T*S    EENTRO =        -0.00000000
  eigenvalues    EBANDS =      -528.95365457
  atomic energy  EATOM  =      1236.10535615
  Solvation  Ediel_sol  =         0.00000000
  ---------------------------------------------------
  free energy    TOTEN  =      -103.28770243 eV

  energy without entropy =     -103.28770243  energy(sigma->0) =     -103.28770243


--------------------------------------------------------------------------------------------------------




--------------------------------------- Iteration      1(  13)  ---------------------------------------


    POTLOK:  cpu time    1.7217: real time    1.7218
    SETDIJ:  cpu time    0.0070: real time    0.0079
     EDDAV:  cpu time   10.2854: real time   10.2840
       DOS:  cpu time    0.0010: real time    0.0003
    CHARGE:  cpu time    0.4949: real time    0.4948
    MIXING:  cpu time    0.0650: real time    0.0652
    --------------------------------------------
      LOOP:  cpu time   12.5751: real time   12.5740

 eigenvalue-minimisations  :   112
 total energy-change (2. order) :-0.4805529E-02  (-0.2042877E-03)
 number of electron      56.0000029 magnetization 
 augmentation part       -3.1241047 magnetization 

 Broyden mixing:
  rms(total) = 0.35122E-02    rms(broyden)= 0.35121E-02
  rms(prec ) = 0.53398E-02
  weight for this iteration     100.00

 eigenvalues of (default mixing * dielectric matrix)
  average eigenvalue GAMMA=   2.1783
  5.6348  2.8665  2.3498  1.7852  1.7852  1.0958  0.9545  0.9545

 Free energy of the ion-electron system (eV)
  ---------------------------------------------------
  alpha Z        PSCENC =         1.68866877
  Ewald energy   TEWEN  =      2629.98113996
  -Hartree energ DENC   =     -3565.21551046
  -exchange      EXHF   =         0.00000000
  -V(xc)+E(xc)   XCENC  =       -44.80372977
  PAW double counting   =      4073.02179200    -3908.08295209
  entropy T*S    EENTRO =        -0.00000000
  eigenvalues    EBANDS =      -525.98727253
  atomic energy  EATOM  =      1236.10535615
  Solvation  Ediel_sol  =         0.00000000
  ---------------------------------------------------
  free energy    TOTEN  =      -103.29250796 eV

  energy without entropy =     -103.29250796  energy(sigma->0) =     -103.29250796


--------------------------------------------------------------------------------------------------------




--------------------------------------- Iteration      1(  14)  ---------------------------------------


    POTLOK:  cpu time    1.8787: real time    1.8837
    SETDIJ:  cpu time    0.0130: real time    0.0124
     EDDAV:  cpu time   10.2474: real time   10.2632
       DOS:  cpu time    0.0000: real time    0.0003
    CHARGE:  cpu time    0.4819: real time    0.4817
    MIXING:  cpu time    0.0700: real time    0.0700
    --------------------------------------------
      LOOP:  cpu time   12.6911: real time   12.7112

 eigenvalue-minimisations  :   112
 total energy-change (2. order) :-0.3955738E-02  (-0.3404455E-04)
 number of electron      56.0000029 magnetization 
 augmentation part       -3.1236354 magnetization 

 Broyden mixing:
  rms(total) = 0.16554E-02    rms(broyden)= 0.16554E-02
  rms(prec ) = 0.28754E-02
  weight for this iteration     100.00

 eigenvalues of (default mixing * dielectric matrix)
  average eigenvalue GAMMA=   2.2588
  6.4493  2.8028  2.8028  1.9678  1.6492  1.6492  1.1044  0.9518  0.9518

 Free energy of the ion-electron system (eV)
  ---------------------------------------------------
  alpha Z        PSCENC =         1.68866877
  Ewald energy   TEWEN  =      2629.98113996
  -Hartree energ DENC   =     -3566.03794333
  -exchange      EXHF   =         0.00000000
  -V(xc)+E(xc)   XCENC  =       -44.81075591
  PAW double counting   =      4073.60709233    -3908.67086736
  entropy T*S    EENTRO =        -0.00000000
  eigenvalues    EBANDS =      -525.15915430
  atomic energy  EATOM  =      1236.10535615
  Solvation  Ediel_sol  =         0.00000000
  ---------------------------------------------------
  free energy    TOTEN  =      -103.29646370 eV

  energy without entropy =     -103.29646370  energy(sigma->0) =     -103.29646370


--------------------------------------------------------------------------------------------------------




--------------------------------------- Iteration      1(  15)  ---------------------------------------


    POTLOK:  cpu time    1.7107: real time    1.7144
    SETDIJ:  cpu time    0.0090: real time    0.0084
     EDDAV:  cpu time   10.2354: real time   10.2470
       DOS:  cpu time    0.0000: real time    0.0003
    CHARGE:  cpu time    0.4809: real time    0.4833
    MIXING:  cpu time    0.0780: real time    0.0775
    --------------------------------------------
      LOOP:  cpu time   12.5141: real time   12.5310

 eigenvalue-minimisations  :   112
 total energy-change (2. order) :-0.4573928E-02  (-0.5474495E-04)
 number of electron      56.0000029 magnetization 
 augmentation part       -3.1233787 magnetization 

 Broyden mixing:
  rms(total) = 0.15767E-02    rms(broyden)= 0.15766E-02
  rms(prec ) = 0.20497E-02
  weight for this iteration     100.00

 eigenvalues of (default mixing * dielectric matrix)
  average eigenvalue GAMMA=   2.2935
  6.7073  3.7387  2.6088  2.0207  1.8811  1.8811  1.2222  0.9332  0.9712  0.9712

 Free energy of the ion-electron system (eV)
  ---------------------------------------------------
  alpha Z        PSCENC =         1.68866877
  Ewald energy   TEWEN  =      2629.98113996
  -Hartree energ DENC   =     -3566.27732177
  -exchange      EXHF   =         0.00000000
  -V(xc)+E(xc)   XCENC  =       -44.82013528
  PAW double counting   =      4078.73562591    -3913.79964185
  entropy T*S    EENTRO =        -0.00000000
  eigenvalues    EBANDS =      -524.91472952
  atomic energy  EATOM  =      1236.10535615
  Solvation  Ediel_sol  =         0.00000000
  ---------------------------------------------------
  free energy    TOTEN  =      -103.30103763 eV

  energy without entropy =     -103.30103763  energy(sigma->0) =     -103.30103763


--------------------------------------------------------------------------------------------------------




--------------------------------------- Iteration      1(  16)  ---------------------------------------


    POTLOK:  cpu time    1.7117: real time    1.7127
    SETDIJ:  cpu time    0.0120: real time    0.0128
     EDDAV:  cpu time   10.2034: real time   10.2153
       DOS:  cpu time    0.0000: real time    0.0004
    CHARGE:  cpu time    0.4839: real time    0.4833
    MIXING:  cpu time    0.0840: real time    0.0848
    --------------------------------------------
      LOOP:  cpu time   12.4951: real time   12.5094

 eigenvalue-minimisations  :   112
 total energy-change (2. order) :-0.1213458E-02  (-0.6772607E-05)
 number of electron      56.0000029 magnetization 
 augmentation part       -3.1235570 magnetization 

 Broyden mixing:
  rms(total) = 0.71775E-03    rms(broyden)= 0.71774E-03
  rms(prec ) = 0.10424E-02
  weight for this iteration     100.00

 eigenvalues of (default mixing * dielectric matrix)
  average eigenvalue GAMMA=   2.3979
  7.3268  4.5931  2.6124  2.6124  1.8050  1.8050  1.3675  1.3675  0.9544  0.9544
  0.9787

 Free energy of the ion-electron system (eV)
  ---------------------------------------------------
  alpha Z        PSCENC =         1.68866877
  Ewald energy   TEWEN  =      2629.98113996
  -Hartree energ DENC   =     -3566.38859311
  -exchange      EXHF   =         0.00000000
  -V(xc)+E(xc)   XCENC  =       -44.81951977
  PAW double counting   =      4078.40262706    -3913.46507623
  entropy T*S    EENTRO =        -0.00000000
  eigenvalues    EBANDS =      -524.80685392
  atomic energy  EATOM  =      1236.10535615
  Solvation  Ediel_sol  =         0.00000000
  ---------------------------------------------------
  free energy    TOTEN  =      -103.30225108 eV

  energy without entropy =     -103.30225108  energy(sigma->0) =     -103.30225108


--------------------------------------------------------------------------------------------------------




--------------------------------------- Iteration      1(  17)  ---------------------------------------


    POTLOK:  cpu time    1.7057: real time    1.7104
    SETDIJ:  cpu time    0.0070: real time    0.0075
     EDDAV:  cpu time    9.6735: real time    9.6870
       DOS:  cpu time    0.0010: real time    0.0004
    CHARGE:  cpu time    0.4809: real time    0.4818
    MIXING:  cpu time    0.1000: real time    0.0995
    --------------------------------------------
      LOOP:  cpu time   11.9682: real time   11.9865

 eigenvalue-minimisations  :   104
 total energy-change (2. order) :-0.1047890E-02  (-0.8462708E-05)
 number of electron      56.0000029 magnetization 
 augmentation part       -3.1237104 magnetization 

 Broyden mixing:
  rms(total) = 0.35862E-03    rms(broyden)= 0.35859E-03
  rms(prec ) = 0.49958E-03
  weight for this iteration     100.00

 eigenvalues of (default mixing * dielectric matrix)
  average eigenvalue GAMMA=   2.3820
  7.5094  4.8877  2.6417  2.6417  1.9578  1.9578  1.5165  1.5165  1.0485  0.9650
  0.9650  0.9765

 Free energy of the ion-electron system (eV)
  ---------------------------------------------------
  alpha Z        PSCENC =         1.68866877
  Ewald energy   TEWEN  =      2629.98113996
  -Hartree energ DENC   =     -3566.41702868
  -exchange      EXHF   =         0.00000000
  -V(xc)+E(xc)   XCENC  =       -44.82181102
  PAW double counting   =      4076.58398085    -3911.64528136
  entropy T*S    EENTRO =        -0.00000000
  eigenvalues    EBANDS =      -524.77832365
  atomic energy  EATOM  =      1236.10535615
  Solvation  Ediel_sol  =         0.00000000
  ---------------------------------------------------
  free energy    TOTEN  =      -103.30329897 eV

  energy without entropy =     -103.30329897  energy(sigma->0) =     -103.30329897


--------------------------------------------------------------------------------------------------------




--------------------------------------- Iteration      1(  18)  ---------------------------------------


    POTLOK:  cpu time    1.7087: real time    1.7120
    SETDIJ:  cpu time    0.0080: real time    0.0081
     EDDAV:  cpu time    9.6685: real time    9.6813
       DOS:  cpu time    0.0010: real time    0.0004
    CHARGE:  cpu time    0.4829: real time    0.4836
    MIXING:  cpu time    0.1080: real time    0.1078
    --------------------------------------------
      LOOP:  cpu time   11.9772: real time   11.9932

 eigenvalue-minimisations  :   104
 total energy-change (2. order) :-0.3052042E-03  (-0.9992140E-06)
 number of electron      56.0000029 magnetization 
 augmentation part       -3.1237027 magnetization 

 Broyden mixing:
  rms(total) = 0.19746E-03    rms(broyden)= 0.19744E-03
  rms(prec ) = 0.28697E-03
  weight for this iteration     100.00

 eigenvalues of (default mixing * dielectric matrix)
  average eigenvalue GAMMA=   2.4801
  8.1452  5.7108  3.1624  2.6064  2.3236  1.7909  1.7909  1.3961  1.3961  0.9636
  0.9636  0.9957  0.9957

 Free energy of the ion-electron system (eV)
  ---------------------------------------------------
  alpha Z        PSCENC =         1.68866877
  Ewald energy   TEWEN  =      2629.98113996
  -Hartree energ DENC   =     -3566.44085628
  -exchange      EXHF   =         0.00000000
  -V(xc)+E(xc)   XCENC  =       -44.82178327
  PAW double counting   =      4076.26299129    -3911.32482261
  entropy T*S    EENTRO =        -0.00000000
  eigenvalues    EBANDS =      -524.75429819
  atomic energy  EATOM  =      1236.10535615
  Solvation  Ediel_sol  =         0.00000000
  ---------------------------------------------------
  free energy    TOTEN  =      -103.30360418 eV

  energy without entropy =     -103.30360418  energy(sigma->0) =     -103.30360418


--------------------------------------------------------------------------------------------------------




--------------------------------------- Iteration      1(  19)  ---------------------------------------


    POTLOK:  cpu time    1.7367: real time    1.9243
    SETDIJ:  cpu time    0.0100: real time    0.0164
     EDDAV:  cpu time    9.0626: real time    9.0676
       DOS:  cpu time    0.0000: real time    0.0003
    CHARGE:  cpu time    0.4849: real time    0.4846
    MIXING:  cpu time    0.1180: real time    0.1184
    --------------------------------------------
      LOOP:  cpu time   11.4123: real time   11.6115

 eigenvalue-minimisations  :    96
 total energy-change (2. order) :-0.1796552E-03  (-0.7178235E-06)
 number of electron      56.0000029 magnetization 
 augmentation part       -3.1237403 magnetization 

 Broyden mixing:
  rms(total) = 0.19867E-03    rms(broyden)= 0.19866E-03
  rms(prec ) = 0.23801E-03
  weight for this iteration     100.00

 eigenvalues of (default mixing * dielectric matrix)
  average eigenvalue GAMMA=   2.4639
  8.2966  6.0228  3.2370  2.6964  2.0368  2.0368  1.7422  1.7422  1.6122  1.2572
  0.9818  0.9818  0.9251  0.9251

 Free energy of the ion-electron system (eV)
  ---------------------------------------------------
  alpha Z        PSCENC =         1.68866877
  Ewald energy   TEWEN  =      2629.98113996
  -Hartree energ DENC   =     -3566.45959664
  -exchange      EXHF   =         0.00000000
  -V(xc)+E(xc)   XCENC  =       -44.82033519
  PAW double counting   =      4076.16096491    -3911.22292961
  entropy T*S    EENTRO =        -0.00000000
  eigenvalues    EBANDS =      -524.73705218
  atomic energy  EATOM  =      1236.10535615
  Solvation  Ediel_sol  =         0.00000000
  ---------------------------------------------------
  free energy    TOTEN  =      -103.30378383 eV

  energy without entropy =     -103.30378383  energy(sigma->0) =     -103.30378383


--------------------------------------------------------------------------------------------------------




--------------------------------------- Iteration      1(  20)  ---------------------------------------


    POTLOK:  cpu time    1.7217: real time    1.7204
    SETDIJ:  cpu time    0.0080: real time    0.0082
     EDDAV:  cpu time    8.5297: real time    8.5304
       DOS:  cpu time    0.0010: real time    0.0003
    CHARGE:  cpu time    0.4859: real time    0.4863
    MIXING:  cpu time    0.1320: real time    0.1318
    --------------------------------------------
      LOOP:  cpu time   10.8783: real time   10.8774

 eigenvalue-minimisations  :    88
 total energy-change (2. order) :-0.5162943E-04  (-0.9201398E-07)
 number of electron      56.0000029 magnetization 
 augmentation part       -3.1237305 magnetization 

 Broyden mixing:
  rms(total) = 0.57457E-04    rms(broyden)= 0.57455E-04
  rms(prec ) = 0.85504E-04
  weight for this iteration     100.00

 eigenvalues of (default mixing * dielectric matrix)
  average eigenvalue GAMMA=   2.4986
  8.6289  6.3117  3.9001  2.7416  2.5582  1.8323  1.8323  1.7631  1.5659  1.2602
  1.2602  0.9716  0.9716  0.9762  0.9052

 Free energy of the ion-electron system (eV)
  ---------------------------------------------------
  alpha Z        PSCENC =         1.68866877
  Ewald energy   TEWEN  =      2629.98113996
  -Hartree energ DENC   =     -3566.46205908
  -exchange      EXHF   =         0.00000000
  -V(xc)+E(xc)   XCENC  =       -44.82128214
  PAW double counting   =      4075.98333746    -3911.04530871
  entropy T*S    EENTRO =        -0.00000000
  eigenvalues    EBANDS =      -524.73368788
  atomic energy  EATOM  =      1236.10535615
  Solvation  Ediel_sol  =         0.00000000
  ---------------------------------------------------
  free energy    TOTEN  =      -103.30383546 eV

  energy without entropy =     -103.30383546  energy(sigma->0) =     -103.30383546


--------------------------------------------------------------------------------------------------------




--------------------------------------- Iteration      1(  21)  ---------------------------------------


    POTLOK:  cpu time    1.7137: real time    1.7133
    SETDIJ:  cpu time    0.0080: real time    0.0083
     EDDAV:  cpu time    7.9698: real time    7.9757
       DOS:  cpu time    0.0010: real time    0.0004
    CHARGE:  cpu time    0.4749: real time    0.4900
    MIXING:  cpu time    0.1420: real time    0.1421
    --------------------------------------------
      LOOP:  cpu time   10.3094: real time   10.3298

 eigenvalue-minimisations  :    80
 total energy-change (2. order) :-0.2915032E-04  (-0.9218347E-07)
 number of electron      56.0000029 magnetization 
 augmentation part       -3.1237131 magnetization 

 Broyden mixing:
  rms(total) = 0.57123E-04    rms(broyden)= 0.57120E-04
  rms(prec ) = 0.71592E-04
  weight for this iteration     100.00

 eigenvalues of (default mixing * dielectric matrix)
  average eigenvalue GAMMA=   2.4768
  8.5139  6.5673  3.9543  2.8324  2.6378  2.0247  2.0247  1.7303  1.7303  1.4775
  1.2198  0.9993  0.9442  0.9442  1.0141  1.0141

 Free energy of the ion-electron system (eV)
  ---------------------------------------------------
  alpha Z        PSCENC =         1.68866877
  Ewald energy   TEWEN  =      2629.98113996
  -Hartree energ DENC   =     -3566.47020314
  -exchange      EXHF   =         0.00000000
  -V(xc)+E(xc)   XCENC  =       -44.82128899
  PAW double counting   =      4076.10777321    -3911.16987657
  entropy T*S    EENTRO =        -0.00000000
  eigenvalues    EBANDS =      -524.72543400
  atomic energy  EATOM  =      1236.10535615
  Solvation  Ediel_sol  =         0.00000000
  ---------------------------------------------------
  free energy    TOTEN  =      -103.30386461 eV

  energy without entropy =     -103.30386461  energy(sigma->0) =     -103.30386461


--------------------------------------------------------------------------------------------------------




--------------------------------------- Iteration      1(  22)  ---------------------------------------


    POTLOK:  cpu time    1.6787: real time    1.7172
    SETDIJ:  cpu time    0.0080: real time    0.0079
     EDDAV:  cpu time    8.5237: real time    8.5225
       DOS:  cpu time    0.0010: real time    0.0003
    CHARGE:  cpu time    0.4899: real time    0.4904
    MIXING:  cpu time    0.1530: real time    0.1529
    --------------------------------------------
      LOOP:  cpu time   10.8544: real time   10.8913

 eigenvalue-minimisations  :    88
 total energy-change (2. order) :-0.7846797E-05  (-0.1545042E-07)
 number of electron      56.0000029 magnetization 
 augmentation part       -3.1237177 magnetization 

 Broyden mixing:
  rms(total) = 0.24764E-04    rms(broyden)= 0.24763E-04
  rms(prec ) = 0.33631E-04
  weight for this iteration     100.00

 eigenvalues of (default mixing * dielectric matrix)
  average eigenvalue GAMMA=   2.5228
  8.7876  6.7719  4.6162  3.2322  2.5655  2.5655  1.8847  1.8847  1.6696  1.6696
  1.2056  1.2056  0.9657  0.9657  0.9991  0.9491  0.9491

 Free energy of the ion-electron system (eV)
  ---------------------------------------------------
  alpha Z        PSCENC =         1.68866877
  Ewald energy   TEWEN  =      2629.98113996
  -Hartree energ DENC   =     -3566.47047645
  -exchange      EXHF   =         0.00000000
  -V(xc)+E(xc)   XCENC  =       -44.82113821
  PAW double counting   =      4076.19512429    -3911.25717249
  entropy T*S    EENTRO =        -0.00000000
  eigenvalues    EBANDS =      -524.72537448
  atomic energy  EATOM  =      1236.10535615
  Solvation  Ediel_sol  =         0.00000000
  ---------------------------------------------------
  free energy    TOTEN  =      -103.30387246 eV

  energy without entropy =     -103.30387246  energy(sigma->0) =     -103.30387246


--------------------------------------------------------------------------------------------------------




--------------------------------------- Iteration      1(  23)  ---------------------------------------


    POTLOK:  cpu time    1.7057: real time    1.7052
    SETDIJ:  cpu time    0.0080: real time    0.0083
     EDDAV:  cpu time    7.9458: real time    7.9433
       DOS:  cpu time    0.0000: real time    0.0005
    CHARGE:  cpu time    0.4839: real time    0.4849
    MIXING:  cpu time    0.1670: real time    0.1654
    --------------------------------------------
      LOOP:  cpu time   10.3104: real time   10.3077

 eigenvalue-minimisations  :    80
 total energy-change (2. order) :-0.5007004E-05  (-0.1401198E-07)
 number of electron      56.0000029 magnetization 
 augmentation part       -3.1237253 magnetization 

 Broyden mixing:
  rms(total) = 0.15217E-04    rms(broyden)= 0.15217E-04
  rms(prec ) = 0.19381E-04
  weight for this iteration     100.00

 eigenvalues of (default mixing * dielectric matrix)
  average eigenvalue GAMMA=   2.4827
  8.8405  6.8083  4.7663  3.1542  2.5807  2.5807  1.9259  1.9259  1.6837  1.6837
  1.3086  1.3086  1.1222  1.1222  0.9742  0.9742  0.9542  0.9744

 Free energy of the ion-electron system (eV)
  ---------------------------------------------------
  alpha Z        PSCENC =         1.68866877
  Ewald energy   TEWEN  =      2629.98113996
  -Hartree energ DENC   =     -3566.46916737
  -exchange      EXHF   =         0.00000000
  -V(xc)+E(xc)   XCENC  =       -44.82126319
  PAW double counting   =      4076.15897798    -3911.22095076
  entropy T*S    EENTRO =        -0.00000000
  eigenvalues    EBANDS =      -524.72663900
  atomic energy  EATOM  =      1236.10535615
  Solvation  Ediel_sol  =         0.00000000
  ---------------------------------------------------
  free energy    TOTEN  =      -103.30387747 eV

  energy without entropy =     -103.30387747  energy(sigma->0) =     -103.30387747


--------------------------------------------------------------------------------------------------------




--------------------------------------- Iteration      1(  24)  ---------------------------------------


    POTLOK:  cpu time    1.7057: real time    1.7121
    SETDIJ:  cpu time    0.0070: real time    0.0076
     EDDAV:  cpu time    7.9388: real time    7.9501
       DOS:  cpu time    0.0010: real time    0.0004
    CHARGE:  cpu time    0.4499: real time    0.4816
    MIXING:  cpu time    0.1790: real time    0.1785
    --------------------------------------------
      LOOP:  cpu time   10.2814: real time   10.3302

 eigenvalue-minimisations  :    80
 total energy-change (2. order) :-0.2072049E-05  (-0.2994822E-08)
 number of electron      56.0000029 magnetization 
 augmentation part       -3.1237260 magnetization 

 Broyden mixing:
  rms(total) = 0.67331E-05    rms(broyden)= 0.67325E-05
  rms(prec ) = 0.96949E-05
  weight for this iteration     100.00

 eigenvalues of (default mixing * dielectric matrix)
  average eigenvalue GAMMA=   2.5679
  8.8714  7.1525  5.4523  3.9017  2.9782  2.5000  2.4573  1.8700  1.8700  1.6750
  1.6750  1.2329  1.2329  1.0949  0.9817  0.9817  0.9524  0.9524  0.9585

 Free energy of the ion-electron system (eV)
  ---------------------------------------------------
  alpha Z        PSCENC =         1.68866877
  Ewald energy   TEWEN  =      2629.98113996
  -Hartree energ DENC   =     -3566.47013776
  -exchange      EXHF   =         0.00000000
  -V(xc)+E(xc)   XCENC  =       -44.82125234
  PAW double counting   =      4076.10495433    -3911.16695373
  entropy T*S    EENTRO =        -0.00000000
  eigenvalues    EBANDS =      -524.72565492
  atomic energy  EATOM  =      1236.10535615
  Solvation  Ediel_sol  =         0.00000000
  ---------------------------------------------------
  free energy    TOTEN  =      -103.30387954 eV

  energy without entropy =     -103.30387954  energy(sigma->0) =     -103.30387954


--------------------------------------------------------------------------------------------------------




--------------------------------------- Iteration      1(  25)  ---------------------------------------


    POTLOK:  cpu time    1.7227: real time    1.7304
    SETDIJ:  cpu time    0.0090: real time    0.0086
     EDDAV:  cpu time    7.9388: real time    7.9377
       DOS:  cpu time    0.0010: real time    0.0004
    CHARGE:  cpu time    0.4879: real time    0.4883
    MIXING:  cpu time    0.1920: real time    0.1915
    --------------------------------------------
      LOOP:  cpu time   10.3514: real time   10.3568

 eigenvalue-minimisations  :    80
 total energy-change (2. order) :-0.1178728E-05  (-0.2036005E-08)
 number of electron      56.0000029 magnetization 
 augmentation part       -3.1237264 magnetization 

 Broyden mixing:
  rms(total) = 0.50218E-05    rms(broyden)= 0.50215E-05
  rms(prec ) = 0.61738E-05
  weight for this iteration     100.00

 eigenvalues of (default mixing * dielectric matrix)
  average eigenvalue GAMMA=   2.5477
  8.9094  7.2532  5.6470  4.0566  2.8741  2.5874  2.1265  2.1265  1.8820  1.8820
  1.6325  1.6325  1.2333  1.2333  1.0167  1.0167  0.9644  0.9644  0.9573  0.9573

 Free energy of the ion-electron system (eV)
  ---------------------------------------------------
  alpha Z        PSCENC =         1.68866877
  Ewald energy   TEWEN  =      2629.98113996
  -Hartree energ DENC   =     -3566.47061231
  -exchange      EXHF   =         0.00000000
  -V(xc)+E(xc)   XCENC  =       -44.82122396
  PAW double counting   =      4076.10180487    -3911.16381492
  entropy T*S    EENTRO =        -0.00000000
  eigenvalues    EBANDS =      -524.72519927
  atomic energy  EATOM  =      1236.10535615
  Solvation  Ediel_sol  =         0.00000000
  ---------------------------------------------------
  free energy    TOTEN  =      -103.30388072 eV

  energy without entropy =     -103.30388072  energy(sigma->0) =     -103.30388072


--------------------------------------------------------------------------------------------------------




--------------------------------------- Iteration      1(  26)  ---------------------------------------


    POTLOK:  cpu time    1.7297: real time    1.7299
    SETDIJ:  cpu time    0.0090: real time    0.0082
     EDDAV:  cpu time    6.7920: real time    6.7917
       DOS:  cpu time    0.0010: real time    0.0002
    --------------------------------------------
      LOOP:  cpu time    8.5317: real time    8.5300

 eigenvalue-minimisations  :    64
 total energy-change (2. order) :-0.3869377E-06  (-0.2666187E-09)
 number of electron      56.0000029 magnetization 
 augmentation part       -3.1237264 magnetization 

 Free energy of the ion-electron system (eV)
  ---------------------------------------------------
  alpha Z        PSCENC =         1.68866877
  Ewald energy   TEWEN  =      2629.98113996
  -Hartree energ DENC   =     -3566.47045416
  -exchange      EXHF   =         0.00000000
  -V(xc)+E(xc)   XCENC  =       -44.82125695
  PAW double counting   =      4076.10634105    -3911.16834835
  entropy T*S    EENTRO =        -0.00000000
  eigenvalues    EBANDS =      -524.72532757
  atomic energy  EATOM  =      1236.10535615
  Solvation  Ediel_sol  =         0.00000000
  ---------------------------------------------------
  free energy    TOTEN  =      -103.30388110 eV

  energy without entropy =     -103.30388110  energy(sigma->0) =     -103.30388110


--------------------------------------------------------------------------------------------------------




 average (electrostatic) potential at core
  the test charge radii are     0.9892  1.1631  0.5201
  (the norm of the test charge is              1.0000)
       1 -93.3614       2 -93.4247       3 -93.4306       4 -93.4701       5 -93.4391
       6 -93.3999       7 -93.4636       8 -40.3889       9 -40.4008      10 -40.4421
      11 -41.0712      12 -41.0754      13 -40.7007      14 -40.6923      15 -40.7013
      16 -40.7047      17 -40.7110      18 -40.7128      19 -41.0715      20 -41.0660
      21 -41.0610      22 -40.6906      23 -40.7058      24 -40.7053      25 -40.7011
      26 -40.6970
 
 
 
 E-fermi :  -5.4137     XC(G=0):  -0.6054     alpha+bet : -0.3428


 k-point     1 :       0.0000    0.0000    0.0000
  band No.  band energies     occupation 
      1     -15.1113      2.00000
      2     -14.2571      2.00000
      3     -13.9187      2.00000
      4     -13.7275      2.00000
      5     -12.9271      2.00000
      6     -12.6634      2.00000
      7     -11.6029      2.00000
      8     -11.3550      2.00000
      9     -11.2618      2.00000
     10     -10.3595      2.00000
     11      -8.9533      2.00000
     12      -8.6288      2.00000
     13      -8.6187      2.00000
     14      -8.6124      2.00000
     15      -8.1946      2.00000
     16      -8.1902      2.00000
     17      -8.1747      2.00000
     18      -7.8660      2.00000
     19      -7.8606      2.00000
     20      -7.8541      2.00000
     21      -6.7962      2.00000
     22      -6.7834      2.00000
     23      -6.4977      2.00000
     24      -6.4842      2.00000
     25      -6.4694      2.00000
     26      -6.4084      2.00000
     27      -6.3992      2.00000
     28      -6.3866      2.00000
     29      -1.7816      0.00000
     30      -1.4546      0.00000
     31      -1.3989      0.00000
     32      -1.2686      0.00000
     33      -1.1872      0.00000
     34      -1.1274      0.00000
     35      -1.0804      0.00000
     36      -0.9700      0.00000
     37      -0.8775      0.00000
     38      -0.5339      0.00000
     39      -0.5000      0.00000
     40      -0.4089      0.00000
     41      -0.3479      0.00000
     42      -0.2444      0.00000


--------------------------------------------------------------------------------------------------------


 soft charge-density along one line, spin component           1
         0         1         2         3         4         5         6         7         8         9
 total charge-density along one line
 
 pseudopotential strength for first ion, spin component:           1
 19.609  27.365  -0.001   0.002   0.000  -0.001   0.004   0.000
 27.365  38.193  -0.001   0.003   0.000  -0.001   0.005   0.001
 -0.001  -0.001   4.358  -0.000  -0.000   8.129  -0.000  -0.000
  0.002   0.003  -0.000   4.358   0.000  -0.000   8.129   0.000
  0.000   0.000  -0.000   0.000   4.358  -0.000   0.000   8.129
 -0.001  -0.001   8.129  -0.000  -0.000  15.174  -0.000  -0.000
  0.004   0.005  -0.000   8.129   0.000  -0.000  15.174   0.000
  0.000   0.001  -0.000   0.000   8.129  -0.000   0.000  15.174
 total augmentation occupancy for first ion, spin component:           1
  5.583  -2.050   0.069  -0.328  -0.044  -0.021   0.098   0.013
 -2.050   0.812  -0.042   0.200   0.027   0.010  -0.045  -0.006
  0.069  -0.042   2.869  -0.092  -0.011  -0.625   0.034   0.004
 -0.328   0.200  -0.092   3.298   0.061   0.034  -0.781  -0.022
 -0.044   0.027  -0.011   0.061   2.857   0.004  -0.022  -0.620
 -0.021   0.010  -0.625   0.034   0.004   0.142  -0.010  -0.001
  0.098  -0.045   0.034  -0.781  -0.022  -0.010   0.188   0.006
[...]
    SETDIJ:  cpu time    0.0080: real time    0.0078
     EDDAV:  cpu time   10.3094: real time   10.3099
       DOS:  cpu time    0.0010: real time    0.0003
    CHARGE:  cpu time    0.4829: real time    0.4831
    MIXING:  cpu time    0.0470: real time    0.0461
    --------------------------------------------
      LOOP:  cpu time   12.5861: real time   12.5854

 eigenvalue-minimisations  :   112
 total energy-change (2. order) :-0.2022088E-04  (-0.2911085E-04)
 number of electron      56.0000020 magnetization 
 augmentation part       -3.1206743 magnetization 

 Broyden mixing:
  rms(total) = 0.16966E-02    rms(broyden)= 0.16960E-02
  rms(prec ) = 0.18109E-02
  weight for this iteration     100.00

 eigenvalues of (default mixing * dielectric matrix)
  average eigenvalue GAMMA=   0.9916
  0.9916

 Free energy of the ion-electron system (eV)
  ---------------------------------------------------
  alpha Z        PSCENC =         1.68866877
  Ewald energy   TEWEN  =      2666.38046796
  -Hartree energ DENC   =     -3601.29766622
  -exchange      EXHF   =         0.00000000
  -V(xc)+E(xc)   XCENC  =       -43.84257055
  PAW double counting   =      4434.49850301    -4269.71569869
  entropy T*S    EENTRO =        -0.00000000
  eigenvalues    EBANDS =      -527.41588102
  atomic energy  EATOM  =      1236.10535615
  Solvation  Ediel_sol  =         0.00000000
  ---------------------------------------------------
  free energy    TOTEN  =      -103.59882060 eV

  energy without entropy =     -103.59882060  energy(sigma->0) =     -103.59882060


--------------------------------------------------------------------------------------------------------




--------------------------------------- Iteration     22(   3)  ---------------------------------------


    POTLOK:  cpu time    1.8397: real time    1.8455
    SETDIJ:  cpu time    0.0080: real time    0.0080
     EDDAV:  cpu time   10.8653: real time   10.8765
       DOS:  cpu time    0.0000: real time    0.0003
    CHARGE:  cpu time    0.4919: real time    0.4941
    MIXING:  cpu time    0.0530: real time    0.0530
    --------------------------------------------
      LOOP:  cpu time   13.2580: real time   13.2774

 eigenvalue-minimisations  :   120
 total energy-change (2. order) : 0.2385948E-05  (-0.1086888E-05)
 number of electron      56.0000020 magnetization 
 augmentation part       -3.1207077 magnetization 

 Broyden mixing:
  rms(total) = 0.97881E-03    rms(broyden)= 0.97878E-03
  rms(prec ) = 0.10388E-02
  weight for this iteration     100.00

 eigenvalues of (default mixing * dielectric matrix)
  average eigenvalue GAMMA=   1.5598
  1.0484  2.0712

 Free energy of the ion-electron system (eV)
  ---------------------------------------------------
  alpha Z        PSCENC =         1.68866877
  Ewald energy   TEWEN  =      2666.38046796
  -Hartree energ DENC   =     -3601.29735484
  -exchange      EXHF   =         0.00000000
  -V(xc)+E(xc)   XCENC  =       -43.84214864
  PAW double counting   =      4434.52602509    -4269.74315575
  entropy T*S    EENTRO =        -0.00000000
  eigenvalues    EBANDS =      -527.41667695
  atomic energy  EATOM  =      1236.10535615
  Solvation  Ediel_sol  =         0.00000000
  ---------------------------------------------------
  free energy    TOTEN  =      -103.59881821 eV

  energy without entropy =     -103.59881821  energy(sigma->0) =     -103.59881821


--------------------------------------------------------------------------------------------------------




--------------------------------------- Iteration     22(   4)  ---------------------------------------


    POTLOK:  cpu time    1.7307: real time    1.7350
    SETDIJ:  cpu time    0.0080: real time    0.0077
     EDDAV:  cpu time   10.2824: real time   10.2963
       DOS:  cpu time    0.0010: real time    0.0003
    --------------------------------------------
      LOOP:  cpu time   12.0222: real time   12.0393

 eigenvalue-minimisations  :   112
 total energy-change (2. order) : 0.3304913E-06  (-0.3932670E-06)
 number of electron      56.0000020 magnetization 
 augmentation part       -3.1207077 magnetization 

 Free energy of the ion-electron system (eV)
  ---------------------------------------------------
  alpha Z        PSCENC =         1.68866877
  Ewald energy   TEWEN  =      2666.38046796
  -Hartree energ DENC   =     -3601.29862334
  -exchange      EXHF   =         0.00000000
  -V(xc)+E(xc)   XCENC  =       -43.84184316
  PAW double counting   =      4434.58046494    -4269.79761356
  entropy T*S    EENTRO =        -0.00000000
  eigenvalues    EBANDS =      -527.41569564
  atomic energy  EATOM  =      1236.10535615
  Solvation  Ediel_sol  =         0.00000000
  ---------------------------------------------------
  free energy    TOTEN  =      -103.59881788 eV

  energy without entropy =     -103.59881788  energy(sigma->0) =     -103.59881788


--------------------------------------------------------------------------------------------------------




 average (electrostatic) potential at core
  the test charge radii are     0.9892  1.1631  0.5201
  (the norm of the test charge is              1.0000)
       1 -93.2416       2 -93.2647       3 -93.2643       4 -93.3334       5 -93.3993
       6 -93.3194       7 -93.3341       8 -40.3878       9 -40.3759      10 -40.4216
      11 -40.9707      12 -40.9724      13 -40.8876      14 -40.8356      15 -40.8379
      16 -40.8313      17 -40.8315      18 -40.8750      19 -41.0070      20 -40.9708
      21 -40.9700      22 -40.9006      23 -40.8302      24 -40.8311      25 -40.8396
      26 -40.8371
 
 
 
 E-fermi :  -5.3645     XC(G=0):  -0.6005     alpha+bet : -0.3428


 k-point     1 :       0.0000    0.0000    0.0000
  band No.  band energies     occupation 
      1     -15.0839      2.00000
      2     -14.1877      2.00000
      3     -14.0056      2.00000
      4     -13.8741      2.00000
      5     -12.9913      2.00000
      6     -12.8033      2.00000
      7     -11.6927      2.00000
      8     -11.4715      2.00000
      9     -11.3800      2.00000
     10     -10.4866      2.00000
     11      -9.0569      2.00000
     12      -8.7048      2.00000
     13      -8.6736      2.00000
     14      -8.5871      2.00000
     15      -8.2674      2.00000
     16      -8.2138      2.00000
     17      -8.0805      2.00000
     18      -7.9882      2.00000
     19      -7.9286      2.00000
     20      -7.8441      2.00000
     21      -6.8657      2.00000
     22      -6.8124      2.00000
     23      -6.5634      2.00000
     24      -6.5223      2.00000
     25      -6.4645      2.00000
     26      -6.4248      2.00000
     27      -6.3990      2.00000
     28      -6.3341      2.00000
     29      -1.7097      0.00000
     30      -1.4544      0.00000
     31      -1.3798      0.00000
     32      -1.3008      0.00000
     33      -1.1945      0.00000
     34      -1.1335      0.00000
     35      -1.0284      0.00000
     36      -0.8919      0.00000
     37      -0.7524      0.00000
     38      -0.4403      0.00000
     39      -0.3665      0.00000
     40      -0.2910      0.00000
     41      -0.2511      0.00000
     42      -0.1817      0.00000


--------------------------------------------------------------------------------------------------------


 soft charge-density along one line, spin component           1
         0         1         2         3         4         5         6         7         8         9
 total charge-density along one line
 
 pseudopotential strength for first ion, spin component:           1
 19.606  27.361  -0.001   0.002   0.000  -0.001   0.004   0.000
 27.361  38.188  -0.001   0.003   0.000  -0.001   0.006   0.000
 -0.001  -0.001   4.361  -0.000  -0.000   8.135  -0.000  -0.000
  0.002   0.003  -0.000   4.361   0.000  -0.000   8.136   0.000
  0.000   0.000  -0.000   0.000   4.361  -0.000   0.000   8.135
 -0.001  -0.001   8.135  -0.000  -0.000  15.184  -0.000  -0.000
  0.004   0.006  -0.000   8.136   0.000  -0.000  15.186   0.000
  0.000   0.000  -0.000   0.000   8.135  -0.000   0.000  15.184
 total augmentation occupancy for first ion, spin component:           1
  6.080  -2.321   0.082  -0.421  -0.054  -0.026   0.131   0.016
 -2.321   0.942  -0.047   0.246   0.032   0.012  -0.061  -0.008
  0.082  -0.047   3.059  -0.098  -0.010  -0.681   0.035   0.004
 -0.421   0.246  -0.098   3.572   0.083   0.035  -0.865  -0.030
 -0.054   0.032  -0.010   0.083   3.053   0.004  -0.030  -0.679
 -0.026   0.012  -0.681   0.035   0.004   0.158  -0.010  -0.001
  0.131  -0.061   0.035  -0.865  -0.030  -0.010   0.212   0.009
  0.016  -0.008   0.004  -0.030  -0.679  -0.001   0.009   0.157


------------------------ aborting loop because EDIFF is reached ----------------------------------------


    CHARGE:  cpu time    0.4809: real time    0.4830
    FORLOC:  cpu time    0.1730: real time    0.1721
    FORNL :  cpu time    1.0528: real time    1.0542
    STRESS:  cpu time    7.6298: real time    7.6402
    FORCOR:  cpu time    1.7007: real time    1.7079
    FORHAR:  cpu time    0.5789: real time    0.5796
    MIXING:  cpu time    0.0480: real time    0.0486
    OFIELD:  cpu time    0.0000: real time    0.0000

  FORCE on cell =-STRESS in cart. coord.  units (eV):
  Direction    XX          YY          ZZ          XY          YZ          ZX
  --------------------------------------------------------------------------------------
  Alpha Z     1.68867     1.68867     1.68867
  Ewald     893.99534   885.19314   887.19030    -2.18299    -1.79100     0.93433
  Hartree  1206.54195  1196.58832  1198.17350    -2.40099    -1.94791    -0.24537
  E(xc)    -176.76262  -176.91025  -176.92977    -0.00884    -0.02057    -0.07298
  Local   -2615.64627 -2596.70240 -2600.54053     4.50053     3.77637    -0.75613
  n-local   291.53869   292.26657   292.47480     0.20168     0.13027     0.32309
  augment   -34.52205   -34.48435   -34.50634    -0.01252     0.00482     0.01185
  Kinetic   432.24506   431.42588   431.59302    -0.12587    -0.17660    -0.15226
  Fock        0.00000     0.00000     0.00000     0.00000     0.00000     0.00000
  -------------------------------------------------------------------------------------
  Total      -0.92123    -0.93441    -0.85636    -0.02899    -0.02462     0.04253
  in kB      -0.18450    -0.18714    -0.17151    -0.00581    -0.00493     0.00852
  external pressure =       -0.18 kB  Pullay stress =        0.00 kB


 VOLUME and BASIS-vectors are now :
 -----------------------------------------------------------------------------
  energy-cutoff  :      400.00
  volume of cell :     8000.00
      direct lattice vectors                 reciprocal lattice vectors
    20.000000000  0.000000000  0.000000000     0.050000000  0.000000000  0.000000000
     0.000000000 20.000000000  0.000000000     0.000000000  0.050000000  0.000000000
     0.000000000  0.000000000 20.000000000     0.000000000  0.000000000  0.050000000

  length of vectors
    20.000000000 20.000000000 20.000000000     0.050000000  0.050000000  0.050000000


 FORCES acting on ions
    electron-ion (+dipol)            ewald-force                    non-local-force                 convergence-correction
 -----------------------------------------------------------------------------------------------
   0.126E+02 -.191E+02 0.897E+02   -.127E+02 0.193E+02 -.909E+02   0.111E+00 -.260E+00 0.117E+01   -.181E-02 0.391E-03 -.121E-02
   0.890E+02 -.567E+01 0.467E+02   -.905E+02 0.572E+01 -.475E+02   0.156E+01 -.468E-01 0.775E+00   -.133E-03 0.296E-03 -.330E-03
   -.375E+02 0.546E+02 0.766E+02   0.381E+02 -.556E+02 -.779E+02   -.607E+00 0.973E+00 0.128E+01   -.107E-02 -.383E-03 -.133E-03
   -.297E+02 -.850E+02 0.438E+02   0.301E+02 0.865E+02 -.454E+02   -.337E+00 -.150E+01 0.152E+01   -.125E-02 0.701E-03 0.568E-04
   0.816E+02 0.135E+02 -.424E+02   -.834E+02 -.136E+02 0.423E+02   0.172E+01 0.736E-01 0.116E+00   -.158E-03 0.333E-03 0.358E-03
   -.501E+02 0.775E+02 -.107E+02   0.515E+02 -.783E+02 0.103E+02   -.139E+01 0.728E+00 0.329E+00   0.269E-03 -.759E-03 0.188E-02
   -.874E+02 0.308E+01 -.474E+02   0.893E+02 -.388E+01 0.483E+02   -.188E+01 0.793E+00 -.844E+00   -.176E-03 -.565E-03 0.207E-02
   -.431E+02 -.727E+02 -.434E+02   0.436E+02 0.731E+02 0.433E+02   -.539E+00 -.353E+00 0.341E-01   -.249E-03 0.279E-03 0.188E-02
   0.296E+02 0.854E+02 -.475E+02   -.298E+02 -.860E+02 0.478E+02   0.231E+00 0.611E+00 -.335E+00   0.316E-03 -.975E-04 0.878E-03
   0.359E+02 -.554E+02 -.767E+02   -.365E+02 0.557E+02 0.774E+02   0.587E+00 -.294E+00 -.671E+00   0.136E-03 0.151E-03 0.815E-03
   0.200E+02 0.403E+02 0.560E+01   -.211E+02 -.422E+02 -.666E+01   0.114E+01 0.197E+01 0.106E+01   -.109E-04 -.414E-04 0.163E-03
   0.125E+01 0.220E+02 -.396E+02   -.948E+00 -.225E+02 0.421E+02   -.301E+00 0.553E+00 -.243E+01   0.144E-03 -.447E-05 0.618E-04
   -.269E+02 0.408E+02 -.439E+01   0.285E+02 -.432E+02 0.464E+01   -.158E+01 0.243E+01 -.249E+00   0.372E-04 -.130E-03 0.396E-03
   -.464E+02 -.385E+01 0.560E+01   0.491E+02 0.426E+01 -.681E+01   -.266E+01 -.413E+00 0.122E+01   -.818E-04 -.120E-03 0.457E-03
   -.205E+02 0.788E+01 -.416E+02   0.209E+02 -.849E+01 0.445E+02   -.403E+00 0.602E+00 -.287E+01   -.121E-03 -.526E-04 0.508E-04
   -.369E+02 0.522E+01 0.294E+02   0.395E+02 -.482E+01 -.308E+02   -.259E+01 -.398E+00 0.135E+01   -.167E-04 -.153E-03 -.150E-03
   0.896E+01 0.363E+02 0.292E+02   -.103E+02 -.386E+02 -.305E+02   0.135E+01 0.227E+01 0.132E+01   -.243E-03 -.812E-04 -.137E-03
   0.677E+01 -.952E+01 0.478E+02   -.717E+01 0.101E+02 -.506E+02   0.401E+00 -.542E+00 0.282E+01   -.273E-03 0.103E-03 -.131E-03
   -.219E+02 -.358E+02 -.207E+02   0.230E+02 0.377E+02 0.218E+02   -.115E+01 -.189E+01 -.109E+01   -.743E-04 0.760E-04 0.375E-03
   0.257E+01 -.332E+01 -.446E+02   -.227E+01 0.284E+01 0.471E+02   -.308E+00 0.482E+00 -.245E+01   0.129E-03 0.441E-04 -.270E-04
   0.241E+02 -.365E+02 -.110E+02   -.254E+02 0.386E+02 0.109E+02   0.136E+01 -.211E+01 0.179E+00   0.584E-04 -.101E-03 0.112E-03
   0.435E+02 0.749E+01 -.207E+02   -.461E+02 -.794E+01 0.219E+02   0.261E+01 0.458E+00 -.122E+01   -.312E-04 0.710E-04 0.147E-03
   0.322E+02 0.251E+02 0.242E+02   -.336E+02 -.273E+02 -.255E+02   0.139E+01 0.223E+01 0.135E+01   0.545E-04 0.184E-03 -.248E-04
   0.352E+02 -.292E+02 0.124E+02   -.369E+02 0.316E+02 -.128E+02   0.166E+01 -.242E+01 0.343E+00   0.982E-04 -.106E-03 -.588E-04
   0.134E+02 -.435E+02 0.117E+02   -.150E+02 0.460E+02 -.120E+02   0.162E+01 -.246E+01 0.295E+00   -.270E-03 0.106E-03 -.641E-04
   -.353E+02 -.206E+02 0.237E+02   0.379E+02 0.211E+02 -.250E+02   -.260E+01 -.464E+00 0.133E+01   -.612E-04 0.233E-03 -.648E-04
 -----------------------------------------------------------------------------------------------
   0.621E+00 -.102E+01 -.432E+01   -.711E-13 0.746E-13 -.924E-13   -.615E+00 0.102E+01 0.431E+01   -.478E-02 0.375E-03 0.737E-02
 
 
 POSITION                                       TOTAL-FORCE (eV/Angst)
 -----------------------------------------------------------------------------------
      9.51166     11.11820      7.72765         0.001618      0.000026      0.003595
      7.41226     10.78476      8.74174        -0.002220      0.000951     -0.000765
     10.82877      9.18003      7.95518         0.001671      0.004064     -0.000905
     10.61421     12.94124      8.72307         0.001195     -0.002657     -0.005500
      7.65879     10.29755     11.02775         0.006482      0.000809     -0.003551
     11.16941      8.68260     10.22804        -0.005808      0.004540      0.001376
     12.27239     10.46875     11.28470         0.004225     -0.002484     -0.000974
     10.96224     12.46990     11.05234        -0.006532     -0.004233      0.000401
      9.02599      8.33544     11.26457         0.002786      0.003717     -0.001059
      8.77338     12.12730     12.11232         0.001541     -0.000062     -0.000400
      8.32007      7.11414     10.60370         0.000084     -0.001101     -0.002453
      9.21329      7.99473     12.77261         0.000430      0.000847      0.004771
     11.98671      7.42900     10.35683         0.000864     -0.001116      0.000689
     13.62174     10.67804     10.66661        -0.000092     -0.000065      0.001976
     12.47378     10.16439     12.73763         0.001449      0.000118      0.004557
     12.14727      9.38462      7.27078        -0.004883     -0.000373      0.002184
     10.14168      8.02684      7.28759         0.001935      0.000211      0.000592
      9.30325     11.39906      6.26620        -0.002146      0.000003     -0.004285
     11.68894     13.66747     11.74309        -0.001304     -0.006606     -0.003648
      8.96353     11.82748     13.62855         0.000355     -0.002218      0.004500
      7.92754     13.43031     12.00011        -0.000760      0.002693     -0.001697
      6.31590     10.06171     11.65709         0.003812      0.000406     -0.003056
      6.70923      9.65030      8.05832        -0.001180      0.002291      0.000433
      6.57124     12.01390      8.56876        -0.000779     -0.001282     -0.000230
      9.79400     14.18625      8.57481         0.000870      0.001280      0.001768
     11.93213     13.17398      8.04831        -0.003614      0.000240      0.001681
 -----------------------------------------------------------------------------------
    total drift:                                0.000398      0.001064      0.000102


--------------------------------------------------------------------------------------------------------



  FREE ENERGIE OF THE ION-ELECTRON SYSTEM (eV)
  ---------------------------------------------------
  free  energy   TOTEN  =      -103.59881788 eV

  energy  without entropy=     -103.59881788  energy(sigma->0) =     -103.59881788
 
 d Force = 0.6915015E-04[-0.184E-04, 0.157E-03]  d Energy = 0.6902521E-04 0.125E-06
 d Force = 0.2358004E+00[ 0.236E+00, 0.236E+00]  d Ewald  = 0.2358004E+00 0.159E-07


--------------------------------------------------------------------------------------------------------


    POTLOK:  cpu time    1.7387: real time    1.7392


--------------------------------------------------------------------------------------------------------


 Conjugate gradient step on ions:
 trial-energy change:   -0.000069  1 .order   -0.000069   -0.000157    0.000018
  (g-gl).g = 0.129E-03      g.g   = 0.130E-03  gl.gl    = 0.152E-03
 g(Force)  = 0.130E-03   g(Stress)= 0.000E+00 ortho     = 0.179E-05
 gamma     =   0.84679
 trial     =   1.19379
 opt step  =   1.06851  (harmonic =   1.06851) maximal distance =0.00097692
 next E    =  -103.598819   (d E  =  -0.00007)


--------------------------------------------------------------------------------------------------------


  
 reached required accuracy - stopping structural energy minimisation
 writing wavefunctions
     LOOP+:  cpu time   62.6765: real time   63.2080
    4ORBIT:  cpu time    0.0000: real time    0.0000

 total amount of memory used by VASP MPI-rank0   131440. kBytes
=======================================================================

   base      :      30000. kBytes
   nonl-proj :      17624. kBytes
   fftplans  :      26957. kBytes
   grid      :      48673. kBytes
   one-center:         40. kBytes
   wavefun   :       8146. kBytes
 
  
  
 General timing and accounting informations for this job:
 ========================================================
  
                  Total CPU time used (sec):     2578.858
                            User time (sec):     2546.041
                          System time (sec):       32.817
                         Elapsed time (sec):     2585.877
  
                   Maximum memory used (kb):      186988.
                   Average memory used (kb):           0.
  
                          Minor page faults:      6379075
                          Major page faults:            6
                 Voluntary context switches:         5264
