 vasp.5.4.4.18Apr17-6-g9f103f2a35 (build Nov 06 2017 19:16:10) complex          
  
 executed on           IFC91_ompi date 2018.07.13  14:06:34
 running on   12 total cores
 distrk:  each k-point on   12 cores,    1 groups
 distr:  one band on NCORES_PER_BAND=   6 cores,    2 groups


--------------------------------------------------------------------------------------------------------


 INCAR:
 POTCAR:    PAW_PBE Si 05Jan2001                  
 POTCAR:    PAW_PBE Ge 05Jan2001                  
 POTCAR:    PAW_PBE H 15Jun2001                   
 POTCAR:    PAW_PBE Si 05Jan2001                  
   VRHFIN =Si: s2p2                                                             
   LEXCH  = PE                                                                  
   EATOM  =   103.0669 eV,    7.5752 Ry                                         
                                                                                
   TITEL  = PAW_PBE Si 05Jan2001                                                
   LULTRA =        F    use ultrasoft PP ?                                      
   IUNSCR =        1    unscreen: 0-lin 1-nonlin 2-no                           
   RPACOR =    1.500    partial core radius                                     
   POMASS =   28.085; ZVAL   =    4.000    mass and valenz                      
   RCORE  =    1.900    outmost cutoff radius                                   
   RWIGS  =    2.480; RWIGS  =    1.312    wigner-seitz radius (au A)           
   ENMAX  =  245.345; ENMIN  =  184.009 eV                                      
   ICORE  =        2    local potential                                         
   LCOR   =        T    correct aug charges                                     
   LPAW   =        T    paw PP                                                  
   EAUG   =  322.069                                                            
   DEXC   =    0.000                                                            
   RMAX   =    1.950    core radius for proj-oper                               
   RAUG   =    1.300    factor for augmentation sphere                          
   RDEP   =    1.993    radius for radial grids                                 
   RDEPT  =    1.837    core radius for aug-charge                              
                                                                                
   Atomic configuration                                                         
    6 entries                                                                   
     n  l   j            E        occ.                                          
     1  0  0.50     -1785.8828   2.0000                                         
     2  0  0.50      -139.4969   2.0000                                         
     2  1  1.50       -95.5546   6.0000                                         
     3  0  0.50       -10.8127   2.0000                                         
     3  1  0.50        -4.0811   2.0000                                         
     3  2  1.50        -4.0817   0.0000                                         
   Description                                                                  
     l       E           TYP  RCUT    TYP  RCUT                                 
     0    -10.8127223     23  1.900                                             
     0     -7.6451159     23  1.900                                             
     1     -4.0811372     23  1.900                                             
     1      2.4879257     23  1.900                                             
     2     -4.0817478      7  1.900                                             
  local pseudopotential read in
  partial core-charges read in
  partial kinetic energy density read in
  atomic valenz-charges read in
  non local Contribution for L=           0  read in
    real space projection operators read in
  non local Contribution for L=           0  read in
    real space projection operators read in
  non local Contribution for L=           1  read in
    real space projection operators read in
  non local Contribution for L=           1  read in
    real space projection operators read in
    PAW grid and wavefunctions read in
 
   number of l-projection  operators is LMAX  =           4
   number of lm-projection operators is LMMAX =           8
 
 POTCAR:    PAW_PBE Ge 05Jan2001                  
   VRHFIN =Ge: s2p2                                                             
   LEXCH  = PE                                                                  
   EATOM  =   104.9960 eV,    7.7170 Ry                                         
                                                                                
   TITEL  = PAW_PBE Ge 05Jan2001                                                
   LULTRA =        F    use ultrasoft PP ?                                      
   IUNSCR =        1    unscreen: 0-lin 1-nonlin 2-no                           
   RPACOR =    2.170    partial core radius                                     
   POMASS =   72.610; ZVAL   =    4.000    mass and valenz                      
   RCORE  =    2.300    outmost cutoff radius                                   
   RWIGS  =    2.300; RWIGS  =    1.217    wigner-seitz radius (au A)           
   ENMAX  =  173.807; ENMIN  =  130.355 eV                                      
   ICORE  =        3    local potential                                         
   LCOR   =        T    correct aug charges                                     
   LPAW   =        T    paw PP                                                  
   EAUG   =  385.843                                                            
   DEXC   =    0.000                                                            
   RMAX   =    2.342    core radius for proj-oper                               
   RAUG   =    1.300    factor for augmentation sphere                          
   RDEP   =    2.318    radius for radial grids                                 
   RDEPT  =    2.103    core radius for aug-charge                              
                                                                                
   Atomic configuration                                                         
   10 entries                                                                   
     n  l   j            E        occ.                                          
     1  0  0.50    -10959.8463   2.0000                                         
     2  0  0.50     -1371.6056   2.0000                                         
     2  1  1.50     -1198.4791   6.0000                                         
     3  0  0.50      -168.4733   2.0000                                         
     3  1  1.50      -115.6019   6.0000                                         
     3  2  2.50       -29.3106  10.0000                                         
     4  0  0.50       -11.7309   2.0000                                         
     4  1  0.50        -3.8952   2.0000                                         
     4  2  1.50        -4.0817   0.0000                                         
     4  3  2.50        -4.0817   0.0000                                         
   Description                                                                  
     l       E           TYP  RCUT    TYP  RCUT                                 
     0    -11.7309493     23  2.300                                             
     0     -7.4578696     23  2.300                                             
     1     -3.8952261     23  2.300                                             
     1      6.1178114     23  2.300                                             
     2     -4.0817478     23  2.300                                             
     3     -1.3605826      7  2.300                                             
  local pseudopotential read in
  partial core-charges read in
  partial kinetic energy density read in
  atomic valenz-charges read in
  non local Contribution for L=           0  read in
    real space projection operators read in
  non local Contribution for L=           0  read in
    real space projection operators read in
  non local Contribution for L=           1  read in
    real space projection operators read in
  non local Contribution for L=           1  read in
    real space projection operators read in
  non local Contribution for L=           2  read in
    real space projection operators read in
    PAW grid and wavefunctions read in
 
   number of l-projection  operators is LMAX  =           5
   number of lm-projection operators is LMMAX =          13
 
 POTCAR:    PAW_PBE H 15Jun2001                   
   VRHFIN =H: ultrasoft test                                                    
   LEXCH  = PE                                                                  
   EATOM  =    12.4884 eV,    0.9179 Ry                                         
                                                                                
   TITEL  = PAW_PBE H 15Jun2001                                                 
   LULTRA =        F    use ultrasoft PP ?                                      
   IUNSCR =        0    unscreen: 0-lin 1-nonlin 2-no                           
   RPACOR =    0.000    partial core radius                                     
   POMASS =    1.000; ZVAL   =    1.000    mass and valenz                      
   RCORE  =    1.100    outmost cutoff radius                                   
   RWIGS  =    0.700; RWIGS  =    0.370    wigner-seitz radius (au A)           
   ENMAX  =  250.000; ENMIN  =  200.000 eV                                      
   RCLOC  =    0.701    cutoff for local pot                                    
   LCOR   =        T    correct aug charges                                     
   LPAW   =        T    paw PP                                                  
   EAUG   =  400.000                                                            
   RMAX   =    1.123    core radius for proj-oper                               
   RAUG   =    1.200    factor for augmentation sphere                          
   RDEP   =    1.112    radius for radial grids                                 
   RDEPT  =    0.926    core radius for aug-charge                              
                                                                                
   Atomic configuration                                                         
    2 entries                                                                   
     n  l   j            E        occ.                                          
     1  0  0.50        -6.4927   1.0000                                         
     2  1  0.50        -3.4015   0.0000                                         
   Description                                                                  
     l       E           TYP  RCUT    TYP  RCUT                                 
     0     -6.4927494     23  1.100                                             
     0      6.8029130     23  1.100                                             
     1     -4.0817478     23  1.100                                             
  local pseudopotential read in
  atomic valenz-charges read in
  non local Contribution for L=           0  read in
    real space projection operators read in
  non local Contribution for L=           0  read in
    real space projection operators read in
  non local Contribution for L=           1  read in
    real space projection operators read in
    PAW grid and wavefunctions read in
 
   number of l-projection  operators is LMAX  =           3
   number of lm-projection operators is LMMAX =           5
 

 ----------------------------------------------------------------------------- 
|                                                                             |
|  ADVICE TO THIS USER RUNNING 'VASP/VAMP'   (HEAR YOUR MASTER'S VOICE ...):  |
|                                                                             |
|      You have a (more or less) 'large supercell' and for larger cells       |
|      it might be more efficient to use real space projection opertators     |
|      So try LREAL= Auto  in the INCAR   file.                               |
|      Mind:          For very  accurate calculation you might also keep the  |
|      reciprocal projection scheme          (i.e. LREAL=.FALSE.)             |
|                                                                             |
 ----------------------------------------------------------------------------- 

  PAW_PBE Si 05Jan2001                  :
 energy of atom  1       EATOM= -103.0669
 kinetic energy error for atom=    0.0012 (will be added to EATOM!!)
  PAW_PBE Ge 05Jan2001                  :
 energy of atom  2       EATOM= -104.9960
 kinetic energy error for atom=    0.0003 (will be added to EATOM!!)
  PAW_PBE H 15Jun2001                   :
 energy of atom  3       EATOM=  -12.4884
 kinetic energy error for atom=    0.0098 (will be added to EATOM!!)
 
 
 POSCAR: SiGeH16                                 
  positions in direct lattice
  No initial velocities read in
 exchange correlation table for  LEXCH =        8
   RHO(1)=    0.500       N(1)  =     2000
   RHO(2)=  100.500       N(2)  =     4000
 


--------------------------------------------------------------------------------------------------------


 ion  position               nearest neighbor table
   1  0.475  0.556  0.385-  18 1.55   9 2.39   2 2.39   3 2.39
   2  0.369  0.539  0.436-  23 1.55  24 1.55   4 2.39   1 2.39
   3  0.542  0.457  0.396-  17 1.55  16 1.55   5 2.39   1 2.39
   4  0.385  0.515  0.552-  22 1.55   8 2.39  10 2.39   2 2.39
   5  0.557  0.433  0.512-  13 1.55   3 2.39   7 2.39  10 2.39
   6  0.547  0.624  0.554-  19 1.55   9 2.39   7 2.39   8 2.39
   7  0.613  0.525  0.565-  15 1.55  14 1.55   6 2.39   5 2.39
   8  0.440  0.606  0.605-  20 1.55  21 1.55   4 2.39   6 2.39
   9  0.531  0.648  0.437-  25 1.55  26 1.55   6 2.39   1 2.39
  10  0.451  0.416  0.564-  12 1.55  11 1.55   4 2.39   5 2.39
  11  0.415  0.357  0.529-  10 1.55
  12  0.461  0.400  0.639-  10 1.55
  13  0.600  0.369  0.520-   5 1.55
  14  0.682  0.536  0.531-   7 1.55
  15  0.623  0.509  0.640-   7 1.55
  16  0.611  0.469  0.363-   3 1.55
  17  0.506  0.398  0.362-   3 1.55
  18  0.465  0.572  0.309-   1 1.55
  19  0.583  0.683  0.588-   6 1.55
  20  0.451  0.590  0.680-   8 1.55
  21  0.397  0.670  0.598-   8 1.55
  22  0.316  0.504  0.586-   4 1.55
  23  0.333  0.479  0.402-   2 1.55
  24  0.326  0.603  0.429-   2 1.55
  25  0.488  0.712  0.430-   9 1.55
  26  0.600  0.659  0.404-   9 1.55
 
  LATTYP: Found a simple cubic cell.
 ALAT       =    20.0000000000
  
  Lattice vectors:
  
 A1 = (  20.0000000000,   0.0000000000,   0.0000000000)
 A2 = (   0.0000000000,  20.0000000000,   0.0000000000)
 A3 = (   0.0000000000,   0.0000000000,  20.0000000000)


Analysis of symmetry for initial positions (statically):
=====================================================================
 Subroutine PRICEL returns:
 Original cell was already a primitive cell.
 

 Routine SETGRP: Setting up the symmetry group for a 
 simple cubic supercell.


 Subroutine GETGRP returns: Found  1 space group operations
 (whereof  1 operations were pure point group operations)
 out of a pool of 48 trial point group operations.


The static configuration has the point symmetry C_1 .


Analysis of symmetry for dynamics (positions and initial velocities):
=====================================================================
 Subroutine PRICEL returns:
 Original cell was already a primitive cell.
 

 Routine SETGRP: Setting up the symmetry group for a 
 simple cubic supercell.


 Subroutine GETGRP returns: Found  1 space group operations
 (whereof  1 operations were pure point group operations)
 out of a pool of 48 trial point group operations.


The dynamic configuration has the point symmetry C_1 .


 Subroutine INISYM returns: Found  1 space group operations
 (whereof  1 operations are pure point group operations),
 and found     1 'primitive' translations

 
 
 KPOINTS: Automatic mesh                          

Automatic generation of k-mesh.
Space group operators:
 irot       det(A)        alpha          n_x          n_y          n_z        tau_x        tau_y        tau_z
    1     1.000000     0.000000     1.000000     0.000000     0.000000     0.000000     0.000000     0.000000
 
 Subroutine IBZKPT returns following result:
 ===========================================
 
 Found      1 irreducible k-points:
 
 Following reciprocal coordinates:
            Coordinates               Weight
  0.000000  0.000000  0.000000      1.000000
 
 Following cartesian coordinates:
            Coordinates               Weight
  0.000000  0.000000  0.000000      1.000000
 


--------------------------------------------------------------------------------------------------------




 Dimension of arrays:
   k-points           NKPTS =      1   k-points in BZ     NKDIM =      1   number of bands    NBANDS=     42
   number of dos      NEDOS =    301   number of ions     NIONS =     26
   non local maximal  LDIM  =      5   non local SUM 2l+1 LMDIM =     13
   total plane-waves  NPLWV = 941192
   max r-space proj   IRMAX =      1   max aug-charges    IRDMAX=   6593
   dimension x,y,z NGX =    98 NGY =   98 NGZ =   98
   dimension x,y,z NGXF=   196 NGYF=  196 NGZF=  196
   support grid    NGXF=   196 NGYF=  196 NGZF=  196
   ions per type =               8   2  16
   NGX,Y,Z   is equivalent  to a cutoff of   8.15,  8.15,  8.15 a.u.
   NGXF,Y,Z  is equivalent  to a cutoff of  16.29, 16.29, 16.29 a.u.

 SYSTEM =  SiGe                                    
 POSCAR =  SiGeH16                                 

 Startparameter for this run:
   NWRITE =      2    write-flag & timer
   PREC   = normal    normal or accurate (medium, high low for compatibility)
   ISTART =      0    job   : 0-new  1-cont  2-samecut
   ICHARG =      2    charge: 1-file 2-atom 10-const
   ISPIN  =      1    spin polarized calculation?
   LNONCOLLINEAR =      F non collinear calculations
   LSORBIT =      F    spin-orbit coupling
   INIWAV =      1    electr: 0-lowe 1-rand  2-diag
   LASPH  =      F    aspherical Exc in radial PAW
   METAGGA=      F    non-selfconsistent MetaGGA calc.

 Electronic Relaxation 1
   ENCUT  =  400.0 eV  29.40 Ry    5.42 a.u.  32.61 32.61 32.61*2*pi/ulx,y,z
   ENINI  =  400.0     initial cutoff
   ENAUG  =  400.0 eV  augmentation charge cutoff
   NELM   =     60;   NELMIN=  2; NELMDL= -5     # of ELM steps 
   EDIFF  = 0.1E-05   stopping-criterion for ELM
   LREAL  =      F    real-space projection
   NLSPLINE    = F    spline interpolate recip. space projectors
   LCOMPAT=      F    compatible to vasp.4.4
   GGA_COMPAT  = T    GGA compatible to vasp.4.4-vasp.4.6
   LMAXPAW     = -100 max onsite density
   LMAXMIX     =    2 max onsite mixed and CHGCAR
   VOSKOWN=      0    Vosko Wilk Nusair interpolation
   ROPT   =    0.00000   0.00000   0.00000
 Ionic relaxation
   EDIFFG = -.2E-01   stopping-criterion for IOM
   NSW    =    200    number of steps for IOM
   NBLOCK =      1;   KBLOCK =    200    inner block; outer block 
   IBRION =      2    ionic relax: 0-MD 1-quasi-New 2-CG
   NFREE  =      1    steps in history (QN), initial steepest desc. (CG)
   ISIF   =      2    stress and relaxation
   IWAVPR =     11    prediction:  0-non 1-charg 2-wave 3-comb
   ISYM   =      2    0-nonsym 1-usesym 2-fastsym
   LCORR  =      T    Harris-Foulkes like correction to forces

   POTIM  = 0.5000    time-step for ionic-motion
   TEIN   =    0.0    initial temperature
   TEBEG  =    0.0;   TEEND  =   0.0 temperature during run
   SMASS  =  -3.00    Nose mass-parameter (am)
   estimated Nose-frequenzy (Omega)   =  0.10E-29 period in steps =****** mass=  -0.914E-26a.u.
   SCALEE = 1.0000    scale energy and forces
   NPACO  =    256;   APACO  = 16.0  distance and # of slots for P.C.
   PSTRESS=    0.0 pullay stress

  Mass of Ions in am
   POMASS =  28.09 72.61  1.00
  Ionic Valenz
   ZVAL   =   4.00  4.00  1.00
  Atomic Wigner-Seitz radii
   RWIGS  =  -1.00 -1.00 -1.00
  virtual crystal weights 
   VCA    =   1.00  1.00  1.00
   NELECT =      56.0000    total number of electrons
   NUPDOWN=      -1.0000    fix difference up-down

 DOS related values:
   EMIN   =  10.00;   EMAX   =-10.00  energy-range for DOS
   EFERMI =   0.00
   ISMEAR =     0;   SIGMA  =   0.20  broadening in eV -4-tet -1-fermi 0-gaus

 Electronic relaxation 2 (details)
   IALGO  =     38    algorithm
   LDIAG  =      T    sub-space diagonalisation (order eigenvalues)
   LSUBROT=      F    optimize rotation matrix (better conditioning)
   TURBO    =      0    0=normal 1=particle mesh
   IRESTART =      0    0=no restart 2=restart with 2 vectors
   NREBOOT  =      0    no. of reboots
   NMIN     =      0    reboot dimension
   EREF     =   0.00    reference energy to select bands
   IMIX   =      4    mixing-type and parameters
     AMIX     =   0.40;   BMIX     =  1.00
     AMIX_MAG =   1.60;   BMIX_MAG =  1.00
     AMIN     =   0.10
     WC   =   100.;   INIMIX=   1;  MIXPRE=   1;  MAXMIX= -45

 Intra band minimization:
   WEIMIN = 0.0010     energy-eigenvalue tresh-hold
   EBREAK =  0.60E-08  absolut break condition
   DEPER  =   0.30     relativ break condition  

   TIME   =   0.40     timestep for ELM

  volume/ion in A,a.u.               =     307.69      2076.41
  Fermi-wavevector in a.u.,A,eV,Ry     =   0.313166  0.591797  1.334361  0.098073
  Thomas-Fermi vector in A             =   1.193276
 
 Write flags
   LWAVE        =      T    write WAVECAR
   LDOWNSAMPLE  =      F    k-point downsampling of WAVECAR
   LCHARG       =      T    write CHGCAR
   LVTOT        =      F    write LOCPOT, total local potential
   LVHAR        =      F    write LOCPOT, Hartree potential only
   LELF         =      F    write electronic localiz. function (ELF)
   LORBIT       =      0    0 simple, 1 ext, 2 COOP (PROOUT), +10 PAW based schemes


 Dipole corrections
   LMONO  =      F    monopole corrections only (constant potential shift)
   LDIPOL =      F    correct potential (dipole corrections)
   IDIPOL =      0    1-x, 2-y, 3-z, 4-all directions 
   EPSILON=  1.0000000 bulk dielectric constant

 Exchange correlation treatment:
   GGA     =    --    GGA type
   LEXCH   =     8    internal setting for exchange type
   VOSKOWN=      0    Vosko Wilk Nusair interpolation
   LHFCALC =     F    Hartree Fock is set to
   LHFONE  =     F    Hartree Fock one center treatment
   AEXX    =    0.0000 exact exchange contribution

 Linear response parameters
   LEPSILON=     F    determine dielectric tensor
   LRPA    =     F    only Hartree local field effects (RPA)
   LNABLA  =     F    use nabla operator in PAW spheres
   LVEL    =     F    velocity operator in full k-point grid
   LINTERFAST=   F  fast interpolation
   KINTER  =     0    interpolate to denser k-point grid
   CSHIFT  =0.1000    complex shift for real part using Kramers Kronig
   OMEGAMAX=  -1.0    maximum frequency
   DEG_THRESHOLD= 0.2000000E-02 threshold for treating states as degnerate
   RTIME   =   -0.100 relaxation time in fs
  (WPLASMAI=    0.000 imaginary part of plasma frequency in eV, 0.658/RTIME)
   DFIELD  = 0.0000000 0.0000000 0.0000000 field for delta impulse in time
 
 Orbital magnetization related:
   ORBITALMAG=     F  switch on orbital magnetization
   LCHIMAG   =     F  perturbation theory with respect to B field
   DQ        =  0.001000  dq finite difference perturbation B field
   LLRAUG    =     F  two centre corrections for induced B field



--------------------------------------------------------------------------------------------------------


 conjugate gradient relaxation of ions
 charge density and potential will be updated during run
 non-spin polarized calculation
 Variant of blocked Davidson
 Davidson routine will perform the subspace rotation
 perform sub-space diagonalisation
    after iterative eigenvector-optimisation
 modified Broyden-mixing scheme, WC =      100.0
 initial mixing is a Kerker type mixing with AMIX =  0.4000 and BMIX =      1.0000
 Hartree-type preconditioning will be used
 using additional bands           14
 reciprocal scheme for non local part
 use partial core corrections
 calculate Harris-corrections to forces 
   (improved forces if not selfconsistent)
 use gradient corrections 
 use of overlap-Matrix (Vanderbilt PP)
 Gauss-broadening in eV      SIGMA  =   0.20


--------------------------------------------------------------------------------------------------------


  energy-cutoff  :      400.00
  volume of cell :     8000.00
      direct lattice vectors                 reciprocal lattice vectors
    20.000000000  0.000000000  0.000000000     0.050000000  0.000000000  0.000000000
     0.000000000 20.000000000  0.000000000     0.000000000  0.050000000  0.000000000
     0.000000000  0.000000000 20.000000000     0.000000000  0.000000000  0.050000000

  length of vectors
    20.000000000 20.000000000 20.000000000     0.050000000  0.050000000  0.050000000


 
 k-points in units of 2pi/SCALE and weight: Automatic mesh                          
   0.00000000  0.00000000  0.00000000       1.000
 
 k-points in reciprocal lattice and weights: Automatic mesh                          
   0.00000000  0.00000000  0.00000000       1.000
 
 position of ions in fractional coordinates (direct lattice) 
   0.47547100  0.55626000  0.38465300
   0.36907800  0.53906000  0.43641200
   0.54179100  0.45744600  0.39613600
   0.38461900  0.51474100  0.55243500
   0.55736800  0.43311000  0.51215000
   0.54669200  0.62364400  0.55351800
   0.61299700  0.52481700  0.56496600
   0.44028400  0.60643000  0.60524300
   0.53111600  0.64794100  0.43749600
   0.45095700  0.41593600  0.56388300
   0.41490100  0.35665000  0.52940300
   0.46117000  0.40042600  0.63910800
   0.60034800  0.36907000  0.51957800
   0.68182700  0.53600700  0.53118700
   0.62280400  0.50903400  0.64018900
   0.61080000  0.46880600  0.36278200
   0.50550800  0.39805500  0.36207700
   0.46538400  0.57201900  0.30946400
   0.58275500  0.68306700  0.58775000
   0.45052500  0.59044300  0.68036400
   0.39732000  0.67044900  0.59753500
   0.31566200  0.50359800  0.58596500
   0.33322800  0.47946500  0.40225200
   0.32629100  0.60324700  0.42912600
   0.48792300  0.71185500  0.43020800
   0.60015100  0.65882400  0.40403700
 
 position of ions in cartesian coordinates  (Angst):
   9.50942000 11.12520000  7.69306000
   7.38156000 10.78120000  8.72824000
  10.83582000  9.14892000  7.92272000
   7.69238000 10.29482000 11.04870000
  11.14736000  8.66220000 10.24300000
  10.93384000 12.47288000 11.07036000
  12.25994000 10.49634000 11.29932000
   8.80568000 12.12860000 12.10486000
  10.62232000 12.95882000  8.74992000
   9.01914000  8.31872000 11.27766000
   8.29802000  7.13300000 10.58806000
   9.22340000  8.00852000 12.78216000
  12.00696000  7.38140000 10.39156000
  13.63654000 10.72014000 10.62374000
  12.45608000 10.18068000 12.80378000
  12.21600000  9.37612000  7.25564000
  10.11016000  7.96110000  7.24154000
   9.30768000 11.44038000  6.18928000
  11.65510000 13.66134000 11.75500000
   9.01050000 11.80886000 13.60728000
   7.94640000 13.40898000 11.95070000
   6.31324000 10.07196000 11.71930000
   6.66456000  9.58930000  8.04504000
   6.52582000 12.06494000  8.58252000
   9.75846000 14.23710000  8.60416000
  12.00302000 13.17648000  8.08074000
 


--------------------------------------------------------------------------------------------------------


 k-point  1 :   0.0000 0.0000 0.0000  plane waves:  145165

 maximum and minimum number of plane-waves per node :     24209    24180

 maximum number of plane-waves:    145165
 maximum index in each direction: 
   IXMAX=   32   IYMAX=   32   IZMAX=   32
   IXMIN=  -32   IYMIN=  -32   IZMIN=  -32


 parallel 3D FFT for wavefunctions:
    minimum data exchange during FFTs selected (reduces bandwidth)
 parallel 3D FFT for charge:
    minimum data exchange during FFTs selected (reduces bandwidth)


 total amount of memory used by VASP MPI-rank0   131439. kBytes
=======================================================================

   base      :      30000. kBytes
   nonl-proj :      17624. kBytes
   fftplans  :      26957. kBytes
   grid      :      48673. kBytes
   one-center:         40. kBytes
   wavefun   :       8145. kBytes
 
     INWAV:  cpu time    0.0010: real time    0.0004
 Broyden mixing: mesh for mixing (old mesh)
   NGX = 65   NGY = 65   NGZ = 65
  (NGX  =196   NGY  =196   NGZ  =196)
  gives a total of 274625 points

 initial charge density was supplied:
 charge density of overlapping atoms calculated
 number of electron      56.0000000 magnetization 
 keeping initial charge density in first step


--------------------------------------------------------------------------------------------------------


 Maximum index for augmentation-charges          565 (set IRDMAX)


--------------------------------------------------------------------------------------------------------


 First call to EWALD:  gamma=   0.089
 Maximum number of real-space cells 3x 3x 3
 Maximum number of reciprocal cells 3x 3x 3

    FEWALD:  cpu time    0.0020: real time    0.0026


--------------------------------------- Iteration      1(   1)  ---------------------------------------


    POTLOK:  cpu time    1.7677: real time    1.7689
    SETDIJ:  cpu time    0.0070: real time    0.0073
     EDDAV:  cpu time   10.1995: real time   10.1974
       DOS:  cpu time    0.0010: real time    0.0004
    --------------------------------------------
      LOOP:  cpu time   11.9752: real time   11.9740

 eigenvalue-minimisations  :   116
 total energy-change (2. order) : 0.1950588E+03  (-0.1051135E+04)
 number of electron      56.0000000 magnetization 
 augmentation part       56.0000000 magnetization 

 Free energy of the ion-electron system (eV)
  ---------------------------------------------------
  alpha Z        PSCENC =         1.41309770
  Ewald energy   TEWEN  =      2629.98113996
  -Hartree energ DENC   =     -3444.51871035
  -exchange      EXHF   =         0.00000000
  -V(xc)+E(xc)   XCENC  =       -57.11724725
  PAW double counting   =       915.42522629     -745.84587594
  entropy T*S    EENTRO =        -0.44292044
  eigenvalues    EBANDS =      -338.01130841
  atomic energy  EATOM  =      1234.17543241
  Solvation  Ediel_sol  =         0.00000000
  ---------------------------------------------------
  free energy    TOTEN  =       195.05883397 eV

  energy without entropy =      195.50175441  energy(sigma->0) =      195.28029419


--------------------------------------------------------------------------------------------------------




--------------------------------------- Iteration      1(   2)  ---------------------------------------


     EDDAV:  cpu time   11.6112: real time   11.6098
       DOS:  cpu time    0.0000: real time    0.0003
    --------------------------------------------
      LOOP:  cpu time   11.6112: real time   11.6101

 eigenvalue-minimisations  :   136
 total energy-change (2. order) :-0.2256475E+03  (-0.2116342E+03)
 number of electron      56.0000000 magnetization 
 augmentation part       56.0000000 magnetization 

 Free energy of the ion-electron system (eV)
  ---------------------------------------------------
  alpha Z        PSCENC =         1.41309770
  Ewald energy   TEWEN  =      2629.98113996
  -Hartree energ DENC   =     -3444.51871035
  -exchange      EXHF   =         0.00000000
  -V(xc)+E(xc)   XCENC  =       -57.11724725
  PAW double counting   =       915.42522629     -745.84587594
  entropy T*S    EENTRO =        -0.00000000
  eigenvalues    EBANDS =      -564.10174480
  atomic energy  EATOM  =      1234.17543241
  Solvation  Ediel_sol  =         0.00000000
  ---------------------------------------------------
  free energy    TOTEN  =       -30.58868198 eV

  energy without entropy =      -30.58868198  energy(sigma->0) =      -30.58868198


--------------------------------------------------------------------------------------------------------




--------------------------------------- Iteration      1(   3)  ---------------------------------------


     EDDAV:  cpu time   10.4614: real time   10.7146
       DOS:  cpu time    0.0000: real time    0.0003
    --------------------------------------------
      LOOP:  cpu time   10.4614: real time   10.7148

 eigenvalue-minimisations  :   112
 total energy-change (2. order) :-0.7453697E+02  (-0.7435656E+02)
 number of electron      56.0000000 magnetization 
 augmentation part       56.0000000 magnetization 

 Free energy of the ion-electron system (eV)
  ---------------------------------------------------
  alpha Z        PSCENC =         1.41309770
  Ewald energy   TEWEN  =      2629.98113996
  -Hartree energ DENC   =     -3444.51871035
  -exchange      EXHF   =         0.00000000
  -V(xc)+E(xc)   XCENC  =       -57.11724725
  PAW double counting   =       915.42522629     -745.84587594
  entropy T*S    EENTRO =        -0.00000000
  eigenvalues    EBANDS =      -638.63871766
  atomic energy  EATOM  =      1234.17543241
  Solvation  Ediel_sol  =         0.00000000
  ---------------------------------------------------
  free energy    TOTEN  =      -105.12565483 eV

  energy without entropy =     -105.12565483  energy(sigma->0) =     -105.12565483


--------------------------------------------------------------------------------------------------------




--------------------------------------- Iteration      1(   4)  ---------------------------------------


     EDDAV:  cpu time    9.3406: real time    9.3544
       DOS:  cpu time    0.0010: real time    0.0003
    --------------------------------------------
      LOOP:  cpu time    9.3416: real time    9.3547

 eigenvalue-minimisations  :   104
 total energy-change (2. order) :-0.4268047E+01  (-0.4250489E+01)
 number of electron      56.0000000 magnetization 
 augmentation part       56.0000000 magnetization 

 Free energy of the ion-electron system (eV)
  ---------------------------------------------------
  alpha Z        PSCENC =         1.41309770
  Ewald energy   TEWEN  =      2629.98113996
  -Hartree energ DENC   =     -3444.51871035
  -exchange      EXHF   =         0.00000000
  -V(xc)+E(xc)   XCENC  =       -57.11724725
  PAW double counting   =       915.42522629     -745.84587594
  entropy T*S    EENTRO =        -0.00000000
  eigenvalues    EBANDS =      -642.90676461
  atomic energy  EATOM  =      1234.17543241
  Solvation  Ediel_sol  =         0.00000000
  ---------------------------------------------------
  free energy    TOTEN  =      -109.39370179 eV

  energy without entropy =     -109.39370179  energy(sigma->0) =     -109.39370179


--------------------------------------------------------------------------------------------------------




--------------------------------------- Iteration      1(   5)  ---------------------------------------


     EDDAV:  cpu time   12.1182: real time   12.1487
       DOS:  cpu time    0.0010: real time    0.0003
    CHARGE:  cpu time    0.4869: real time    0.4890
    MIXING:  cpu time    0.0440: real time    0.0445
    --------------------------------------------
      LOOP:  cpu time   12.6501: real time   12.6826

 eigenvalue-minimisations  :   144
 total energy-change (2. order) :-0.9499130E-01  (-0.9493239E-01)
 number of electron      56.0000021 magnetization 
 augmentation part       -2.7304564 magnetization 

 Broyden mixing:
  rms(total) = 0.15517E+01    rms(broyden)= 0.15516E+01
  rms(prec ) = 0.16480E+01
  weight for this iteration     100.00

 Free energy of the ion-electron system (eV)
  ---------------------------------------------------
  alpha Z        PSCENC =         1.41309770
  Ewald energy   TEWEN  =      2629.98113996
  -Hartree energ DENC   =     -3444.51871035
  -exchange      EXHF   =         0.00000000
  -V(xc)+E(xc)   XCENC  =       -57.11724725
  PAW double counting   =       915.42522629     -745.84587594
  entropy T*S    EENTRO =        -0.00000000
  eigenvalues    EBANDS =      -643.00175591
  atomic energy  EATOM  =      1234.17543241
  Solvation  Ediel_sol  =         0.00000000
  ---------------------------------------------------
  free energy    TOTEN  =      -109.48869309 eV

  energy without entropy =     -109.48869309  energy(sigma->0) =     -109.48869309


--------------------------------------------------------------------------------------------------------




--------------------------------------- Iteration      1(   6)  ---------------------------------------


    POTLOK:  cpu time    1.7207: real time    1.7278
    SETDIJ:  cpu time    0.0070: real time    0.0074
     EDDAV:  cpu time    9.3646: real time    9.3807
       DOS:  cpu time    0.0000: real time    0.0005
    CHARGE:  cpu time    0.4909: real time    0.4898
    MIXING:  cpu time    0.0460: real time    0.0457
    --------------------------------------------
      LOOP:  cpu time   11.6292: real time   11.6518

 eigenvalue-minimisations  :   104
 total energy-change (2. order) : 0.3278628E+01  (-0.1622680E+00)
 number of electron      56.0000020 magnetization 
 augmentation part       -2.7331232 magnetization 

 Broyden mixing:
  rms(total) = 0.90414E+00    rms(broyden)= 0.90413E+00
  rms(prec ) = 0.96248E+00
  weight for this iteration     100.00

 eigenvalues of (default mixing * dielectric matrix)
  average eigenvalue GAMMA=   2.3240
  2.3240

 Free energy of the ion-electron system (eV)
  ---------------------------------------------------
  alpha Z        PSCENC =         1.41309770
  Ewald energy   TEWEN  =      2629.98113996
  -Hartree energ DENC   =     -3476.43659410
  -exchange      EXHF   =         0.00000000
  -V(xc)+E(xc)   XCENC  =       -53.47588547
  PAW double counting   =      1930.59645545    -1761.68936086
  entropy T*S    EENTRO =        -0.00000000
  eigenvalues    EBANDS =      -610.77435013
  atomic energy  EATOM  =      1234.17543241
  Solvation  Ediel_sol  =         0.00000000
  ---------------------------------------------------
  free energy    TOTEN  =      -106.21006504 eV

  energy without entropy =     -106.21006504  energy(sigma->0) =     -106.21006504


--------------------------------------------------------------------------------------------------------




--------------------------------------- Iteration      1(   7)  ---------------------------------------


    POTLOK:  cpu time    1.6967: real time    1.7007
    SETDIJ:  cpu time    0.0070: real time    0.0075
     EDDAV:  cpu time    9.9095: real time    9.9238
       DOS:  cpu time    0.0000: real time    0.0004
    CHARGE:  cpu time    0.5029: real time    0.5030
    MIXING:  cpu time    0.0490: real time    0.0487
    --------------------------------------------
      LOOP:  cpu time   12.1651: real time   12.1842

 eigenvalue-minimisations  :   112
 total energy-change (2. order) : 0.1730404E+01  (-0.4215065E+00)
 number of electron      56.0000018 magnetization 
 augmentation part       -2.7357669 magnetization 

 Broyden mixing:
  rms(total) = 0.12396E+00    rms(broyden)= 0.12381E+00
  rms(prec ) = 0.15484E+00
  weight for this iteration     100.00

 eigenvalues of (default mixing * dielectric matrix)
  average eigenvalue GAMMA=   1.8333
  1.6469  2.0197

 Free energy of the ion-electron system (eV)
  ---------------------------------------------------
  alpha Z        PSCENC =         1.41309770
  Ewald energy   TEWEN  =      2629.98113996
  -Hartree energ DENC   =     -3533.65796259
  -exchange      EXHF   =         0.00000000
  -V(xc)+E(xc)   XCENC  =       -47.64803960
  PAW double counting   =      4244.57339069    -4076.57805856
  entropy T*S    EENTRO =        -0.00000000
  eigenvalues    EBANDS =      -556.73866089
  atomic energy  EATOM  =      1234.17543241
  Solvation  Ediel_sol  =         0.00000000
  ---------------------------------------------------
  free energy    TOTEN  =      -104.47966090 eV

  energy without entropy =     -104.47966090  energy(sigma->0) =     -104.47966090


--------------------------------------------------------------------------------------------------------




--------------------------------------- Iteration      1(   8)  ---------------------------------------


    POTLOK:  cpu time    1.7017: real time    1.7050
    SETDIJ:  cpu time    0.0070: real time    0.0073
     EDDAV:  cpu time    9.3656: real time    9.3829
       DOS:  cpu time    0.0010: real time    0.0004
    CHARGE:  cpu time    0.4869: real time    0.4897
    MIXING:  cpu time    0.0500: real time    0.0497
    --------------------------------------------
      LOOP:  cpu time   11.6122: real time   11.6351

 eigenvalue-minimisations  :   104
 total energy-change (2. order) : 0.4962838E-01  (-0.2736011E-01)
 number of electron      56.0000018 magnetization 
 augmentation part       -2.7328597 magnetization 

 Broyden mixing:
  rms(total) = 0.63319E-01    rms(broyden)= 0.63305E-01
  rms(prec ) = 0.82467E-01
  weight for this iteration     100.00

 eigenvalues of (default mixing * dielectric matrix)
  average eigenvalue GAMMA=   2.0001
  2.6514  1.6745  1.6745

 Free energy of the ion-electron system (eV)
  ---------------------------------------------------
  alpha Z        PSCENC =         1.41309770
  Ewald energy   TEWEN  =      2629.98113996
  -Hartree energ DENC   =     -3541.03763199
  -exchange      EXHF   =         0.00000000
  -V(xc)+E(xc)   XCENC  =       -47.73317039
  PAW double counting   =      4250.18638676    -4082.09671431
  entropy T*S    EENTRO =        -0.00000000
  eigenvalues    EBANDS =      -549.31857265
  atomic energy  EATOM  =      1234.17543241
  Solvation  Ediel_sol  =         0.00000000
  ---------------------------------------------------
  free energy    TOTEN  =      -104.43003252 eV

  energy without entropy =     -104.43003252  energy(sigma->0) =     -104.43003252


--------------------------------------------------------------------------------------------------------




--------------------------------------- Iteration      1(   9)  ---------------------------------------


    POTLOK:  cpu time    1.7087: real time    1.7117
    SETDIJ:  cpu time    0.0070: real time    0.0075
     EDDAV:  cpu time   11.0213: real time   11.0353
       DOS:  cpu time    0.0000: real time    0.0005
    CHARGE:  cpu time    0.4919: real time    0.4923
    MIXING:  cpu time    0.0530: real time    0.0525
    --------------------------------------------
      LOOP:  cpu time   13.2820: real time   13.2997

 eigenvalue-minimisations  :   128
 total energy-change (2. order) : 0.3538893E-01  (-0.7659837E-02)
 number of electron      56.0000018 magnetization 
 augmentation part       -2.7231885 magnetization 

 Broyden mixing:
  rms(total) = 0.36984E-01    rms(broyden)= 0.36984E-01
  rms(prec ) = 0.47859E-01
  weight for this iteration     100.00

 eigenvalues of (default mixing * dielectric matrix)
  average eigenvalue GAMMA=   1.7291
  2.4884  1.8340  1.8340  0.7600

 Free energy of the ion-electron system (eV)
  ---------------------------------------------------
  alpha Z        PSCENC =         1.41309770
  Ewald energy   TEWEN  =      2629.98113996
  -Hartree energ DENC   =     -3552.99590983
  -exchange      EXHF   =         0.00000000
  -V(xc)+E(xc)   XCENC  =       -47.04769554
  PAW double counting   =      4380.72698496    -4212.65222440
  entropy T*S    EENTRO =        -0.00000000
  eigenvalues    EBANDS =      -537.99546885
  atomic energy  EATOM  =      1234.17543241
  Solvation  Ediel_sol  =         0.00000000
  ---------------------------------------------------
  free energy    TOTEN  =      -104.39464359 eV

  energy without entropy =     -104.39464359  energy(sigma->0) =     -104.39464359


--------------------------------------------------------------------------------------------------------




--------------------------------------- Iteration      1(  10)  ---------------------------------------


    POTLOK:  cpu time    1.7117: real time    1.7150
    SETDIJ:  cpu time    0.0070: real time    0.0073
     EDDAV:  cpu time    9.9075: real time    9.9215
       DOS:  cpu time    0.0000: real time    0.0004
    CHARGE:  cpu time    0.4979: real time    0.4968
    MIXING:  cpu time    0.0550: real time    0.0555
    --------------------------------------------
      LOOP:  cpu time   12.1791: real time   12.1965

 eigenvalue-minimisations  :   112
 total energy-change (2. order) :-0.5541597E-03  (-0.3285057E-03)
 number of electron      56.0000018 magnetization 
 augmentation part       -2.7224763 magnetization 

 Broyden mixing:
  rms(total) = 0.17278E-01    rms(broyden)= 0.17278E-01
  rms(prec ) = 0.30121E-01
  weight for this iteration     100.00

 eigenvalues of (default mixing * dielectric matrix)
  average eigenvalue GAMMA=   1.9025
  2.8423  1.0635  2.1449  1.7310  1.7310

 Free energy of the ion-electron system (eV)
  ---------------------------------------------------
  alpha Z        PSCENC =         1.41309770
  Ewald energy   TEWEN  =      2629.98113996
  -Hartree energ DENC   =     -3554.77468565
  -exchange      EXHF   =         0.00000000
  -V(xc)+E(xc)   XCENC  =       -47.07665917
  PAW double counting   =      4283.85221400    -4115.73118791
  entropy T*S    EENTRO =        -0.00000000
  eigenvalues    EBANDS =      -536.23454909
  atomic energy  EATOM  =      1234.17543241
  Solvation  Ediel_sol  =         0.00000000
  ---------------------------------------------------
  free energy    TOTEN  =      -104.39519775 eV

  energy without entropy =     -104.39519775  energy(sigma->0) =     -104.39519775


--------------------------------------------------------------------------------------------------------




--------------------------------------- Iteration      1(  11)  ---------------------------------------


    POTLOK:  cpu time    1.7517: real time    1.7592
    SETDIJ:  cpu time    0.0080: real time    0.0078
     EDDAV:  cpu time    9.3426: real time    9.3548
       DOS:  cpu time    0.0000: real time    0.0004
    CHARGE:  cpu time    0.4929: real time    0.4924
    MIXING:  cpu time    0.0580: real time    0.0582
    --------------------------------------------
      LOOP:  cpu time   11.6532: real time   11.6728

 eigenvalue-minimisations  :   104
 total energy-change (2. order) : 0.5423289E-03  (-0.7620399E-03)
 number of electron      56.0000018 magnetization 
 augmentation part       -2.7218615 magnetization 

 Broyden mixing:
  rms(total) = 0.80472E-02    rms(broyden)= 0.80469E-02
  rms(prec ) = 0.14252E-01
  weight for this iteration     100.00

 eigenvalues of (default mixing * dielectric matrix)
  average eigenvalue GAMMA=   1.8438
  3.1797  2.5145  1.7458  1.7458  1.0332  0.8435

 Free energy of the ion-electron system (eV)
  ---------------------------------------------------
  alpha Z        PSCENC =         1.41309770
  Ewald energy   TEWEN  =      2629.98113996
  -Hartree energ DENC   =     -3562.17606144
  -exchange      EXHF   =         0.00000000
  -V(xc)+E(xc)   XCENC  =       -46.86169895
  PAW double counting   =      4227.60122674    -4059.43371055
  entropy T*S    EENTRO =        -0.00000000
  eigenvalues    EBANDS =      -529.09408130
  atomic energy  EATOM  =      1234.17543241
  Solvation  Ediel_sol  =         0.00000000
  ---------------------------------------------------
  free energy    TOTEN  =      -104.39465543 eV

  energy without entropy =     -104.39465543  energy(sigma->0) =     -104.39465543


--------------------------------------------------------------------------------------------------------




--------------------------------------- Iteration      1(  12)  ---------------------------------------


    POTLOK:  cpu time    1.7387: real time    1.7431
    SETDIJ:  cpu time    0.0080: real time    0.0074
     EDDAV:  cpu time    9.3366: real time    9.3490
       DOS:  cpu time    0.0000: real time    0.0006
    CHARGE:  cpu time    0.4889: real time    0.4902
    MIXING:  cpu time    0.0620: real time    0.0614
    --------------------------------------------
      LOOP:  cpu time   11.6342: real time   11.6517

 eigenvalue-minimisations  :   104
 total energy-change (2. order) :-0.3397848E-02  (-0.6877521E-04)
 number of electron      56.0000018 magnetization 
 augmentation part       -2.7216440 magnetization 

 Broyden mixing:
  rms(total) = 0.61675E-02    rms(broyden)= 0.61674E-02
  rms(prec ) = 0.10783E-01
  weight for this iteration     100.00

 eigenvalues of (default mixing * dielectric matrix)
  average eigenvalue GAMMA=   2.0194
  4.2633  2.4837  2.3244  1.5834  1.5834  0.9490  0.9490

 Free energy of the ion-electron system (eV)
  ---------------------------------------------------
  alpha Z        PSCENC =         1.41309770
  Ewald energy   TEWEN  =      2629.98113996
  -Hartree energ DENC   =     -3563.80229589
  -exchange      EXHF   =         0.00000000
  -V(xc)+E(xc)   XCENC  =       -46.84040031
  PAW double counting   =      4221.20492853    -4053.03556001
  entropy T*S    EENTRO =        -0.00000000
  eigenvalues    EBANDS =      -527.49439566
  atomic energy  EATOM  =      1234.17543241
  Solvation  Ediel_sol  =         0.00000000
  ---------------------------------------------------
  free energy    TOTEN  =      -104.39805327 eV

  energy without entropy =     -104.39805327  energy(sigma->0) =     -104.39805327


--------------------------------------------------------------------------------------------------------




--------------------------------------- Iteration      1(  13)  ---------------------------------------


    POTLOK:  cpu time    1.7307: real time    1.7326
    SETDIJ:  cpu time    0.0080: real time    0.0074
     EDDAV:  cpu time    9.3286: real time    9.3409
       DOS:  cpu time    0.0000: real time    0.0006
    CHARGE:  cpu time    0.4869: real time    0.4871
    MIXING:  cpu time    0.0660: real time    0.0661
    --------------------------------------------
      LOOP:  cpu time   11.6202: real time   11.6347

 eigenvalue-minimisations  :   104
 total energy-change (2. order) :-0.5384013E-02  (-0.2057451E-03)
 number of electron      56.0000018 magnetization 
 augmentation part       -2.7213667 magnetization 

 Broyden mixing:
  rms(total) = 0.34971E-02    rms(broyden)= 0.34970E-02
  rms(prec ) = 0.53218E-02
  weight for this iteration     100.00

 eigenvalues of (default mixing * dielectric matrix)
  average eigenvalue GAMMA=   2.1821
  5.7302  2.8585  2.4405  1.7632  1.7632  1.0416  0.9299  0.9299

 Free energy of the ion-electron system (eV)
  ---------------------------------------------------
  alpha Z        PSCENC =         1.41309770
  Ewald energy   TEWEN  =      2629.98113996
  -Hartree energ DENC   =     -3566.91055818
  -exchange      EXHF   =         0.00000000
  -V(xc)+E(xc)   XCENC  =       -46.78624542
  PAW double counting   =      4226.59133242    -4058.42893624
  entropy T*S    EENTRO =        -0.00000000
  eigenvalues    EBANDS =      -524.43869994
  atomic energy  EATOM  =      1234.17543241
  Solvation  Ediel_sol  =         0.00000000
  ---------------------------------------------------
  free energy    TOTEN  =      -104.40343729 eV

  energy without entropy =     -104.40343729  energy(sigma->0) =     -104.40343729


--------------------------------------------------------------------------------------------------------




--------------------------------------- Iteration      1(  14)  ---------------------------------------


    POTLOK:  cpu time    1.7227: real time    1.7255
    SETDIJ:  cpu time    0.0120: real time    0.0125
     EDDAV:  cpu time    9.9205: real time    9.9346
       DOS:  cpu time    0.0010: real time    0.0006
    CHARGE:  cpu time    0.4849: real time    0.4876
    MIXING:  cpu time    0.0710: real time    0.0709
    --------------------------------------------
      LOOP:  cpu time   12.2121: real time   12.2316

 eigenvalue-minimisations  :   112
 total energy-change (2. order) :-0.3513936E-02  (-0.3044471E-04)
 number of electron      56.0000018 magnetization 
 augmentation part       -2.7209766 magnetization 

 Broyden mixing:
  rms(total) = 0.17848E-02    rms(broyden)= 0.17848E-02
  rms(prec ) = 0.29863E-02
  weight for this iteration     100.00

 eigenvalues of (default mixing * dielectric matrix)
  average eigenvalue GAMMA=   2.3321
  6.6593  2.9387  2.9387  2.2317  1.6457  1.6457  1.0544  0.9375  0.9375

 Free energy of the ion-electron system (eV)
  ---------------------------------------------------
  alpha Z        PSCENC =         1.41309770
  Ewald energy   TEWEN  =      2629.98113996
  -Hartree energ DENC   =     -3567.78178940
  -exchange      EXHF   =         0.00000000
  -V(xc)+E(xc)   XCENC  =       -46.78938140
  PAW double counting   =      4227.91297587    -4059.75289226
  entropy T*S    EENTRO =        -0.00000000
  eigenvalues    EBANDS =      -523.56553410
  atomic energy  EATOM  =      1234.17543241
  Solvation  Ediel_sol  =         0.00000000
  ---------------------------------------------------
  free energy    TOTEN  =      -104.40695122 eV

  energy without entropy =     -104.40695122  energy(sigma->0) =     -104.40695122


--------------------------------------------------------------------------------------------------------




--------------------------------------- Iteration      1(  15)  ---------------------------------------


    POTLOK:  cpu time    1.7157: real time    1.7180
    SETDIJ:  cpu time    0.0080: real time    0.0077
     EDDAV:  cpu time    9.8915: real time    9.9063
       DOS:  cpu time    0.0000: real time    0.0005
    CHARGE:  cpu time    0.4909: real time    0.4928
    MIXING:  cpu time    0.0790: real time    0.0785
    --------------------------------------------
      LOOP:  cpu time   12.1851: real time   12.2037

 eigenvalue-minimisations  :   112
 total energy-change (2. order) :-0.5380284E-02  (-0.7907073E-04)
 number of electron      56.0000018 magnetization 
 augmentation part       -2.7207468 magnetization 

 Broyden mixing:
  rms(total) = 0.20674E-02    rms(broyden)= 0.20673E-02
  rms(prec ) = 0.24093E-02
  weight for this iteration     100.00

 eigenvalues of (default mixing * dielectric matrix)
  average eigenvalue GAMMA=   2.3010
  6.8294  3.7993  2.6331  2.2111  1.7972  1.7972  1.1371  0.9456  0.9456  0.9141

 Free energy of the ion-electron system (eV)
  ---------------------------------------------------
  alpha Z        PSCENC =         1.41309770
  Ewald energy   TEWEN  =      2629.98113996
  -Hartree energ DENC   =     -3568.00812691
  -exchange      EXHF   =         0.00000000
  -V(xc)+E(xc)   XCENC  =       -46.80510058
  PAW double counting   =      4232.41191856    -4064.25081385
  entropy T*S    EENTRO =        -0.00000000
  eigenvalues    EBANDS =      -523.32987879
  atomic energy  EATOM  =      1234.17543241
  Solvation  Ediel_sol  =         0.00000000
  ---------------------------------------------------
  free energy    TOTEN  =      -104.41233151 eV

  energy without entropy =     -104.41233151  energy(sigma->0) =     -104.41233151


--------------------------------------------------------------------------------------------------------




--------------------------------------- Iteration      1(  16)  ---------------------------------------


    POTLOK:  cpu time    1.7127: real time    1.7137
    SETDIJ:  cpu time    0.0090: real time    0.0083
     EDDAV:  cpu time    9.9175: real time    9.9375
       DOS:  cpu time    0.0010: real time    0.0003
    CHARGE:  cpu time    0.4839: real time    0.4863
    MIXING:  cpu time    0.0870: real time    0.0866
    --------------------------------------------
      LOOP:  cpu time   12.2111: real time   12.2328

 eigenvalue-minimisations  :   112
 total energy-change (2. order) :-0.7174150E-03  (-0.3290351E-05)
 number of electron      56.0000018 magnetization 
 augmentation part       -2.7208596 magnetization 

 Broyden mixing:
  rms(total) = 0.99796E-03    rms(broyden)= 0.99795E-03
  rms(prec ) = 0.12710E-02
  weight for this iteration     100.00

 eigenvalues of (default mixing * dielectric matrix)
  average eigenvalue GAMMA=   2.4510
  7.5067  4.8346  2.7302  2.5558  1.8576  1.8576  1.3776  1.3776  0.9900  0.9368
  0.9368

 Free energy of the ion-electron system (eV)
  ---------------------------------------------------
  alpha Z        PSCENC =         1.41309770
  Ewald energy   TEWEN  =      2629.98113996
  -Hartree energ DENC   =     -3568.10690370
  -exchange      EXHF   =         0.00000000
  -V(xc)+E(xc)   XCENC  =       -46.80226707
  PAW double counting   =      4232.09613482    -4063.93407975
  entropy T*S    EENTRO =        -0.00000000
  eigenvalues    EBANDS =      -523.23560328
  atomic energy  EATOM  =      1234.17543241
  Solvation  Ediel_sol  =         0.00000000
  ---------------------------------------------------
  free energy    TOTEN  =      -104.41304892 eV

  energy without entropy =     -104.41304892  energy(sigma->0) =     -104.41304892


--------------------------------------------------------------------------------------------------------




--------------------------------------- Iteration      1(  17)  ---------------------------------------


    POTLOK:  cpu time    1.7247: real time    1.7319
    SETDIJ:  cpu time    0.0080: real time    0.0079
     EDDAV:  cpu time    9.3486: real time    9.3617
       DOS:  cpu time    0.0000: real time    0.0003
    CHARGE:  cpu time    0.4879: real time    0.4901
    MIXING:  cpu time    0.0980: real time    0.0964
    --------------------------------------------
      LOOP:  cpu time   11.6672: real time   11.6883

 eigenvalue-minimisations  :   104
 total energy-change (2. order) :-0.1104802E-02  (-0.1092637E-04)
 number of electron      56.0000018 magnetization 
 augmentation part       -2.7210849 magnetization 

 Broyden mixing:
  rms(total) = 0.41075E-03    rms(broyden)= 0.41068E-03
  rms(prec ) = 0.53805E-03
  weight for this iteration     100.00

 eigenvalues of (default mixing * dielectric matrix)
  average eigenvalue GAMMA=   2.3427
  7.5600  5.0288  2.6914  2.6914  1.8731  1.8731  1.4173  1.4173  0.9661  0.9458
  0.9458  0.7027

 Free energy of the ion-electron system (eV)
  ---------------------------------------------------
  alpha Z        PSCENC =         1.41309770
  Ewald energy   TEWEN  =      2629.98113996
  -Hartree energ DENC   =     -3568.15515255
  -exchange      EXHF   =         0.00000000
  -V(xc)+E(xc)   XCENC  =       -46.80117766
  PAW double counting   =      4230.64671697    -4062.48346753
  entropy T*S    EENTRO =        -0.00000000
  eigenvalues    EBANDS =      -523.19074302
  atomic energy  EATOM  =      1234.17543241
  Solvation  Ediel_sol  =         0.00000000
  ---------------------------------------------------
  free energy    TOTEN  =      -104.41415372 eV

  energy without entropy =     -104.41415372  energy(sigma->0) =     -104.41415372


--------------------------------------------------------------------------------------------------------




--------------------------------------- Iteration      1(  18)  ---------------------------------------


    POTLOK:  cpu time    1.7137: real time    1.7161
    SETDIJ:  cpu time    0.0070: real time    0.0136
     EDDAV:  cpu time    9.9365: real time    9.9538
       DOS:  cpu time    0.0010: real time    0.0003
    CHARGE:  cpu time    0.4849: real time    0.4864
    MIXING:  cpu time    0.1100: real time    0.1099
    --------------------------------------------
      LOOP:  cpu time   12.2531: real time   12.2801

 eigenvalue-minimisations  :   112
 total energy-change (2. order) :-0.1311894E-03  (-0.5090439E-06)
 number of electron      56.0000018 magnetization 
 augmentation part       -2.7211059 magnetization 

 Broyden mixing:
  rms(total) = 0.28711E-03    rms(broyden)= 0.28707E-03
  rms(prec ) = 0.38491E-03
  weight for this iteration     100.00

 eigenvalues of (default mixing * dielectric matrix)
  average eigenvalue GAMMA=   2.4473
  8.1158  5.3678  3.1205  2.6864  2.0851  1.7973  1.7973  1.4702  1.4702  1.0094
  1.0094  0.9425  0.9425

 Free energy of the ion-electron system (eV)
  ---------------------------------------------------
  alpha Z        PSCENC =         1.41309770
  Ewald energy   TEWEN  =      2629.98113996
  -Hartree energ DENC   =     -3568.15661338
  -exchange      EXHF   =         0.00000000
  -V(xc)+E(xc)   XCENC  =       -46.80266602
  PAW double counting   =      4229.98788509    -4061.82484317
  entropy T*S    EENTRO =        -0.00000000
  eigenvalues    EBANDS =      -523.18771750
  atomic energy  EATOM  =      1234.17543241
  Solvation  Ediel_sol  =         0.00000000
  ---------------------------------------------------
  free energy    TOTEN  =      -104.41428491 eV

  energy without entropy =     -104.41428491  energy(sigma->0) =     -104.41428491


--------------------------------------------------------------------------------------------------------




--------------------------------------- Iteration      1(  19)  ---------------------------------------


    POTLOK:  cpu time    1.7177: real time    1.7208
    SETDIJ:  cpu time    0.0110: real time    0.0111
     EDDAV:  cpu time    8.7947: real time    8.8061
       DOS:  cpu time    0.0000: real time    0.0003
    CHARGE:  cpu time    0.4889: real time    0.4893
    MIXING:  cpu time    0.1210: real time    0.1213
    --------------------------------------------
      LOOP:  cpu time   11.1333: real time   11.1489

 eigenvalue-minimisations  :    96
 total energy-change (2. order) :-0.2570597E-03  (-0.1071994E-05)
 number of electron      56.0000018 magnetization 
 augmentation part       -2.7210881 magnetization 

 Broyden mixing:
  rms(total) = 0.20728E-03    rms(broyden)= 0.20727E-03
  rms(prec ) = 0.23981E-03
  weight for this iteration     100.00

 eigenvalues of (default mixing * dielectric matrix)
  average eigenvalue GAMMA=   2.4476
  8.2494  6.1488  3.3936  2.6120  2.5047  1.8445  1.8445  1.4374  1.4374  1.0276
  0.9273  0.9273  0.9560  0.9560

 Free energy of the ion-electron system (eV)
  ---------------------------------------------------
  alpha Z        PSCENC =         1.41309770
  Ewald energy   TEWEN  =      2629.98113996
  -Hartree energ DENC   =     -3568.18230674
  -exchange      EXHF   =         0.00000000
  -V(xc)+E(xc)   XCENC  =       -46.80199094
  PAW double counting   =      4229.07365249    -4060.91121740
  entropy T*S    EENTRO =        -0.00000000
  eigenvalues    EBANDS =      -523.16234945
  atomic energy  EATOM  =      1234.17543241
  Solvation  Ediel_sol  =         0.00000000
  ---------------------------------------------------
  free energy    TOTEN  =      -104.41454197 eV

  energy without entropy =     -104.41454197  energy(sigma->0) =     -104.41454197


--------------------------------------------------------------------------------------------------------




--------------------------------------- Iteration      1(  20)  ---------------------------------------


    POTLOK:  cpu time    1.7157: real time    1.7205
    SETDIJ:  cpu time    0.0080: real time    0.0073
     EDDAV:  cpu time    7.7048: real time    7.7146
       DOS:  cpu time    0.0010: real time    0.0003
    CHARGE:  cpu time    0.4859: real time    0.4871
    MIXING:  cpu time    0.1320: real time    0.1325
    --------------------------------------------
      LOOP:  cpu time   10.0475: real time   10.0623

 eigenvalue-minimisations  :    80
 total energy-change (2. order) :-0.4037025E-04  (-0.8788825E-07)
 number of electron      56.0000018 magnetization 
 augmentation part       -2.7210568 magnetization 

 Broyden mixing:
  rms(total) = 0.11435E-03    rms(broyden)= 0.11435E-03
  rms(prec ) = 0.13421E-03
  weight for this iteration     100.00

 eigenvalues of (default mixing * dielectric matrix)
  average eigenvalue GAMMA=   2.4696
  8.4564  6.2893  3.7912  2.7529  2.6370  1.6633  1.6633  1.7021  1.7021  1.3188
  1.3188  0.9551  0.9551  0.9529  0.8857

 Free energy of the ion-electron system (eV)
  ---------------------------------------------------
  alpha Z        PSCENC =         1.41309770
  Ewald energy   TEWEN  =      2629.98113996
  -Hartree energ DENC   =     -3568.19234557
  -exchange      EXHF   =         0.00000000
  -V(xc)+E(xc)   XCENC  =       -46.80221320
  PAW double counting   =      4229.38582271    -4061.22365569
  entropy T*S    EENTRO =        -0.00000000
  eigenvalues    EBANDS =      -523.15186065
  atomic energy  EATOM  =      1234.17543241
  Solvation  Ediel_sol  =         0.00000000
  ---------------------------------------------------
  free energy    TOTEN  =      -104.41458234 eV

  energy without entropy =     -104.41458234  energy(sigma->0) =     -104.41458234


--------------------------------------------------------------------------------------------------------




--------------------------------------- Iteration      1(  21)  ---------------------------------------


    POTLOK:  cpu time    1.7207: real time    1.7248
    SETDIJ:  cpu time    0.0070: real time    0.0074
     EDDAV:  cpu time    7.6828: real time    7.6928
       DOS:  cpu time    0.0010: real time    0.0008
    CHARGE:  cpu time    0.4879: real time    0.4901
    MIXING:  cpu time    0.1420: real time    0.1421
    --------------------------------------------
      LOOP:  cpu time   10.0415: real time   10.0579

 eigenvalue-minimisations  :    80
 total energy-change (2. order) :-0.3233336E-04  (-0.7344230E-07)
 number of electron      56.0000018 magnetization 
 augmentation part       -2.7210444 magnetization 

 Broyden mixing:
  rms(total) = 0.91122E-04    rms(broyden)= 0.91119E-04
  rms(prec ) = 0.10144E-03
  weight for this iteration     100.00

 eigenvalues of (default mixing * dielectric matrix)
  average eigenvalue GAMMA=   2.4809
  8.6005  6.5616  4.1696  2.9540  2.6486  2.2253  1.8576  1.8576  1.4981  1.4981
  1.1235  0.9652  0.9652  0.9331  0.9184  0.9184

 Free energy of the ion-electron system (eV)
  ---------------------------------------------------
  alpha Z        PSCENC =         1.41309770
  Ewald energy   TEWEN  =      2629.98113996
  -Hartree energ DENC   =     -3568.19758411
  -exchange      EXHF   =         0.00000000
  -V(xc)+E(xc)   XCENC  =       -46.80219706
  PAW double counting   =      4229.96493690    -4061.80269311
  entropy T*S    EENTRO =        -0.00000000
  eigenvalues    EBANDS =      -523.14674736
  atomic energy  EATOM  =      1234.17543241
  Solvation  Ediel_sol  =         0.00000000
  ---------------------------------------------------
  free energy    TOTEN  =      -104.41461468 eV

  energy without entropy =     -104.41461468  energy(sigma->0) =     -104.41461468


--------------------------------------------------------------------------------------------------------




--------------------------------------- Iteration      1(  22)  ---------------------------------------


    POTLOK:  cpu time    1.7077: real time    1.7109
    SETDIJ:  cpu time    0.0070: real time    0.0073
     EDDAV:  cpu time    7.7168: real time    7.7267
       DOS:  cpu time    0.0010: real time    0.0006
    CHARGE:  cpu time    0.4899: real time    0.4896
    MIXING:  cpu time    0.1530: real time    0.1531
    --------------------------------------------
      LOOP:  cpu time   10.0755: real time   10.0883

 eigenvalue-minimisations  :    80
 total energy-change (2. order) :-0.9182786E-05  (-0.2281036E-07)
 number of electron      56.0000018 magnetization 
 augmentation part       -2.7210539 magnetization 

 Broyden mixing:
  rms(total) = 0.74244E-04    rms(broyden)= 0.74243E-04
  rms(prec ) = 0.78144E-04
  weight for this iteration     100.00

 eigenvalues of (default mixing * dielectric matrix)
  average eigenvalue GAMMA=   2.4467
  8.7564  6.6229  4.4192  3.0482  2.4644  2.4644  1.7847  1.7847  1.4095  1.4095
  1.3119  1.3119  1.0282  0.9536  0.9536  0.9459  0.9251

 Free energy of the ion-electron system (eV)
  ---------------------------------------------------
  alpha Z        PSCENC =         1.41309770
  Ewald energy   TEWEN  =      2629.98113996
  -Hartree energ DENC   =     -3568.19682769
  -exchange      EXHF   =         0.00000000
  -V(xc)+E(xc)   XCENC  =       -46.80220378
  PAW double counting   =      4230.01935485    -4061.85693345
  entropy T*S    EENTRO =        -0.00000000
  eigenvalues    EBANDS =      -523.14768386
  atomic energy  EATOM  =      1234.17543241
  Solvation  Ediel_sol  =         0.00000000
  ---------------------------------------------------
  free energy    TOTEN  =      -104.41462386 eV

  energy without entropy =     -104.41462386  energy(sigma->0) =     -104.41462386


--------------------------------------------------------------------------------------------------------




--------------------------------------- Iteration      1(  23)  ---------------------------------------


    POTLOK:  cpu time    1.7397: real time    1.7449
    SETDIJ:  cpu time    0.0080: real time    0.0077
     EDDAV:  cpu time    8.2767: real time    8.2874
       DOS:  cpu time    0.0010: real time    0.0007
    CHARGE:  cpu time    0.4879: real time    0.4901
    MIXING:  cpu time    0.1650: real time    0.1652
    --------------------------------------------
      LOOP:  cpu time   10.6784: real time   10.6959

 eigenvalue-minimisations  :    88
 total energy-change (2. order) :-0.2838179E-05  (-0.4454145E-08)
 number of electron      56.0000018 magnetization 
 augmentation part       -2.7210533 magnetization 

 Broyden mixing:
  rms(total) = 0.27955E-04    rms(broyden)= 0.27955E-04
  rms(prec ) = 0.33120E-04
  weight for this iteration     100.00

 eigenvalues of (default mixing * dielectric matrix)
  average eigenvalue GAMMA=   2.5137
  8.7884  6.8896  4.8219  3.4749  2.6934  2.6934  2.0735  1.6911  1.6911  1.6291
  1.6291  1.1302  1.1302  1.1232  0.9629  0.9629  0.9311  0.9311

 Free energy of the ion-electron system (eV)
  ---------------------------------------------------
  alpha Z        PSCENC =         1.41309770
  Ewald energy   TEWEN  =      2629.98113996
  -Hartree energ DENC   =     -3568.19632798
  -exchange      EXHF   =         0.00000000
  -V(xc)+E(xc)   XCENC  =       -46.80240219
  PAW double counting   =      4229.82402406    -4061.66162989
  entropy T*S    EENTRO =        -0.00000000
  eigenvalues    EBANDS =      -523.14796076
  atomic energy  EATOM  =      1234.17543241
  Solvation  Ediel_sol  =         0.00000000
  ---------------------------------------------------
  free energy    TOTEN  =      -104.41462670 eV

  energy without entropy =     -104.41462670  energy(sigma->0) =     -104.41462670


--------------------------------------------------------------------------------------------------------




--------------------------------------- Iteration      1(  24)  ---------------------------------------


    POTLOK:  cpu time    1.7167: real time    1.7304
    SETDIJ:  cpu time    0.0100: real time    0.0105
     EDDAV:  cpu time    7.7068: real time    7.7156
       DOS:  cpu time    0.0010: real time    0.0008
    CHARGE:  cpu time    0.4889: real time    0.4905
    MIXING:  cpu time    0.1790: real time    0.1794
    --------------------------------------------
      LOOP:  cpu time   10.1035: real time   10.1273

 eigenvalue-minimisations  :    80
 total energy-change (2. order) :-0.4243047E-05  (-0.8120438E-08)
 number of electron      56.0000018 magnetization 
 augmentation part       -2.7210553 magnetization 

 Broyden mixing:
  rms(total) = 0.24921E-04    rms(broyden)= 0.24921E-04
  rms(prec ) = 0.26356E-04
  weight for this iteration     100.00

 eigenvalues of (default mixing * dielectric matrix)
  average eigenvalue GAMMA=   2.4620
  8.8335  6.9415  5.0106  3.5932  2.6892  2.6892  2.1062  1.7730  1.7730  1.4891
  1.4891  1.2945  1.2945  1.1418  0.9574  0.9574  0.9564  0.8946  0.8946

 Free energy of the ion-electron system (eV)
  ---------------------------------------------------
  alpha Z        PSCENC =         1.41309770
  Ewald energy   TEWEN  =      2629.98113996
  -Hartree energ DENC   =     -3568.19649313
  -exchange      EXHF   =         0.00000000
  -V(xc)+E(xc)   XCENC  =       -46.80238105
  PAW double counting   =      4229.72789272    -4061.56549919
  entropy T*S    EENTRO =        -0.00000000
  eigenvalues    EBANDS =      -523.14782036
  atomic energy  EATOM  =      1234.17543241
  Solvation  Ediel_sol  =         0.00000000
  ---------------------------------------------------
  free energy    TOTEN  =      -104.41463094 eV

  energy without entropy =     -104.41463094  energy(sigma->0) =     -104.41463094


--------------------------------------------------------------------------------------------------------




--------------------------------------- Iteration      1(  25)  ---------------------------------------


    POTLOK:  cpu time    1.7197: real time    1.7252
    SETDIJ:  cpu time    0.0100: real time    0.0105
     EDDAV:  cpu time    7.1729: real time    7.1827
       DOS:  cpu time    0.0010: real time    0.0007
    --------------------------------------------
      LOOP:  cpu time    8.9026: real time    8.9191

 eigenvalue-minimisations  :    72
 total energy-change (2. order) :-0.6427063E-06  (-0.1085780E-08)
 number of electron      56.0000018 magnetization 
 augmentation part       -2.7210553 magnetization 

 Free energy of the ion-electron system (eV)
  ---------------------------------------------------
  alpha Z        PSCENC =         1.41309770
  Ewald energy   TEWEN  =      2629.98113996
  -Hartree energ DENC   =     -3568.19680964
  -exchange      EXHF   =         0.00000000
  -V(xc)+E(xc)   XCENC  =       -46.80233806
  PAW double counting   =      4229.75545136    -4061.59305850
  entropy T*S    EENTRO =        -0.00000000
  eigenvalues    EBANDS =      -523.14754681
  atomic energy  EATOM  =      1234.17543241
  Solvation  Ediel_sol  =         0.00000000
  ---------------------------------------------------
  free energy    TOTEN  =      -104.41463158 eV

  energy without entropy =     -104.41463158  energy(sigma->0) =     -104.41463158


--------------------------------------------------------------------------------------------------------




 average (electrostatic) potential at core
  the test charge radii are     0.9892  1.1631  0.5201
  (the norm of the test charge is              1.0000)
       1 -93.4039       2 -93.4236       3 -93.4236       4 -93.4038       5 -93.4039
       6 -93.4039       7 -93.4236       8 -93.4236       9 -40.4059      10 -40.4059
      11 -41.0746      12 -41.0743      13 -40.7039      14 -40.7040      15 -40.7036
      16 -40.7040      17 -40.7048      18 -40.7039      19 -40.7043      20 -40.7035
      21 -40.7038      22 -40.7040      23 -40.7039      24 -40.7040      25 -41.0744
      26 -41.0745
 
 
 
 E-fermi :  -5.4759     XC(G=0):  -0.6062     alpha+bet : -0.3469


 k-point     1 :       0.0000    0.0000    0.0000
  band No.  band energies     occupation 
      1     -14.9218      2.00000
      2     -14.2531      2.00000
      3     -13.6464      2.00000
      4     -13.6464      2.00000
      5     -13.0765      2.00000
      6     -12.5362      2.00000
      7     -11.4626      2.00000
      8     -11.2344      2.00000
      9     -11.2344      2.00000
     10     -10.3088      2.00000
     11      -8.9381      2.00000
     12      -8.6194      2.00000
     13      -8.6193      2.00000
     14      -8.6120      2.00000
     15      -8.1895      2.00000
     16      -8.1774      2.00000
     17      -8.1774      2.00000
     18      -7.8700      2.00000
     19      -7.8556      2.00000
     20      -7.8556      2.00000
     21      -6.8126      2.00000
     22      -6.7857      2.00000
     23      -6.5029      2.00000
     24      -6.4804      2.00000
     25      -6.4804      2.00000
     26      -6.4351      2.00000
     27      -6.4210      2.00000
     28      -6.4209      2.00000
     29      -1.8348      0.00000
     30      -1.5199      0.00000
     31      -1.3290      0.00000
     32      -1.3289      0.00000
     33      -1.2360      0.00000
     34      -1.1256      0.00000
     35      -1.1123      0.00000
     36      -0.9205      0.00000
     37      -0.9204      0.00000
     38      -0.5732      0.00000
     39      -0.5731      0.00000
     40      -0.4987      0.00000
     41      -0.3300      0.00000
     42      -0.2601      0.00000


--------------------------------------------------------------------------------------------------------


 soft charge-density along one line, spin component           1
         0         1         2         3         4         5         6         7         8         9
 total charge-density along one line
 
 pseudopotential strength for first ion, spin component:           1
 19.614  27.372   0.001   0.003   0.001   0.003   0.005   0.003
 27.372  38.203   0.002   0.004   0.002   0.004   0.008   0.004
  0.001   0.002   4.359   0.000   0.000   8.131   0.000   0.001
  0.003   0.004   0.000   4.359   0.000   0.000   8.131   0.000
  0.001   0.002   0.000   0.000   4.359   0.001   0.000   8.131
  0.003   0.004   8.131   0.000   0.001  15.178   0.001   0.001
  0.005   0.008   0.000   8.131   0.000   0.001  15.177   0.001
  0.003   0.004   0.001   0.000   8.131   0.001   0.001  15.177
 total augmentation occupancy for first ion, spin component:           1
  5.552  -2.034   0.052  -0.341  -0.055  -0.015   0.102   0.017
 -2.034   0.808  -0.035   0.206   0.032   0.009  -0.046  -0.007
  0.052  -0.035   2.833  -0.112  -0.030  -0.614   0.038   0.009
 -0.341   0.206  -0.112   3.281   0.049   0.039  -0.774  -0.019
 -0.055   0.032  -0.030   0.049   2.839   0.009  -0.019  -0.614
 -0.015   0.009  -0.614   0.039   0.009   0.140  -0.011  -0.002
  0.102  -0.046   0.038  -0.774  -0.019  -0.011   0.186   0.006
  0.017  -0.007   0.009  -0.019  -0.614  -0.002   0.006   0.139


------------------------ aborting loop because EDIFF is reached ----------------------------------------


    CHARGE:  cpu time    0.4869: real time    0.4875
    FORLOC:  cpu time    0.1700: real time    0.1719
    FORNL :  cpu time    1.0288: real time    1.0286
    STRESS:  cpu time    6.9259: real time    6.9331
    FORCOR:  cpu time    1.7057: real time    1.7090
    FORHAR:  cpu time    0.5789: real time    0.5809
    MIXING:  cpu time    0.1920: real time    0.1914
    OFIELD:  cpu time    0.0000: real time    0.0000

  FORCE on cell =-STRESS in cart. coord.  units (eV):
  Direction    XX          YY          ZZ          XY          YZ          ZX
  --------------------------------------------------------------------------------------
  Alpha Z     1.41310     1.41310     1.41310
  Ewald     876.64706   876.62235   876.71007    -0.21850     0.02563    -0.50464
  Hartree  1189.84236  1188.67381  1189.68220    -0.59901     0.63115    -0.28613
  E(xc)    -174.09953  -174.09167  -174.09828     0.00309    -0.00487    -0.00175
  Local   -2590.24244 -2589.06467 -2590.14764     0.81100    -0.64647     0.79482
  n-local   307.15336   307.20516   307.16493     0.02019    -0.03155    -0.01026
  augment   -41.20091   -41.20077   -41.20083     0.00028    -0.00074    -0.00030
  Kinetic   423.36690   423.27932   423.34841    -0.03380     0.05319     0.01786
  Fock        0.00000     0.00000     0.00000     0.00000     0.00000     0.00000
  -------------------------------------------------------------------------------------
  Total      -7.12011    -7.16338    -7.12804    -0.01674     0.02634     0.00960
  in kB      -1.42596    -1.43462    -1.42755    -0.00335     0.00528     0.00192
  external pressure =       -1.43 kB  Pullay stress =        0.00 kB


 VOLUME and BASIS-vectors are now :
 -----------------------------------------------------------------------------
  energy-cutoff  :      400.00
[...]
  ---------------------------------------------------
  free energy    TOTEN  =      -104.71970821 eV

  energy without entropy =     -104.71970821  energy(sigma->0) =     -104.71970821


--------------------------------------------------------------------------------------------------------




--------------------------------------- Iteration     19(   2)  ---------------------------------------


    POTLOK:  cpu time    1.7387: real time    1.7375
    SETDIJ:  cpu time    0.0150: real time    0.0148
     EDDAV:  cpu time    9.9325: real time    9.9301
       DOS:  cpu time    0.0000: real time    0.0005
    CHARGE:  cpu time    0.4939: real time    0.4943
    MIXING:  cpu time    0.0470: real time    0.0461
    --------------------------------------------
      LOOP:  cpu time   12.2271: real time   12.2233

 eigenvalue-minimisations  :   112
 total energy-change (2. order) :-0.1531372E-04  (-0.3784184E-04)
 number of electron      55.9999994 magnetization 
 augmentation part       -2.7217569 magnetization 

 Broyden mixing:
  rms(total) = 0.23399E-02    rms(broyden)= 0.23394E-02
  rms(prec ) = 0.24943E-02
  weight for this iteration     100.00

 eigenvalues of (default mixing * dielectric matrix)
  average eigenvalue GAMMA=   1.3109
  1.3109

 Free energy of the ion-electron system (eV)
  ---------------------------------------------------
  alpha Z        PSCENC =         1.41309770
  Ewald energy   TEWEN  =      2693.57005501
  -Hartree energ DENC   =     -3629.36576314
  -exchange      EXHF   =         0.00000000
  -V(xc)+E(xc)   XCENC  =       -45.54326465
  PAW double counting   =      4689.52841650    -4521.57977357
  entropy T*S    EENTRO =        -0.00000000
  eigenvalues    EBANDS =      -526.91792379
  atomic energy  EATOM  =      1234.17543241
  Solvation  Ediel_sol  =         0.00000000
  ---------------------------------------------------
  free energy    TOTEN  =      -104.71972353 eV

  energy without entropy =     -104.71972353  energy(sigma->0) =     -104.71972353


--------------------------------------------------------------------------------------------------------




--------------------------------------- Iteration     19(   3)  ---------------------------------------


    POTLOK:  cpu time    1.7497: real time    1.7507
    SETDIJ:  cpu time    0.0080: real time    0.0074
     EDDAV:  cpu time   10.4644: real time   10.4620
       DOS:  cpu time    0.0000: real time    0.0003
    CHARGE:  cpu time    0.4949: real time    0.4945
    MIXING:  cpu time    0.0490: real time    0.0483
    --------------------------------------------
      LOOP:  cpu time   12.7661: real time   12.7632

 eigenvalue-minimisations  :   120
 total energy-change (2. order) : 0.4908027E-05  (-0.2013848E-05)
 number of electron      55.9999994 magnetization 
 augmentation part       -2.7218109 magnetization 

 Broyden mixing:
  rms(total) = 0.10620E-02    rms(broyden)= 0.10619E-02
  rms(prec ) = 0.11206E-02
  weight for this iteration     100.00

 eigenvalues of (default mixing * dielectric matrix)
  average eigenvalue GAMMA=   1.6338
  1.0449  2.2227

 Free energy of the ion-electron system (eV)
  ---------------------------------------------------
  alpha Z        PSCENC =         1.41309770
  Ewald energy   TEWEN  =      2693.57005501
  -Hartree energ DENC   =     -3629.35990397
  -exchange      EXHF   =         0.00000000
  -V(xc)+E(xc)   XCENC  =       -45.54312755
  PAW double counting   =      4689.26854979    -4521.31966359
  entropy T*S    EENTRO =        -0.00000000
  eigenvalues    EBANDS =      -526.92415842
  atomic energy  EATOM  =      1234.17543241
  Solvation  Ediel_sol  =         0.00000000
  ---------------------------------------------------
  free energy    TOTEN  =      -104.71971862 eV

  energy without entropy =     -104.71971862  energy(sigma->0) =     -104.71971862


--------------------------------------------------------------------------------------------------------




--------------------------------------- Iteration     19(   4)  ---------------------------------------


    POTLOK:  cpu time    1.7457: real time    1.7460
    SETDIJ:  cpu time    0.0070: real time    0.0075
     EDDAV:  cpu time    9.3956: real time    9.3924
       DOS:  cpu time    0.0000: real time    0.0004
    --------------------------------------------
      LOOP:  cpu time   11.1483: real time   11.1462

 eigenvalue-minimisations  :   104
 total energy-change (2. order) :-0.2116576E-07  (-0.4297542E-06)
 number of electron      55.9999994 magnetization 
 augmentation part       -2.7218109 magnetization 

 Free energy of the ion-electron system (eV)
  ---------------------------------------------------
  alpha Z        PSCENC =         1.41309770
  Ewald energy   TEWEN  =      2693.57005501
  -Hartree energ DENC   =     -3629.35697369
  -exchange      EXHF   =         0.00000000
  -V(xc)+E(xc)   XCENC  =       -45.54310745
  PAW double counting   =      4688.91084304    -4520.96185500
  entropy T*S    EENTRO =        -0.00000000
  eigenvalues    EBANDS =      -526.92721066
  atomic energy  EATOM  =      1234.17543241
  Solvation  Ediel_sol  =         0.00000000
  ---------------------------------------------------
  free energy    TOTEN  =      -104.71971864 eV

  energy without entropy =     -104.71971864  energy(sigma->0) =     -104.71971864


--------------------------------------------------------------------------------------------------------




 average (electrostatic) potential at core
  the test charge radii are     0.9892  1.1631  0.5201
  (the norm of the test charge is              1.0000)
       1 -93.3101       2 -93.2595       3 -93.2593       4 -93.3101       5 -93.3101
       6 -93.3100       7 -93.2593       8 -93.2595       9 -40.3693      10 -40.3694
      11 -40.9697      12 -40.9694      13 -40.8780      14 -40.8307      15 -40.8308
      16 -40.8310      17 -40.8304      18 -40.8784      19 -40.8785      20 -40.8308
      21 -40.8306      22 -40.8781      23 -40.8303      24 -40.8306      25 -40.9691
      26 -40.9692
 
 
 
 E-fermi :  -5.4574     XC(G=0):  -0.5955     alpha+bet : -0.3469


 k-point     1 :       0.0000    0.0000    0.0000
  band No.  band energies     occupation 
      1     -15.0131      2.00000
      2     -14.1985      2.00000
      3     -13.8267      2.00000
      4     -13.8267      2.00000
      5     -13.0964      2.00000
      6     -12.7142      2.00000
      7     -11.5737      2.00000
      8     -11.3549      2.00000
      9     -11.3548      2.00000
     10     -10.4286      2.00000
     11      -9.0954      2.00000
     12      -8.6983      2.00000
     13      -8.6522      2.00000
     14      -8.6521      2.00000
     15      -8.2754      2.00000
     16      -8.1384      2.00000
     17      -8.1383      2.00000
     18      -7.9597      2.00000
     19      -7.9596      2.00000
     20      -7.9102      2.00000
     21      -6.9066      2.00000
     22      -6.7977      2.00000
     23      -6.5737      2.00000
     24      -6.5164      2.00000
     25      -6.5163      2.00000
     26      -6.4838      2.00000
     27      -6.4009      2.00000
     28      -6.4008      2.00000
     29      -1.7546      0.00000
     30      -1.4908      0.00000
     31      -1.3093      0.00000
     32      -1.3091      0.00000
     33      -1.2587      0.00000
     34      -1.1035      0.00000
     35      -1.0188      0.00000
     36      -0.7680      0.00000
     37      -0.7678      0.00000
     38      -0.4736      0.00000
     39      -0.4733      0.00000
     40      -0.3237      0.00000
     41      -0.2006      0.00000
     42      -0.1723      0.00000


--------------------------------------------------------------------------------------------------------


 soft charge-density along one line, spin component           1
         0         1         2         3         4         5         6         7         8         9
 total charge-density along one line
 
 pseudopotential strength for first ion, spin component:           1
 19.612  27.369   0.001   0.003   0.001   0.002   0.005   0.002
 27.369  38.198   0.002   0.004   0.002   0.003   0.007   0.003
  0.001   0.002   4.361   0.000   0.000   8.135   0.000   0.000
  0.003   0.004   0.000   4.361   0.000   0.000   8.136   0.000
  0.001   0.002   0.000   0.000   4.361   0.000   0.000   8.135
  0.002   0.003   8.135   0.000   0.000  15.185   0.000   0.001
  0.005   0.007   0.000   8.136   0.000   0.000  15.186   0.001
  0.002   0.003   0.000   0.000   8.135   0.001   0.001  15.184
 total augmentation occupancy for first ion, spin component:           1
  5.930  -2.239   0.004  -0.455  -0.104   0.001   0.141   0.033
 -2.239   0.905  -0.015   0.260   0.054   0.002  -0.063  -0.014
  0.004  -0.015   2.927  -0.175  -0.088  -0.643   0.057   0.025
 -0.455   0.260  -0.175   3.531   0.034   0.057  -0.850  -0.016
 -0.104   0.054  -0.088   0.034   2.994   0.025  -0.016  -0.659
  0.001   0.002  -0.643   0.057   0.025   0.148  -0.016  -0.006
  0.141  -0.063   0.057  -0.850  -0.016  -0.016   0.208   0.005
  0.033  -0.014   0.025  -0.016  -0.659  -0.006   0.005   0.152


------------------------ aborting loop because EDIFF is reached ----------------------------------------


    CHARGE:  cpu time    0.4789: real time    0.4785
    FORLOC:  cpu time    0.1790: real time    0.1786
    FORNL :  cpu time    1.0388: real time    1.0396
    STRESS:  cpu time    6.9179: real time    6.9157
    FORCOR:  cpu time    1.7087: real time    1.7079
    FORHAR:  cpu time    0.5829: real time    0.5825
    MIXING:  cpu time    0.0490: real time    0.0495
    OFIELD:  cpu time    0.0000: real time    0.0000

  FORCE on cell =-STRESS in cart. coord.  units (eV):
  Direction    XX          YY          ZZ          XY          YZ          ZX
  --------------------------------------------------------------------------------------
  Alpha Z     1.41310     1.41310     1.41310
  Ewald     901.17110   892.85666   899.54059    -3.10431     4.55429     1.05508
  Hartree  1212.80700  1205.21306  1211.33645    -2.84545     4.16706     0.92888
  E(xc)    -175.72382  -175.73831  -175.72669    -0.00567     0.00892     0.00304
  Local   -2640.00632 -2623.87038 -2636.85897     6.03968    -8.86342    -2.03322
  n-local   310.45518   310.60484   310.48441     0.05835    -0.09343    -0.03174
  augment   -41.36530   -41.35812   -41.36337     0.00308    -0.00498    -0.00171
  Kinetic   430.43060   429.98908   430.34054    -0.17386     0.27980     0.09608
  Fock        0.00000     0.00000     0.00000     0.00000     0.00000     0.00000
  -------------------------------------------------------------------------------------
  Total      -0.81846    -0.89008    -0.83394    -0.02817     0.04824     0.01642
  in kB      -0.16391    -0.17826    -0.16702    -0.00564     0.00966     0.00329
  external pressure =       -0.17 kB  Pullay stress =        0.00 kB


 VOLUME and BASIS-vectors are now :
 -----------------------------------------------------------------------------
  energy-cutoff  :      400.00
  volume of cell :     8000.00
      direct lattice vectors                 reciprocal lattice vectors
    20.000000000  0.000000000  0.000000000     0.050000000  0.000000000  0.000000000
     0.000000000 20.000000000  0.000000000     0.000000000  0.050000000  0.000000000
     0.000000000  0.000000000 20.000000000     0.000000000  0.000000000  0.050000000

  length of vectors
    20.000000000 20.000000000 20.000000000     0.050000000  0.050000000  0.050000000


 FORCES acting on ions
    electron-ion (+dipol)            ewald-force                    non-local-force                 convergence-correction
 -----------------------------------------------------------------------------------------------
   0.117E+02 -.204E+02 0.909E+02   -.122E+02 0.200E+02 -.923E+02   0.517E+00 0.415E+00 0.138E+01   -.470E-03 -.839E-03 -.464E-03
   0.899E+02 -.528E+01 0.476E+02   -.914E+02 0.537E+01 -.483E+02   0.150E+01 -.850E-01 0.789E+00   0.127E-03 -.134E-04 0.888E-04
   -.375E+02 0.550E+02 0.771E+02   0.381E+02 -.560E+02 -.784E+02   -.623E+00 0.915E+00 0.129E+01   -.298E-04 0.874E-04 0.105E-03
   0.832E+02 0.149E+02 -.411E+02   -.846E+02 -.144E+02 0.415E+02   0.139E+01 -.526E+00 -.376E+00   -.602E-03 0.893E-03 -.931E-04
   -.511E+02 0.783E+02 -.971E+01   0.524E+02 -.791E+02 0.945E+01   -.131E+01 0.750E+00 0.253E+00   0.973E-03 0.162E-03 -.464E-03
   -.438E+02 -.728E+02 -.403E+02   0.444E+02 0.734E+02 0.416E+02   -.598E+00 -.640E+00 -.126E+01   0.154E-03 -.225E-03 0.106E-02
   -.898E+02 0.528E+01 -.475E+02   0.913E+02 -.536E+01 0.483E+02   -.150E+01 0.874E-01 -.787E+00   -.127E-03 0.607E-05 -.565E-04
   0.375E+02 -.550E+02 -.771E+02   -.382E+02 0.560E+02 0.784E+02   0.624E+00 -.915E+00 -.128E+01   0.558E-04 -.809E-04 -.891E-04
   -.302E+02 -.872E+02 0.477E+02   0.304E+02 0.877E+02 -.480E+02   -.192E+00 -.557E+00 0.303E+00   0.212E-03 0.555E-03 -.305E-03
   0.302E+02 0.872E+02 -.476E+02   -.304E+02 -.877E+02 0.479E+02   0.193E+00 0.557E+00 -.303E+00   -.193E-03 -.568E-03 0.320E-03
   0.204E+02 0.402E+02 0.559E+01   -.216E+02 -.421E+02 -.665E+01   0.117E+01 0.195E+01 0.106E+01   -.926E-04 -.207E-03 0.210E-04
   0.129E+01 0.222E+02 -.397E+02   -.987E+00 -.228E+02 0.421E+02   -.304E+00 0.555E+00 -.243E+01   -.256E-04 -.143E-03 0.177E-03
   -.274E+02 0.406E+02 -.469E+01   0.290E+02 -.430E+02 0.497E+01   -.161E+01 0.241E+01 -.280E+00   0.196E-03 -.161E-03 -.180E-04
   -.467E+02 -.440E+01 0.577E+01   0.494E+02 0.486E+01 -.700E+01   -.265E+01 -.459E+00 0.123E+01   -.161E-03 -.136E-03 0.385E-04
   -.212E+02 0.839E+01 -.417E+02   0.216E+02 -.903E+01 0.445E+02   -.434E+00 0.638E+00 -.285E+01   -.492E-04 0.147E-03 -.143E-03
   -.370E+02 0.506E+01 0.294E+02   0.396E+02 -.464E+01 -.307E+02   -.260E+01 -.415E+00 0.134E+01   -.107E-03 -.859E-04 0.165E-03
   0.864E+01 0.366E+02 0.290E+02   -.996E+01 -.389E+02 -.303E+02   0.132E+01 0.230E+01 0.131E+01   0.234E-04 0.212E-03 0.119E-04
   0.648E+01 -.998E+01 0.476E+02   -.686E+01 0.106E+02 -.504E+02   0.378E+00 -.594E+00 0.282E+01   -.623E-04 -.269E-04 -.243E-03
   -.230E+02 -.377E+02 -.219E+02   0.243E+02 0.399E+02 0.232E+02   -.136E+01 -.223E+01 -.128E+01   0.108E-03 0.143E-03 0.181E-03
   0.298E+01 -.308E+01 -.472E+02   -.267E+01 0.249E+01 0.500E+02   -.323E+00 0.586E+00 -.288E+01   0.854E-04 0.824E-04 -.170E-03
   0.255E+02 -.386E+02 -.111E+02   -.271E+02 0.410E+02 0.109E+02   0.160E+01 -.247E+01 0.235E+00   0.413E-05 -.211E-03 0.473E-05
   0.437E+02 0.703E+01 -.213E+02   -.463E+02 -.744E+01 0.226E+02   0.259E+01 0.421E+00 -.126E+01   -.232E-03 0.431E-04 0.847E-04
   0.327E+02 0.252E+02 0.235E+02   -.341E+02 -.275E+02 -.247E+02   0.143E+01 0.224E+01 0.128E+01   0.148E-03 0.145E-03 -.158E-04
   0.353E+02 -.292E+02 0.126E+02   -.369E+02 0.317E+02 -.129E+02   0.165E+01 -.242E+01 0.344E+00   0.537E-04 -.157E-03 0.129E-03
   0.124E+02 -.421E+02 0.117E+02   -.137E+02 0.441E+02 -.120E+02   0.135E+01 -.210E+01 0.266E+00   -.185E-04 0.214E-03 -.741E-04
   -.340E+02 -.203E+02 0.225E+02   0.362E+02 0.207E+02 -.236E+02   -.222E+01 -.408E+00 0.110E+01   0.140E-03 0.138E-03 -.114E-03
 -----------------------------------------------------------------------------------------------
   0.206E-02 -.172E-02 -.317E-02   -.568E-13 0.675E-13 0.568E-13   -.369E-02 0.447E-02 0.434E-02   0.113E-03 -.275E-04 0.140E-03
 
 
 POSITION                                       TOTAL-FORCE (eV/Angst)
 -----------------------------------------------------------------------------------
      9.49606     11.09032      7.70654        -0.002404      0.003578     -0.015676
      7.40719     10.77979      8.74176         0.006449     -0.000346      0.003144
     10.82516      9.16467      7.94476        -0.002574      0.003883      0.005475
      7.69922     10.33005     11.03172        -0.014487     -0.002118      0.007070
     11.16343      8.69313     10.22395         0.008680     -0.013755      0.001853
     10.92422     12.44153     11.09294         0.007612      0.012466      0.007213
     12.23426     10.49782     11.28590        -0.006378      0.000566     -0.003210
      8.81624     12.11299     12.08288         0.002450     -0.003935     -0.005461
     10.61454     12.93581      8.76239         0.002175      0.006016     -0.003469
      9.02705      8.34161     11.26515        -0.001822     -0.006403      0.003259
      8.30109      7.13236     10.60271         0.006156      0.010077      0.006342
      9.21647      7.99832     12.77330        -0.002150      0.002143     -0.013239
     11.99675      7.45215     10.36789         0.009512      0.000880     -0.004184
     13.57666     10.73140     10.66104         0.003102      0.004482      0.001565
     12.45233     10.17326     12.73303         0.002841     -0.004835      0.001448
     12.14556      9.37777      7.26787         0.000138      0.001811     -0.005621
     10.15423      7.99844      7.28385         0.002254     -0.005372      0.000481
      9.30050     11.39559      6.24921        -0.004590     -0.007413     -0.005047
     11.62339     13.59302     11.75650         0.001777     -0.001507      0.010077
      8.98091     11.81356     13.54246        -0.004694     -0.001072      0.003159
      8.00194     13.36562     11.96094         0.002076      0.004974      0.001610
      6.36260     10.11429     11.68138        -0.006434      0.008310     -0.000716
      6.68295      9.63872      8.09329        -0.004992     -0.001801      0.002363
      6.57096     12.01173      8.56786        -0.000744      0.001954     -0.005187
      9.77260     14.23674      8.59826         0.008055     -0.010889      0.000928
     11.99308     13.18732      8.08075        -0.012008     -0.001693      0.005822
 -----------------------------------------------------------------------------------
    total drift:                               -0.001524      0.002720      0.001311


--------------------------------------------------------------------------------------------------------



  FREE ENERGIE OF THE ION-ELECTRON SYSTEM (eV)
  ---------------------------------------------------
  free  energy   TOTEN  =      -104.71971864 eV

  energy  without entropy=     -104.71971864  energy(sigma->0) =     -104.71971864
 
 d Force = 0.3567322E-03[ 0.266E-03, 0.448E-03]  d Energy = 0.3562599E-03 0.472E-06
 d Force = 0.2307119E+00[ 0.231E+00, 0.230E+00]  d Ewald  = 0.2307118E+00 0.980E-07


--------------------------------------------------------------------------------------------------------


    POTLOK:  cpu time    1.7437: real time    1.7427


--------------------------------------------------------------------------------------------------------




--------------------------------------------------------------------------------------------------------


  
 reached required accuracy - stopping structural energy minimisation
 writing wavefunctions
     LOOP+:  cpu time   59.8059: real time   60.2193
    4ORBIT:  cpu time    0.0000: real time    0.0000

 total amount of memory used by VASP MPI-rank0   131439. kBytes
=======================================================================

   base      :      30000. kBytes
   nonl-proj :      17624. kBytes
   fftplans  :      26957. kBytes
   grid      :      48673. kBytes
   one-center:         40. kBytes
   wavefun   :       8145. kBytes
 
  
  
 General timing and accounting informations for this job:
 ========================================================
  
                  Total CPU time used (sec):     2133.112
                            User time (sec):     2104.442
                          System time (sec):       28.670
                         Elapsed time (sec):     2138.255
  
                   Maximum memory used (kb):      184404.
                   Average memory used (kb):           0.
  
                          Minor page faults:      5365943
                          Major page faults:            5
                 Voluntary context switches:         5370
