 vasp.5.4.4.18Apr17-6-g9f103f2a35 (build Nov 06 2017 19:16:10) complex          
  
 executed on           IFC91_ompi date 2018.07.08  23:43:11
 running on   12 total cores
 distrk:  each k-point on   12 cores,    1 groups
 distr:  one band on NCORES_PER_BAND=   6 cores,    2 groups


--------------------------------------------------------------------------------------------------------


 INCAR:
 POTCAR:    PAW_PBE Si 05Jan2001                  
 POTCAR:    PAW_PBE Ge 05Jan2001                  
 POTCAR:    PAW_PBE H 15Jun2001                   
 POTCAR:    PAW_PBE Si 05Jan2001                  
   VRHFIN =Si: s2p2                                                             
   LEXCH  = PE                                                                  
   EATOM  =   103.0669 eV,    7.5752 Ry                                         
                                                                                
   TITEL  = PAW_PBE Si 05Jan2001                                                
   LULTRA =        F    use ultrasoft PP ?                                      
   IUNSCR =        1    unscreen: 0-lin 1-nonlin 2-no                           
   RPACOR =    1.500    partial core radius                                     
   POMASS =   28.085; ZVAL   =    4.000    mass and valenz                      
   RCORE  =    1.900    outmost cutoff radius                                   
   RWIGS  =    2.480; RWIGS  =    1.312    wigner-seitz radius (au A)           
   ENMAX  =  245.345; ENMIN  =  184.009 eV                                      
   ICORE  =        2    local potential                                         
   LCOR   =        T    correct aug charges                                     
   LPAW   =        T    paw PP                                                  
   EAUG   =  322.069                                                            
   DEXC   =    0.000                                                            
   RMAX   =    1.950    core radius for proj-oper                               
   RAUG   =    1.300    factor for augmentation sphere                          
   RDEP   =    1.993    radius for radial grids                                 
   RDEPT  =    1.837    core radius for aug-charge                              
                                                                                
   Atomic configuration                                                         
    6 entries                                                                   
     n  l   j            E        occ.                                          
     1  0  0.50     -1785.8828   2.0000                                         
     2  0  0.50      -139.4969   2.0000                                         
     2  1  1.50       -95.5546   6.0000                                         
     3  0  0.50       -10.8127   2.0000                                         
     3  1  0.50        -4.0811   2.0000                                         
     3  2  1.50        -4.0817   0.0000                                         
   Description                                                                  
     l       E           TYP  RCUT    TYP  RCUT                                 
     0    -10.8127223     23  1.900                                             
     0     -7.6451159     23  1.900                                             
     1     -4.0811372     23  1.900                                             
     1      2.4879257     23  1.900                                             
     2     -4.0817478      7  1.900                                             
  local pseudopotential read in
  partial core-charges read in
  partial kinetic energy density read in
  atomic valenz-charges read in
  non local Contribution for L=           0  read in
    real space projection operators read in
  non local Contribution for L=           0  read in
    real space projection operators read in
  non local Contribution for L=           1  read in
    real space projection operators read in
  non local Contribution for L=           1  read in
    real space projection operators read in
    PAW grid and wavefunctions read in
 
   number of l-projection  operators is LMAX  =           4
   number of lm-projection operators is LMMAX =           8
 
 POTCAR:    PAW_PBE Ge 05Jan2001                  
   VRHFIN =Ge: s2p2                                                             
   LEXCH  = PE                                                                  
   EATOM  =   104.9960 eV,    7.7170 Ry                                         
                                                                                
   TITEL  = PAW_PBE Ge 05Jan2001                                                
   LULTRA =        F    use ultrasoft PP ?                                      
   IUNSCR =        1    unscreen: 0-lin 1-nonlin 2-no                           
   RPACOR =    2.170    partial core radius                                     
   POMASS =   72.610; ZVAL   =    4.000    mass and valenz                      
   RCORE  =    2.300    outmost cutoff radius                                   
   RWIGS  =    2.300; RWIGS  =    1.217    wigner-seitz radius (au A)           
   ENMAX  =  173.807; ENMIN  =  130.355 eV                                      
   ICORE  =        3    local potential                                         
   LCOR   =        T    correct aug charges                                     
   LPAW   =        T    paw PP                                                  
   EAUG   =  385.843                                                            
   DEXC   =    0.000                                                            
   RMAX   =    2.342    core radius for proj-oper                               
   RAUG   =    1.300    factor for augmentation sphere                          
   RDEP   =    2.318    radius for radial grids                                 
   RDEPT  =    2.103    core radius for aug-charge                              
                                                                                
   Atomic configuration                                                         
   10 entries                                                                   
     n  l   j            E        occ.                                          
     1  0  0.50    -10959.8463   2.0000                                         
     2  0  0.50     -1371.6056   2.0000                                         
     2  1  1.50     -1198.4791   6.0000                                         
     3  0  0.50      -168.4733   2.0000                                         
     3  1  1.50      -115.6019   6.0000                                         
     3  2  2.50       -29.3106  10.0000                                         
     4  0  0.50       -11.7309   2.0000                                         
     4  1  0.50        -3.8952   2.0000                                         
     4  2  1.50        -4.0817   0.0000                                         
     4  3  2.50        -4.0817   0.0000                                         
   Description                                                                  
     l       E           TYP  RCUT    TYP  RCUT                                 
     0    -11.7309493     23  2.300                                             
     0     -7.4578696     23  2.300                                             
     1     -3.8952261     23  2.300                                             
     1      6.1178114     23  2.300                                             
     2     -4.0817478     23  2.300                                             
     3     -1.3605826      7  2.300                                             
  local pseudopotential read in
  partial core-charges read in
  partial kinetic energy density read in
  atomic valenz-charges read in
  non local Contribution for L=           0  read in
    real space projection operators read in
  non local Contribution for L=           0  read in
    real space projection operators read in
  non local Contribution for L=           1  read in
    real space projection operators read in
  non local Contribution for L=           1  read in
    real space projection operators read in
  non local Contribution for L=           2  read in
    real space projection operators read in
    PAW grid and wavefunctions read in
 
   number of l-projection  operators is LMAX  =           5
   number of lm-projection operators is LMMAX =          13
 
 POTCAR:    PAW_PBE H 15Jun2001                   
   VRHFIN =H: ultrasoft test                                                    
   LEXCH  = PE                                                                  
   EATOM  =    12.4884 eV,    0.9179 Ry                                         
                                                                                
   TITEL  = PAW_PBE H 15Jun2001                                                 
   LULTRA =        F    use ultrasoft PP ?                                      
   IUNSCR =        0    unscreen: 0-lin 1-nonlin 2-no                           
   RPACOR =    0.000    partial core radius                                     
   POMASS =    1.000; ZVAL   =    1.000    mass and valenz                      
   RCORE  =    1.100    outmost cutoff radius                                   
   RWIGS  =    0.700; RWIGS  =    0.370    wigner-seitz radius (au A)           
   ENMAX  =  250.000; ENMIN  =  200.000 eV                                      
   RCLOC  =    0.701    cutoff for local pot                                    
   LCOR   =        T    correct aug charges                                     
   LPAW   =        T    paw PP                                                  
   EAUG   =  400.000                                                            
   RMAX   =    1.123    core radius for proj-oper                               
   RAUG   =    1.200    factor for augmentation sphere                          
   RDEP   =    1.112    radius for radial grids                                 
   RDEPT  =    0.926    core radius for aug-charge                              
                                                                                
   Atomic configuration                                                         
    2 entries                                                                   
     n  l   j            E        occ.                                          
     1  0  0.50        -6.4927   1.0000                                         
     2  1  0.50        -3.4015   0.0000                                         
   Description                                                                  
     l       E           TYP  RCUT    TYP  RCUT                                 
     0     -6.4927494     23  1.100                                             
     0      6.8029130     23  1.100                                             
     1     -4.0817478     23  1.100                                             
  local pseudopotential read in
  atomic valenz-charges read in
  non local Contribution for L=           0  read in
    real space projection operators read in
  non local Contribution for L=           0  read in
    real space projection operators read in
  non local Contribution for L=           1  read in
    real space projection operators read in
    PAW grid and wavefunctions read in
 
   number of l-projection  operators is LMAX  =           3
   number of lm-projection operators is LMMAX =           5
 

 ----------------------------------------------------------------------------- 
|                                                                             |
|  ADVICE TO THIS USER RUNNING 'VASP/VAMP'   (HEAR YOUR MASTER'S VOICE ...):  |
|                                                                             |
|      You have a (more or less) 'large supercell' and for larger cells       |
|      it might be more efficient to use real space projection opertators     |
|      So try LREAL= Auto  in the INCAR   file.                               |
|      Mind:          For very  accurate calculation you might also keep the  |
|      reciprocal projection scheme          (i.e. LREAL=.FALSE.)             |
|                                                                             |
 ----------------------------------------------------------------------------- 

  PAW_PBE Si 05Jan2001                  :
 energy of atom  1       EATOM= -103.0669
 kinetic energy error for atom=    0.0012 (will be added to EATOM!!)
  PAW_PBE Ge 05Jan2001                  :
 energy of atom  2       EATOM= -104.9960
 kinetic energy error for atom=    0.0003 (will be added to EATOM!!)
  PAW_PBE H 15Jun2001                   :
 energy of atom  3       EATOM=  -12.4884
 kinetic energy error for atom=    0.0098 (will be added to EATOM!!)
 
 
 POSCAR: SiGeH16                                 
  positions in direct lattice
  No initial velocities read in
 exchange correlation table for  LEXCH =        8
   RHO(1)=    0.500       N(1)  =     2000
   RHO(2)=  100.500       N(2)  =     4000
 


--------------------------------------------------------------------------------------------------------


 ion  position               nearest neighbor table
   1  0.475  0.556  0.385-  18 1.55   4 2.39   2 2.39   3 2.39
   2  0.369  0.539  0.436-  23 1.55  24 1.55   5 2.39   1 2.39
   3  0.542  0.457  0.396-  17 1.55  16 1.55   8 2.39   1 2.39
   4  0.531  0.648  0.437-  25 1.55  26 1.55   9 2.39   1 2.39
   5  0.385  0.515  0.552-  22 1.55   7 2.39   6 2.39   2 2.39
   6  0.451  0.416  0.564-  12 1.55  11 1.55   5 2.39   8 2.39
   7  0.440  0.606  0.605-  20 1.55  21 1.55   5 2.39   9 2.39
   8  0.557  0.433  0.512-  13 1.55   3 2.39  10 2.39   6 2.39
   9  0.547  0.624  0.554-  19 1.55   4 2.39  10 2.39   7 2.39
  10  0.613  0.525  0.565-  15 1.55  14 1.55   9 2.39   8 2.39
  11  0.415  0.357  0.529-   6 1.55
  12  0.461  0.400  0.639-   6 1.55
  13  0.600  0.369  0.520-   8 1.55
  14  0.682  0.536  0.531-  10 1.55
  15  0.623  0.509  0.640-  10 1.55
  16  0.611  0.469  0.363-   3 1.55
  17  0.506  0.398  0.362-   3 1.55
  18  0.465  0.572  0.309-   1 1.55
  19  0.583  0.683  0.588-   9 1.55
  20  0.451  0.590  0.680-   7 1.55
  21  0.397  0.670  0.598-   7 1.55
  22  0.316  0.504  0.586-   5 1.55
  23  0.333  0.479  0.402-   2 1.55
  24  0.326  0.603  0.429-   2 1.55
  25  0.488  0.712  0.430-   4 1.55
  26  0.600  0.659  0.404-   4 1.55
 
  LATTYP: Found a simple cubic cell.
 ALAT       =    20.0000000000
  
  Lattice vectors:
  
 A1 = (  20.0000000000,   0.0000000000,   0.0000000000)
 A2 = (   0.0000000000,  20.0000000000,   0.0000000000)
 A3 = (   0.0000000000,   0.0000000000,  20.0000000000)


Analysis of symmetry for initial positions (statically):
=====================================================================
 Subroutine PRICEL returns:
 Original cell was already a primitive cell.
 

 Routine SETGRP: Setting up the symmetry group for a 
 simple cubic supercell.


 Subroutine GETGRP returns: Found  1 space group operations
 (whereof  1 operations were pure point group operations)
 out of a pool of 48 trial point group operations.


The static configuration has the point symmetry C_1 .


Analysis of symmetry for dynamics (positions and initial velocities):
=====================================================================
 Subroutine PRICEL returns:
 Original cell was already a primitive cell.
 

 Routine SETGRP: Setting up the symmetry group for a 
 simple cubic supercell.


 Subroutine GETGRP returns: Found  1 space group operations
 (whereof  1 operations were pure point group operations)
 out of a pool of 48 trial point group operations.


The dynamic configuration has the point symmetry C_1 .


 Subroutine INISYM returns: Found  1 space group operations
 (whereof  1 operations are pure point group operations),
 and found     1 'primitive' translations

 
 
 KPOINTS: Automatic mesh                          

Automatic generation of k-mesh.
Space group operators:
 irot       det(A)        alpha          n_x          n_y          n_z        tau_x        tau_y        tau_z
    1     1.000000     0.000000     1.000000     0.000000     0.000000     0.000000     0.000000     0.000000
 
 Subroutine IBZKPT returns following result:
 ===========================================
 
 Found      1 irreducible k-points:
 
 Following reciprocal coordinates:
            Coordinates               Weight
  0.000000  0.000000  0.000000      1.000000
 
 Following cartesian coordinates:
            Coordinates               Weight
  0.000000  0.000000  0.000000      1.000000
 


--------------------------------------------------------------------------------------------------------




 Dimension of arrays:
   k-points           NKPTS =      1   k-points in BZ     NKDIM =      1   number of bands    NBANDS=     42
   number of dos      NEDOS =    301   number of ions     NIONS =     26
   non local maximal  LDIM  =      5   non local SUM 2l+1 LMDIM =     13
   total plane-waves  NPLWV = 941192
   max r-space proj   IRMAX =      1   max aug-charges    IRDMAX=   6593
   dimension x,y,z NGX =    98 NGY =   98 NGZ =   98
   dimension x,y,z NGXF=   196 NGYF=  196 NGZF=  196
   support grid    NGXF=   196 NGYF=  196 NGZF=  196
   ions per type =               7   3  16
   NGX,Y,Z   is equivalent  to a cutoff of   8.15,  8.15,  8.15 a.u.
   NGXF,Y,Z  is equivalent  to a cutoff of  16.29, 16.29, 16.29 a.u.

 SYSTEM =  SiGe                                    
 POSCAR =  SiGeH16                                 

 Startparameter for this run:
   NWRITE =      2    write-flag & timer
   PREC   = normal    normal or accurate (medium, high low for compatibility)
   ISTART =      0    job   : 0-new  1-cont  2-samecut
   ICHARG =      2    charge: 1-file 2-atom 10-const
   ISPIN  =      1    spin polarized calculation?
   LNONCOLLINEAR =      F non collinear calculations
   LSORBIT =      F    spin-orbit coupling
   INIWAV =      1    electr: 0-lowe 1-rand  2-diag
   LASPH  =      F    aspherical Exc in radial PAW
   METAGGA=      F    non-selfconsistent MetaGGA calc.

 Electronic Relaxation 1
   ENCUT  =  400.0 eV  29.40 Ry    5.42 a.u.  32.61 32.61 32.61*2*pi/ulx,y,z
   ENINI  =  400.0     initial cutoff
   ENAUG  =  400.0 eV  augmentation charge cutoff
   NELM   =     60;   NELMIN=  2; NELMDL= -5     # of ELM steps 
   EDIFF  = 0.1E-05   stopping-criterion for ELM
   LREAL  =      F    real-space projection
   NLSPLINE    = F    spline interpolate recip. space projectors
   LCOMPAT=      F    compatible to vasp.4.4
   GGA_COMPAT  = T    GGA compatible to vasp.4.4-vasp.4.6
   LMAXPAW     = -100 max onsite density
   LMAXMIX     =    2 max onsite mixed and CHGCAR
   VOSKOWN=      0    Vosko Wilk Nusair interpolation
   ROPT   =    0.00000   0.00000   0.00000
 Ionic relaxation
   EDIFFG = -.2E-01   stopping-criterion for IOM
   NSW    =    200    number of steps for IOM
   NBLOCK =      1;   KBLOCK =    200    inner block; outer block 
   IBRION =      2    ionic relax: 0-MD 1-quasi-New 2-CG
   NFREE  =      1    steps in history (QN), initial steepest desc. (CG)
   ISIF   =      2    stress and relaxation
   IWAVPR =     11    prediction:  0-non 1-charg 2-wave 3-comb
   ISYM   =      2    0-nonsym 1-usesym 2-fastsym
   LCORR  =      T    Harris-Foulkes like correction to forces

   POTIM  = 0.5000    time-step for ionic-motion
   TEIN   =    0.0    initial temperature
   TEBEG  =    0.0;   TEEND  =   0.0 temperature during run
   SMASS  =  -3.00    Nose mass-parameter (am)
   estimated Nose-frequenzy (Omega)   =  0.10E-29 period in steps =****** mass=  -0.914E-26a.u.
   SCALEE = 1.0000    scale energy and forces
   NPACO  =    256;   APACO  = 16.0  distance and # of slots for P.C.
   PSTRESS=    0.0 pullay stress

  Mass of Ions in am
   POMASS =  28.09 72.61  1.00
  Ionic Valenz
   ZVAL   =   4.00  4.00  1.00
  Atomic Wigner-Seitz radii
   RWIGS  =  -1.00 -1.00 -1.00
  virtual crystal weights 
   VCA    =   1.00  1.00  1.00
   NELECT =      56.0000    total number of electrons
   NUPDOWN=      -1.0000    fix difference up-down

 DOS related values:
   EMIN   =  10.00;   EMAX   =-10.00  energy-range for DOS
   EFERMI =   0.00
   ISMEAR =     0;   SIGMA  =   0.20  broadening in eV -4-tet -1-fermi 0-gaus

 Electronic relaxation 2 (details)
   IALGO  =     38    algorithm
   LDIAG  =      T    sub-space diagonalisation (order eigenvalues)
   LSUBROT=      F    optimize rotation matrix (better conditioning)
   TURBO    =      0    0=normal 1=particle mesh
   IRESTART =      0    0=no restart 2=restart with 2 vectors
   NREBOOT  =      0    no. of reboots
   NMIN     =      0    reboot dimension
   EREF     =   0.00    reference energy to select bands
   IMIX   =      4    mixing-type and parameters
     AMIX     =   0.40;   BMIX     =  1.00
     AMIX_MAG =   1.60;   BMIX_MAG =  1.00
     AMIN     =   0.10
     WC   =   100.;   INIMIX=   1;  MIXPRE=   1;  MAXMIX= -45

 Intra band minimization:
   WEIMIN = 0.0010     energy-eigenvalue tresh-hold
   EBREAK =  0.60E-08  absolut break condition
   DEPER  =   0.30     relativ break condition  

   TIME   =   0.40     timestep for ELM

  volume/ion in A,a.u.               =     307.69      2076.41
  Fermi-wavevector in a.u.,A,eV,Ry     =   0.313166  0.591797  1.334361  0.098073
  Thomas-Fermi vector in A             =   1.193276
 
 Write flags
   LWAVE        =      T    write WAVECAR
   LDOWNSAMPLE  =      F    k-point downsampling of WAVECAR
   LCHARG       =      T    write CHGCAR
   LVTOT        =      F    write LOCPOT, total local potential
   LVHAR        =      F    write LOCPOT, Hartree potential only
   LELF         =      F    write electronic localiz. function (ELF)
   LORBIT       =      0    0 simple, 1 ext, 2 COOP (PROOUT), +10 PAW based schemes


 Dipole corrections
   LMONO  =      F    monopole corrections only (constant potential shift)
   LDIPOL =      F    correct potential (dipole corrections)
   IDIPOL =      0    1-x, 2-y, 3-z, 4-all directions 
   EPSILON=  1.0000000 bulk dielectric constant

 Exchange correlation treatment:
   GGA     =    --    GGA type
   LEXCH   =     8    internal setting for exchange type
   VOSKOWN=      0    Vosko Wilk Nusair interpolation
   LHFCALC =     F    Hartree Fock is set to
   LHFONE  =     F    Hartree Fock one center treatment
   AEXX    =    0.0000 exact exchange contribution

 Linear response parameters
   LEPSILON=     F    determine dielectric tensor
   LRPA    =     F    only Hartree local field effects (RPA)
   LNABLA  =     F    use nabla operator in PAW spheres
   LVEL    =     F    velocity operator in full k-point grid
   LINTERFAST=   F  fast interpolation
   KINTER  =     0    interpolate to denser k-point grid
   CSHIFT  =0.1000    complex shift for real part using Kramers Kronig
   OMEGAMAX=  -1.0    maximum frequency
   DEG_THRESHOLD= 0.2000000E-02 threshold for treating states as degnerate
   RTIME   =   -0.100 relaxation time in fs
  (WPLASMAI=    0.000 imaginary part of plasma frequency in eV, 0.658/RTIME)
   DFIELD  = 0.0000000 0.0000000 0.0000000 field for delta impulse in time
 
 Orbital magnetization related:
   ORBITALMAG=     F  switch on orbital magnetization
   LCHIMAG   =     F  perturbation theory with respect to B field
   DQ        =  0.001000  dq finite difference perturbation B field
   LLRAUG    =     F  two centre corrections for induced B field



--------------------------------------------------------------------------------------------------------


 conjugate gradient relaxation of ions
 charge density and potential will be updated during run
 non-spin polarized calculation
 Variant of blocked Davidson
 Davidson routine will perform the subspace rotation
 perform sub-space diagonalisation
    after iterative eigenvector-optimisation
 modified Broyden-mixing scheme, WC =      100.0
 initial mixing is a Kerker type mixing with AMIX =  0.4000 and BMIX =      1.0000
 Hartree-type preconditioning will be used
 using additional bands           14
 reciprocal scheme for non local part
 use partial core corrections
 calculate Harris-corrections to forces 
   (improved forces if not selfconsistent)
 use gradient corrections 
 use of overlap-Matrix (Vanderbilt PP)
 Gauss-broadening in eV      SIGMA  =   0.20


--------------------------------------------------------------------------------------------------------


  energy-cutoff  :      400.00
  volume of cell :     8000.00
      direct lattice vectors                 reciprocal lattice vectors
    20.000000000  0.000000000  0.000000000     0.050000000  0.000000000  0.000000000
     0.000000000 20.000000000  0.000000000     0.000000000  0.050000000  0.000000000
     0.000000000  0.000000000 20.000000000     0.000000000  0.000000000  0.050000000

  length of vectors
    20.000000000 20.000000000 20.000000000     0.050000000  0.050000000  0.050000000


 
 k-points in units of 2pi/SCALE and weight: Automatic mesh                          
   0.00000000  0.00000000  0.00000000       1.000
 
 k-points in reciprocal lattice and weights: Automatic mesh                          
   0.00000000  0.00000000  0.00000000       1.000
 
 position of ions in fractional coordinates (direct lattice) 
   0.47547100  0.55626000  0.38465300
   0.36907800  0.53906000  0.43641200
   0.54179100  0.45744600  0.39613600
   0.53111600  0.64794100  0.43749600
   0.38461900  0.51474100  0.55243500
   0.45095700  0.41593600  0.56388300
   0.44028400  0.60643000  0.60524300
   0.55736800  0.43311000  0.51215000
   0.54669200  0.62364400  0.55351800
   0.61299700  0.52481700  0.56496600
   0.41490100  0.35665000  0.52940300
   0.46117000  0.40042600  0.63910800
   0.60034800  0.36907000  0.51957800
   0.68182700  0.53600700  0.53118700
   0.62280400  0.50903400  0.64018900
   0.61080000  0.46880600  0.36278200
   0.50550800  0.39805500  0.36207700
   0.46538400  0.57201900  0.30946400
   0.58275500  0.68306700  0.58775000
   0.45052500  0.59044300  0.68036400
   0.39732000  0.67044900  0.59753500
   0.31566200  0.50359800  0.58596500
   0.33322800  0.47946500  0.40225200
   0.32629100  0.60324700  0.42912600
   0.48792300  0.71185500  0.43020800
   0.60015100  0.65882400  0.40403700
 
 position of ions in cartesian coordinates  (Angst):
   9.50942000 11.12520000  7.69306000
   7.38156000 10.78120000  8.72824000
  10.83582000  9.14892000  7.92272000
  10.62232000 12.95882000  8.74992000
   7.69238000 10.29482000 11.04870000
   9.01914000  8.31872000 11.27766000
   8.80568000 12.12860000 12.10486000
  11.14736000  8.66220000 10.24300000
  10.93384000 12.47288000 11.07036000
  12.25994000 10.49634000 11.29932000
   8.29802000  7.13300000 10.58806000
   9.22340000  8.00852000 12.78216000
  12.00696000  7.38140000 10.39156000
  13.63654000 10.72014000 10.62374000
  12.45608000 10.18068000 12.80378000
  12.21600000  9.37612000  7.25564000
  10.11016000  7.96110000  7.24154000
   9.30768000 11.44038000  6.18928000
  11.65510000 13.66134000 11.75500000
   9.01050000 11.80886000 13.60728000
   7.94640000 13.40898000 11.95070000
   6.31324000 10.07196000 11.71930000
   6.66456000  9.58930000  8.04504000
   6.52582000 12.06494000  8.58252000
   9.75846000 14.23710000  8.60416000
  12.00302000 13.17648000  8.08074000
 


--------------------------------------------------------------------------------------------------------


 k-point  1 :   0.0000 0.0000 0.0000  plane waves:  145165

 maximum and minimum number of plane-waves per node :     24209    24180

 maximum number of plane-waves:    145165
 maximum index in each direction: 
   IXMAX=   32   IYMAX=   32   IZMAX=   32
   IXMIN=  -32   IYMIN=  -32   IZMIN=  -32


 parallel 3D FFT for wavefunctions:
    minimum data exchange during FFTs selected (reduces bandwidth)
 parallel 3D FFT for charge:
    minimum data exchange during FFTs selected (reduces bandwidth)


 total amount of memory used by VASP MPI-rank0   131440. kBytes
=======================================================================

   base      :      30000. kBytes
   nonl-proj :      17624. kBytes
   fftplans  :      26957. kBytes
   grid      :      48673. kBytes
   one-center:         40. kBytes
   wavefun   :       8146. kBytes
 
     INWAV:  cpu time    0.0000: real time    0.0000
 Broyden mixing: mesh for mixing (old mesh)
   NGX = 65   NGY = 65   NGZ = 65
  (NGX  =196   NGY  =196   NGZ  =196)
  gives a total of 274625 points

 initial charge density was supplied:
 charge density of overlapping atoms calculated
 number of electron      56.0000000 magnetization 
 keeping initial charge density in first step


--------------------------------------------------------------------------------------------------------


 Maximum index for augmentation-charges          447 (set IRDMAX)


--------------------------------------------------------------------------------------------------------


 First call to EWALD:  gamma=   0.089
 Maximum number of real-space cells 3x 3x 3
 Maximum number of reciprocal cells 3x 3x 3

    FEWALD:  cpu time    0.0030: real time    0.0028


--------------------------------------- Iteration      1(   1)  ---------------------------------------


    POTLOK:  cpu time    1.7577: real time    1.7615
    SETDIJ:  cpu time    0.0070: real time    0.0073
     EDDAV:  cpu time   10.4844: real time   10.5209
       DOS:  cpu time    0.0000: real time    0.0003
    --------------------------------------------
      LOOP:  cpu time   12.2491: real time   12.2900

 eigenvalue-minimisations  :   116
 total energy-change (2. order) : 0.1987328E+03  (-0.1049228E+04)
 number of electron      56.0000000 magnetization 
 augmentation part       56.0000000 magnetization 

 Free energy of the ion-electron system (eV)
  ---------------------------------------------------
  alpha Z        PSCENC =         1.68866877
  Ewald energy   TEWEN  =      2629.98113996
  -Hartree energ DENC   =     -3443.40536196
  -exchange      EXHF   =         0.00000000
  -V(xc)+E(xc)   XCENC  =       -55.12392729
  PAW double counting   =       915.44662188     -748.97298319
  entropy T*S    EENTRO =        -0.41554242
  eigenvalues    EBANDS =      -336.57117474
  atomic energy  EATOM  =      1236.10535615
  Solvation  Ediel_sol  =         0.00000000
  ---------------------------------------------------
  free energy    TOTEN  =       198.73279715 eV

  energy without entropy =      199.14833957  energy(sigma->0) =      198.94056836


--------------------------------------------------------------------------------------------------------




--------------------------------------- Iteration      1(   2)  ---------------------------------------


     EDDAV:  cpu time   12.6491: real time   12.6622
       DOS:  cpu time    0.0010: real time    0.0002
    --------------------------------------------
      LOOP:  cpu time   12.6501: real time   12.6625

 eigenvalue-minimisations  :   144
 total energy-change (2. order) :-0.2303542E+03  (-0.2166803E+03)
 number of electron      56.0000000 magnetization 
 augmentation part       56.0000000 magnetization 

 Free energy of the ion-electron system (eV)
  ---------------------------------------------------
  alpha Z        PSCENC =         1.68866877
  Ewald energy   TEWEN  =      2629.98113996
  -Hartree energ DENC   =     -3443.40536196
  -exchange      EXHF   =         0.00000000
  -V(xc)+E(xc)   XCENC  =       -55.12392729
  PAW double counting   =       915.44662188     -748.97298319
  entropy T*S    EENTRO =        -0.00000000
  eigenvalues    EBANDS =      -567.34088084
  atomic energy  EATOM  =      1236.10535615
  Solvation  Ediel_sol  =         0.00000000
  ---------------------------------------------------
  free energy    TOTEN  =       -31.62136653 eV

  energy without entropy =      -31.62136653  energy(sigma->0) =      -31.62136653


--------------------------------------------------------------------------------------------------------




--------------------------------------- Iteration      1(   3)  ---------------------------------------


     EDDAV:  cpu time    9.9315: real time    9.9297
       DOS:  cpu time    0.0010: real time    0.0003
    --------------------------------------------
      LOOP:  cpu time    9.9325: real time    9.9300

 eigenvalue-minimisations  :   104
 total energy-change (2. order) :-0.7268588E+02  (-0.7252232E+02)
 number of electron      56.0000000 magnetization 
 augmentation part       56.0000000 magnetization 

 Free energy of the ion-electron system (eV)
  ---------------------------------------------------
  alpha Z        PSCENC =         1.68866877
  Ewald energy   TEWEN  =      2629.98113996
  -Hartree energ DENC   =     -3443.40536196
  -exchange      EXHF   =         0.00000000
  -V(xc)+E(xc)   XCENC  =       -55.12392729
  PAW double counting   =       915.44662188     -748.97298319
  entropy T*S    EENTRO =        -0.00000000
  eigenvalues    EBANDS =      -640.02676435
  atomic energy  EATOM  =      1236.10535615
  Solvation  Ediel_sol  =         0.00000000
  ---------------------------------------------------
  free energy    TOTEN  =      -104.30725004 eV

  energy without entropy =     -104.30725004  energy(sigma->0) =     -104.30725004


--------------------------------------------------------------------------------------------------------




--------------------------------------- Iteration      1(   4)  ---------------------------------------


     EDDAV:  cpu time   10.3064: real time   10.3040
       DOS:  cpu time    0.0000: real time    0.0002
    --------------------------------------------
      LOOP:  cpu time   10.3064: real time   10.3042

 eigenvalue-minimisations  :   112
 total energy-change (2. order) :-0.4089253E+01  (-0.4073962E+01)
 number of electron      56.0000000 magnetization 
 augmentation part       56.0000000 magnetization 

 Free energy of the ion-electron system (eV)
  ---------------------------------------------------
  alpha Z        PSCENC =         1.68866877
  Ewald energy   TEWEN  =      2629.98113996
  -Hartree energ DENC   =     -3443.40536196
  -exchange      EXHF   =         0.00000000
  -V(xc)+E(xc)   XCENC  =       -55.12392729
  PAW double counting   =       915.44662188     -748.97298319
  entropy T*S    EENTRO =        -0.00000000
  eigenvalues    EBANDS =      -644.11601727
  atomic energy  EATOM  =      1236.10535615
  Solvation  Ediel_sol  =         0.00000000
  ---------------------------------------------------
  free energy    TOTEN  =      -108.39650296 eV

  energy without entropy =     -108.39650296  energy(sigma->0) =     -108.39650296


--------------------------------------------------------------------------------------------------------




--------------------------------------- Iteration      1(   5)  ---------------------------------------


     EDDAV:  cpu time   12.0712: real time   12.0675
       DOS:  cpu time    0.0010: real time    0.0003
    CHARGE:  cpu time    0.4849: real time    0.4852
    MIXING:  cpu time    0.0440: real time    0.0439
    --------------------------------------------
      LOOP:  cpu time   12.6011: real time   12.5970

 eigenvalue-minimisations  :   136
 total energy-change (2. order) :-0.8239488E-01  (-0.8234292E-01)
 number of electron      56.0000017 magnetization 
 augmentation part       -3.1473257 magnetization 

 Broyden mixing:
  rms(total) = 0.15380E+01    rms(broyden)= 0.15379E+01
  rms(prec ) = 0.16344E+01
  weight for this iteration     100.00

 Free energy of the ion-electron system (eV)
  ---------------------------------------------------
  alpha Z        PSCENC =         1.68866877
  Ewald energy   TEWEN  =      2629.98113996
  -Hartree energ DENC   =     -3443.40536196
  -exchange      EXHF   =         0.00000000
  -V(xc)+E(xc)   XCENC  =       -55.12392729
  PAW double counting   =       915.44662188     -748.97298319
  entropy T*S    EENTRO =        -0.00000000
  eigenvalues    EBANDS =      -644.19841215
  atomic energy  EATOM  =      1236.10535615
  Solvation  Ediel_sol  =         0.00000000
  ---------------------------------------------------
  free energy    TOTEN  =      -108.47889784 eV

  energy without entropy =     -108.47889784  energy(sigma->0) =     -108.47889784


--------------------------------------------------------------------------------------------------------




--------------------------------------- Iteration      1(   6)  ---------------------------------------


    POTLOK:  cpu time    1.6927: real time    1.6923
    SETDIJ:  cpu time    0.0080: real time    0.0075
     EDDAV:  cpu time   10.3714: real time   10.3681
       DOS:  cpu time    0.0000: real time    0.0003
    CHARGE:  cpu time    0.4889: real time    0.4884
    MIXING:  cpu time    0.0450: real time    0.0457
    --------------------------------------------
      LOOP:  cpu time   12.6061: real time   12.6024

 eigenvalue-minimisations  :   112
 total energy-change (2. order) : 0.3277090E+01  (-0.1610056E+00)
 number of electron      56.0000016 magnetization 
 augmentation part       -3.1480286 magnetization 

 Broyden mixing:
  rms(total) = 0.89346E+00    rms(broyden)= 0.89346E+00
  rms(prec ) = 0.95211E+00
  weight for this iteration     100.00

 eigenvalues of (default mixing * dielectric matrix)
  average eigenvalue GAMMA=   2.3160
  2.3160

 Free energy of the ion-electron system (eV)
  ---------------------------------------------------
  alpha Z        PSCENC =         1.68866877
  Ewald energy   TEWEN  =      2629.98113996
  -Hartree energ DENC   =     -3475.08448200
  -exchange      EXHF   =         0.00000000
  -V(xc)+E(xc)   XCENC  =       -51.48248856
  PAW double counting   =      1894.59825886    -1728.82981961
  entropy T*S    EENTRO =        -0.00000000
  eigenvalues    EBANDS =      -612.17844188
  atomic energy  EATOM  =      1236.10535615
  Solvation  Ediel_sol  =         0.00000000
  ---------------------------------------------------
  free energy    TOTEN  =      -105.20180830 eV

  energy without entropy =     -105.20180830  energy(sigma->0) =     -105.20180830


--------------------------------------------------------------------------------------------------------




--------------------------------------- Iteration      1(   7)  ---------------------------------------


    POTLOK:  cpu time    1.6947: real time    1.7065
    SETDIJ:  cpu time    0.0070: real time    0.0073
     EDDAV:  cpu time    9.6735: real time    9.7042
       DOS:  cpu time    0.0010: real time    0.0003
    CHARGE:  cpu time    0.4839: real time    0.4840
    MIXING:  cpu time    0.0460: real time    0.0466
    --------------------------------------------
      LOOP:  cpu time   11.9062: real time   11.9489

 eigenvalue-minimisations  :   104
 total energy-change (2. order) : 0.1720430E+01  (-0.4226202E+00)
 number of electron      56.0000014 magnetization 
 augmentation part       -3.1451978 magnetization 

 Broyden mixing:
  rms(total) = 0.12275E+00    rms(broyden)= 0.12259E+00
  rms(prec ) = 0.15386E+00
  weight for this iteration     100.00

 eigenvalues of (default mixing * dielectric matrix)
  average eigenvalue GAMMA=   1.8241
  1.6423  2.0060

 Free energy of the ion-electron system (eV)
  ---------------------------------------------------
  alpha Z        PSCENC =         1.68866877
  Ewald energy   TEWEN  =      2629.98113996
  -Hartree energ DENC   =     -3531.83398275
  -exchange      EXHF   =         0.00000000
  -V(xc)+E(xc)   XCENC  =       -45.66677349
  PAW double counting   =      4091.77466499    -3926.96548511
  entropy T*S    EENTRO =        -0.00000000
  eigenvalues    EBANDS =      -558.56496652
  atomic energy  EATOM  =      1236.10535615
  Solvation  Ediel_sol  =         0.00000000
  ---------------------------------------------------
  free energy    TOTEN  =      -103.48137800 eV

  energy without entropy =     -103.48137800  energy(sigma->0) =     -103.48137800


--------------------------------------------------------------------------------------------------------




--------------------------------------- Iteration      1(   8)  ---------------------------------------


    POTLOK:  cpu time    1.7047: real time    1.7392
    SETDIJ:  cpu time    0.0080: real time    0.0076
     EDDAV:  cpu time    9.7315: real time    9.7320
       DOS:  cpu time    0.0000: real time    0.0003
    CHARGE:  cpu time    0.4869: real time    0.4869
    MIXING:  cpu time    0.0500: real time    0.0495
    --------------------------------------------
      LOOP:  cpu time   11.9812: real time   12.0155

 eigenvalue-minimisations  :   104
 total energy-change (2. order) : 0.4899116E-01  (-0.2761613E-01)
 number of electron      56.0000015 magnetization 
 augmentation part       -3.1438433 magnetization 

 Broyden mixing:
  rms(total) = 0.63160E-01    rms(broyden)= 0.63146E-01
  rms(prec ) = 0.82603E-01
  weight for this iteration     100.00

 eigenvalues of (default mixing * dielectric matrix)
  average eigenvalue GAMMA=   1.9726
  2.6257  1.6461  1.6461

 Free energy of the ion-electron system (eV)
  ---------------------------------------------------
  alpha Z        PSCENC =         1.68866877
  Ewald energy   TEWEN  =      2629.98113996
  -Hartree energ DENC   =     -3539.20221492
  -exchange      EXHF   =         0.00000000
  -V(xc)+E(xc)   XCENC  =       -45.74045602
  PAW double counting   =      4085.31059563    -3920.41503385
  entropy T*S    EENTRO =        -0.00000000
  eigenvalues    EBANDS =      -551.16044257
  atomic energy  EATOM  =      1236.10535615
  Solvation  Ediel_sol  =         0.00000000
  ---------------------------------------------------
  free energy    TOTEN  =      -103.43238684 eV

  energy without entropy =     -103.43238684  energy(sigma->0) =     -103.43238684


--------------------------------------------------------------------------------------------------------




--------------------------------------- Iteration      1(   9)  ---------------------------------------


    POTLOK:  cpu time    1.7087: real time    1.7095
    SETDIJ:  cpu time    0.0080: real time    0.0076
     EDDAV:  cpu time   10.8823: real time   10.8831
       DOS:  cpu time    0.0000: real time    0.0003
    CHARGE:  cpu time    0.4849: real time    0.4850
    MIXING:  cpu time    0.0520: real time    0.0522
    --------------------------------------------
      LOOP:  cpu time   13.1360: real time   13.1378

 eigenvalue-minimisations  :   120
 total energy-change (2. order) : 0.3599582E-01  (-0.8018453E-02)
 number of electron      56.0000015 magnetization 
 augmentation part       -3.1322568 magnetization 

 Broyden mixing:
  rms(total) = 0.34774E-01    rms(broyden)= 0.34773E-01
  rms(prec ) = 0.46080E-01
  weight for this iteration     100.00

 eigenvalues of (default mixing * dielectric matrix)
  average eigenvalue GAMMA=   1.7429
  2.5013  1.8347  1.8347  0.8009

 Free energy of the ion-electron system (eV)
  ---------------------------------------------------
  alpha Z        PSCENC =         1.68866877
  Ewald energy   TEWEN  =      2629.98113996
  -Hartree energ DENC   =     -3551.16938162
  -exchange      EXHF   =         0.00000000
  -V(xc)+E(xc)   XCENC  =       -45.05843890
  PAW double counting   =      4219.43352757    -4054.56319816
  entropy T*S    EENTRO =        -0.00000000
  eigenvalues    EBANDS =      -539.81406480
  atomic energy  EATOM  =      1236.10535615
  Solvation  Ediel_sol  =         0.00000000
  ---------------------------------------------------
  free energy    TOTEN  =      -103.39639102 eV

  energy without entropy =     -103.39639102  energy(sigma->0) =     -103.39639102


--------------------------------------------------------------------------------------------------------




--------------------------------------- Iteration      1(  10)  ---------------------------------------


    POTLOK:  cpu time    1.7107: real time    1.7111
    SETDIJ:  cpu time    0.0080: real time    0.0074
     EDDAV:  cpu time   10.3404: real time   10.3418
       DOS:  cpu time    0.0000: real time    0.0003
    CHARGE:  cpu time    0.4839: real time    0.4843
    MIXING:  cpu time    0.0550: real time    0.0551
    --------------------------------------------
      LOOP:  cpu time   12.5981: real time   12.6000

 eigenvalue-minimisations  :   112
 total energy-change (2. order) : 0.2698000E-04  (-0.3239201E-03)
 number of electron      56.0000015 magnetization 
 augmentation part       -3.1315472 magnetization 

 Broyden mixing:
  rms(total) = 0.17139E-01    rms(broyden)= 0.17138E-01
  rms(prec ) = 0.29845E-01
  weight for this iteration     100.00

 eigenvalues of (default mixing * dielectric matrix)
  average eigenvalue GAMMA=   1.8264
  2.6379  1.1149  2.0793  1.6500  1.6500

 Free energy of the ion-electron system (eV)
  ---------------------------------------------------
  alpha Z        PSCENC =         1.68866877
  Ewald energy   TEWEN  =      2629.98113996
  -Hartree energ DENC   =     -3553.26359523
  -exchange      EXHF   =         0.00000000
  -V(xc)+E(xc)   XCENC  =       -45.05323902
  PAW double counting   =      4138.92065899    -3974.00641605
  entropy T*S    EENTRO =        -0.00000000
  eigenvalues    EBANDS =      -537.76893761
  atomic energy  EATOM  =      1236.10535615
  Solvation  Ediel_sol  =         0.00000000
  ---------------------------------------------------
  free energy    TOTEN  =      -103.39636404 eV

  energy without entropy =     -103.39636404  energy(sigma->0) =     -103.39636404


--------------------------------------------------------------------------------------------------------




--------------------------------------- Iteration      1(  11)  ---------------------------------------


    POTLOK:  cpu time    1.7247: real time    1.7238
    SETDIJ:  cpu time    0.0080: real time    0.0074
     EDDAV:  cpu time    9.7505: real time    9.7523
       DOS:  cpu time    0.0000: real time    0.0004
    CHARGE:  cpu time    0.4839: real time    0.4833
    MIXING:  cpu time    0.0570: real time    0.0579
    --------------------------------------------
      LOOP:  cpu time   12.0242: real time   12.0250

 eigenvalue-minimisations  :   104
 total energy-change (2. order) : 0.7346830E-04  (-0.6187595E-03)
 number of electron      56.0000015 magnetization 
 augmentation part       -3.1308681 magnetization 

 Broyden mixing:
  rms(total) = 0.78744E-02    rms(broyden)= 0.78741E-02
  rms(prec ) = 0.14873E-01
  weight for this iteration     100.00

 eigenvalues of (default mixing * dielectric matrix)
  average eigenvalue GAMMA=   1.8537
  3.1831  2.5436  1.7392  1.7392  1.0495  0.8676

 Free energy of the ion-electron system (eV)
  ---------------------------------------------------
  alpha Z        PSCENC =         1.68866877
  Ewald energy   TEWEN  =      2629.98113996
  -Hartree energ DENC   =     -3559.84131647
  -exchange      EXHF   =         0.00000000
  -V(xc)+E(xc)   XCENC  =       -44.87298813
  PAW double counting   =      4087.31596134    -3922.35791835
  entropy T*S    EENTRO =        -0.00000000
  eigenvalues    EBANDS =      -531.41519384
  atomic energy  EATOM  =      1236.10535615
  Solvation  Ediel_sol  =         0.00000000
  ---------------------------------------------------
  free energy    TOTEN  =      -103.39629057 eV

  energy without entropy =     -103.39629057  energy(sigma->0) =     -103.39629057


--------------------------------------------------------------------------------------------------------




--------------------------------------- Iteration      1(  12)  ---------------------------------------


    POTLOK:  cpu time    1.7287: real time    1.7295
    SETDIJ:  cpu time    0.0070: real time    0.0075
     EDDAV:  cpu time    9.1106: real time    9.1234
       DOS:  cpu time    0.0000: real time    0.0007
    CHARGE:  cpu time    0.4789: real time    0.4790
    MIXING:  cpu time    0.0630: real time    0.0622
    --------------------------------------------
      LOOP:  cpu time   11.3883: real time   11.4022

 eigenvalue-minimisations  :    96
 total energy-change (2. order) :-0.3611137E-02  (-0.1074600E-03)
 number of electron      56.0000015 magnetization 
 augmentation part       -3.1305092 magnetization 

 Broyden mixing:
  rms(total) = 0.59193E-02    rms(broyden)= 0.59192E-02
  rms(prec ) = 0.10433E-01
  weight for this iteration     100.00

 eigenvalues of (default mixing * dielectric matrix)
  average eigenvalue GAMMA=   2.0918
  4.6482  2.6428  2.2572  1.5841  1.5841  0.9631  0.9631

 Free energy of the ion-electron system (eV)
  ---------------------------------------------------
  alpha Z        PSCENC =         1.68866877
  Ewald energy   TEWEN  =      2629.98113996
  -Hartree energ DENC   =     -3562.25536159
  -exchange      EXHF   =         0.00000000
  -V(xc)+E(xc)   XCENC  =       -44.82512553
  PAW double counting   =      4076.94477545    -3911.98125942
  entropy T*S    EENTRO =        -0.00000000
  eigenvalues    EBANDS =      -529.05809550
  atomic energy  EATOM  =      1236.10535615
  Solvation  Ediel_sol  =         0.00000000
  ---------------------------------------------------
  free energy    TOTEN  =      -103.39990171 eV

  energy without entropy =     -103.39990171  energy(sigma->0) =     -103.39990171


--------------------------------------------------------------------------------------------------------




--------------------------------------- Iteration      1(  13)  ---------------------------------------


    POTLOK:  cpu time    1.7367: real time    1.7532
    SETDIJ:  cpu time    0.0070: real time    0.0073
     EDDAV:  cpu time    9.7555: real time    9.7507
       DOS:  cpu time    0.0000: real time    0.0004
    CHARGE:  cpu time    0.4789: real time    0.4789
    MIXING:  cpu time    0.0660: real time    0.0662
    --------------------------------------------
      LOOP:  cpu time   12.0442: real time   12.0567

 eigenvalue-minimisations  :   104
 total energy-change (2. order) :-0.5014732E-02  (-0.2162691E-03)
 number of electron      56.0000015 magnetization 
 augmentation part       -3.1303267 magnetization 

 Broyden mixing:
  rms(total) = 0.35731E-02    rms(broyden)= 0.35730E-02
  rms(prec ) = 0.52721E-02
  weight for this iteration     100.00

 eigenvalues of (default mixing * dielectric matrix)
  average eigenvalue GAMMA=   2.1880
  5.6320  2.8570  2.3953  1.7965  1.7965  0.9590  0.9590  1.1087

 Free energy of the ion-electron system (eV)
  ---------------------------------------------------
  alpha Z        PSCENC =         1.68866877
  Ewald energy   TEWEN  =      2629.98113996
  -Hartree energ DENC   =     -3565.34397814
  -exchange      EXHF   =         0.00000000
  -V(xc)+E(xc)   XCENC  =       -44.77231159
  PAW double counting   =      4079.84670666    -3914.89006545
  entropy T*S    EENTRO =        -0.00000000
  eigenvalues    EBANDS =      -526.02043280
  atomic energy  EATOM  =      1236.10535615
  Solvation  Ediel_sol  =         0.00000000
  ---------------------------------------------------
  free energy    TOTEN  =      -103.40491644 eV

  energy without entropy =     -103.40491644  energy(sigma->0) =     -103.40491644


--------------------------------------------------------------------------------------------------------




--------------------------------------- Iteration      1(  14)  ---------------------------------------


    POTLOK:  cpu time    1.7217: real time    1.7210
    SETDIJ:  cpu time    0.0080: real time    0.0075
     EDDAV:  cpu time   10.3014: real time   10.2979
       DOS:  cpu time    0.0000: real time    0.0005
    CHARGE:  cpu time    0.4819: real time    0.4822
    MIXING:  cpu time    0.0730: real time    0.0726
    --------------------------------------------
      LOOP:  cpu time   12.5861: real time   12.5816

 eigenvalue-minimisations  :   112
 total energy-change (2. order) :-0.4311933E-02  (-0.3792408E-04)
 number of electron      56.0000015 magnetization 
 augmentation part       -3.1298341 magnetization 

 Broyden mixing:
  rms(total) = 0.15477E-02    rms(broyden)= 0.15477E-02
  rms(prec ) = 0.27331E-02
  weight for this iteration     100.00

 eigenvalues of (default mixing * dielectric matrix)
  average eigenvalue GAMMA=   2.2931
  6.5128  2.8852  2.8852  2.1132  1.6401  1.6401  1.0698  0.9457  0.9457

 Free energy of the ion-electron system (eV)
  ---------------------------------------------------
  alpha Z        PSCENC =         1.68866877
  Ewald energy   TEWEN  =      2629.98113996
  -Hartree energ DENC   =     -3566.09324767
  -exchange      EXHF   =         0.00000000
  -V(xc)+E(xc)   XCENC  =       -44.78122044
  PAW double counting   =      4081.41127676    -3916.45757068
  entropy T*S    EENTRO =        -0.00000000
  eigenvalues    EBANDS =      -525.26363122
  atomic energy  EATOM  =      1236.10535615
  Solvation  Ediel_sol  =         0.00000000
  ---------------------------------------------------
  free energy    TOTEN  =      -103.40922837 eV

  energy without entropy =     -103.40922837  energy(sigma->0) =     -103.40922837


--------------------------------------------------------------------------------------------------------




--------------------------------------- Iteration      1(  15)  ---------------------------------------


    POTLOK:  cpu time    1.7227: real time    1.7221
    SETDIJ:  cpu time    0.0070: real time    0.0074
     EDDAV:  cpu time   10.3424: real time   10.3382
       DOS:  cpu time    0.0000: real time    0.0004
    CHARGE:  cpu time    0.4869: real time    0.4858
    MIXING:  cpu time    0.0780: real time    0.0779
    --------------------------------------------
      LOOP:  cpu time   12.6371: real time   12.6319

 eigenvalue-minimisations  :   112
 total energy-change (2. order) :-0.4414860E-02  (-0.5462454E-04)
 number of electron      56.0000015 magnetization 
 augmentation part       -3.1295988 magnetization 

 Broyden mixing:
  rms(total) = 0.17391E-02    rms(broyden)= 0.17390E-02
  rms(prec ) = 0.21528E-02
  weight for this iteration     100.00

 eigenvalues of (default mixing * dielectric matrix)
  average eigenvalue GAMMA=   2.3005
  6.7706  3.7900  2.6236  2.0935  1.8419  1.8419  1.1921  0.9237  0.9638  0.9638

 Free energy of the ion-electron system (eV)
  ---------------------------------------------------
  alpha Z        PSCENC =         1.68866877
  Ewald energy   TEWEN  =      2629.98113996
  -Hartree energ DENC   =     -3566.29779853
  -exchange      EXHF   =         0.00000000
  -V(xc)+E(xc)   XCENC  =       -44.79216323
  PAW double counting   =      4085.73996573    -3920.78560360
  entropy T*S    EENTRO =        -0.00000000
  eigenvalues    EBANDS =      -525.05320848
  atomic energy  EATOM  =      1236.10535615
  Solvation  Ediel_sol  =         0.00000000
  ---------------------------------------------------
  free energy    TOTEN  =      -103.41364323 eV

  energy without entropy =     -103.41364323  energy(sigma->0) =     -103.41364323


--------------------------------------------------------------------------------------------------------




--------------------------------------- Iteration      1(  16)  ---------------------------------------


    POTLOK:  cpu time    1.7187: real time    1.7185
    SETDIJ:  cpu time    0.0080: real time    0.0075
     EDDAV:  cpu time   10.3744: real time   10.3709
       DOS:  cpu time    0.0000: real time    0.0003
    CHARGE:  cpu time    0.4809: real time    0.4807
    MIXING:  cpu time    0.0860: real time    0.0860
    --------------------------------------------
      LOOP:  cpu time   12.6681: real time   12.6638

 eigenvalue-minimisations  :   112
 total energy-change (2. order) :-0.9756706E-03  (-0.5007154E-05)
 number of electron      56.0000015 magnetization 
 augmentation part       -3.1297843 magnetization 

 Broyden mixing:
  rms(total) = 0.71079E-03    rms(broyden)= 0.71078E-03
  rms(prec ) = 0.10272E-02
  weight for this iteration     100.00

 eigenvalues of (default mixing * dielectric matrix)
  average eigenvalue GAMMA=   2.4351
  7.4028  4.7701  2.6693  2.6693  1.8179  1.8179  1.3824  1.3824  0.9597  0.9597
  0.9544

 Free energy of the ion-electron system (eV)
  ---------------------------------------------------
  alpha Z        PSCENC =         1.68866877
  Ewald energy   TEWEN  =      2629.98113996
  -Hartree energ DENC   =     -3566.39716021
  -exchange      EXHF   =         0.00000000
  -V(xc)+E(xc)   XCENC  =       -44.79006061
  PAW double counting   =      4085.28909946    -3920.33332127
  entropy T*S    EENTRO =        -0.00000000
  eigenvalues    EBANDS =      -524.95834116
  atomic energy  EATOM  =      1236.10535615
  Solvation  Ediel_sol  =         0.00000000
  ---------------------------------------------------
  free energy    TOTEN  =      -103.41461890 eV

  energy without entropy =     -103.41461890  energy(sigma->0) =     -103.41461890


--------------------------------------------------------------------------------------------------------




--------------------------------------- Iteration      1(  17)  ---------------------------------------


    POTLOK:  cpu time    1.7117: real time    1.7127
    SETDIJ:  cpu time    0.0080: real time    0.0076
     EDDAV:  cpu time    9.7925: real time    9.7888
       DOS:  cpu time    0.0000: real time    0.0003
    CHARGE:  cpu time    0.4869: real time    0.4866
    MIXING:  cpu time    0.0960: real time    0.0951
    --------------------------------------------
      LOOP:  cpu time   12.0952: real time   12.0912

 eigenvalue-minimisations  :   104
 total energy-change (2. order) :-0.1111154E-02  (-0.1023796E-04)
 number of electron      56.0000015 magnetization 
 augmentation part       -3.1300171 magnetization 

 Broyden mixing:
  rms(total) = 0.33726E-03    rms(broyden)= 0.33721E-03
  rms(prec ) = 0.47547E-03
  weight for this iteration     100.00

 eigenvalues of (default mixing * dielectric matrix)
  average eigenvalue GAMMA=   2.3759
  7.5692  4.9553  2.7076  2.7076  1.9125  1.9125  1.4628  1.4628  0.9939  0.9939
  0.9166  0.9166

 Free energy of the ion-electron system (eV)
  ---------------------------------------------------
  alpha Z        PSCENC =         1.68866877
  Ewald energy   TEWEN  =      2629.98113996
  -Hartree energ DENC   =     -3566.41789218
  -exchange      EXHF   =         0.00000000
  -V(xc)+E(xc)   XCENC  =       -44.79204894
  PAW double counting   =      4083.04870684    -3918.09167186
  entropy T*S    EENTRO =        -0.00000000
  eigenvalues    EBANDS =      -524.93798880
  atomic energy  EATOM  =      1236.10535615
  Solvation  Ediel_sol  =         0.00000000
  ---------------------------------------------------
  free energy    TOTEN  =      -103.41573005 eV

  energy without entropy =     -103.41573005  energy(sigma->0) =     -103.41573005


--------------------------------------------------------------------------------------------------------




--------------------------------------- Iteration      1(  18)  ---------------------------------------


    POTLOK:  cpu time    1.7147: real time    1.7172
    SETDIJ:  cpu time    0.0070: real time    0.0074
     EDDAV:  cpu time   10.3714: real time   10.3680
       DOS:  cpu time    0.0010: real time    0.0003
    CHARGE:  cpu time    0.4829: real time    0.4826
    MIXING:  cpu time    0.1060: real time    0.1059
    --------------------------------------------
      LOOP:  cpu time   12.6831: real time   12.6813

 eigenvalue-minimisations  :   112
 total energy-change (2. order) :-0.2118823E-03  (-0.6459040E-06)
 number of electron      56.0000015 magnetization 
 augmentation part       -3.1300039 magnetization 

 Broyden mixing:
  rms(total) = 0.20753E-03    rms(broyden)= 0.20749E-03
  rms(prec ) = 0.29496E-03
  weight for this iteration     100.00

 eigenvalues of (default mixing * dielectric matrix)
  average eigenvalue GAMMA=   2.4936
  8.1621  5.7267  3.2313  2.6317  2.3804  1.8092  1.8092  1.3852  1.3852  0.9916
  0.9916  0.9561  0.9561

 Free energy of the ion-electron system (eV)
  ---------------------------------------------------
  alpha Z        PSCENC =         1.68866877
  Ewald energy   TEWEN  =      2629.98113996
  -Hartree energ DENC   =     -3566.44515772
  -exchange      EXHF   =         0.00000000
  -V(xc)+E(xc)   XCENC  =       -44.79201669
  PAW double counting   =      4082.83608611    -3917.87963755
  entropy T*S    EENTRO =        -0.00000000
  eigenvalues    EBANDS =      -524.91038098
  atomic energy  EATOM  =      1236.10535615
  Solvation  Ediel_sol  =         0.00000000
  ---------------------------------------------------
  free energy    TOTEN  =      -103.41594194 eV

  energy without entropy =     -103.41594194  energy(sigma->0) =     -103.41594194


--------------------------------------------------------------------------------------------------------




--------------------------------------- Iteration      1(  19)  ---------------------------------------


    POTLOK:  cpu time    1.7227: real time    1.7223
    SETDIJ:  cpu time    0.0080: real time    0.0076
     EDDAV:  cpu time    9.2616: real time    9.2588
       DOS:  cpu time    0.0000: real time    0.0003
    CHARGE:  cpu time    0.4869: real time    0.4859
    MIXING:  cpu time    0.1180: real time    0.1180
    --------------------------------------------
      LOOP:  cpu time   11.5972: real time   11.5929

 eigenvalue-minimisations  :    96
 total energy-change (2. order) :-0.1918386E-03  (-0.7530324E-06)
 number of electron      56.0000015 magnetization 
 augmentation part       -3.1300058 magnetization 

 Broyden mixing:
  rms(total) = 0.16936E-03    rms(broyden)= 0.16935E-03
  rms(prec ) = 0.20858E-03
  weight for this iteration     100.00

 eigenvalues of (default mixing * dielectric matrix)
  average eigenvalue GAMMA=   2.4682
  8.2946  6.1247  3.3438  2.5556  2.3984  1.8770  1.8770  1.4976  1.4976  1.2077
  0.9975  0.9975  0.9427  0.9427

 Free energy of the ion-electron system (eV)
  ---------------------------------------------------
  alpha Z        PSCENC =         1.68866877
  Ewald energy   TEWEN  =      2629.98113996
  -Hartree energ DENC   =     -3566.47077678
  -exchange      EXHF   =         0.00000000
  -V(xc)+E(xc)   XCENC  =       -44.79049127
  PAW double counting   =      4082.77898254    -3917.82294377
  entropy T*S    EENTRO =        -0.00000000
  eigenvalues    EBANDS =      -524.88606938
  atomic energy  EATOM  =      1236.10535615
  Solvation  Ediel_sol  =         0.00000000
  ---------------------------------------------------
  free energy    TOTEN  =      -103.41613378 eV

  energy without entropy =     -103.41613378  energy(sigma->0) =     -103.41613378


--------------------------------------------------------------------------------------------------------




--------------------------------------- Iteration      1(  20)  ---------------------------------------


    POTLOK:  cpu time    1.7207: real time    1.7204
    SETDIJ:  cpu time    0.0080: real time    0.0075
     EDDAV:  cpu time    8.6507: real time    8.6483
       DOS:  cpu time    0.0000: real time    0.0003
    CHARGE:  cpu time    0.4869: real time    0.4867
    MIXING:  cpu time    0.1300: real time    0.1298
    --------------------------------------------
      LOOP:  cpu time   10.9963: real time   10.9930

 eigenvalue-minimisations  :    88
 total energy-change (2. order) :-0.4398304E-04  (-0.8591883E-07)
 number of electron      56.0000015 magnetization 
 augmentation part       -3.1299844 magnetization 

 Broyden mixing:
  rms(total) = 0.53361E-04    rms(broyden)= 0.53360E-04
  rms(prec ) = 0.82901E-04
  weight for this iteration     100.00

 eigenvalues of (default mixing * dielectric matrix)
  average eigenvalue GAMMA=   2.4996
  8.5764  6.2832  3.8895  2.6958  2.6958  1.8417  1.8417  1.8011  1.4192  1.4192
  1.2161  0.9802  0.9802  0.9475  0.9063

 Free energy of the ion-electron system (eV)
  ---------------------------------------------------
  alpha Z        PSCENC =         1.68866877
  Ewald energy   TEWEN  =      2629.98113996
  -Hartree energ DENC   =     -3566.47488648
  -exchange      EXHF   =         0.00000000
  -V(xc)+E(xc)   XCENC  =       -44.79131124
  PAW double counting   =      4082.78262428    -3917.82664211
  entropy T*S    EENTRO =        -0.00000000
  eigenvalues    EBANDS =      -524.88112709
  atomic energy  EATOM  =      1236.10535615
  Solvation  Ediel_sol  =         0.00000000
  ---------------------------------------------------
  free energy    TOTEN  =      -103.41617776 eV

  energy without entropy =     -103.41617776  energy(sigma->0) =     -103.41617776


--------------------------------------------------------------------------------------------------------




--------------------------------------- Iteration      1(  21)  ---------------------------------------


    POTLOK:  cpu time    1.7207: real time    1.7204
    SETDIJ:  cpu time    0.0080: real time    0.0074
     EDDAV:  cpu time    8.0298: real time    8.0271
       DOS:  cpu time    0.0000: real time    0.0003
    CHARGE:  cpu time    0.4839: real time    0.4825
    MIXING:  cpu time    0.1410: real time    0.1415
    --------------------------------------------
      LOOP:  cpu time   10.3834: real time   10.3794

 eigenvalue-minimisations  :    80
 total energy-change (2. order) :-0.2838202E-04  (-0.8090632E-07)
 number of electron      56.0000015 magnetization 
 augmentation part       -3.1299718 magnetization 

 Broyden mixing:
  rms(total) = 0.54722E-04    rms(broyden)= 0.54718E-04
  rms(prec ) = 0.70792E-04
  weight for this iteration     100.00

 eigenvalues of (default mixing * dielectric matrix)
  average eigenvalue GAMMA=   2.5157
  8.6004  6.6538  4.2187  3.0179  2.5800  2.2199  1.9035  1.9035  1.5498  1.5498
  1.1209  1.0370  1.0370  0.9461  0.9461  0.9671

 Free energy of the ion-electron system (eV)
  ---------------------------------------------------
  alpha Z        PSCENC =         1.68866877
  Ewald energy   TEWEN  =      2629.98113996
  -Hartree energ DENC   =     -3566.47949683
  -exchange      EXHF   =         0.00000000
  -V(xc)+E(xc)   XCENC  =       -44.79146148
  PAW double counting   =      4082.88082256    -3917.92482131
  entropy T*S    EENTRO =        -0.00000000
  eigenvalues    EBANDS =      -524.87641396
  atomic energy  EATOM  =      1236.10535615
  Solvation  Ediel_sol  =         0.00000000
  ---------------------------------------------------
  free energy    TOTEN  =      -103.41620614 eV

  energy without entropy =     -103.41620614  energy(sigma->0) =     -103.41620614


--------------------------------------------------------------------------------------------------------




--------------------------------------- Iteration      1(  22)  ---------------------------------------


    POTLOK:  cpu time    1.7087: real time    1.7080
    SETDIJ:  cpu time    0.0080: real time    0.0076
     EDDAV:  cpu time    7.9968: real time    7.9942
       DOS:  cpu time    0.0010: real time    0.0004
    CHARGE:  cpu time    0.4889: real time    0.4896
    MIXING:  cpu time    0.1520: real time    0.1514
    --------------------------------------------
      LOOP:  cpu time   10.3554: real time   10.3512

 eigenvalue-minimisations  :    80
 total energy-change (2. order) :-0.7777735E-05  (-0.2137317E-07)
 number of electron      56.0000015 magnetization 
 augmentation part       -3.1299829 magnetization 

 Broyden mixing:
  rms(total) = 0.21319E-04    rms(broyden)= 0.21319E-04
  rms(prec ) = 0.28205E-04
  weight for this iteration     100.00

 eigenvalues of (default mixing * dielectric matrix)
  average eigenvalue GAMMA=   2.5016
  8.8148  6.7117  4.5555  3.0919  2.5047  2.5047  1.8543  1.8543  1.6668  1.6668
  1.2178  1.2178  1.0112  1.0112  0.9574  0.9574  0.9293

 Free energy of the ion-electron system (eV)
  ---------------------------------------------------
  alpha Z        PSCENC =         1.68866877
  Ewald energy   TEWEN  =      2629.98113996
  -Hartree energ DENC   =     -3566.47756967
  -exchange      EXHF   =         0.00000000
  -V(xc)+E(xc)   XCENC  =       -44.79137535
  PAW double counting   =      4082.92564899    -3917.96953283
  entropy T*S    EENTRO =        -0.00000000
  eigenvalues    EBANDS =      -524.87854995
  atomic energy  EATOM  =      1236.10535615
  Solvation  Ediel_sol  =         0.00000000
  ---------------------------------------------------
  free energy    TOTEN  =      -103.41621392 eV

  energy without entropy =     -103.41621392  energy(sigma->0) =     -103.41621392


--------------------------------------------------------------------------------------------------------




--------------------------------------- Iteration      1(  23)  ---------------------------------------


    POTLOK:  cpu time    1.7687: real time    1.7698
    SETDIJ:  cpu time    0.0080: real time    0.0075
     EDDAV:  cpu time    8.5847: real time    8.5814
       DOS:  cpu time    0.0010: real time    0.0004
    CHARGE:  cpu time    0.4829: real time    0.4829
    MIXING:  cpu time    0.1640: real time    0.1646
    --------------------------------------------
      LOOP:  cpu time   11.0093: real time   11.0066

 eigenvalue-minimisations  :    88
 total energy-change (2. order) :-0.3081489E-05  (-0.5663782E-08)
 number of electron      56.0000015 magnetization 
 augmentation part       -3.1299883 magnetization 

 Broyden mixing:
  rms(total) = 0.16021E-04    rms(broyden)= 0.16020E-04
  rms(prec ) = 0.20560E-04
  weight for this iteration     100.00

 eigenvalues of (default mixing * dielectric matrix)
  average eigenvalue GAMMA=   2.5250
  8.8629  6.8260  4.7758  2.9649  2.8666  2.8666  1.9552  1.9552  1.9506  1.6037
  1.6037  1.1873  0.9368  0.9368  0.9893  0.9893  1.0893  1.0893

 Free energy of the ion-electron system (eV)
  ---------------------------------------------------
  alpha Z        PSCENC =         1.68866877
  Ewald energy   TEWEN  =      2629.98113996
  -Hartree energ DENC   =     -3566.47714156
  -exchange      EXHF   =         0.00000000
  -V(xc)+E(xc)   XCENC  =       -44.79146698
  PAW double counting   =      4082.85448831    -3917.89836772
  entropy T*S    EENTRO =        -0.00000000
  eigenvalues    EBANDS =      -524.87889393
  atomic energy  EATOM  =      1236.10535615
  Solvation  Ediel_sol  =         0.00000000
  ---------------------------------------------------
  free energy    TOTEN  =      -103.41621700 eV

  energy without entropy =     -103.41621700  energy(sigma->0) =     -103.41621700


--------------------------------------------------------------------------------------------------------




--------------------------------------- Iteration      1(  24)  ---------------------------------------


    POTLOK:  cpu time    1.7477: real time    1.7486
    SETDIJ:  cpu time    0.0070: real time    0.0075
     EDDAV:  cpu time    7.8198: real time    7.8219
       DOS:  cpu time    0.0010: real time    0.0004
    CHARGE:  cpu time    0.4799: real time    0.4802
    MIXING:  cpu time    0.1780: real time    0.1783
    --------------------------------------------
      LOOP:  cpu time   10.2334: real time   10.2370

 eigenvalue-minimisations  :    78
 total energy-change (2. order) :-0.2996656E-05  (-0.4633270E-08)
 number of electron      56.0000015 magnetization 
 augmentation part       -3.1299879 magnetization 

 Broyden mixing:
  rms(total) = 0.10609E-04    rms(broyden)= 0.10609E-04
  rms(prec ) = 0.12042E-04
  weight for this iteration     100.00

 eigenvalues of (default mixing * dielectric matrix)
  average eigenvalue GAMMA=   2.5247
  8.8444  7.0691  5.3032  3.7847  2.8271  2.4648  2.2384  1.8614  1.8614  1.6368
  1.6368  1.2078  1.2078  1.2202  0.9743  0.9743  0.9900  0.9336  0.9336

 Free energy of the ion-electron system (eV)
  ---------------------------------------------------
  alpha Z        PSCENC =         1.68866877
  Ewald energy   TEWEN  =      2629.98113996
  -Hartree energ DENC   =     -3566.47816993
  -exchange      EXHF   =         0.00000000
  -V(xc)+E(xc)   XCENC  =       -44.79144906
  PAW double counting   =      4082.81267050    -3917.85657502
  entropy T*S    EENTRO =        -0.00000000
  eigenvalues    EBANDS =      -524.87786136
  atomic energy  EATOM  =      1236.10535615
  Solvation  Ediel_sol  =         0.00000000
  ---------------------------------------------------
  free energy    TOTEN  =      -103.41622000 eV

  energy without entropy =     -103.41622000  energy(sigma->0) =     -103.41622000


--------------------------------------------------------------------------------------------------------




--------------------------------------- Iteration      1(  25)  ---------------------------------------


    POTLOK:  cpu time    1.7237: real time    1.7241
    SETDIJ:  cpu time    0.0080: real time    0.0076
     EDDAV:  cpu time    7.9438: real time    7.9847
       DOS:  cpu time    0.0000: real time    0.0003
    --------------------------------------------
      LOOP:  cpu time    9.6755: real time    9.7167

 eigenvalue-minimisations  :    80
 total energy-change (2. order) :-0.4244293E-06  (-0.9050130E-09)
 number of electron      56.0000015 magnetization 
 augmentation part       -3.1299879 magnetization 

 Free energy of the ion-electron system (eV)
  ---------------------------------------------------
  alpha Z        PSCENC =         1.68866877
  Ewald energy   TEWEN  =      2629.98113996
  -Hartree energ DENC   =     -3566.47857831
  -exchange      EXHF   =         0.00000000
  -V(xc)+E(xc)   XCENC  =       -44.79141779
  PAW double counting   =      4082.83738186    -3917.88128447
  entropy T*S    EENTRO =        -0.00000000
  eigenvalues    EBANDS =      -524.87748659
  atomic energy  EATOM  =      1236.10535615
  Solvation  Ediel_sol  =         0.00000000
  ---------------------------------------------------
  free energy    TOTEN  =      -103.41622042 eV

  energy without entropy =     -103.41622042  energy(sigma->0) =     -103.41622042


--------------------------------------------------------------------------------------------------------




 average (electrostatic) potential at core
  the test charge radii are     0.9892  1.1631  0.5201
  (the norm of the test charge is              1.0000)
       1 -93.3589       2 -93.4386       3 -93.4719       4 -93.4718       5 -93.3590
       6 -93.4719       7 -93.4718       8 -40.3868       9 -40.3868      10 -40.4919
      11 -40.6993      12 -40.7028      13 -41.0699      14 -41.0595      15 -41.0591
      16 -40.7034      17 -40.7003      18 -40.7107      19 -41.0704      20 -40.7029
      21 -40.6994      22 -40.7109      23 -40.7117      24 -40.7119      25 -40.6992
      26 -40.7031
 
 
 
 E-fermi :  -5.3858     XC(G=0):  -0.6070     alpha+bet : -0.3428


 k-point     1 :       0.0000    0.0000    0.0000
  band No.  band energies     occupation 
      1     -15.1959      2.00000
      2     -14.1570      2.00000
      3     -14.0330      2.00000
      4     -13.6523      2.00000
      5     -12.8321      2.00000
      6     -12.5527      2.00000
      7     -11.5941      2.00000
      8     -11.5804      2.00000
      9     -11.2370      2.00000
     10     -10.3785      2.00000
     11      -8.9664      2.00000
     12      -8.6261      2.00000
     13      -8.6168      2.00000
     14      -8.6152      2.00000
     15      -8.2017      2.00000
     16      -8.1983      2.00000
     17      -8.1935      2.00000
     18      -7.8680      2.00000
     19      -7.8677      2.00000
     20      -7.8555      2.00000
     21      -6.7950      2.00000
     22      -6.7830      2.00000
     23      -6.5014      2.00000
     24      -6.4857      2.00000
     25      -6.4775      2.00000
     26      -6.4025      2.00000
     27      -6.3988      2.00000
     28      -6.3726      2.00000
     29      -1.7488      0.00000
     30      -1.4653      0.00000
     31      -1.4229      0.00000
     32      -1.2672      0.00000
     33      -1.1497      0.00000
     34      -1.1077      0.00000
     35      -1.0777      0.00000
     36      -1.0390      0.00000
     37      -0.8927      0.00000
     38      -0.5151      0.00000
     39      -0.4994      0.00000
     40      -0.3697      0.00000
     41      -0.3389      0.00000
     42      -0.2493      0.00000


--------------------------------------------------------------------------------------------------------


 soft charge-density along one line, spin component           1
         0         1         2         3         4         5         6         7         8         9
 total charge-density along one line
 
 pseudopotential strength for first ion, spin component:           1
 19.609  27.364  -0.000   0.002   0.000  -0.001   0.004   0.000
 27.364  38.193  -0.001   0.003   0.000  -0.001   0.005   0.000
 -0.000  -0.001   4.358  -0.000   0.000   8.129  -0.000   0.000
  0.002   0.003  -0.000   4.358   0.000  -0.000   8.129  -0.000
  0.000   0.000   0.000   0.000   4.358   0.000  -0.000   8.129
 -0.001  -0.001   8.129  -0.000   0.000  15.174  -0.000   0.000
  0.004   0.005  -0.000   8.129  -0.000  -0.000  15.174  -0.000
  0.000   0.000   0.000  -0.000   8.129   0.000  -0.000  15.174
 total augmentation occupancy for first ion, spin component:           1
  5.586  -2.052   0.069  -0.327  -0.043  -0.021   0.098   0.013
 -2.052   0.813  -0.042   0.200   0.027   0.009  -0.045  -0.006
  0.069  -0.042   2.873  -0.093  -0.013  -0.625   0.034   0.005
 -0.327   0.200  -0.093   3.299   0.062   0.034  -0.781  -0.022
 -0.043   0.027  -0.013   0.062   2.858   0.005  -0.022  -0.621
 -0.021   0.009  -0.625   0.034   0.005   0.142  -0.010  -0.001
  0.098  -0.045   0.034  -0.781  -0.022  -0.010   0.188   0.007
  0.013  -0.006   0.005  -0.022  -0.621  -0.001   0.007   0.141


------------------------ aborting loop because EDIFF is reached ----------------------------------------


    CHARGE:  cpu time    0.4869: real time    0.4871
    FORLOC:  cpu time    0.1710: real time    0.1712
    FORNL :  cpu time    1.0518: real time    1.0519
    STRESS:  cpu time    7.3839: real time    7.3885
    FORCOR:  cpu time    1.7087: real time    1.7086
    FORHAR:  cpu time    0.5789: real time    0.5796
    MIXING:  cpu time    0.1940: real time    0.1934
    OFIELD:  cpu time    0.0000: real time    0.0000

  FORCE on cell =-STRESS in cart. coord.  units (eV):
  Direction    XX          YY          ZZ          XY          YZ          ZX
  --------------------------------------------------------------------------------------
  Alpha Z     1.68867     1.68867     1.68867
  Ewald     876.64706   876.62235   876.71007    -0.21850     0.02563    -0.50464
  Hartree  1188.49677  1188.66610  1189.31634    -0.11520    -0.11762    -0.98618
  E(xc)    -175.67820  -175.67841  -175.68436    -0.00098     0.00159     0.00434
  Local   -2578.53640 -2578.74854 -2579.37757     0.34497     0.06509     1.45846
  n-local   289.39061   289.44626   289.33254    -0.01329     0.02888     0.04699
  augment   -34.25781   -34.25148   -34.26234    -0.00139     0.00288     0.00343
  Kinetic   426.60115   426.68967   426.62487    -0.00178     0.01400    -0.01670
  Fock        0.00000     0.00000     0.00000     0.00000     0.00000     0.00000
  -------------------------------------------------------------------------------------
  Total      -5.64816    -5.56538    -5.65178    -0.00616     0.02045     0.00571
  in kB      -1.13117    -1.11459    -1.13189    -0.00123     0.00410     0.00114
  external pressure =       -1.13 kB  Pullay stress =        0.00 kB


 VOLUME and BASIS-vectors are now :
 -----------------------------------------------------------------------------
  energy-cutoff  :      400.00
[...]
    SETDIJ:  cpu time    0.0080: real time    0.0074
     EDDAV:  cpu time   10.3654: real time   10.3638
       DOS:  cpu time    0.0010: real time    0.0003
    CHARGE:  cpu time    0.4879: real time    0.4880
    MIXING:  cpu time    0.0450: real time    0.0455
    --------------------------------------------
      LOOP:  cpu time   12.6501: real time   12.6480

 eigenvalue-minimisations  :   112
 total energy-change (2. order) :-0.4550243E-04  (-0.5669834E-04)
 number of electron      56.0000014 magnetization 
 augmentation part       -3.1248877 magnetization 

 Broyden mixing:
  rms(total) = 0.22455E-02    rms(broyden)= 0.22451E-02
  rms(prec ) = 0.24024E-02
  weight for this iteration     100.00

 eigenvalues of (default mixing * dielectric matrix)
  average eigenvalue GAMMA=   1.1343
  1.1343

 Free energy of the ion-electron system (eV)
  ---------------------------------------------------
  alpha Z        PSCENC =         1.68866877
  Ewald energy   TEWEN  =      2662.21621758
  -Hartree energ DENC   =     -3597.38036083
  -exchange      EXHF   =         0.00000000
  -V(xc)+E(xc)   XCENC  =       -43.77003041
  PAW double counting   =      4459.87202116    -4295.07458481
  entropy T*S    EENTRO =        -0.00000000
  eigenvalues    EBANDS =      -527.40629532
  atomic energy  EATOM  =      1236.10535615
  Solvation  Ediel_sol  =         0.00000000
  ---------------------------------------------------
  free energy    TOTEN  =      -103.74900770 eV

  energy without entropy =     -103.74900770  energy(sigma->0) =     -103.74900770


--------------------------------------------------------------------------------------------------------




--------------------------------------- Iteration     16(   3)  ---------------------------------------


    POTLOK:  cpu time    1.7497: real time    1.7530
    SETDIJ:  cpu time    0.0080: real time    0.0075
     EDDAV:  cpu time   10.9783: real time   10.9768
       DOS:  cpu time    0.0010: real time    0.0004
    CHARGE:  cpu time    0.4859: real time    0.4866
    MIXING:  cpu time    0.0490: real time    0.0485
    --------------------------------------------
      LOOP:  cpu time   13.2720: real time   13.2728

 eigenvalue-minimisations  :   120
 total energy-change (2. order) : 0.5252849E-05  (-0.2070250E-05)
 number of electron      56.0000014 magnetization 
 augmentation part       -3.1249861 magnetization 

 Broyden mixing:
  rms(total) = 0.11728E-02    rms(broyden)= 0.11728E-02
  rms(prec ) = 0.12502E-02
  weight for this iteration     100.00

 eigenvalues of (default mixing * dielectric matrix)
  average eigenvalue GAMMA=   1.5681
  1.0762  2.0600

 Free energy of the ion-electron system (eV)
  ---------------------------------------------------
  alpha Z        PSCENC =         1.68866877
  Ewald energy   TEWEN  =      2662.21621758
  -Hartree energ DENC   =     -3597.38003549
  -exchange      EXHF   =         0.00000000
  -V(xc)+E(xc)   XCENC  =       -43.76884883
  PAW double counting   =      4459.75945143    -4294.96170766
  entropy T*S    EENTRO =        -0.00000000
  eigenvalues    EBANDS =      -527.40810439
  atomic energy  EATOM  =      1236.10535615
  Solvation  Ediel_sol  =         0.00000000
  ---------------------------------------------------
  free energy    TOTEN  =      -103.74900245 eV

  energy without entropy =     -103.74900245  energy(sigma->0) =     -103.74900245


--------------------------------------------------------------------------------------------------------




--------------------------------------- Iteration     16(   4)  ---------------------------------------


    POTLOK:  cpu time    1.7507: real time    1.7634
    SETDIJ:  cpu time    0.0080: real time    0.0076
     EDDAV:  cpu time    9.7575: real time    9.7563
       DOS:  cpu time    0.0000: real time    0.0003
    --------------------------------------------
      LOOP:  cpu time   11.5162: real time   11.5275

 eigenvalue-minimisations  :   104
 total energy-change (2. order) : 0.9095056E-06  (-0.7401124E-06)
 number of electron      56.0000014 magnetization 
 augmentation part       -3.1249861 magnetization 

 Free energy of the ion-electron system (eV)
  ---------------------------------------------------
  alpha Z        PSCENC =         1.68866877
  Ewald energy   TEWEN  =      2662.21621758
  -Hartree energ DENC   =     -3597.38397670
  -exchange      EXHF   =         0.00000000
  -V(xc)+E(xc)   XCENC  =       -43.76794734
  PAW double counting   =      4459.57238852    -4294.77443456
  entropy T*S    EENTRO =        -0.00000000
  eigenvalues    EBANDS =      -527.40527396
  atomic energy  EATOM  =      1236.10535615
  Solvation  Ediel_sol  =         0.00000000
  ---------------------------------------------------
  free energy    TOTEN  =      -103.74900154 eV

  energy without entropy =     -103.74900154  energy(sigma->0) =     -103.74900154


--------------------------------------------------------------------------------------------------------




 average (electrostatic) potential at core
  the test charge radii are     0.9892  1.1631  0.5201
  (the norm of the test charge is              1.0000)
       1 -93.2383       2 -93.2635       3 -93.3368       4 -93.3367       5 -93.2386
       6 -93.3370       7 -93.3370       8 -40.3833       9 -40.3832      10 -40.4732
      11 -40.8373      12 -40.8329      13 -41.0055      14 -40.9727      15 -40.9726
      16 -40.8334      17 -40.8373      18 -40.8715      19 -41.0056      20 -40.8336
      21 -40.8375      22 -40.8712      23 -40.8319      24 -40.8323      25 -40.8382
      26 -40.8335
 
 
 
 E-fermi :  -5.3540     XC(G=0):  -0.5997     alpha+bet : -0.3428


 k-point     1 :       0.0000    0.0000    0.0000
  band No.  band energies     occupation 
      1     -15.1044      2.00000
      2     -14.1199      2.00000
      3     -14.0886      2.00000
      4     -13.8242      2.00000
      5     -12.8962      2.00000
      6     -12.7016      2.00000
      7     -11.6820      2.00000
      8     -11.6591      2.00000
      9     -11.3655      2.00000
     10     -10.5141      2.00000
     11      -9.0282      2.00000
     12      -8.7129      2.00000
     13      -8.6880      2.00000
     14      -8.6250      2.00000
     15      -8.2831      2.00000
     16      -8.2529      2.00000
     17      -8.1581      2.00000
     18      -7.9502      2.00000
     19      -7.8761      2.00000
     20      -7.8724      2.00000
     21      -6.8769      2.00000
     22      -6.8150      2.00000
     23      -6.5542      2.00000
     24      -6.5035      2.00000
     25      -6.4843      2.00000
     26      -6.4151      2.00000
     27      -6.3812      2.00000
     28      -6.2701      2.00000
     29      -1.6863      0.00000
     30      -1.4757      0.00000
     31      -1.3668      0.00000
     32      -1.2699      0.00000
     33      -1.1953      0.00000
     34      -1.0756      0.00000
     35      -1.0463      0.00000
     36      -0.9847      0.00000
     37      -0.7585      0.00000
     38      -0.4279      0.00000
     39      -0.3360      0.00000
     40      -0.2923      0.00000
     41      -0.2406      0.00000
     42      -0.1522      0.00000


--------------------------------------------------------------------------------------------------------


 soft charge-density along one line, spin component           1
         0         1         2         3         4         5         6         7         8         9
 total charge-density along one line
 
 pseudopotential strength for first ion, spin component:           1
 19.606  27.361  -0.000   0.002   0.000  -0.001   0.004   0.001
 27.361  38.187  -0.001   0.003   0.001  -0.001   0.006   0.001
 -0.000  -0.001   4.361  -0.000  -0.000   8.135  -0.000  -0.000
  0.002   0.003  -0.000   4.361   0.000  -0.000   8.136   0.000
  0.000   0.001  -0.000   0.000   4.361  -0.000   0.000   8.135
 -0.001  -0.001   8.135  -0.000  -0.000  15.184  -0.000  -0.000
  0.004   0.006  -0.000   8.136   0.000  -0.000  15.186   0.000
  0.001   0.001  -0.000   0.000   8.135  -0.000   0.000  15.184
 total augmentation occupancy for first ion, spin component:           1
  6.088  -2.326   0.086  -0.415  -0.073  -0.027   0.129   0.023
 -2.326   0.946  -0.050   0.242   0.042   0.012  -0.059  -0.011
  0.086  -0.050   3.075  -0.109  -0.017  -0.687   0.039   0.006
 -0.415   0.242  -0.109   3.572   0.078   0.039  -0.865  -0.028
 -0.073   0.042  -0.017   0.078   3.050   0.006  -0.028  -0.678
 -0.027   0.012  -0.687   0.039   0.006   0.160  -0.011  -0.002
  0.129  -0.059   0.039  -0.865  -0.028  -0.011   0.212   0.008
  0.023  -0.011   0.006  -0.028  -0.678  -0.002   0.008   0.157


------------------------ aborting loop because EDIFF is reached ----------------------------------------


    CHARGE:  cpu time    0.4869: real time    0.4870
    FORLOC:  cpu time    0.1700: real time    0.1707
    FORNL :  cpu time    1.0558: real time    1.0557
    STRESS:  cpu time    7.4949: real time    7.4937
    FORCOR:  cpu time    1.7087: real time    1.7080
    FORHAR:  cpu time    0.5819: real time    0.5820
    MIXING:  cpu time    0.0490: real time    0.0488
    OFIELD:  cpu time    0.0000: real time    0.0000

  FORCE on cell =-STRESS in cart. coord.  units (eV):
  Direction    XX          YY          ZZ          XY          YZ          ZX
  --------------------------------------------------------------------------------------
  Alpha Z     1.68867     1.68867     1.68867
  Ewald     884.68909   887.80157   889.72384     0.35085    -0.60519    -3.93538
  Hartree  1196.74272  1199.27409  1201.38817     0.33363    -0.62423    -3.65539
  E(xc)    -176.93472  -176.89196  -176.94506    -0.00446     0.01266     0.00874
  Local   -2596.20215 -2602.25111 -2605.89368    -0.66103     1.13930     7.59178
  n-local   291.49046   291.64543   291.33261    -0.03693     0.07878     0.12327
  augment   -34.44912   -34.48880   -34.43323     0.00485    -0.01297    -0.01064
  Kinetic   432.11006   432.24097   432.39138     0.04234    -0.04618    -0.21522
  Fock        0.00000     0.00000     0.00000     0.00000     0.00000     0.00000
  -------------------------------------------------------------------------------------
  Total      -0.86499    -0.98113    -0.74730     0.02925    -0.05783    -0.09284
  in kB      -0.17323    -0.19649    -0.14966     0.00586    -0.01158    -0.01859
  external pressure =       -0.17 kB  Pullay stress =        0.00 kB


 VOLUME and BASIS-vectors are now :
 -----------------------------------------------------------------------------
  energy-cutoff  :      400.00
  volume of cell :     8000.00
      direct lattice vectors                 reciprocal lattice vectors
    20.000000000  0.000000000  0.000000000     0.050000000  0.000000000  0.000000000
     0.000000000 20.000000000  0.000000000     0.000000000  0.050000000  0.000000000
     0.000000000  0.000000000 20.000000000     0.000000000  0.000000000  0.050000000

  length of vectors
    20.000000000 20.000000000 20.000000000     0.050000000  0.050000000  0.050000000


 FORCES acting on ions
    electron-ion (+dipol)            ewald-force                    non-local-force                 convergence-correction
 -----------------------------------------------------------------------------------------------
   0.111E+02 -.189E+02 0.897E+02   -.113E+02 0.192E+02 -.909E+02   0.230E+00 -.238E+00 0.115E+01   -.300E-02 0.129E-03 -.146E-02
   0.892E+02 -.524E+01 0.472E+02   -.907E+02 0.533E+01 -.480E+02   0.154E+01 -.880E-01 0.815E+00   -.128E-02 0.413E-04 -.708E-03
   -.381E+02 0.548E+02 0.738E+02   0.387E+02 -.556E+02 -.759E+02   -.509E+00 0.740E+00 0.202E+01   -.250E-02 -.392E-03 -.202E-02
   -.304E+02 -.840E+02 0.438E+02   0.307E+02 0.855E+02 -.453E+02   -.378E+00 -.156E+01 0.152E+01   -.255E-02 0.932E-03 -.173E-02
   0.818E+02 0.135E+02 -.409E+02   -.829E+02 -.137E+02 0.414E+02   0.110E+01 0.160E+00 -.451E+00   -.285E-02 0.185E-03 -.165E-02
   0.267E+02 0.842E+02 -.457E+02   -.279E+02 -.857E+02 0.468E+02   0.118E+01 0.151E+01 -.110E+01   -.290E-02 -.585E-03 -.110E-02
   0.345E+02 -.546E+02 -.757E+02   -.358E+02 0.554E+02 0.773E+02   0.131E+01 -.789E+00 -.160E+01   -.299E-02 0.710E-03 -.865E-03
   -.539E+02 0.774E+02 -.998E+01   0.539E+02 -.780E+02 0.984E+01   -.661E-02 0.600E+00 0.144E+00   -.706E-03 -.156E-02 -.734E-03
   -.455E+02 -.717E+02 -.424E+02   0.455E+02 0.723E+02 0.425E+02   0.605E-01 -.604E+00 -.117E+00   -.883E-03 0.165E-02 -.573E-04
   -.883E+02 0.518E+01 -.467E+02   0.892E+02 -.524E+01 0.472E+02   -.916E+00 0.537E-01 -.482E+00   0.821E-03 -.601E-04 0.477E-03
   0.216E+02 0.414E+02 0.610E+01   -.230E+02 -.437E+02 -.735E+01   0.141E+01 0.228E+01 0.125E+01   -.457E-03 -.758E-04 -.329E-03
   0.905E+00 0.225E+02 -.414E+02   -.533E+00 -.231E+02 0.442E+02   -.374E+00 0.635E+00 -.287E+01   -.430E-03 -.242E-03 0.234E-04
   -.256E+02 0.388E+02 -.424E+01   0.270E+02 -.409E+02 0.445E+01   -.135E+01 0.206E+01 -.221E+00   0.213E-03 -.465E-03 0.498E-05
   -.440E+02 -.364E+01 0.529E+01   0.463E+02 0.399E+01 -.634E+01   -.226E+01 -.356E+00 0.106E+01   0.303E-03 0.326E-04 -.732E-04
   -.201E+02 0.742E+01 -.392E+02   0.205E+02 -.793E+01 0.417E+02   -.365E+00 0.509E+00 -.244E+01   0.947E-04 -.603E-04 0.295E-03
   -.371E+02 0.518E+01 0.286E+02   0.397E+02 -.478E+01 -.299E+02   -.263E+01 -.396E+00 0.130E+01   -.188E-03 -.136E-03 -.448E-03
   0.888E+01 0.358E+02 0.295E+02   -.102E+02 -.380E+02 -.308E+02   0.135E+01 0.225E+01 0.137E+01   -.523E-03 -.101E-03 -.237E-03
   0.698E+01 -.100E+02 0.476E+02   -.740E+01 0.106E+02 -.504E+02   0.426E+00 -.585E+00 0.281E+01   -.349E-03 -.538E-04 0.142E-03
   -.214E+02 -.361E+02 -.206E+02   0.225E+02 0.380E+02 0.216E+02   -.112E+01 -.191E+01 -.108E+01   0.159E-03 0.441E-03 0.199E-03
   0.235E+01 -.316E+01 -.468E+02   -.198E+01 0.259E+01 0.497E+02   -.370E+00 0.571E+00 -.288E+01   -.458E-03 0.165E-03 0.114E-03
   0.260E+02 -.378E+02 -.111E+02   -.277E+02 0.402E+02 0.109E+02   0.168E+01 -.243E+01 0.225E+00   -.470E-03 0.160E-03 -.283E-03
   0.440E+02 0.704E+01 -.209E+02   -.466E+02 -.745E+01 0.221E+02   0.260E+01 0.409E+00 -.121E+01   -.693E-04 0.720E-04 -.356E-03
   0.325E+02 0.251E+02 0.239E+02   -.340E+02 -.274E+02 -.252E+02   0.142E+01 0.223E+01 0.132E+01   -.648E-04 0.263E-03 0.224E-04
   0.356E+02 -.291E+02 0.122E+02   -.372E+02 0.315E+02 -.125E+02   0.168E+01 -.241E+01 0.311E+00   -.353E-04 -.266E-03 -.920E-04
   0.133E+02 -.434E+02 0.123E+02   -.150E+02 0.459E+02 -.127E+02   0.161E+01 -.246E+01 0.349E+00   -.530E-03 0.135E-03 -.188E-03
   -.357E+02 -.204E+02 0.231E+02   0.383E+02 0.209E+02 -.244E+02   -.263E+01 -.460E+00 0.129E+01   -.211E-03 0.289E-03 -.354E-03
 -----------------------------------------------------------------------------------------------
   -.466E+01 0.274E+00 -.246E+01   -.426E-13 -.142E-13 -.462E-13   0.469E+01 -.274E+00 0.248E+01   -.219E-01 0.121E-02 -.114E-01
 
 
 POSITION                                       TOTAL-FORCE (eV/Angst)
 -----------------------------------------------------------------------------------
      9.51353     11.12010      7.71745         0.013265      0.002950     -0.010309
      7.42958     10.77853      8.75361        -0.000708      0.000107     -0.000301
     10.81683      9.16985      7.90829         0.009750      0.012860     -0.010066
     10.60538     12.94379      8.72758         0.010875     -0.006532     -0.014114
      7.71523     10.29835     11.03860        -0.001237     -0.003783      0.016866
      8.99265      8.33622     11.27706        -0.005104      0.005716      0.016728
      8.78114     12.11028     12.09655        -0.003815     -0.012984      0.013047
     11.13254      8.63094     10.22734         0.001854      0.002764      0.001637
     10.91532     12.50591     11.06856         0.002194     -0.003012      0.000459
     12.29665     10.49416     11.31862        -0.006048      0.000298     -0.003032
      8.27569      7.18269     10.64297         0.000193      0.006260      0.000577
      9.18264      8.01673     12.72885        -0.001817      0.000370     -0.003310
     11.98327      7.32890     10.36593        -0.004120     -0.005928     -0.003662
     13.69350     10.71421     10.66521        -0.001361     -0.001791      0.008132
     12.52300     10.17940     12.82734         0.006555      0.001620     -0.005047
     12.14849      9.37255      7.25146        -0.003947     -0.000276      0.000379
     10.13169      8.03090      7.21547        -0.000683      0.005682      0.001783
      9.29299     11.42358      6.26258        -0.000388      0.002858     -0.013274
     11.62511     13.71693     11.75253        -0.004357      0.006354     -0.000993
      8.96955     11.81938     13.55455        -0.001466      0.001228     -0.003389
      7.93063     13.33892     11.97963         0.000621     -0.005803     -0.001862
      6.36682     10.08631     11.66642        -0.011600     -0.002246      0.006806
      6.71379      9.64367      8.08529         0.002675     -0.005685      0.000043
      6.58126     12.00449      8.59756         0.002323      0.005025      0.002627
      9.78655     14.18686      8.55197         0.000326     -0.005844     -0.000113
     11.93555     13.17436      8.07693        -0.003981     -0.000210      0.000388
 -----------------------------------------------------------------------------------
    total drift:                                0.001310      0.000648      0.001686


--------------------------------------------------------------------------------------------------------



  FREE ENERGIE OF THE ION-ELECTRON SYSTEM (eV)
  ---------------------------------------------------
  free  energy   TOTEN  =      -103.74900154 eV

  energy  without entropy=     -103.74900154  energy(sigma->0) =     -103.74900154
 
 d Force = 0.2796940E-03[ 0.683E-04, 0.491E-03]  d Energy = 0.2782803E-03 0.141E-05
 d Force = 0.7175520E+00[ 0.717E+00, 0.718E+00]  d Ewald  = 0.7175520E+00 0.377E-07


--------------------------------------------------------------------------------------------------------


    POTLOK:  cpu time    1.7377: real time    1.7373


--------------------------------------------------------------------------------------------------------


 Conjugate gradient step on ions:
 trial-energy change:   -0.000278  1 .order   -0.000280   -0.000491   -0.000068
  (g-gl).g = 0.704E-03      g.g   = 0.481E-03  gl.gl    = 0.270E-02
 g(Force)  = 0.481E-03   g(Stress)= 0.000E+00 ortho     = 0.187E-04
 gamma     =   0.26056
 trial     =   1.01160
 opt step  =   1.17513  (harmonic =   1.17513) maximal distance =0.00162217
 next E    =  -103.749008   (d E  =  -0.00029)


--------------------------------------------------------------------------------------------------------


  
 reached required accuracy - stopping structural energy minimisation
 writing wavefunctions
     LOOP+:  cpu time   62.0026: real time   62.4443
    4ORBIT:  cpu time    0.0000: real time    0.0000

 total amount of memory used by VASP MPI-rank0   131440. kBytes
=======================================================================

   base      :      30000. kBytes
   nonl-proj :      17624. kBytes
   fftplans  :      26957. kBytes
   grid      :      48673. kBytes
   one-center:         40. kBytes
   wavefun   :       8146. kBytes
 
  
  
 General timing and accounting informations for this job:
 ========================================================
  
                  Total CPU time used (sec):     2116.892
                            User time (sec):     2089.752
                          System time (sec):       27.140
                         Elapsed time (sec):     2121.770
  
                   Maximum memory used (kb):      184764.
                   Average memory used (kb):           0.
  
                          Minor page faults:      4906934
                          Major page faults:            5
                 Voluntary context switches:         2314
