 vasp.5.4.4.18Apr17-6-g9f103f2a35 (build Nov 06 2017 19:16:10) complex          
  
 executed on           IFC91_ompi date 2018.07.10  06:15:08
 running on   12 total cores
 distrk:  each k-point on   12 cores,    1 groups
 distr:  one band on NCORES_PER_BAND=   6 cores,    2 groups


--------------------------------------------------------------------------------------------------------


 INCAR:
 POTCAR:    PAW_PBE Si 05Jan2001                  
 POTCAR:    PAW_PBE Ge 05Jan2001                  
 POTCAR:    PAW_PBE H 15Jun2001                   
 POTCAR:    PAW_PBE Si 05Jan2001                  
   VRHFIN =Si: s2p2                                                             
   LEXCH  = PE                                                                  
   EATOM  =   103.0669 eV,    7.5752 Ry                                         
                                                                                
   TITEL  = PAW_PBE Si 05Jan2001                                                
   LULTRA =        F    use ultrasoft PP ?                                      
   IUNSCR =        1    unscreen: 0-lin 1-nonlin 2-no                           
   RPACOR =    1.500    partial core radius                                     
   POMASS =   28.085; ZVAL   =    4.000    mass and valenz                      
   RCORE  =    1.900    outmost cutoff radius                                   
   RWIGS  =    2.480; RWIGS  =    1.312    wigner-seitz radius (au A)           
   ENMAX  =  245.345; ENMIN  =  184.009 eV                                      
   ICORE  =        2    local potential                                         
   LCOR   =        T    correct aug charges                                     
   LPAW   =        T    paw PP                                                  
   EAUG   =  322.069                                                            
   DEXC   =    0.000                                                            
   RMAX   =    1.950    core radius for proj-oper                               
   RAUG   =    1.300    factor for augmentation sphere                          
   RDEP   =    1.993    radius for radial grids                                 
   RDEPT  =    1.837    core radius for aug-charge                              
                                                                                
   Atomic configuration                                                         
    6 entries                                                                   
     n  l   j            E        occ.                                          
     1  0  0.50     -1785.8828   2.0000                                         
     2  0  0.50      -139.4969   2.0000                                         
     2  1  1.50       -95.5546   6.0000                                         
     3  0  0.50       -10.8127   2.0000                                         
     3  1  0.50        -4.0811   2.0000                                         
     3  2  1.50        -4.0817   0.0000                                         
   Description                                                                  
     l       E           TYP  RCUT    TYP  RCUT                                 
     0    -10.8127223     23  1.900                                             
     0     -7.6451159     23  1.900                                             
     1     -4.0811372     23  1.900                                             
     1      2.4879257     23  1.900                                             
     2     -4.0817478      7  1.900                                             
  local pseudopotential read in
  partial core-charges read in
  partial kinetic energy density read in
  atomic valenz-charges read in
  non local Contribution for L=           0  read in
    real space projection operators read in
  non local Contribution for L=           0  read in
    real space projection operators read in
  non local Contribution for L=           1  read in
    real space projection operators read in
  non local Contribution for L=           1  read in
    real space projection operators read in
    PAW grid and wavefunctions read in
 
   number of l-projection  operators is LMAX  =           4
   number of lm-projection operators is LMMAX =           8
 
 POTCAR:    PAW_PBE Ge 05Jan2001                  
   VRHFIN =Ge: s2p2                                                             
   LEXCH  = PE                                                                  
   EATOM  =   104.9960 eV,    7.7170 Ry                                         
                                                                                
   TITEL  = PAW_PBE Ge 05Jan2001                                                
   LULTRA =        F    use ultrasoft PP ?                                      
   IUNSCR =        1    unscreen: 0-lin 1-nonlin 2-no                           
   RPACOR =    2.170    partial core radius                                     
   POMASS =   72.610; ZVAL   =    4.000    mass and valenz                      
   RCORE  =    2.300    outmost cutoff radius                                   
   RWIGS  =    2.300; RWIGS  =    1.217    wigner-seitz radius (au A)           
   ENMAX  =  173.807; ENMIN  =  130.355 eV                                      
   ICORE  =        3    local potential                                         
   LCOR   =        T    correct aug charges                                     
   LPAW   =        T    paw PP                                                  
   EAUG   =  385.843                                                            
   DEXC   =    0.000                                                            
   RMAX   =    2.342    core radius for proj-oper                               
   RAUG   =    1.300    factor for augmentation sphere                          
   RDEP   =    2.318    radius for radial grids                                 
   RDEPT  =    2.103    core radius for aug-charge                              
                                                                                
   Atomic configuration                                                         
   10 entries                                                                   
     n  l   j            E        occ.                                          
     1  0  0.50    -10959.8463   2.0000                                         
     2  0  0.50     -1371.6056   2.0000                                         
     2  1  1.50     -1198.4791   6.0000                                         
     3  0  0.50      -168.4733   2.0000                                         
     3  1  1.50      -115.6019   6.0000                                         
     3  2  2.50       -29.3106  10.0000                                         
     4  0  0.50       -11.7309   2.0000                                         
     4  1  0.50        -3.8952   2.0000                                         
     4  2  1.50        -4.0817   0.0000                                         
     4  3  2.50        -4.0817   0.0000                                         
   Description                                                                  
     l       E           TYP  RCUT    TYP  RCUT                                 
     0    -11.7309493     23  2.300                                             
     0     -7.4578696     23  2.300                                             
     1     -3.8952261     23  2.300                                             
     1      6.1178114     23  2.300                                             
     2     -4.0817478     23  2.300                                             
     3     -1.3605826      7  2.300                                             
  local pseudopotential read in
  partial core-charges read in
  partial kinetic energy density read in
  atomic valenz-charges read in
  non local Contribution for L=           0  read in
    real space projection operators read in
  non local Contribution for L=           0  read in
    real space projection operators read in
  non local Contribution for L=           1  read in
    real space projection operators read in
  non local Contribution for L=           1  read in
    real space projection operators read in
  non local Contribution for L=           2  read in
    real space projection operators read in
    PAW grid and wavefunctions read in
 
   number of l-projection  operators is LMAX  =           5
   number of lm-projection operators is LMMAX =          13
 
 POTCAR:    PAW_PBE H 15Jun2001                   
   VRHFIN =H: ultrasoft test                                                    
   LEXCH  = PE                                                                  
   EATOM  =    12.4884 eV,    0.9179 Ry                                         
                                                                                
   TITEL  = PAW_PBE H 15Jun2001                                                 
   LULTRA =        F    use ultrasoft PP ?                                      
   IUNSCR =        0    unscreen: 0-lin 1-nonlin 2-no                           
   RPACOR =    0.000    partial core radius                                     
   POMASS =    1.000; ZVAL   =    1.000    mass and valenz                      
   RCORE  =    1.100    outmost cutoff radius                                   
   RWIGS  =    0.700; RWIGS  =    0.370    wigner-seitz radius (au A)           
   ENMAX  =  250.000; ENMIN  =  200.000 eV                                      
   RCLOC  =    0.701    cutoff for local pot                                    
   LCOR   =        T    correct aug charges                                     
   LPAW   =        T    paw PP                                                  
   EAUG   =  400.000                                                            
   RMAX   =    1.123    core radius for proj-oper                               
   RAUG   =    1.200    factor for augmentation sphere                          
   RDEP   =    1.112    radius for radial grids                                 
   RDEPT  =    0.926    core radius for aug-charge                              
                                                                                
   Atomic configuration                                                         
    2 entries                                                                   
     n  l   j            E        occ.                                          
     1  0  0.50        -6.4927   1.0000                                         
     2  1  0.50        -3.4015   0.0000                                         
   Description                                                                  
     l       E           TYP  RCUT    TYP  RCUT                                 
     0     -6.4927494     23  1.100                                             
     0      6.8029130     23  1.100                                             
     1     -4.0817478     23  1.100                                             
  local pseudopotential read in
  atomic valenz-charges read in
  non local Contribution for L=           0  read in
    real space projection operators read in
  non local Contribution for L=           0  read in
    real space projection operators read in
  non local Contribution for L=           1  read in
    real space projection operators read in
    PAW grid and wavefunctions read in
 
   number of l-projection  operators is LMAX  =           3
   number of lm-projection operators is LMMAX =           5
 

 ----------------------------------------------------------------------------- 
|                                                                             |
|  ADVICE TO THIS USER RUNNING 'VASP/VAMP'   (HEAR YOUR MASTER'S VOICE ...):  |
|                                                                             |
|      You have a (more or less) 'large supercell' and for larger cells       |
|      it might be more efficient to use real space projection opertators     |
|      So try LREAL= Auto  in the INCAR   file.                               |
|      Mind:          For very  accurate calculation you might also keep the  |
|      reciprocal projection scheme          (i.e. LREAL=.FALSE.)             |
|                                                                             |
 ----------------------------------------------------------------------------- 

  PAW_PBE Si 05Jan2001                  :
 energy of atom  1       EATOM= -103.0669
 kinetic energy error for atom=    0.0012 (will be added to EATOM!!)
  PAW_PBE Ge 05Jan2001                  :
 energy of atom  2       EATOM= -104.9960
 kinetic energy error for atom=    0.0003 (will be added to EATOM!!)
  PAW_PBE H 15Jun2001                   :
 energy of atom  3       EATOM=  -12.4884
 kinetic energy error for atom=    0.0098 (will be added to EATOM!!)
 
 
 POSCAR: SiGeH16                                 
  positions in direct lattice
  No initial velocities read in
 exchange correlation table for  LEXCH =        8
   RHO(1)=    0.500       N(1)  =     2000
   RHO(2)=  100.500       N(2)  =     4000
 


--------------------------------------------------------------------------------------------------------


 ion  position               nearest neighbor table
   1  0.475  0.556  0.385-  18 1.55   8 2.39   2 2.39   3 2.39
   2  0.369  0.539  0.436-  23 1.55  24 1.55   4 2.39   1 2.39
   3  0.542  0.457  0.396-  17 1.55  16 1.55   5 2.39   1 2.39
   4  0.385  0.515  0.552-  22 1.55  10 2.39   7 2.39   2 2.39
   5  0.557  0.433  0.512-  13 1.55   3 2.39   9 2.39   7 2.39
   6  0.547  0.624  0.554-  19 1.55   8 2.39   9 2.39  10 2.39
   7  0.451  0.416  0.564-  12 1.55  11 1.55   4 2.39   5 2.39
   8  0.531  0.648  0.437-  25 1.55  26 1.55   6 2.39   1 2.39
   9  0.613  0.525  0.565-  15 1.55  14 1.55   6 2.39   5 2.39
  10  0.440  0.606  0.605-  20 1.55  21 1.55   4 2.39   6 2.39
  11  0.415  0.357  0.529-   7 1.55
  12  0.461  0.400  0.639-   7 1.55
  13  0.600  0.369  0.520-   5 1.55
  14  0.682  0.536  0.531-   9 1.55
  15  0.623  0.509  0.640-   9 1.55
  16  0.611  0.469  0.363-   3 1.55
  17  0.506  0.398  0.362-   3 1.55
  18  0.465  0.572  0.309-   1 1.55
  19  0.583  0.683  0.588-   6 1.55
  20  0.451  0.590  0.680-  10 1.55
  21  0.397  0.670  0.598-  10 1.55
  22  0.316  0.504  0.586-   4 1.55
  23  0.333  0.479  0.402-   2 1.55
  24  0.326  0.603  0.429-   2 1.55
  25  0.488  0.712  0.430-   8 1.55
  26  0.600  0.659  0.404-   8 1.55
 
  LATTYP: Found a simple cubic cell.
 ALAT       =    20.0000000000
  
  Lattice vectors:
  
 A1 = (  20.0000000000,   0.0000000000,   0.0000000000)
 A2 = (   0.0000000000,  20.0000000000,   0.0000000000)
 A3 = (   0.0000000000,   0.0000000000,  20.0000000000)


Analysis of symmetry for initial positions (statically):
=====================================================================
 Subroutine PRICEL returns:
 Original cell was already a primitive cell.
 

 Routine SETGRP: Setting up the symmetry group for a 
 simple cubic supercell.


 Subroutine GETGRP returns: Found  1 space group operations
 (whereof  1 operations were pure point group operations)
 out of a pool of 48 trial point group operations.


The static configuration has the point symmetry C_1 .


Analysis of symmetry for dynamics (positions and initial velocities):
=====================================================================
 Subroutine PRICEL returns:
 Original cell was already a primitive cell.
 

 Routine SETGRP: Setting up the symmetry group for a 
 simple cubic supercell.


 Subroutine GETGRP returns: Found  1 space group operations
 (whereof  1 operations were pure point group operations)
 out of a pool of 48 trial point group operations.


The dynamic configuration has the point symmetry C_1 .


 Subroutine INISYM returns: Found  1 space group operations
 (whereof  1 operations are pure point group operations),
 and found     1 'primitive' translations

 
 
 KPOINTS: Automatic mesh                          

Automatic generation of k-mesh.
Space group operators:
 irot       det(A)        alpha          n_x          n_y          n_z        tau_x        tau_y        tau_z
    1     1.000000     0.000000     1.000000     0.000000     0.000000     0.000000     0.000000     0.000000
 
 Subroutine IBZKPT returns following result:
 ===========================================
 
 Found      1 irreducible k-points:
 
 Following reciprocal coordinates:
            Coordinates               Weight
  0.000000  0.000000  0.000000      1.000000
 
 Following cartesian coordinates:
            Coordinates               Weight
  0.000000  0.000000  0.000000      1.000000
 


--------------------------------------------------------------------------------------------------------




 Dimension of arrays:
   k-points           NKPTS =      1   k-points in BZ     NKDIM =      1   number of bands    NBANDS=     42
   number of dos      NEDOS =    301   number of ions     NIONS =     26
   non local maximal  LDIM  =      5   non local SUM 2l+1 LMDIM =     13
   total plane-waves  NPLWV = 941192
   max r-space proj   IRMAX =      1   max aug-charges    IRDMAX=   6593
   dimension x,y,z NGX =    98 NGY =   98 NGZ =   98
   dimension x,y,z NGXF=   196 NGYF=  196 NGZF=  196
   support grid    NGXF=   196 NGYF=  196 NGZF=  196
   ions per type =               7   3  16
   NGX,Y,Z   is equivalent  to a cutoff of   8.15,  8.15,  8.15 a.u.
   NGXF,Y,Z  is equivalent  to a cutoff of  16.29, 16.29, 16.29 a.u.

 SYSTEM =  SiGe                                    
 POSCAR =  SiGeH16                                 

 Startparameter for this run:
   NWRITE =      2    write-flag & timer
   PREC   = normal    normal or accurate (medium, high low for compatibility)
   ISTART =      0    job   : 0-new  1-cont  2-samecut
   ICHARG =      2    charge: 1-file 2-atom 10-const
   ISPIN  =      1    spin polarized calculation?
   LNONCOLLINEAR =      F non collinear calculations
   LSORBIT =      F    spin-orbit coupling
   INIWAV =      1    electr: 0-lowe 1-rand  2-diag
   LASPH  =      F    aspherical Exc in radial PAW
   METAGGA=      F    non-selfconsistent MetaGGA calc.

 Electronic Relaxation 1
   ENCUT  =  400.0 eV  29.40 Ry    5.42 a.u.  32.61 32.61 32.61*2*pi/ulx,y,z
   ENINI  =  400.0     initial cutoff
   ENAUG  =  400.0 eV  augmentation charge cutoff
   NELM   =     60;   NELMIN=  2; NELMDL= -5     # of ELM steps 
   EDIFF  = 0.1E-05   stopping-criterion for ELM
   LREAL  =      F    real-space projection
   NLSPLINE    = F    spline interpolate recip. space projectors
   LCOMPAT=      F    compatible to vasp.4.4
   GGA_COMPAT  = T    GGA compatible to vasp.4.4-vasp.4.6
   LMAXPAW     = -100 max onsite density
   LMAXMIX     =    2 max onsite mixed and CHGCAR
   VOSKOWN=      0    Vosko Wilk Nusair interpolation
   ROPT   =    0.00000   0.00000   0.00000
 Ionic relaxation
   EDIFFG = -.2E-01   stopping-criterion for IOM
   NSW    =    200    number of steps for IOM
   NBLOCK =      1;   KBLOCK =    200    inner block; outer block 
   IBRION =      2    ionic relax: 0-MD 1-quasi-New 2-CG
   NFREE  =      1    steps in history (QN), initial steepest desc. (CG)
   ISIF   =      2    stress and relaxation
   IWAVPR =     11    prediction:  0-non 1-charg 2-wave 3-comb
   ISYM   =      2    0-nonsym 1-usesym 2-fastsym
   LCORR  =      T    Harris-Foulkes like correction to forces

   POTIM  = 0.5000    time-step for ionic-motion
   TEIN   =    0.0    initial temperature
   TEBEG  =    0.0;   TEEND  =   0.0 temperature during run
   SMASS  =  -3.00    Nose mass-parameter (am)
   estimated Nose-frequenzy (Omega)   =  0.10E-29 period in steps =****** mass=  -0.914E-26a.u.
   SCALEE = 1.0000    scale energy and forces
   NPACO  =    256;   APACO  = 16.0  distance and # of slots for P.C.
   PSTRESS=    0.0 pullay stress

  Mass of Ions in am
   POMASS =  28.09 72.61  1.00
  Ionic Valenz
   ZVAL   =   4.00  4.00  1.00
  Atomic Wigner-Seitz radii
   RWIGS  =  -1.00 -1.00 -1.00
  virtual crystal weights 
   VCA    =   1.00  1.00  1.00
   NELECT =      56.0000    total number of electrons
   NUPDOWN=      -1.0000    fix difference up-down

 DOS related values:
   EMIN   =  10.00;   EMAX   =-10.00  energy-range for DOS
   EFERMI =   0.00
   ISMEAR =     0;   SIGMA  =   0.20  broadening in eV -4-tet -1-fermi 0-gaus

 Electronic relaxation 2 (details)
   IALGO  =     38    algorithm
   LDIAG  =      T    sub-space diagonalisation (order eigenvalues)
   LSUBROT=      F    optimize rotation matrix (better conditioning)
   TURBO    =      0    0=normal 1=particle mesh
   IRESTART =      0    0=no restart 2=restart with 2 vectors
   NREBOOT  =      0    no. of reboots
   NMIN     =      0    reboot dimension
   EREF     =   0.00    reference energy to select bands
   IMIX   =      4    mixing-type and parameters
     AMIX     =   0.40;   BMIX     =  1.00
     AMIX_MAG =   1.60;   BMIX_MAG =  1.00
     AMIN     =   0.10
     WC   =   100.;   INIMIX=   1;  MIXPRE=   1;  MAXMIX= -45

 Intra band minimization:
   WEIMIN = 0.0010     energy-eigenvalue tresh-hold
   EBREAK =  0.60E-08  absolut break condition
   DEPER  =   0.30     relativ break condition  

   TIME   =   0.40     timestep for ELM

  volume/ion in A,a.u.               =     307.69      2076.41
  Fermi-wavevector in a.u.,A,eV,Ry     =   0.313166  0.591797  1.334361  0.098073
  Thomas-Fermi vector in A             =   1.193276
 
 Write flags
   LWAVE        =      T    write WAVECAR
   LDOWNSAMPLE  =      F    k-point downsampling of WAVECAR
   LCHARG       =      T    write CHGCAR
   LVTOT        =      F    write LOCPOT, total local potential
   LVHAR        =      F    write LOCPOT, Hartree potential only
   LELF         =      F    write electronic localiz. function (ELF)
   LORBIT       =      0    0 simple, 1 ext, 2 COOP (PROOUT), +10 PAW based schemes


 Dipole corrections
   LMONO  =      F    monopole corrections only (constant potential shift)
   LDIPOL =      F    correct potential (dipole corrections)
   IDIPOL =      0    1-x, 2-y, 3-z, 4-all directions 
   EPSILON=  1.0000000 bulk dielectric constant

 Exchange correlation treatment:
   GGA     =    --    GGA type
   LEXCH   =     8    internal setting for exchange type
   VOSKOWN=      0    Vosko Wilk Nusair interpolation
   LHFCALC =     F    Hartree Fock is set to
   LHFONE  =     F    Hartree Fock one center treatment
   AEXX    =    0.0000 exact exchange contribution

 Linear response parameters
   LEPSILON=     F    determine dielectric tensor
   LRPA    =     F    only Hartree local field effects (RPA)
   LNABLA  =     F    use nabla operator in PAW spheres
   LVEL    =     F    velocity operator in full k-point grid
   LINTERFAST=   F  fast interpolation
   KINTER  =     0    interpolate to denser k-point grid
   CSHIFT  =0.1000    complex shift for real part using Kramers Kronig
   OMEGAMAX=  -1.0    maximum frequency
   DEG_THRESHOLD= 0.2000000E-02 threshold for treating states as degnerate
   RTIME   =   -0.100 relaxation time in fs
  (WPLASMAI=    0.000 imaginary part of plasma frequency in eV, 0.658/RTIME)
   DFIELD  = 0.0000000 0.0000000 0.0000000 field for delta impulse in time
 
 Orbital magnetization related:
   ORBITALMAG=     F  switch on orbital magnetization
   LCHIMAG   =     F  perturbation theory with respect to B field
   DQ        =  0.001000  dq finite difference perturbation B field
   LLRAUG    =     F  two centre corrections for induced B field



--------------------------------------------------------------------------------------------------------


 conjugate gradient relaxation of ions
 charge density and potential will be updated during run
 non-spin polarized calculation
 Variant of blocked Davidson
 Davidson routine will perform the subspace rotation
 perform sub-space diagonalisation
    after iterative eigenvector-optimisation
 modified Broyden-mixing scheme, WC =      100.0
 initial mixing is a Kerker type mixing with AMIX =  0.4000 and BMIX =      1.0000
 Hartree-type preconditioning will be used
 using additional bands           14
 reciprocal scheme for non local part
 use partial core corrections
 calculate Harris-corrections to forces 
   (improved forces if not selfconsistent)
 use gradient corrections 
 use of overlap-Matrix (Vanderbilt PP)
 Gauss-broadening in eV      SIGMA  =   0.20


--------------------------------------------------------------------------------------------------------


  energy-cutoff  :      400.00
  volume of cell :     8000.00
      direct lattice vectors                 reciprocal lattice vectors
    20.000000000  0.000000000  0.000000000     0.050000000  0.000000000  0.000000000
     0.000000000 20.000000000  0.000000000     0.000000000  0.050000000  0.000000000
     0.000000000  0.000000000 20.000000000     0.000000000  0.000000000  0.050000000

  length of vectors
    20.000000000 20.000000000 20.000000000     0.050000000  0.050000000  0.050000000


 
 k-points in units of 2pi/SCALE and weight: Automatic mesh                          
   0.00000000  0.00000000  0.00000000       1.000
 
 k-points in reciprocal lattice and weights: Automatic mesh                          
   0.00000000  0.00000000  0.00000000       1.000
 
 position of ions in fractional coordinates (direct lattice) 
   0.47547100  0.55626000  0.38465300
   0.36907800  0.53906000  0.43641200
   0.54179100  0.45744600  0.39613600
   0.38461900  0.51474100  0.55243500
   0.55736800  0.43311000  0.51215000
   0.54669200  0.62364400  0.55351800
   0.45095700  0.41593600  0.56388300
   0.53111600  0.64794100  0.43749600
   0.61299700  0.52481700  0.56496600
   0.44028400  0.60643000  0.60524300
   0.41490100  0.35665000  0.52940300
   0.46117000  0.40042600  0.63910800
   0.60034800  0.36907000  0.51957800
   0.68182700  0.53600700  0.53118700
   0.62280400  0.50903400  0.64018900
   0.61080000  0.46880600  0.36278200
   0.50550800  0.39805500  0.36207700
   0.46538400  0.57201900  0.30946400
   0.58275500  0.68306700  0.58775000
   0.45052500  0.59044300  0.68036400
   0.39732000  0.67044900  0.59753500
   0.31566200  0.50359800  0.58596500
   0.33322800  0.47946500  0.40225200
   0.32629100  0.60324700  0.42912600
   0.48792300  0.71185500  0.43020800
   0.60015100  0.65882400  0.40403700
 
 position of ions in cartesian coordinates  (Angst):
   9.50942000 11.12520000  7.69306000
   7.38156000 10.78120000  8.72824000
  10.83582000  9.14892000  7.92272000
   7.69238000 10.29482000 11.04870000
  11.14736000  8.66220000 10.24300000
  10.93384000 12.47288000 11.07036000
   9.01914000  8.31872000 11.27766000
  10.62232000 12.95882000  8.74992000
  12.25994000 10.49634000 11.29932000
   8.80568000 12.12860000 12.10486000
   8.29802000  7.13300000 10.58806000
   9.22340000  8.00852000 12.78216000
  12.00696000  7.38140000 10.39156000
  13.63654000 10.72014000 10.62374000
  12.45608000 10.18068000 12.80378000
  12.21600000  9.37612000  7.25564000
  10.11016000  7.96110000  7.24154000
   9.30768000 11.44038000  6.18928000
  11.65510000 13.66134000 11.75500000
   9.01050000 11.80886000 13.60728000
   7.94640000 13.40898000 11.95070000
   6.31324000 10.07196000 11.71930000
   6.66456000  9.58930000  8.04504000
   6.52582000 12.06494000  8.58252000
   9.75846000 14.23710000  8.60416000
  12.00302000 13.17648000  8.08074000
 


--------------------------------------------------------------------------------------------------------


 k-point  1 :   0.0000 0.0000 0.0000  plane waves:  145165

 maximum and minimum number of plane-waves per node :     24209    24180

 maximum number of plane-waves:    145165
 maximum index in each direction: 
   IXMAX=   32   IYMAX=   32   IZMAX=   32
   IXMIN=  -32   IYMIN=  -32   IZMIN=  -32


 parallel 3D FFT for wavefunctions:
    minimum data exchange during FFTs selected (reduces bandwidth)
 parallel 3D FFT for charge:
    minimum data exchange during FFTs selected (reduces bandwidth)


 total amount of memory used by VASP MPI-rank0   131440. kBytes
=======================================================================

   base      :      30000. kBytes
   nonl-proj :      17624. kBytes
   fftplans  :      26957. kBytes
   grid      :      48673. kBytes
   one-center:         40. kBytes
   wavefun   :       8146. kBytes
 
     INWAV:  cpu time    0.0000: real time    0.0000
 Broyden mixing: mesh for mixing (old mesh)
   NGX = 65   NGY = 65   NGZ = 65
  (NGX  =196   NGY  =196   NGZ  =196)
  gives a total of 274625 points

 initial charge density was supplied:
 charge density of overlapping atoms calculated
 number of electron      56.0000000 magnetization 
 keeping initial charge density in first step


--------------------------------------------------------------------------------------------------------


 Maximum index for augmentation-charges          565 (set IRDMAX)


--------------------------------------------------------------------------------------------------------


 First call to EWALD:  gamma=   0.089
 Maximum number of real-space cells 3x 3x 3
 Maximum number of reciprocal cells 3x 3x 3

    FEWALD:  cpu time    0.0030: real time    0.0028


--------------------------------------- Iteration      1(   1)  ---------------------------------------


    POTLOK:  cpu time    1.8257: real time    2.0485
    SETDIJ:  cpu time    0.0070: real time    0.0073
     EDDAV:  cpu time   10.3914: real time   10.4289
       DOS:  cpu time    0.0010: real time    0.0004
    --------------------------------------------
      LOOP:  cpu time   12.2251: real time   12.4851

 eigenvalue-minimisations  :   116
 total energy-change (2. order) : 0.1981587E+03  (-0.1049789E+04)
 number of electron      56.0000000 magnetization 
 augmentation part       56.0000000 magnetization 

 Free energy of the ion-electron system (eV)
  ---------------------------------------------------
  alpha Z        PSCENC =         1.68866877
  Ewald energy   TEWEN  =      2629.98113996
  -Hartree energ DENC   =     -3443.50402539
  -exchange      EXHF   =         0.00000000
  -V(xc)+E(xc)   XCENC  =       -55.16177203
  PAW double counting   =       915.44662188     -748.97298319
  entropy T*S    EENTRO =        -0.42790495
  eigenvalues    EBANDS =      -336.99640903
  atomic energy  EATOM  =      1236.10535615
  Solvation  Ediel_sol  =         0.00000000
  ---------------------------------------------------
  free energy    TOTEN  =       198.15869216 eV

  energy without entropy =      198.58659711  energy(sigma->0) =      198.37264464


--------------------------------------------------------------------------------------------------------




--------------------------------------- Iteration      1(   2)  ---------------------------------------


     EDDAV:  cpu time   11.2893: real time   11.2932
       DOS:  cpu time    0.0000: real time    0.0004
    --------------------------------------------
      LOOP:  cpu time   11.2893: real time   11.2935

 eigenvalue-minimisations  :   128
 total energy-change (2. order) :-0.2262713E+03  (-0.2121146E+03)
 number of electron      56.0000000 magnetization 
 augmentation part       56.0000000 magnetization 

 Free energy of the ion-electron system (eV)
  ---------------------------------------------------
  alpha Z        PSCENC =         1.68866877
  Ewald energy   TEWEN  =      2629.98113996
  -Hartree energ DENC   =     -3443.50402539
  -exchange      EXHF   =         0.00000000
  -V(xc)+E(xc)   XCENC  =       -55.16177203
  PAW double counting   =       915.44662188     -748.97298319
  entropy T*S    EENTRO =        -0.00000000
  eigenvalues    EBANDS =      -563.69558752
  atomic energy  EATOM  =      1236.10535615
  Solvation  Ediel_sol  =         0.00000000
  ---------------------------------------------------
  free energy    TOTEN  =       -28.11258138 eV

  energy without entropy =      -28.11258138  energy(sigma->0) =      -28.11258138


--------------------------------------------------------------------------------------------------------




--------------------------------------- Iteration      1(   3)  ---------------------------------------


     EDDAV:  cpu time   10.3384: real time   10.3372
       DOS:  cpu time    0.0010: real time    0.0003
    --------------------------------------------
      LOOP:  cpu time   10.3394: real time   10.3374

 eigenvalue-minimisations  :   112
 total energy-change (2. order) :-0.7573312E+02  (-0.7555163E+02)
 number of electron      56.0000000 magnetization 
 augmentation part       56.0000000 magnetization 

 Free energy of the ion-electron system (eV)
  ---------------------------------------------------
  alpha Z        PSCENC =         1.68866877
  Ewald energy   TEWEN  =      2629.98113996
  -Hartree energ DENC   =     -3443.50402539
  -exchange      EXHF   =         0.00000000
  -V(xc)+E(xc)   XCENC  =       -55.16177203
  PAW double counting   =       915.44662188     -748.97298319
  entropy T*S    EENTRO =        -0.00000000
  eigenvalues    EBANDS =      -639.42870480
  atomic energy  EATOM  =      1236.10535615
  Solvation  Ediel_sol  =         0.00000000
  ---------------------------------------------------
  free energy    TOTEN  =      -103.84569866 eV

  energy without entropy =     -103.84569866  energy(sigma->0) =     -103.84569866


--------------------------------------------------------------------------------------------------------




--------------------------------------- Iteration      1(   4)  ---------------------------------------


     EDDAV:  cpu time   10.0915: real time   10.1313
       DOS:  cpu time    0.0000: real time    0.0004
    --------------------------------------------
      LOOP:  cpu time   10.0915: real time   10.1316

 eigenvalue-minimisations  :   112
 total energy-change (2. order) :-0.4271744E+01  (-0.4255480E+01)
 number of electron      56.0000000 magnetization 
 augmentation part       56.0000000 magnetization 

 Free energy of the ion-electron system (eV)
  ---------------------------------------------------
  alpha Z        PSCENC =         1.68866877
  Ewald energy   TEWEN  =      2629.98113996
  -Hartree energ DENC   =     -3443.50402539
  -exchange      EXHF   =         0.00000000
  -V(xc)+E(xc)   XCENC  =       -55.16177203
  PAW double counting   =       915.44662188     -748.97298319
  entropy T*S    EENTRO =        -0.00000000
  eigenvalues    EBANDS =      -643.70044874
  atomic energy  EATOM  =      1236.10535615
  Solvation  Ediel_sol  =         0.00000000
  ---------------------------------------------------
  free energy    TOTEN  =      -108.11744260 eV

  energy without entropy =     -108.11744260  energy(sigma->0) =     -108.11744260


--------------------------------------------------------------------------------------------------------




--------------------------------------- Iteration      1(   5)  ---------------------------------------


     EDDAV:  cpu time   11.8662: real time   11.8647
       DOS:  cpu time    0.0000: real time    0.0003
    CHARGE:  cpu time    0.4849: real time    0.4847
    MIXING:  cpu time    0.0430: real time    0.0430
    --------------------------------------------
      LOOP:  cpu time   12.3941: real time   12.3928

 eigenvalue-minimisations  :   136
 total energy-change (2. order) :-0.8513486E-01  (-0.8508622E-01)
 number of electron      56.0000010 magnetization 
 augmentation part       -3.1296827 magnetization 

 Broyden mixing:
  rms(total) = 0.15246E+01    rms(broyden)= 0.15245E+01
  rms(prec ) = 0.16206E+01
  weight for this iteration     100.00

 Free energy of the ion-electron system (eV)
  ---------------------------------------------------
  alpha Z        PSCENC =         1.68866877
  Ewald energy   TEWEN  =      2629.98113996
  -Hartree energ DENC   =     -3443.50402539
  -exchange      EXHF   =         0.00000000
  -V(xc)+E(xc)   XCENC  =       -55.16177203
  PAW double counting   =       915.44662188     -748.97298319
  entropy T*S    EENTRO =        -0.00000000
  eigenvalues    EBANDS =      -643.78558360
  atomic energy  EATOM  =      1236.10535615
  Solvation  Ediel_sol  =         0.00000000
  ---------------------------------------------------
  free energy    TOTEN  =      -108.20257746 eV

  energy without entropy =     -108.20257746  energy(sigma->0) =     -108.20257746


--------------------------------------------------------------------------------------------------------




--------------------------------------- Iteration      1(   6)  ---------------------------------------


    POTLOK:  cpu time    1.7087: real time    1.7081
    SETDIJ:  cpu time    0.0080: real time    0.0075
     EDDAV:  cpu time    9.5286: real time    9.5337
       DOS:  cpu time    0.0010: real time    0.0003
    CHARGE:  cpu time    0.4859: real time    0.4853
    MIXING:  cpu time    0.0450: real time    0.0454
    --------------------------------------------
      LOOP:  cpu time   11.7772: real time   11.7802

 eigenvalue-minimisations  :   104
 total energy-change (2. order) : 0.3237793E+01  (-0.1583744E+00)
 number of electron      56.0000009 magnetization 
 augmentation part       -3.1322289 magnetization 

 Broyden mixing:
  rms(total) = 0.88701E+00    rms(broyden)= 0.88701E+00
  rms(prec ) = 0.94538E+00
  weight for this iteration     100.00

 eigenvalues of (default mixing * dielectric matrix)
  average eigenvalue GAMMA=   2.3180
  2.3180

 Free energy of the ion-electron system (eV)
  ---------------------------------------------------
  alpha Z        PSCENC =         1.68866877
  Ewald energy   TEWEN  =      2629.98113996
  -Hartree energ DENC   =     -3475.16240795
  -exchange      EXHF   =         0.00000000
  -V(xc)+E(xc)   XCENC  =       -51.52557299
  PAW double counting   =      1885.77104717    -1720.02770040
  entropy T*S    EENTRO =        -0.00000000
  eigenvalues    EBANDS =      -611.79531532
  atomic energy  EATOM  =      1236.10535615
  Solvation  Ediel_sol  =         0.00000000
  ---------------------------------------------------
  free energy    TOTEN  =      -104.96478461 eV

  energy without entropy =     -104.96478461  energy(sigma->0) =     -104.96478461


--------------------------------------------------------------------------------------------------------




--------------------------------------- Iteration      1(   7)  ---------------------------------------


    POTLOK:  cpu time    1.7067: real time    1.7076
    SETDIJ:  cpu time    0.0070: real time    0.0075
     EDDAV:  cpu time    9.9095: real time    9.9463
       DOS:  cpu time    0.0000: real time    0.0004
    CHARGE:  cpu time    0.4889: real time    0.4894
    MIXING:  cpu time    0.0480: real time    0.0477
    --------------------------------------------
      LOOP:  cpu time   12.1602: real time   12.1988

 eigenvalue-minimisations  :   110
 total energy-change (2. order) : 0.1708449E+01  (-0.4126481E+00)
 number of electron      56.0000008 magnetization 
 augmentation part       -3.1338788 magnetization 

 Broyden mixing:
  rms(total) = 0.12248E+00    rms(broyden)= 0.12233E+00
  rms(prec ) = 0.15331E+00
  weight for this iteration     100.00

 eigenvalues of (default mixing * dielectric matrix)
  average eigenvalue GAMMA=   1.8265
  1.6209  2.0321

 Free energy of the ion-electron system (eV)
  ---------------------------------------------------
  alpha Z        PSCENC =         1.68866877
  Ewald energy   TEWEN  =      2629.98113996
  -Hartree energ DENC   =     -3531.80750210
  -exchange      EXHF   =         0.00000000
  -V(xc)+E(xc)   XCENC  =       -45.72832076
  PAW double counting   =      4070.17654252    -3905.41701629
  entropy T*S    EENTRO =        -0.00000000
  eigenvalues    EBANDS =      -558.25520405
  atomic energy  EATOM  =      1236.10535615
  Solvation  Ediel_sol  =         0.00000000
  ---------------------------------------------------
  free energy    TOTEN  =      -103.25633581 eV

  energy without entropy =     -103.25633581  energy(sigma->0) =     -103.25633581


--------------------------------------------------------------------------------------------------------




--------------------------------------- Iteration      1(   8)  ---------------------------------------


    POTLOK:  cpu time    1.7117: real time    1.7121
    SETDIJ:  cpu time    0.0080: real time    0.0078
     EDDAV:  cpu time    9.5735: real time    9.5766
       DOS:  cpu time    0.0000: real time    0.0003
    CHARGE:  cpu time    0.4839: real time    0.4835
    MIXING:  cpu time    0.0500: real time    0.0500
    --------------------------------------------
      LOOP:  cpu time   11.8272: real time   11.8303

 eigenvalue-minimisations  :   104
 total energy-change (2. order) : 0.5001268E-01  (-0.2551437E-01)
 number of electron      56.0000008 magnetization 
 augmentation part       -3.1311113 magnetization 

 Broyden mixing:
  rms(total) = 0.62410E-01    rms(broyden)= 0.62395E-01
  rms(prec ) = 0.81917E-01
  weight for this iteration     100.00

 eigenvalues of (default mixing * dielectric matrix)
  average eigenvalue GAMMA=   1.9903
  2.6383  1.6663  1.6663

 Free energy of the ion-electron system (eV)
  ---------------------------------------------------
  alpha Z        PSCENC =         1.68866877
  Ewald energy   TEWEN  =      2629.98113996
  -Hartree energ DENC   =     -3539.27767127
  -exchange      EXHF   =         0.00000000
  -V(xc)+E(xc)   XCENC  =       -45.78753059
  PAW double counting   =      4081.08896433    -3916.23552806
  entropy T*S    EENTRO =        -0.00000000
  eigenvalues    EBANDS =      -550.76972243
  atomic energy  EATOM  =      1236.10535615
  Solvation  Ediel_sol  =         0.00000000
  ---------------------------------------------------
  free energy    TOTEN  =      -103.20632313 eV

  energy without entropy =     -103.20632313  energy(sigma->0) =     -103.20632313


--------------------------------------------------------------------------------------------------------




--------------------------------------- Iteration      1(   9)  ---------------------------------------


    POTLOK:  cpu time    1.7227: real time    1.7226
    SETDIJ:  cpu time    0.0070: real time    0.0076
     EDDAV:  cpu time   11.2233: real time   11.2611
       DOS:  cpu time    0.0000: real time    0.0003
    CHARGE:  cpu time    0.4819: real time    0.4820
    MIXING:  cpu time    0.0520: real time    0.0525
    --------------------------------------------
      LOOP:  cpu time   13.4869: real time   13.5260

 eigenvalue-minimisations  :   128
 total energy-change (2. order) : 0.3588427E-01  (-0.7856951E-02)
 number of electron      56.0000008 magnetization 
 augmentation part       -3.1199744 magnetization 

 Broyden mixing:
  rms(total) = 0.34871E-01    rms(broyden)= 0.34871E-01
  rms(prec ) = 0.45931E-01
  weight for this iteration     100.00

 eigenvalues of (default mixing * dielectric matrix)
  average eigenvalue GAMMA=   1.7348
  2.4866  1.8348  1.8348  0.7828

 Free energy of the ion-electron system (eV)
  ---------------------------------------------------
  alpha Z        PSCENC =         1.68866877
  Ewald energy   TEWEN  =      2629.98113996
  -Hartree energ DENC   =     -3551.31969773
  -exchange      EXHF   =         0.00000000
  -V(xc)+E(xc)   XCENC  =       -45.11188536
  PAW double counting   =      4203.42148093    -4038.58663179
  entropy T*S    EENTRO =        -0.00000000
  eigenvalues    EBANDS =      -539.34886979
  atomic energy  EATOM  =      1236.10535615
  Solvation  Ediel_sol  =         0.00000000
  ---------------------------------------------------
  free energy    TOTEN  =      -103.17043886 eV

  energy without entropy =     -103.17043886  energy(sigma->0) =     -103.17043886


--------------------------------------------------------------------------------------------------------




--------------------------------------- Iteration      1(  10)  ---------------------------------------


    POTLOK:  cpu time    1.7247: real time    1.7346
    SETDIJ:  cpu time    0.0080: real time    0.0077
     EDDAV:  cpu time   10.1055: real time   10.1054
       DOS:  cpu time    0.0000: real time    0.0003
    CHARGE:  cpu time    0.4839: real time    0.4828
    MIXING:  cpu time    0.0550: real time    0.0551
    --------------------------------------------
      LOOP:  cpu time   12.3771: real time   12.3859

 eigenvalue-minimisations  :   112
 total energy-change (2. order) :-0.5962033E-03  (-0.3061659E-03)
 number of electron      56.0000008 magnetization 
 augmentation part       -3.1191949 magnetization 

 Broyden mixing:
  rms(total) = 0.16516E-01    rms(broyden)= 0.16516E-01
  rms(prec ) = 0.29530E-01
  weight for this iteration     100.00

 eigenvalues of (default mixing * dielectric matrix)
  average eigenvalue GAMMA=   1.9112
  2.8069  2.3488  1.0277  1.6864  1.6864

 Free energy of the ion-electron system (eV)
  ---------------------------------------------------
  alpha Z        PSCENC =         1.68866877
  Ewald energy   TEWEN  =      2629.98113996
  -Hartree energ DENC   =     -3553.16533119
  -exchange      EXHF   =         0.00000000
  -V(xc)+E(xc)   XCENC  =       -45.12228311
  PAW double counting   =      4117.39488790    -3952.51504539
  entropy T*S    EENTRO =        -0.00000000
  eigenvalues    EBANDS =      -537.53842815
  atomic energy  EATOM  =      1236.10535615
  Solvation  Ediel_sol  =         0.00000000
  ---------------------------------------------------
  free energy    TOTEN  =      -103.17103506 eV

  energy without entropy =     -103.17103506  energy(sigma->0) =     -103.17103506


--------------------------------------------------------------------------------------------------------




--------------------------------------- Iteration      1(  11)  ---------------------------------------


    POTLOK:  cpu time    1.7317: real time    1.7321
    SETDIJ:  cpu time    0.0080: real time    0.0075
     EDDAV:  cpu time    9.5655: real time    9.5636
       DOS:  cpu time    0.0010: real time    0.0004
    CHARGE:  cpu time    0.4849: real time    0.4852
    MIXING:  cpu time    0.0590: real time    0.0588
    --------------------------------------------
      LOOP:  cpu time   11.8502: real time   11.8475

 eigenvalue-minimisations  :   104
 total energy-change (2. order) : 0.3337956E-03  (-0.7437725E-03)
 number of electron      56.0000008 magnetization 
 augmentation part       -3.1185750 magnetization 

 Broyden mixing:
  rms(total) = 0.78998E-02    rms(broyden)= 0.78994E-02
  rms(prec ) = 0.14181E-01
  weight for this iteration     100.00

 eigenvalues of (default mixing * dielectric matrix)
  average eigenvalue GAMMA=   1.8554
  3.1962  2.5406  1.7463  1.7463  1.0383  0.8650

 Free energy of the ion-electron system (eV)
  ---------------------------------------------------
  alpha Z        PSCENC =         1.68866877
  Ewald energy   TEWEN  =      2629.98113996
  -Hartree energ DENC   =     -3560.38960713
  -exchange      EXHF   =         0.00000000
  -V(xc)+E(xc)   XCENC  =       -44.91717377
  PAW double counting   =      4067.09171429    -3902.16496346
  entropy T*S    EENTRO =        -0.00000000
  eigenvalues    EBANDS =      -530.56583608
  atomic energy  EATOM  =      1236.10535615
  Solvation  Ediel_sol  =         0.00000000
  ---------------------------------------------------
  free energy    TOTEN  =      -103.17070127 eV

  energy without entropy =     -103.17070127  energy(sigma->0) =     -103.17070127


--------------------------------------------------------------------------------------------------------




--------------------------------------- Iteration      1(  12)  ---------------------------------------


    POTLOK:  cpu time    2.0667: real time    2.0672
    SETDIJ:  cpu time    0.0170: real time    0.0177
     EDDAV:  cpu time    8.9546: real time    8.9913
       DOS:  cpu time    0.0000: real time    0.0004
    CHARGE:  cpu time    0.4909: real time    0.4903
    MIXING:  cpu time    0.0610: real time    0.0616
    --------------------------------------------
      LOOP:  cpu time   11.5902: real time   11.6283

 eigenvalue-minimisations  :    96
 total energy-change (2. order) :-0.3716333E-02  (-0.7742052E-04)
 number of electron      56.0000008 magnetization 
 augmentation part       -3.1182765 magnetization 

 Broyden mixing:
  rms(total) = 0.57707E-02    rms(broyden)= 0.57707E-02
  rms(prec ) = 0.10326E-01
  weight for this iteration     100.00

 eigenvalues of (default mixing * dielectric matrix)
  average eigenvalue GAMMA=   2.0768
  4.4806  2.4726  2.4726  1.6096  1.6096  0.9462  0.9462

 Free energy of the ion-electron system (eV)
  ---------------------------------------------------
  alpha Z        PSCENC =         1.68866877
  Ewald energy   TEWEN  =      2629.98113996
  -Hartree energ DENC   =     -3562.23590275
  -exchange      EXHF   =         0.00000000
  -V(xc)+E(xc)   XCENC  =       -44.88604939
  PAW double counting   =      4061.79468177    -3896.86723141
  entropy T*S    EENTRO =        -0.00000000
  eigenvalues    EBANDS =      -528.75508071
  atomic energy  EATOM  =      1236.10535615
  Solvation  Ediel_sol  =         0.00000000
  ---------------------------------------------------
  free energy    TOTEN  =      -103.17441760 eV

  energy without entropy =     -103.17441760  energy(sigma->0) =     -103.17441760


--------------------------------------------------------------------------------------------------------




--------------------------------------- Iteration      1(  13)  ---------------------------------------


    POTLOK:  cpu time    1.7367: real time    1.7356
    SETDIJ:  cpu time    0.0140: real time    0.0144
     EDDAV:  cpu time    9.5316: real time    9.5294
       DOS:  cpu time    0.0000: real time    0.0003
    CHARGE:  cpu time    0.4829: real time    0.4831
    MIXING:  cpu time    0.0660: real time    0.0656
    --------------------------------------------
      LOOP:  cpu time   11.8312: real time   11.8284

 eigenvalue-minimisations  :   104
 total energy-change (2. order) :-0.5271261E-02  (-0.2100592E-03)
 number of electron      56.0000008 magnetization 
 augmentation part       -3.1179425 magnetization 

 Broyden mixing:
  rms(total) = 0.32904E-02    rms(broyden)= 0.32903E-02
  rms(prec ) = 0.50475E-02
  weight for this iteration     100.00

 eigenvalues of (default mixing * dielectric matrix)
  average eigenvalue GAMMA=   2.1883
  5.7260  2.8495  2.4191  1.7737  1.7737  1.0772  0.9435  0.9435

 Free energy of the ion-electron system (eV)
  ---------------------------------------------------
  alpha Z        PSCENC =         1.68866877
  Ewald energy   TEWEN  =      2629.98113996
  -Hartree energ DENC   =     -3565.31474146
  -exchange      EXHF   =         0.00000000
  -V(xc)+E(xc)   XCENC  =       -44.83320608
  PAW double counting   =      4067.02258073    -3902.10388859
  entropy T*S    EENTRO =        -0.00000000
  eigenvalues    EBANDS =      -525.72559835
  atomic energy  EATOM  =      1236.10535615
  Solvation  Ediel_sol  =         0.00000000
  ---------------------------------------------------
  free energy    TOTEN  =      -103.17968886 eV

  energy without entropy =     -103.17968886  energy(sigma->0) =     -103.17968886


--------------------------------------------------------------------------------------------------------




--------------------------------------- Iteration      1(  14)  ---------------------------------------


    POTLOK:  cpu time    1.7287: real time    1.7290
    SETDIJ:  cpu time    0.0070: real time    0.0076
     EDDAV:  cpu time   10.0275: real time   10.0623
       DOS:  cpu time    0.0000: real time    0.0004
    CHARGE:  cpu time    0.4829: real time    0.4836
    MIXING:  cpu time    0.0700: real time    0.0699
    --------------------------------------------
      LOOP:  cpu time   12.3161: real time   12.3528

 eigenvalue-minimisations  :   112
 total energy-change (2. order) :-0.3548485E-02  (-0.2792876E-04)
 number of electron      56.0000008 magnetization 
 augmentation part       -3.1175048 magnetization 

 Broyden mixing:
  rms(total) = 0.16332E-02    rms(broyden)= 0.16332E-02
  rms(prec ) = 0.28549E-02
  weight for this iteration     100.00

 eigenvalues of (default mixing * dielectric matrix)
  average eigenvalue GAMMA=   2.3365
  6.5680  2.9598  2.9598  2.2479  1.6752  1.6752  1.0589  0.9418  0.9418

 Free energy of the ion-electron system (eV)
  ---------------------------------------------------
  alpha Z        PSCENC =         1.68866877
  Ewald energy   TEWEN  =      2629.98113996
  -Hartree energ DENC   =     -3566.03926516
  -exchange      EXHF   =         0.00000000
  -V(xc)+E(xc)   XCENC  =       -44.84121355
  PAW double counting   =      4066.33606519    -3901.41838426
  entropy T*S    EENTRO =        -0.00000000
  eigenvalues    EBANDS =      -524.99560445
  atomic energy  EATOM  =      1236.10535615
  Solvation  Ediel_sol  =         0.00000000
  ---------------------------------------------------
  free energy    TOTEN  =      -103.18323735 eV

  energy without entropy =     -103.18323735  energy(sigma->0) =     -103.18323735


--------------------------------------------------------------------------------------------------------




--------------------------------------- Iteration      1(  15)  ---------------------------------------


    POTLOK:  cpu time    2.0267: real time    2.0290
    SETDIJ:  cpu time    0.0080: real time    0.0074
     EDDAV:  cpu time   10.1215: real time   10.1205
       DOS:  cpu time    0.0010: real time    0.0004
    CHARGE:  cpu time    0.4839: real time    0.4843
    MIXING:  cpu time    0.0790: real time    0.0787
    --------------------------------------------
      LOOP:  cpu time   12.7201: real time   12.7204

 eigenvalue-minimisations  :   112
 total energy-change (2. order) :-0.5179414E-02  (-0.7390509E-04)
 number of electron      56.0000008 magnetization 
 augmentation part       -3.1173925 magnetization 

 Broyden mixing:
  rms(total) = 0.17068E-02    rms(broyden)= 0.17067E-02
  rms(prec ) = 0.20533E-02
  weight for this iteration     100.00

 eigenvalues of (default mixing * dielectric matrix)
  average eigenvalue GAMMA=   2.3044
  6.8310  3.8473  2.5907  2.3119  1.7780  1.7780  1.1089  0.9430  0.9430  0.9125

 Free energy of the ion-electron system (eV)
  ---------------------------------------------------
  alpha Z        PSCENC =         1.68866877
  Ewald energy   TEWEN  =      2629.98113996
  -Hartree energ DENC   =     -3566.26465707
  -exchange      EXHF   =         0.00000000
  -V(xc)+E(xc)   XCENC  =       -44.85424360
  PAW double counting   =      4071.15508140    -3906.23583434
  entropy T*S    EENTRO =        -0.00000000
  eigenvalues    EBANDS =      -524.76392803
  atomic energy  EATOM  =      1236.10535615
  Solvation  Ediel_sol  =         0.00000000
  ---------------------------------------------------
  free energy    TOTEN  =      -103.18841676 eV

  energy without entropy =     -103.18841676  energy(sigma->0) =     -103.18841676


--------------------------------------------------------------------------------------------------------




--------------------------------------- Iteration      1(  16)  ---------------------------------------


    POTLOK:  cpu time    1.7247: real time    1.7242
    SETDIJ:  cpu time    0.0080: real time    0.0076
     EDDAV:  cpu time   10.1315: real time   10.1310
       DOS:  cpu time    0.0010: real time    0.0003
    CHARGE:  cpu time    0.4839: real time    0.4840
    MIXING:  cpu time    0.0850: real time    0.0853
    --------------------------------------------
      LOOP:  cpu time   12.4341: real time   12.4323

 eigenvalue-minimisations  :   112
 total energy-change (2. order) :-0.6102949E-03  (-0.2346977E-05)
 number of electron      56.0000008 magnetization 
 augmentation part       -3.1174998 magnetization 

 Broyden mixing:
  rms(total) = 0.85694E-03    rms(broyden)= 0.85694E-03
  rms(prec ) = 0.11486E-02
  weight for this iteration     100.00

 eigenvalues of (default mixing * dielectric matrix)
  average eigenvalue GAMMA=   2.4070
  7.4140  4.5753  2.7165  2.4971  1.8143  1.8143  1.3810  1.3810  0.9357  0.9357
  1.0118

 Free energy of the ion-electron system (eV)
  ---------------------------------------------------
  alpha Z        PSCENC =         1.68866877
  Ewald energy   TEWEN  =      2629.98113996
  -Hartree energ DENC   =     -3566.35824907
  -exchange      EXHF   =         0.00000000
  -V(xc)+E(xc)   XCENC  =       -44.85233365
  PAW double counting   =      4070.55211173    -3905.63215320
  entropy T*S    EENTRO =        -0.00000000
  eigenvalues    EBANDS =      -524.67356775
  atomic energy  EATOM  =      1236.10535615
  Solvation  Ediel_sol  =         0.00000000
  ---------------------------------------------------
  free energy    TOTEN  =      -103.18902705 eV

  energy without entropy =     -103.18902705  energy(sigma->0) =     -103.18902705


--------------------------------------------------------------------------------------------------------




--------------------------------------- Iteration      1(  17)  ---------------------------------------


    POTLOK:  cpu time    1.7207: real time    1.7212
    SETDIJ:  cpu time    0.0080: real time    0.0078
     EDDAV:  cpu time    9.3546: real time    9.3900
       DOS:  cpu time    0.0000: real time    0.0003
    CHARGE:  cpu time    0.4909: real time    0.4911
    MIXING:  cpu time    0.0960: real time    0.0958
    --------------------------------------------
      LOOP:  cpu time   11.6702: real time   11.7062

 eigenvalue-minimisations  :   102
 total energy-change (2. order) :-0.1098100E-02  (-0.9642560E-05)
 number of electron      56.0000008 magnetization 
 augmentation part       -3.1176762 magnetization 

 Broyden mixing:
  rms(total) = 0.31090E-03    rms(broyden)= 0.31084E-03
  rms(prec ) = 0.45645E-03
  weight for this iteration     100.00

 eigenvalues of (default mixing * dielectric matrix)
  average eigenvalue GAMMA=   2.3891
  7.6848  5.0733  2.7245  2.7245  1.8829  1.8829  1.5526  1.3903  0.9671  0.9727
  0.9727  0.8408

 Free energy of the ion-electron system (eV)
  ---------------------------------------------------
  alpha Z        PSCENC =         1.68866877
  Ewald energy   TEWEN  =      2629.98113996
  -Hartree energ DENC   =     -3566.40355145
  -exchange      EXHF   =         0.00000000
  -V(xc)+E(xc)   XCENC  =       -44.85162454
  PAW double counting   =      4069.21028129    -3904.28961114
  entropy T*S    EENTRO =        -0.00000000
  eigenvalues    EBANDS =      -524.63078419
  atomic energy  EATOM  =      1236.10535615
  Solvation  Ediel_sol  =         0.00000000
  ---------------------------------------------------
  free energy    TOTEN  =      -103.19012516 eV

  energy without entropy =     -103.19012516  energy(sigma->0) =     -103.19012516


--------------------------------------------------------------------------------------------------------




--------------------------------------- Iteration      1(  18)  ---------------------------------------


    POTLOK:  cpu time    1.7247: real time    1.7241
    SETDIJ:  cpu time    0.0080: real time    0.0075
     EDDAV:  cpu time   10.1425: real time   10.1415
       DOS:  cpu time    0.0010: real time    0.0003
    CHARGE:  cpu time    0.4849: real time    0.4857
    MIXING:  cpu time    0.1050: real time    0.1047
    --------------------------------------------
      LOOP:  cpu time   12.4661: real time   12.4638

 eigenvalue-minimisations  :   112
 total energy-change (2. order) :-0.2349015E-03  (-0.8405953E-06)
 number of electron      56.0000008 magnetization 
 augmentation part       -3.1177075 magnetization 

 Broyden mixing:
  rms(total) = 0.26259E-03    rms(broyden)= 0.26255E-03
  rms(prec ) = 0.34401E-03
  weight for this iteration     100.00

 eigenvalues of (default mixing * dielectric matrix)
  average eigenvalue GAMMA=   2.4599
  8.2028  5.5110  3.2015  2.6851  2.1296  1.7770  1.7770  1.4012  1.4012  0.9991
  0.9991  0.9474  0.9474

 Free energy of the ion-electron system (eV)
  ---------------------------------------------------
  alpha Z        PSCENC =         1.68866877
  Ewald energy   TEWEN  =      2629.98113996
  -Hartree energ DENC   =     -3566.41520608
  -exchange      EXHF   =         0.00000000
  -V(xc)+E(xc)   XCENC  =       -44.85243876
  PAW double counting   =      4068.46707016    -3903.54659557
  entropy T*S    EENTRO =        -0.00000000
  eigenvalues    EBANDS =      -524.61835469
  atomic energy  EATOM  =      1236.10535615
  Solvation  Ediel_sol  =         0.00000000
  ---------------------------------------------------
  free energy    TOTEN  =      -103.19036006 eV

  energy without entropy =     -103.19036006  energy(sigma->0) =     -103.19036006


--------------------------------------------------------------------------------------------------------




--------------------------------------- Iteration      1(  19)  ---------------------------------------


    POTLOK:  cpu time    1.7307: real time    1.7313
    SETDIJ:  cpu time    0.0080: real time    0.0075
     EDDAV:  cpu time    8.9486: real time    8.9864
       DOS:  cpu time    0.0010: real time    0.0004
    CHARGE:  cpu time    0.4859: real time    0.4861
    MIXING:  cpu time    0.1180: real time    0.1186
    --------------------------------------------
      LOOP:  cpu time   11.2923: real time   11.3303

 eigenvalue-minimisations  :    96
 total energy-change (2. order) :-0.1848939E-03  (-0.6094453E-06)
 number of electron      56.0000008 magnetization 
 augmentation part       -3.1177076 magnetization 

 Broyden mixing:
  rms(total) = 0.18678E-03    rms(broyden)= 0.18678E-03
  rms(prec ) = 0.22645E-03
  weight for this iteration     100.00

 eigenvalues of (default mixing * dielectric matrix)
  average eigenvalue GAMMA=   2.4559
  8.2340  6.1529  3.3571  2.6646  2.4049  1.8485  1.8485  1.5062  1.5062  1.0906
  0.9641  0.9641  0.9206  0.9206

 Free energy of the ion-electron system (eV)
  ---------------------------------------------------
  alpha Z        PSCENC =         1.68866877
  Ewald energy   TEWEN  =      2629.98113996
  -Hartree energ DENC   =     -3566.43600030
  -exchange      EXHF   =         0.00000000
  -V(xc)+E(xc)   XCENC  =       -44.85171928
  PAW double counting   =      4067.96115875    -3903.04107183
  entropy T*S    EENTRO =        -0.00000000
  eigenvalues    EBANDS =      -524.59807718
  atomic energy  EATOM  =      1236.10535615
  Solvation  Ediel_sol  =         0.00000000
  ---------------------------------------------------
  free energy    TOTEN  =      -103.19054495 eV

  energy without entropy =     -103.19054495  energy(sigma->0) =     -103.19054495


--------------------------------------------------------------------------------------------------------




--------------------------------------- Iteration      1(  20)  ---------------------------------------


    POTLOK:  cpu time    1.7537: real time    1.7553
    SETDIJ:  cpu time    0.0070: real time    0.0075
     EDDAV:  cpu time    8.4607: real time    8.4590
       DOS:  cpu time    0.0000: real time    0.0003
    CHARGE:  cpu time    0.4879: real time    0.4874
    MIXING:  cpu time    0.1300: real time    0.1306
    --------------------------------------------
      LOOP:  cpu time   10.8394: real time   10.8401

 eigenvalue-minimisations  :    88
 total energy-change (2. order) :-0.4360559E-04  (-0.7957911E-07)
 number of electron      56.0000008 magnetization 
 augmentation part       -3.1176784 magnetization 

 Broyden mixing:
  rms(total) = 0.79554E-04    rms(broyden)= 0.79553E-04
  rms(prec ) = 0.10424E-03
  weight for this iteration     100.00

 eigenvalues of (default mixing * dielectric matrix)
  average eigenvalue GAMMA=   2.4875
  8.4635  6.3489  3.8668  2.8033  2.6439  1.7829  1.7829  1.6292  1.5029  1.5029
  1.2102  0.9640  0.9640  0.9566  0.8905

 Free energy of the ion-electron system (eV)
  ---------------------------------------------------
  alpha Z        PSCENC =         1.68866877
  Ewald energy   TEWEN  =      2629.98113996
  -Hartree energ DENC   =     -3566.44659351
  -exchange      EXHF   =         0.00000000
  -V(xc)+E(xc)   XCENC  =       -44.85204332
  PAW double counting   =      4068.14152152    -3903.22166590
  entropy T*S    EENTRO =        -0.00000000
  eigenvalues    EBANDS =      -524.58697224
  atomic energy  EATOM  =      1236.10535615
  Solvation  Ediel_sol  =         0.00000000
  ---------------------------------------------------
  free energy    TOTEN  =      -103.19058856 eV

  energy without entropy =     -103.19058856  energy(sigma->0) =     -103.19058856


--------------------------------------------------------------------------------------------------------




--------------------------------------- Iteration      1(  21)  ---------------------------------------


    POTLOK:  cpu time    1.7317: real time    1.7312
    SETDIJ:  cpu time    0.0070: real time    0.0075
     EDDAV:  cpu time    7.7218: real time    7.7297
       DOS:  cpu time    0.0000: real time    0.0004
    CHARGE:  cpu time    0.4839: real time    0.4838
    MIXING:  cpu time    0.1400: real time    0.1399
    --------------------------------------------
      LOOP:  cpu time   10.0845: real time   10.0924

 eigenvalue-minimisations  :    78
 total energy-change (2. order) :-0.3344067E-04  (-0.1004334E-06)
 number of electron      56.0000008 magnetization 
 augmentation part       -3.1176545 magnetization 

 Broyden mixing:
  rms(total) = 0.64239E-04    rms(broyden)= 0.64232E-04
  rms(prec ) = 0.81376E-04
  weight for this iteration     100.00

 eigenvalues of (default mixing * dielectric matrix)
  average eigenvalue GAMMA=   2.5127
  8.5921  6.6101  4.2605  3.0698  2.6971  2.2609  1.8610  1.8610  1.5451  1.5451
  1.1303  0.9917  0.9917  0.9334  0.9271  0.9271

 Free energy of the ion-electron system (eV)
  ---------------------------------------------------
  alpha Z        PSCENC =         1.68866877
  Ewald energy   TEWEN  =      2629.98113996
  -Hartree energ DENC   =     -3566.45170401
  -exchange      EXHF   =         0.00000000
  -V(xc)+E(xc)   XCENC  =       -44.85227694
  PAW double counting   =      4068.44131006    -3903.52145924
  entropy T*S    EENTRO =        -0.00000000
  eigenvalues    EBANDS =      -524.58165675
  atomic energy  EATOM  =      1236.10535615
  Solvation  Ediel_sol  =         0.00000000
  ---------------------------------------------------
  free energy    TOTEN  =      -103.19062200 eV

  energy without entropy =     -103.19062200  energy(sigma->0) =     -103.19062200


--------------------------------------------------------------------------------------------------------




--------------------------------------- Iteration      1(  22)  ---------------------------------------


    POTLOK:  cpu time    1.7177: real time    1.7181
    SETDIJ:  cpu time    0.0170: real time    0.0169
     EDDAV:  cpu time    7.8478: real time    7.8462
       DOS:  cpu time    0.0000: real time    0.0003
    CHARGE:  cpu time    0.4829: real time    0.4892
    MIXING:  cpu time    0.1350: real time    0.1606
    --------------------------------------------
      LOOP:  cpu time   10.2004: real time   10.2313

 eigenvalue-minimisations  :    80
 total energy-change (2. order) :-0.8394386E-05  (-0.2433089E-07)
 number of electron      56.0000008 magnetization 
 augmentation part       -3.1176655 magnetization 

 Broyden mixing:
  rms(total) = 0.36808E-04    rms(broyden)= 0.36807E-04
  rms(prec ) = 0.41356E-04
  weight for this iteration     100.00

 eigenvalues of (default mixing * dielectric matrix)
  average eigenvalue GAMMA=   2.4673
  8.7613  6.6877  4.4957  3.1035  2.4932  2.4932  1.7926  1.7926  1.5633  1.5633
  1.1997  1.1997  1.0169  0.9538  0.9538  0.9372  0.9372

 Free energy of the ion-electron system (eV)
  ---------------------------------------------------
  alpha Z        PSCENC =         1.68866877
  Ewald energy   TEWEN  =      2629.98113996
  -Hartree energ DENC   =     -3566.44992691
  -exchange      EXHF   =         0.00000000
  -V(xc)+E(xc)   XCENC  =       -44.85221217
  PAW double counting   =      4068.53332700    -3903.61328380
  entropy T*S    EENTRO =        -0.00000000
  eigenvalues    EBANDS =      -524.58369938
  atomic energy  EATOM  =      1236.10535615
  Solvation  Ediel_sol  =         0.00000000
  ---------------------------------------------------
  free energy    TOTEN  =      -103.19063039 eV

  energy without entropy =     -103.19063039  energy(sigma->0) =     -103.19063039


--------------------------------------------------------------------------------------------------------




--------------------------------------- Iteration      1(  23)  ---------------------------------------


    POTLOK:  cpu time    1.7217: real time    1.7283
    SETDIJ:  cpu time    0.0080: real time    0.0075
     EDDAV:  cpu time    8.3867: real time    8.4064
       DOS:  cpu time    0.0010: real time    0.0004
    CHARGE:  cpu time    0.4859: real time    0.4875
    MIXING:  cpu time    0.1650: real time    0.1645
    --------------------------------------------
      LOOP:  cpu time   10.7684: real time   10.7946

 eigenvalue-minimisations  :    88
 total energy-change (2. order) :-0.2191705E-05  (-0.4447321E-08)
 number of electron      56.0000008 magnetization 
 augmentation part       -3.1176699 magnetization 

 Broyden mixing:
  rms(total) = 0.18455E-04    rms(broyden)= 0.18455E-04
  rms(prec ) = 0.23629E-04
  weight for this iteration     100.00

 eigenvalues of (default mixing * dielectric matrix)
  average eigenvalue GAMMA=   2.5338
  8.8267  6.8634  4.8569  3.2755  2.9048  2.4326  2.4326  1.8188  1.8188  1.5836
  1.5836  1.1786  1.1786  0.9291  0.9291  1.0019  0.9966  0.9966

 Free energy of the ion-electron system (eV)
  ---------------------------------------------------
  alpha Z        PSCENC =         1.68866877
  Ewald energy   TEWEN  =      2629.98113996
  -Hartree energ DENC   =     -3566.44929858
  -exchange      EXHF   =         0.00000000
  -V(xc)+E(xc)   XCENC  =       -44.85230883
  PAW double counting   =      4068.42037944    -3903.50033815
  entropy T*S    EENTRO =        -0.00000000
  eigenvalues    EBANDS =      -524.58423135
  atomic energy  EATOM  =      1236.10535615
  Solvation  Ediel_sol  =         0.00000000
  ---------------------------------------------------
  free energy    TOTEN  =      -103.19063258 eV

  energy without entropy =     -103.19063258  energy(sigma->0) =     -103.19063258


--------------------------------------------------------------------------------------------------------




--------------------------------------- Iteration      1(  24)  ---------------------------------------


    POTLOK:  cpu time    1.7307: real time    1.7348
    SETDIJ:  cpu time    0.0080: real time    0.0076
     EDDAV:  cpu time    7.6788: real time    7.6952
       DOS:  cpu time    0.0010: real time    0.0004
    CHARGE:  cpu time    0.4859: real time    0.4853
    MIXING:  cpu time    0.1790: real time    0.1787
    --------------------------------------------
      LOOP:  cpu time   10.0835: real time   10.1020

 eigenvalue-minimisations  :    78
 total energy-change (2. order) :-0.3977303E-05  (-0.7448966E-08)
 number of electron      56.0000008 magnetization 
 augmentation part       -3.1176708 magnetization 

 Broyden mixing:
  rms(total) = 0.10935E-04    rms(broyden)= 0.10935E-04
  rms(prec ) = 0.12310E-04
  weight for this iteration     100.00

 eigenvalues of (default mixing * dielectric matrix)
  average eigenvalue GAMMA=   2.5179
  8.8670  7.0497  5.3323  3.8466  2.8590  2.5605  2.2427  1.8022  1.8022  1.5625
  1.5625  1.2419  1.2419  1.1398  0.9662  0.9662  0.9673  0.9152  0.9152

 Free energy of the ion-electron system (eV)
  ---------------------------------------------------
  alpha Z        PSCENC =         1.68866877
  Ewald energy   TEWEN  =      2629.98113996
  -Hartree energ DENC   =     -3566.45049793
  -exchange      EXHF   =         0.00000000
  -V(xc)+E(xc)   XCENC  =       -44.85225214
  PAW double counting   =      4068.36631987    -3903.44631460
  entropy T*S    EENTRO =        -0.00000000
  eigenvalues    EBANDS =      -524.58305664
  atomic energy  EATOM  =      1236.10535615
  Solvation  Ediel_sol  =         0.00000000
  ---------------------------------------------------
  free energy    TOTEN  =      -103.19063656 eV

  energy without entropy =     -103.19063656  energy(sigma->0) =     -103.19063656


--------------------------------------------------------------------------------------------------------




--------------------------------------- Iteration      1(  25)  ---------------------------------------


    POTLOK:  cpu time    1.7327: real time    1.7369
    SETDIJ:  cpu time    0.0080: real time    0.0076
     EDDAV:  cpu time    7.8928: real time    7.9034
       DOS:  cpu time    0.0010: real time    0.0003
    --------------------------------------------
      LOOP:  cpu time    9.6345: real time    9.6481

 eigenvalue-minimisations  :    80
 total energy-change (2. order) :-0.4054764E-06  (-0.1025922E-08)
 number of electron      56.0000008 magnetization 
 augmentation part       -3.1176708 magnetization 

 Free energy of the ion-electron system (eV)
  ---------------------------------------------------
  alpha Z        PSCENC =         1.68866877
  Ewald energy   TEWEN  =      2629.98113996
  -Hartree energ DENC   =     -3566.45057031
  -exchange      EXHF   =         0.00000000
  -V(xc)+E(xc)   XCENC  =       -44.85224017
  PAW double counting   =      4068.38375523    -3903.46374154
  entropy T*S    EENTRO =        -0.00000000
  eigenvalues    EBANDS =      -524.58300506
  atomic energy  EATOM  =      1236.10535615
  Solvation  Ediel_sol  =         0.00000000
  ---------------------------------------------------
  free energy    TOTEN  =      -103.19063697 eV

  energy without entropy =     -103.19063697  energy(sigma->0) =     -103.19063697


--------------------------------------------------------------------------------------------------------




 average (electrostatic) potential at core
  the test charge radii are     0.9892  1.1631  0.5201
  (the norm of the test charge is              1.0000)
       1 -93.4023       2 -93.4226       3 -93.4226       4 -93.4023       5 -93.4023
       6 -93.4815       7 -93.4226       8 -40.3934       9 -40.3934      10 -40.3934
      11 -40.6977      12 -40.7075      13 -40.7024      14 -41.0693      15 -41.0688
      16 -40.7080      17 -40.6987      18 -40.7026      19 -40.6813      20 -41.0688
      21 -41.0690      22 -40.7027      23 -40.6980      24 -40.7081      25 -41.0688
      26 -41.0689
 
 
 
 E-fermi :  -5.4324     XC(G=0):  -0.6075     alpha+bet : -0.3428


 k-point     1 :       0.0000    0.0000    0.0000
  band No.  band energies     occupation 
      1     -15.0450      2.00000
      2     -14.0565      2.00000
      3     -14.0564      2.00000
      4     -13.8681      2.00000
      5     -12.8790      2.00000
      6     -12.8790      2.00000
      7     -11.3757      2.00000
      8     -11.3288      2.00000
      9     -11.3287      2.00000
     10     -10.3394      2.00000
     11      -8.9407      2.00000
     12      -8.6267      2.00000
     13      -8.6267      2.00000
     14      -8.6091      2.00000
     15      -8.1819      2.00000
     16      -8.1819      2.00000
     17      -8.1611      2.00000
     18      -7.8593      2.00000
     19      -7.8559      2.00000
     20      -7.8558      2.00000
     21      -6.7910      2.00000
     22      -6.7910      2.00000
     23      -6.4866      2.00000
     24      -6.4814      2.00000
     25      -6.4813      2.00000
     26      -6.4054      2.00000
     27      -6.3995      2.00000
     28      -6.3994      2.00000
     29      -1.8067      0.00000
     30      -1.4746      0.00000
     31      -1.3007      0.00000
     32      -1.3007      0.00000
     33      -1.1774      0.00000
     34      -1.1772      0.00000
     35      -0.9832      0.00000
     36      -0.9831      0.00000
     37      -0.9499      0.00000
     38      -0.5441      0.00000
     39      -0.4682      0.00000
     40      -0.4681      0.00000
     41      -0.3944      0.00000
     42      -0.2138      0.00000


--------------------------------------------------------------------------------------------------------


 soft charge-density along one line, spin component           1
         0         1         2         3         4         5         6         7         8         9
 total charge-density along one line
 
 pseudopotential strength for first ion, spin component:           1
 19.614  27.372   0.001   0.003   0.001   0.003   0.005   0.003
 27.372  38.203   0.002   0.004   0.002   0.004   0.008   0.003
  0.001   0.002   4.359   0.000   0.000   8.131   0.000   0.000
  0.003   0.004   0.000   4.359   0.000   0.000   8.131   0.000
  0.001   0.002   0.000   0.000   4.359   0.000   0.000   8.131
  0.003   0.004   8.131   0.000   0.000  15.178   0.001   0.001
  0.005   0.008   0.000   8.131   0.000   0.001  15.177   0.001
  0.003   0.003   0.000   0.000   8.131   0.001   0.001  15.177
 total augmentation occupancy for first ion, spin component:           1
  5.552  -2.034   0.052  -0.341  -0.055  -0.015   0.102   0.017
 -2.034   0.808  -0.035   0.206   0.031   0.009  -0.046  -0.007
  0.052  -0.035   2.833  -0.111  -0.030  -0.614   0.038   0.009
 -0.341   0.206  -0.111   3.281   0.050   0.039  -0.774  -0.019
 -0.055   0.031  -0.030   0.050   2.839   0.009  -0.019  -0.614
 -0.015   0.009  -0.614   0.039   0.009   0.140  -0.011  -0.002
  0.102  -0.046   0.038  -0.774  -0.019  -0.011   0.186   0.006
  0.017  -0.007   0.009  -0.019  -0.614  -0.002   0.006   0.139


------------------------ aborting loop because EDIFF is reached ----------------------------------------


    CHARGE:  cpu time    0.4739: real time    0.4740
    FORLOC:  cpu time    0.1750: real time    0.1772
    FORNL :  cpu time    1.0458: real time    1.0464
    STRESS:  cpu time    7.4439: real time    7.4627
    FORCOR:  cpu time    1.7147: real time    1.7174
    FORHAR:  cpu time    0.5839: real time    0.5829
    MIXING:  cpu time    0.1880: real time    0.1906
    OFIELD:  cpu time    0.0000: real time    0.0000

  FORCE on cell =-STRESS in cart. coord.  units (eV):
  Direction    XX          YY          ZZ          XY          YZ          ZX
  --------------------------------------------------------------------------------------
  Alpha Z     1.68867     1.68867     1.68867
  Ewald     876.64706   876.62235   876.71007    -0.21850     0.02563    -0.50464
  Hartree  1188.81146  1188.75696  1188.88328    -0.26338    -0.02072    -0.52290
  E(xc)    -175.64576  -175.56790  -175.65048     0.07485     0.07107     0.04306
  Local   -2579.16873 -2579.04932 -2579.30502     0.52043     0.03163     1.05007
  n-local   290.57413   290.17277   290.59871    -0.38628    -0.36693    -0.22199
  augment   -34.41198   -34.41869   -34.41162    -0.00538    -0.00517    -0.00301
  Kinetic   426.05871   426.25219   426.04637     0.18627     0.17715     0.10701
  Fock        0.00000     0.00000     0.00000     0.00000     0.00000     0.00000
  -------------------------------------------------------------------------------------
  Total      -5.44644    -5.54296    -5.44004    -0.09199    -0.08734    -0.05240
  in kB      -1.09077    -1.11010    -1.08949    -0.01842    -0.01749    -0.01049
  external pressure =       -1.10 kB  Pullay stress =        0.00 kB


 VOLUME and BASIS-vectors are now :
 -----------------------------------------------------------------------------
  energy-cutoff  :      400.00
[...]
 next E    =  -103.444716   (d E  =  -0.00017)


--------------------------------------------------------------------------------------------------------


    WAVPRE:  cpu time    0.5899: real time    0.5927
    FEWALD:  cpu time    0.0010: real time    0.0009
    ORTHCH:  cpu time    0.8859: real time    0.8847
     LOOP+:  cpu time   75.6275: real time   75.6781


--------------------------------------- Iteration     17(   1)  ---------------------------------------


    POTLOK:  cpu time    1.7357: real time    1.7475
    SETDIJ:  cpu time    0.0070: real time    0.0077
     EDDAV:  cpu time    8.1728: real time    8.1698
       DOS:  cpu time    0.0000: real time    0.0003
    CHARGE:  cpu time    0.4889: real time    0.4888
    MIXING:  cpu time    0.0440: real time    0.0437
    --------------------------------------------
      LOOP:  cpu time   10.4484: real time   10.4578

 eigenvalue-minimisations  :    84
 total energy-change (2. order) :-0.4037920E-04  (-0.2787661E-03)
 number of electron      55.9999968 magnetization 
 augmentation part       -3.1167245 magnetization 

 Broyden mixing:
  rms(total) = 0.17716E-02    rms(broyden)= 0.17712E-02
  rms(prec ) = 0.18399E-02
  weight for this iteration     100.00

 Free energy of the ion-electron system (eV)
  ---------------------------------------------------
  alpha Z        PSCENC =         1.68866877
  Ewald energy   TEWEN  =      2672.14562357
  -Hartree energ DENC   =     -3606.77976863
  -exchange      EXHF   =         0.00000000
  -V(xc)+E(xc)   XCENC  =       -43.90839964
  PAW double counting   =      4412.21493027    -4247.44983249
  entropy T*S    EENTRO =        -0.00000000
  eigenvalues    EBANDS =      -527.46128375
  atomic energy  EATOM  =      1236.10535615
  Solvation  Ediel_sol  =         0.00000000
  ---------------------------------------------------
  free energy    TOTEN  =      -103.44470573 eV

  energy without entropy =     -103.44470573  energy(sigma->0) =     -103.44470573


--------------------------------------------------------------------------------------------------------




--------------------------------------- Iteration     17(   2)  ---------------------------------------


    POTLOK:  cpu time    1.7657: real time    1.7665
    SETDIJ:  cpu time    0.0080: real time    0.0074
     EDDAV:  cpu time   10.1355: real time   10.1525
       DOS:  cpu time    0.0010: real time    0.0003
    CHARGE:  cpu time    0.4849: real time    0.4850
    MIXING:  cpu time    0.0460: real time    0.0461
    --------------------------------------------
      LOOP:  cpu time   12.4411: real time   12.4579

 eigenvalue-minimisations  :   112
 total energy-change (2. order) :-0.1360739E-04  (-0.1473245E-04)
 number of electron      55.9999968 magnetization 
 augmentation part       -3.1168096 magnetization 

 Broyden mixing:
  rms(total) = 0.11370E-02    rms(broyden)= 0.11367E-02
  rms(prec ) = 0.12125E-02
  weight for this iteration     100.00

 eigenvalues of (default mixing * dielectric matrix)
  average eigenvalue GAMMA=   0.9652
  0.9652

 Free energy of the ion-electron system (eV)
  ---------------------------------------------------
  alpha Z        PSCENC =         1.68866877
  Ewald energy   TEWEN  =      2672.14562357
  -Hartree energ DENC   =     -3606.78440612
  -exchange      EXHF   =         0.00000000
  -V(xc)+E(xc)   XCENC  =       -43.90795248
  PAW double counting   =      4412.46326580    -4247.69840989
  entropy T*S    EENTRO =        -0.00000000
  eigenvalues    EBANDS =      -527.45686514
  atomic energy  EATOM  =      1236.10535615
  Solvation  Ediel_sol  =         0.00000000
  ---------------------------------------------------
  free energy    TOTEN  =      -103.44471934 eV

  energy without entropy =     -103.44471934  energy(sigma->0) =     -103.44471934


--------------------------------------------------------------------------------------------------------




--------------------------------------- Iteration     17(   3)  ---------------------------------------


    POTLOK:  cpu time    1.7477: real time    1.7474
    SETDIJ:  cpu time    0.0080: real time    0.0075
     EDDAV:  cpu time   10.7364: real time   10.7354
       DOS:  cpu time    0.0000: real time    0.0003
    --------------------------------------------
      LOOP:  cpu time   12.4921: real time   12.4905

 eigenvalue-minimisations  :   120
 total energy-change (2. order) : 0.6833316E-06  (-0.4270146E-06)
 number of electron      55.9999968 magnetization 
 augmentation part       -3.1168096 magnetization 

 Free energy of the ion-electron system (eV)
  ---------------------------------------------------
  alpha Z        PSCENC =         1.68866877
  Ewald energy   TEWEN  =      2672.14562357
  -Hartree energ DENC   =     -3606.78799965
  -exchange      EXHF   =         0.00000000
  -V(xc)+E(xc)   XCENC  =       -43.90781102
  PAW double counting   =      4412.64883388    -4247.88411105
  entropy T*S    EENTRO =        -0.00000000
  eigenvalues    EBANDS =      -527.45327931
  atomic energy  EATOM  =      1236.10535615
  Solvation  Ediel_sol  =         0.00000000
  ---------------------------------------------------
  free energy    TOTEN  =      -103.44471866 eV

  energy without entropy =     -103.44471866  energy(sigma->0) =     -103.44471866


--------------------------------------------------------------------------------------------------------




 average (electrostatic) potential at core
  the test charge radii are     0.9892  1.1631  0.5201
  (the norm of the test charge is              1.0000)
       1 -93.3188       2 -93.2657       3 -93.2656       4 -93.3188       5 -93.3185
       6 -93.4651       7 -93.2656       8 -40.3744       9 -40.3745      10 -40.3744
      11 -40.8377      12 -40.8334      13 -40.8804      14 -40.9760      15 -40.9754
      16 -40.8338      17 -40.8375      18 -40.8805      19 -40.9061      20 -40.9756
      21 -40.9753      22 -40.8804      23 -40.8373      24 -40.8337      25 -40.9755
      26 -40.9752
 
 
 
 E-fermi :  -5.4068     XC(G=0):  -0.5996     alpha+bet : -0.3428


 k-point     1 :       0.0000    0.0000    0.0000
  band No.  band energies     occupation 
      1     -15.0732      2.00000
      2     -14.0610      2.00000
      3     -14.0609      2.00000
      4     -13.9982      2.00000
      5     -12.9874      2.00000
      6     -12.9873      2.00000
      7     -11.4624      2.00000
      8     -11.4563      2.00000
      9     -11.4562      2.00000
     10     -10.4573      2.00000
     11      -9.0848      2.00000
     12      -8.7140      2.00000
     13      -8.5993      2.00000
     14      -8.5992      2.00000
     15      -8.1983      2.00000
     16      -8.1981      2.00000
     17      -8.0424      2.00000
     18      -7.9845      2.00000
     19      -7.9180      2.00000
     20      -7.9179      2.00000
     21      -6.8391      2.00000
     22      -6.8389      2.00000
     23      -6.5548      2.00000
     24      -6.5113      2.00000
     25      -6.5111      2.00000
     26      -6.4303      2.00000
     27      -6.3924      2.00000
     28      -6.3921      2.00000
     29      -1.7230      0.00000
     30      -1.4795      0.00000
     31      -1.3074      0.00000
     32      -1.3072      0.00000
     33      -1.1849      0.00000
     34      -1.1847      0.00000
     35      -0.9186      0.00000
     36      -0.8829      0.00000
     37      -0.8827      0.00000
     38      -0.4232      0.00000
     39      -0.3532      0.00000
     40      -0.3529      0.00000
     41      -0.2662      0.00000
     42      -0.1547      0.00000


--------------------------------------------------------------------------------------------------------


 soft charge-density along one line, spin component           1
         0         1         2         3         4         5         6         7         8         9
 total charge-density along one line
 
 pseudopotential strength for first ion, spin component:           1
 19.613  27.370   0.001   0.003   0.001   0.003   0.006   0.003
 27.370  38.200   0.002   0.004   0.002   0.004   0.008   0.004
  0.001   0.002   4.361   0.000   0.000   8.135   0.000   0.000
  0.003   0.004   0.000   4.361   0.000   0.000   8.136   0.000
  0.001   0.002   0.000   0.000   4.361   0.000   0.000   8.135
  0.003   0.004   8.135   0.000   0.000  15.185   0.000   0.001
  0.006   0.008   0.000   8.136   0.000   0.000  15.186   0.001
  0.003   0.004   0.000   0.000   8.135   0.001   0.001  15.185
 total augmentation occupancy for first ion, spin component:           1
  5.922  -2.235  -0.008  -0.465  -0.112   0.005   0.145   0.036
 -2.235   0.903  -0.009   0.266   0.058  -0.000  -0.065  -0.015
 -0.008  -0.009   2.932  -0.183  -0.084  -0.645   0.059   0.023
 -0.465   0.266  -0.183   3.521   0.030   0.059  -0.847  -0.014
 -0.112   0.058  -0.084   0.030   2.987   0.023  -0.014  -0.657
  0.005  -0.000  -0.645   0.059   0.023   0.148  -0.017  -0.006
  0.145  -0.065   0.059  -0.847  -0.014  -0.017   0.207   0.005
  0.036  -0.015   0.023  -0.014  -0.657  -0.006   0.005   0.151


------------------------ aborting loop because EDIFF is reached ----------------------------------------


    CHARGE:  cpu time    0.4869: real time    0.4883
    FORLOC:  cpu time    0.1720: real time    0.1703
    FORNL :  cpu time    1.0428: real time    1.0434
    STRESS:  cpu time    7.1529: real time    7.1744
    FORCOR:  cpu time    1.7157: real time    1.7155
    FORHAR:  cpu time    0.5819: real time    0.5811
    MIXING:  cpu time    0.0460: real time    0.0469
    OFIELD:  cpu time    0.0000: real time    0.0000

  FORCE on cell =-STRESS in cart. coord.  units (eV):
  Direction    XX          YY          ZZ          XY          YZ          ZX
  --------------------------------------------------------------------------------------
  Alpha Z     1.68867     1.68867     1.68867
  Ewald     890.21047   891.83490   890.09857     0.38538     0.56701    -0.18803
  Hartree  1201.46752  1204.00722  1201.32240     1.32130     1.46470     0.36885
  E(xc)    -176.84864  -176.78076  -176.85262     0.06540     0.06207     0.03770
  Local   -2607.00628 -2610.95366 -2606.76158    -1.49943    -1.83430    -0.06152
  n-local   292.92918   292.43131   292.95925    -0.48204    -0.45943    -0.27950
  augment   -34.55409   -34.54013   -34.55381     0.01250     0.01169     0.00732
  Kinetic   431.27038   431.40276   431.26220     0.13404     0.12999     0.08011
  Fock        0.00000     0.00000     0.00000     0.00000     0.00000     0.00000
  -------------------------------------------------------------------------------------
  Total      -0.84279    -0.90968    -0.83693    -0.06283    -0.05827    -0.03505
  in kB      -0.16879    -0.18218    -0.16761    -0.01258    -0.01167    -0.00702
  external pressure =       -0.17 kB  Pullay stress =        0.00 kB


 VOLUME and BASIS-vectors are now :
 -----------------------------------------------------------------------------
  energy-cutoff  :      400.00
  volume of cell :     8000.00
      direct lattice vectors                 reciprocal lattice vectors
    20.000000000  0.000000000  0.000000000     0.050000000  0.000000000  0.000000000
     0.000000000 20.000000000  0.000000000     0.000000000  0.050000000  0.000000000
     0.000000000  0.000000000 20.000000000     0.000000000  0.000000000  0.050000000

  length of vectors
    20.000000000 20.000000000 20.000000000     0.050000000  0.050000000  0.050000000


 FORCES acting on ions
    electron-ion (+dipol)            ewald-force                    non-local-force                 convergence-correction
 -----------------------------------------------------------------------------------------------
   0.109E+02 -.214E+02 0.897E+02   -.115E+02 0.209E+02 -.912E+02   0.579E+00 0.504E+00 0.146E+01   -.487E-03 -.127E-02 0.502E-03
   0.897E+02 -.571E+01 0.473E+02   -.911E+02 0.584E+01 -.481E+02   0.146E+01 -.117E+00 0.761E+00   0.153E-02 -.109E-02 0.570E-03
   -.378E+02 0.546E+02 0.770E+02   0.385E+02 -.555E+02 -.782E+02   -.635E+00 0.873E+00 0.125E+01   -.147E-02 0.349E-03 0.128E-02
   0.821E+02 0.113E+02 -.419E+02   -.835E+02 -.122E+02 0.420E+02   0.140E+01 0.879E+00 -.493E-01   0.339E-03 -.881E-03 -.108E-02
   -.535E+02 0.753E+02 -.103E+02   0.536E+02 -.769E+02 0.996E+01   -.159E+00 0.161E+01 0.313E+00   -.124E-02 -.120E-03 -.699E-03
   -.433E+02 -.713E+02 -.411E+02   0.441E+02 0.726E+02 0.419E+02   -.795E+00 -.131E+01 -.754E+00   0.112E-02 0.186E-02 0.108E-02
   0.294E+02 0.851E+02 -.470E+02   -.299E+02 -.865E+02 0.478E+02   0.466E+00 0.138E+01 -.785E+00   0.117E-03 0.104E-02 -.166E-02
   -.298E+02 -.860E+02 0.470E+02   0.300E+02 0.866E+02 -.473E+02   -.221E+00 -.599E+00 0.265E+00   0.202E-03 0.103E-02 -.129E-02
   -.904E+02 0.528E+01 -.478E+02   0.910E+02 -.525E+01 0.481E+02   -.605E+00 -.206E-01 -.333E+00   0.140E-02 -.758E-03 0.563E-03
   0.378E+02 -.554E+02 -.775E+02   -.380E+02 0.558E+02 0.781E+02   0.205E+00 -.405E+00 -.523E+00   -.114E-02 0.444E-03 0.116E-02
   0.213E+02 0.419E+02 0.597E+01   -.227E+02 -.442E+02 -.719E+01   0.137E+01 0.230E+01 0.123E+01   -.132E-04 0.222E-03 -.550E-03
   0.940E+00 0.225E+02 -.417E+02   -.566E+00 -.231E+02 0.445E+02   -.377E+00 0.615E+00 -.286E+01   0.280E-03 0.283E-03 0.612E-03
   -.273E+02 0.406E+02 -.475E+01   0.290E+02 -.430E+02 0.503E+01   -.162E+01 0.240E+01 -.282E+00   -.288E-03 -.588E-03 -.299E-03
   -.446E+02 -.336E+01 0.532E+01   0.469E+02 0.368E+01 -.636E+01   -.226E+01 -.329E+00 0.105E+01   0.215E-03 -.455E-03 0.167E-03
   -.205E+02 0.780E+01 -.396E+02   0.209E+02 -.834E+01 0.421E+02   -.376E+00 0.530E+00 -.243E+01   0.357E-03 -.395E-03 -.761E-04
   -.373E+02 0.509E+01 0.288E+02   0.399E+02 -.468E+01 -.301E+02   -.262E+01 -.412E+00 0.129E+01   0.594E-03 0.449E-03 0.356E-04
   0.851E+01 0.362E+02 0.295E+02   -.982E+01 -.385E+02 -.308E+02   0.131E+01 0.227E+01 0.135E+01   -.492E-03 0.589E-05 0.330E-03
   0.642E+01 -.101E+02 0.475E+02   -.680E+01 0.107E+02 -.504E+02   0.377E+00 -.596E+00 0.282E+01   -.338E-03 -.514E-03 -.388E-03
   -.227E+02 -.373E+02 -.216E+02   0.241E+02 0.396E+02 0.229E+02   -.137E+01 -.225E+01 -.130E+01   0.118E-03 0.221E-03 0.124E-03
   0.292E+01 -.332E+01 -.449E+02   -.265E+01 0.284E+01 0.474E+02   -.280E+00 0.485E+00 -.245E+01   -.520E-03 0.210E-04 0.128E-03
   0.249E+02 -.363E+02 -.110E+02   -.263E+02 0.383E+02 0.108E+02   0.142E+01 -.207E+01 0.192E+00   -.397E-03 -.166E-03 0.315E-03
   0.436E+02 0.709E+01 -.214E+02   -.462E+02 -.751E+01 0.226E+02   0.259E+01 0.415E+00 -.126E+01   -.393E-03 -.556E-03 -.278E-03
   0.327E+02 0.248E+02 0.239E+02   -.341E+02 -.270E+02 -.252E+02   0.143E+01 0.221E+01 0.132E+01   0.405E-03 -.416E-03 0.123E-03
   0.352E+02 -.293E+02 0.120E+02   -.369E+02 0.317E+02 -.122E+02   0.165E+01 -.243E+01 0.291E+00   -.717E-05 0.711E-03 0.181E-03
   0.125E+02 -.417E+02 0.119E+02   -.139E+02 0.438E+02 -.122E+02   0.137E+01 -.209E+01 0.286E+00   0.653E-04 0.549E-04 -.529E-03
   -.338E+02 -.200E+02 0.227E+02   0.360E+02 0.204E+02 -.238E+02   -.221E+01 -.398E+00 0.112E+01   -.183E-03 0.151E-03 -.471E-03
 -----------------------------------------------------------------------------------------------
   -.209E+01 -.345E+01 -.199E+01   -.711E-14 0.107E-13 0.462E-13   0.209E+01 0.345E+01 0.199E+01   -.230E-03 -.373E-03 -.148E-03
 
 
 POSITION                                       TOTAL-FORCE (eV/Angst)
 -----------------------------------------------------------------------------------
      9.49786     11.09193      7.71156        -0.000311      0.008097     -0.017138
      7.40778     10.76428      8.73833        -0.003449      0.012465      0.001330
     10.81203      9.15575      7.94450         0.011685      0.005470     -0.002184
      7.70721     10.27352     11.01858        -0.015341      0.001060      0.010906
     11.11220      8.66467     10.22455         0.013564     -0.012285      0.004223
     10.94920     12.49816     11.08497        -0.004951     -0.007956     -0.004580
      9.02172      8.33747     11.25068         0.003859      0.001760      0.012366
     10.61866     12.95011      8.75138         0.000366     -0.005212      0.011911
     12.25228     10.49381     11.29441        -0.009117      0.009007     -0.002688
      8.80643     12.12198     12.09799         0.010677     -0.000475     -0.007373
      8.32302      7.16859     10.62187         0.005075      0.009789      0.001083
      9.21415      8.02689     12.70503        -0.001774      0.000358     -0.008299
     11.94632      7.42453     10.36955         0.000642     -0.009616     -0.002053
     13.65232     10.69748     10.64239         0.001042     -0.008204      0.002897
     12.48456     10.16400     12.79906         0.004959     -0.006734     -0.003538
     12.14537      9.36687      7.29167        -0.007694     -0.001967      0.002714
     10.14435      8.00096      7.25855         0.001803      0.008463      0.007061
      9.30320     11.39892      6.25462        -0.003544     -0.003285     -0.008375
     11.64696     13.64855     11.74746         0.007456      0.012838      0.007264
      8.98022     11.81988     13.61627        -0.008829     -0.000110     -0.000300
      7.92782     13.40268     11.97747        -0.005732     -0.005024      0.004569
      6.37117     10.05876     11.66945        -0.008320     -0.005680      0.000025
      6.68097      9.63753      8.06601         0.007748      0.005431      0.005618
      6.57163     12.00035      8.59141         0.003532     -0.007578      0.000239
      9.77088     14.24490      8.57409         0.001821     -0.001642     -0.008595
     11.99110     13.19542      8.05648        -0.005167      0.001029     -0.007082
 -----------------------------------------------------------------------------------
    total drift:                                0.001211      0.002409     -0.000405


--------------------------------------------------------------------------------------------------------



  FREE ENERGIE OF THE ION-ELECTRON SYSTEM (eV)
  ---------------------------------------------------
  free  energy   TOTEN  =      -103.44471866 eV

  energy  without entropy=     -103.44471866  energy(sigma->0) =     -103.44471866
 
 d Force = 0.5188004E-04[ 0.351E-05, 0.100E-03]  d Energy = 0.5241644E-04-0.536E-06
 d Force =-0.1531054E+00[-0.153E+00,-0.153E+00]  d Ewald  =-0.1531054E+00 0.322E-08


--------------------------------------------------------------------------------------------------------


    POTLOK:  cpu time    1.7577: real time    1.7565


--------------------------------------------------------------------------------------------------------




--------------------------------------------------------------------------------------------------------


  
 reached required accuracy - stopping structural energy minimisation
 writing wavefunctions
     LOOP+:  cpu time   49.0505: real time   49.5598
    4ORBIT:  cpu time    0.0000: real time    0.0000

 total amount of memory used by VASP MPI-rank0   131440. kBytes
=======================================================================

   base      :      30000. kBytes
   nonl-proj :      17624. kBytes
   fftplans  :      26957. kBytes
   grid      :      48673. kBytes
   one-center:         40. kBytes
   wavefun   :       8146. kBytes
 
  
  
 General timing and accounting informations for this job:
 ========================================================
  
                  Total CPU time used (sec):     2097.126
                            User time (sec):     2069.729
                          System time (sec):       27.397
                         Elapsed time (sec):     2104.754
  
                   Maximum memory used (kb):      184964.
                   Average memory used (kb):           0.
  
                          Minor page faults:      5116056
                          Major page faults:           10
                 Voluntary context switches:         2937
