 vasp.5.4.4.18Apr17-6-g9f103f2a35 (build Nov 06 2017 19:16:10) complex          
  
 executed on           IFC91_ompi date 2018.07.14  00:04:16
 running on   12 total cores
 distrk:  each k-point on   12 cores,    1 groups
 distr:  one band on NCORES_PER_BAND=   6 cores,    2 groups


--------------------------------------------------------------------------------------------------------


 INCAR:
 POTCAR:    PAW_PBE Si 05Jan2001                  
 POTCAR:    PAW_PBE Ge 05Jan2001                  
 POTCAR:    PAW_PBE H 15Jun2001                   
 POTCAR:    PAW_PBE Si 05Jan2001                  
   VRHFIN =Si: s2p2                                                             
   LEXCH  = PE                                                                  
   EATOM  =   103.0669 eV,    7.5752 Ry                                         
                                                                                
   TITEL  = PAW_PBE Si 05Jan2001                                                
   LULTRA =        F    use ultrasoft PP ?                                      
   IUNSCR =        1    unscreen: 0-lin 1-nonlin 2-no                           
   RPACOR =    1.500    partial core radius                                     
   POMASS =   28.085; ZVAL   =    4.000    mass and valenz                      
   RCORE  =    1.900    outmost cutoff radius                                   
   RWIGS  =    2.480; RWIGS  =    1.312    wigner-seitz radius (au A)           
   ENMAX  =  245.345; ENMIN  =  184.009 eV                                      
   ICORE  =        2    local potential                                         
   LCOR   =        T    correct aug charges                                     
   LPAW   =        T    paw PP                                                  
   EAUG   =  322.069                                                            
   DEXC   =    0.000                                                            
   RMAX   =    1.950    core radius for proj-oper                               
   RAUG   =    1.300    factor for augmentation sphere                          
   RDEP   =    1.993    radius for radial grids                                 
   RDEPT  =    1.837    core radius for aug-charge                              
                                                                                
   Atomic configuration                                                         
    6 entries                                                                   
     n  l   j            E        occ.                                          
     1  0  0.50     -1785.8828   2.0000                                         
     2  0  0.50      -139.4969   2.0000                                         
     2  1  1.50       -95.5546   6.0000                                         
     3  0  0.50       -10.8127   2.0000                                         
     3  1  0.50        -4.0811   2.0000                                         
     3  2  1.50        -4.0817   0.0000                                         
   Description                                                                  
     l       E           TYP  RCUT    TYP  RCUT                                 
     0    -10.8127223     23  1.900                                             
     0     -7.6451159     23  1.900                                             
     1     -4.0811372     23  1.900                                             
     1      2.4879257     23  1.900                                             
     2     -4.0817478      7  1.900                                             
  local pseudopotential read in
  partial core-charges read in
  partial kinetic energy density read in
  atomic valenz-charges read in
  non local Contribution for L=           0  read in
    real space projection operators read in
  non local Contribution for L=           0  read in
    real space projection operators read in
  non local Contribution for L=           1  read in
    real space projection operators read in
  non local Contribution for L=           1  read in
    real space projection operators read in
    PAW grid and wavefunctions read in
 
   number of l-projection  operators is LMAX  =           4
   number of lm-projection operators is LMMAX =           8
 
 POTCAR:    PAW_PBE Ge 05Jan2001                  
   VRHFIN =Ge: s2p2                                                             
   LEXCH  = PE                                                                  
   EATOM  =   104.9960 eV,    7.7170 Ry                                         
                                                                                
   TITEL  = PAW_PBE Ge 05Jan2001                                                
   LULTRA =        F    use ultrasoft PP ?                                      
   IUNSCR =        1    unscreen: 0-lin 1-nonlin 2-no                           
   RPACOR =    2.170    partial core radius                                     
   POMASS =   72.610; ZVAL   =    4.000    mass and valenz                      
   RCORE  =    2.300    outmost cutoff radius                                   
   RWIGS  =    2.300; RWIGS  =    1.217    wigner-seitz radius (au A)           
   ENMAX  =  173.807; ENMIN  =  130.355 eV                                      
   ICORE  =        3    local potential                                         
   LCOR   =        T    correct aug charges                                     
   LPAW   =        T    paw PP                                                  
   EAUG   =  385.843                                                            
   DEXC   =    0.000                                                            
   RMAX   =    2.342    core radius for proj-oper                               
   RAUG   =    1.300    factor for augmentation sphere                          
   RDEP   =    2.318    radius for radial grids                                 
   RDEPT  =    2.103    core radius for aug-charge                              
                                                                                
   Atomic configuration                                                         
   10 entries                                                                   
     n  l   j            E        occ.                                          
     1  0  0.50    -10959.8463   2.0000                                         
     2  0  0.50     -1371.6056   2.0000                                         
     2  1  1.50     -1198.4791   6.0000                                         
     3  0  0.50      -168.4733   2.0000                                         
     3  1  1.50      -115.6019   6.0000                                         
     3  2  2.50       -29.3106  10.0000                                         
     4  0  0.50       -11.7309   2.0000                                         
     4  1  0.50        -3.8952   2.0000                                         
     4  2  1.50        -4.0817   0.0000                                         
     4  3  2.50        -4.0817   0.0000                                         
   Description                                                                  
     l       E           TYP  RCUT    TYP  RCUT                                 
     0    -11.7309493     23  2.300                                             
     0     -7.4578696     23  2.300                                             
     1     -3.8952261     23  2.300                                             
     1      6.1178114     23  2.300                                             
     2     -4.0817478     23  2.300                                             
     3     -1.3605826      7  2.300                                             
  local pseudopotential read in
  partial core-charges read in
  partial kinetic energy density read in
  atomic valenz-charges read in
  non local Contribution for L=           0  read in
    real space projection operators read in
  non local Contribution for L=           0  read in
    real space projection operators read in
  non local Contribution for L=           1  read in
    real space projection operators read in
  non local Contribution for L=           1  read in
    real space projection operators read in
  non local Contribution for L=           2  read in
    real space projection operators read in
    PAW grid and wavefunctions read in
 
   number of l-projection  operators is LMAX  =           5
   number of lm-projection operators is LMMAX =          13
 
 POTCAR:    PAW_PBE H 15Jun2001                   
   VRHFIN =H: ultrasoft test                                                    
   LEXCH  = PE                                                                  
   EATOM  =    12.4884 eV,    0.9179 Ry                                         
                                                                                
   TITEL  = PAW_PBE H 15Jun2001                                                 
   LULTRA =        F    use ultrasoft PP ?                                      
   IUNSCR =        0    unscreen: 0-lin 1-nonlin 2-no                           
   RPACOR =    0.000    partial core radius                                     
   POMASS =    1.000; ZVAL   =    1.000    mass and valenz                      
   RCORE  =    1.100    outmost cutoff radius                                   
   RWIGS  =    0.700; RWIGS  =    0.370    wigner-seitz radius (au A)           
   ENMAX  =  250.000; ENMIN  =  200.000 eV                                      
   RCLOC  =    0.701    cutoff for local pot                                    
   LCOR   =        T    correct aug charges                                     
   LPAW   =        T    paw PP                                                  
   EAUG   =  400.000                                                            
   RMAX   =    1.123    core radius for proj-oper                               
   RAUG   =    1.200    factor for augmentation sphere                          
   RDEP   =    1.112    radius for radial grids                                 
   RDEPT  =    0.926    core radius for aug-charge                              
                                                                                
   Atomic configuration                                                         
    2 entries                                                                   
     n  l   j            E        occ.                                          
     1  0  0.50        -6.4927   1.0000                                         
     2  1  0.50        -3.4015   0.0000                                         
   Description                                                                  
     l       E           TYP  RCUT    TYP  RCUT                                 
     0     -6.4927494     23  1.100                                             
     0      6.8029130     23  1.100                                             
     1     -4.0817478     23  1.100                                             
  local pseudopotential read in
  atomic valenz-charges read in
  non local Contribution for L=           0  read in
    real space projection operators read in
  non local Contribution for L=           0  read in
    real space projection operators read in
  non local Contribution for L=           1  read in
    real space projection operators read in
    PAW grid and wavefunctions read in
 
   number of l-projection  operators is LMAX  =           3
   number of lm-projection operators is LMMAX =           5
 

 ----------------------------------------------------------------------------- 
|                                                                             |
|  ADVICE TO THIS USER RUNNING 'VASP/VAMP'   (HEAR YOUR MASTER'S VOICE ...):  |
|                                                                             |
|      You have a (more or less) 'large supercell' and for larger cells       |
|      it might be more efficient to use real space projection opertators     |
|      So try LREAL= Auto  in the INCAR   file.                               |
|      Mind:          For very  accurate calculation you might also keep the  |
|      reciprocal projection scheme          (i.e. LREAL=.FALSE.)             |
|                                                                             |
 ----------------------------------------------------------------------------- 

  PAW_PBE Si 05Jan2001                  :
 energy of atom  1       EATOM= -103.0669
 kinetic energy error for atom=    0.0012 (will be added to EATOM!!)
  PAW_PBE Ge 05Jan2001                  :
 energy of atom  2       EATOM= -104.9960
 kinetic energy error for atom=    0.0003 (will be added to EATOM!!)
  PAW_PBE H 15Jun2001                   :
 energy of atom  3       EATOM=  -12.4884
 kinetic energy error for atom=    0.0098 (will be added to EATOM!!)
 
 
 POSCAR: SiGeH16                                 
  positions in direct lattice
  No initial velocities read in
 exchange correlation table for  LEXCH =        8
   RHO(1)=    0.500       N(1)  =     2000
   RHO(2)=  100.500       N(2)  =     4000
 


--------------------------------------------------------------------------------------------------------


 ion  position               nearest neighbor table
   1  0.475  0.556  0.385-  18 1.55   4 2.39   2 2.39   3 2.39
   2  0.369  0.539  0.436-  23 1.55  24 1.55   5 2.39   1 2.39
   3  0.542  0.457  0.396-  17 1.55  16 1.55   6 2.39   1 2.39
   4  0.531  0.648  0.437-  25 1.55  26 1.55   7 2.39   1 2.39
   5  0.385  0.515  0.552-  22 1.55  10 2.39   9 2.39   2 2.39
   6  0.557  0.433  0.512-  13 1.55   3 2.39   8 2.39   9 2.39
   7  0.547  0.624  0.554-  19 1.55   4 2.39   8 2.39  10 2.39
   8  0.613  0.525  0.565-  15 1.55  14 1.55   7 2.39   6 2.39
   9  0.451  0.416  0.564-  12 1.55  11 1.55   5 2.39   6 2.39
  10  0.440  0.606  0.605-  20 1.55  21 1.55   5 2.39   7 2.39
  11  0.415  0.357  0.529-   9 1.55
  12  0.461  0.400  0.639-   9 1.55
  13  0.600  0.369  0.520-   6 1.55
  14  0.682  0.536  0.531-   8 1.55
  15  0.623  0.509  0.640-   8 1.55
  16  0.611  0.469  0.363-   3 1.55
  17  0.506  0.398  0.362-   3 1.55
  18  0.465  0.572  0.309-   1 1.55
  19  0.583  0.683  0.588-   7 1.55
  20  0.451  0.590  0.680-  10 1.55
  21  0.397  0.670  0.598-  10 1.55
  22  0.316  0.504  0.586-   5 1.55
  23  0.333  0.479  0.402-   2 1.55
  24  0.326  0.603  0.429-   2 1.55
  25  0.488  0.712  0.430-   4 1.55
  26  0.600  0.659  0.404-   4 1.55
 
  LATTYP: Found a simple cubic cell.
 ALAT       =    20.0000000000
  
  Lattice vectors:
  
 A1 = (  20.0000000000,   0.0000000000,   0.0000000000)
 A2 = (   0.0000000000,  20.0000000000,   0.0000000000)
 A3 = (   0.0000000000,   0.0000000000,  20.0000000000)


Analysis of symmetry for initial positions (statically):
=====================================================================
 Subroutine PRICEL returns:
 Original cell was already a primitive cell.
 

 Routine SETGRP: Setting up the symmetry group for a 
 simple cubic supercell.


 Subroutine GETGRP returns: Found  1 space group operations
 (whereof  1 operations were pure point group operations)
 out of a pool of 48 trial point group operations.


The static configuration has the point symmetry C_1 .


Analysis of symmetry for dynamics (positions and initial velocities):
=====================================================================
 Subroutine PRICEL returns:
 Original cell was already a primitive cell.
 

 Routine SETGRP: Setting up the symmetry group for a 
 simple cubic supercell.


 Subroutine GETGRP returns: Found  1 space group operations
 (whereof  1 operations were pure point group operations)
 out of a pool of 48 trial point group operations.


The dynamic configuration has the point symmetry C_1 .


 Subroutine INISYM returns: Found  1 space group operations
 (whereof  1 operations are pure point group operations),
 and found     1 'primitive' translations

 
 
 KPOINTS: Automatic mesh                          

Automatic generation of k-mesh.
Space group operators:
 irot       det(A)        alpha          n_x          n_y          n_z        tau_x        tau_y        tau_z
    1     1.000000     0.000000     1.000000     0.000000     0.000000     0.000000     0.000000     0.000000
 
 Subroutine IBZKPT returns following result:
 ===========================================
 
 Found      1 irreducible k-points:
 
 Following reciprocal coordinates:
            Coordinates               Weight
  0.000000  0.000000  0.000000      1.000000
 
 Following cartesian coordinates:
            Coordinates               Weight
  0.000000  0.000000  0.000000      1.000000
 


--------------------------------------------------------------------------------------------------------




 Dimension of arrays:
   k-points           NKPTS =      1   k-points in BZ     NKDIM =      1   number of bands    NBANDS=     42
   number of dos      NEDOS =    301   number of ions     NIONS =     26
   non local maximal  LDIM  =      5   non local SUM 2l+1 LMDIM =     13
   total plane-waves  NPLWV = 941192
   max r-space proj   IRMAX =      1   max aug-charges    IRDMAX=   6593
   dimension x,y,z NGX =    98 NGY =   98 NGZ =   98
   dimension x,y,z NGXF=   196 NGYF=  196 NGZF=  196
   support grid    NGXF=   196 NGYF=  196 NGZF=  196
   ions per type =               9   1  16
   NGX,Y,Z   is equivalent  to a cutoff of   8.15,  8.15,  8.15 a.u.
   NGXF,Y,Z  is equivalent  to a cutoff of  16.29, 16.29, 16.29 a.u.

 SYSTEM =  SiGe                                    
 POSCAR =  SiGeH16                                 

 Startparameter for this run:
   NWRITE =      2    write-flag & timer
   PREC   = normal    normal or accurate (medium, high low for compatibility)
   ISTART =      0    job   : 0-new  1-cont  2-samecut
   ICHARG =      2    charge: 1-file 2-atom 10-const
   ISPIN  =      1    spin polarized calculation?
   LNONCOLLINEAR =      F non collinear calculations
   LSORBIT =      F    spin-orbit coupling
   INIWAV =      1    electr: 0-lowe 1-rand  2-diag
   LASPH  =      F    aspherical Exc in radial PAW
   METAGGA=      F    non-selfconsistent MetaGGA calc.

 Electronic Relaxation 1
   ENCUT  =  400.0 eV  29.40 Ry    5.42 a.u.  32.61 32.61 32.61*2*pi/ulx,y,z
   ENINI  =  400.0     initial cutoff
   ENAUG  =  400.0 eV  augmentation charge cutoff
   NELM   =     60;   NELMIN=  2; NELMDL= -5     # of ELM steps 
   EDIFF  = 0.1E-05   stopping-criterion for ELM
   LREAL  =      F    real-space projection
   NLSPLINE    = F    spline interpolate recip. space projectors
   LCOMPAT=      F    compatible to vasp.4.4
   GGA_COMPAT  = T    GGA compatible to vasp.4.4-vasp.4.6
   LMAXPAW     = -100 max onsite density
   LMAXMIX     =    2 max onsite mixed and CHGCAR
   VOSKOWN=      0    Vosko Wilk Nusair interpolation
   ROPT   =    0.00000   0.00000   0.00000
 Ionic relaxation
   EDIFFG = -.2E-01   stopping-criterion for IOM
   NSW    =    200    number of steps for IOM
   NBLOCK =      1;   KBLOCK =    200    inner block; outer block 
   IBRION =      2    ionic relax: 0-MD 1-quasi-New 2-CG
   NFREE  =      1    steps in history (QN), initial steepest desc. (CG)
   ISIF   =      2    stress and relaxation
   IWAVPR =     11    prediction:  0-non 1-charg 2-wave 3-comb
   ISYM   =      2    0-nonsym 1-usesym 2-fastsym
   LCORR  =      T    Harris-Foulkes like correction to forces

   POTIM  = 0.5000    time-step for ionic-motion
   TEIN   =    0.0    initial temperature
   TEBEG  =    0.0;   TEEND  =   0.0 temperature during run
   SMASS  =  -3.00    Nose mass-parameter (am)
   estimated Nose-frequenzy (Omega)   =  0.10E-29 period in steps =****** mass=  -0.914E-26a.u.
   SCALEE = 1.0000    scale energy and forces
   NPACO  =    256;   APACO  = 16.0  distance and # of slots for P.C.
   PSTRESS=    0.0 pullay stress

  Mass of Ions in am
   POMASS =  28.09 72.61  1.00
  Ionic Valenz
   ZVAL   =   4.00  4.00  1.00
  Atomic Wigner-Seitz radii
   RWIGS  =  -1.00 -1.00 -1.00
  virtual crystal weights 
   VCA    =   1.00  1.00  1.00
   NELECT =      56.0000    total number of electrons
   NUPDOWN=      -1.0000    fix difference up-down

 DOS related values:
   EMIN   =  10.00;   EMAX   =-10.00  energy-range for DOS
   EFERMI =   0.00
   ISMEAR =     0;   SIGMA  =   0.20  broadening in eV -4-tet -1-fermi 0-gaus

 Electronic relaxation 2 (details)
   IALGO  =     38    algorithm
   LDIAG  =      T    sub-space diagonalisation (order eigenvalues)
   LSUBROT=      F    optimize rotation matrix (better conditioning)
   TURBO    =      0    0=normal 1=particle mesh
   IRESTART =      0    0=no restart 2=restart with 2 vectors
   NREBOOT  =      0    no. of reboots
   NMIN     =      0    reboot dimension
   EREF     =   0.00    reference energy to select bands
   IMIX   =      4    mixing-type and parameters
     AMIX     =   0.40;   BMIX     =  1.00
     AMIX_MAG =   1.60;   BMIX_MAG =  1.00
     AMIN     =   0.10
     WC   =   100.;   INIMIX=   1;  MIXPRE=   1;  MAXMIX= -45

 Intra band minimization:
   WEIMIN = 0.0010     energy-eigenvalue tresh-hold
   EBREAK =  0.60E-08  absolut break condition
   DEPER  =   0.30     relativ break condition  

   TIME   =   0.40     timestep for ELM

  volume/ion in A,a.u.               =     307.69      2076.41
  Fermi-wavevector in a.u.,A,eV,Ry     =   0.313166  0.591797  1.334361  0.098073
  Thomas-Fermi vector in A             =   1.193276
 
 Write flags
   LWAVE        =      T    write WAVECAR
   LDOWNSAMPLE  =      F    k-point downsampling of WAVECAR
   LCHARG       =      T    write CHGCAR
   LVTOT        =      F    write LOCPOT, total local potential
   LVHAR        =      F    write LOCPOT, Hartree potential only
   LELF         =      F    write electronic localiz. function (ELF)
   LORBIT       =      0    0 simple, 1 ext, 2 COOP (PROOUT), +10 PAW based schemes


 Dipole corrections
   LMONO  =      F    monopole corrections only (constant potential shift)
   LDIPOL =      F    correct potential (dipole corrections)
   IDIPOL =      0    1-x, 2-y, 3-z, 4-all directions 
   EPSILON=  1.0000000 bulk dielectric constant

 Exchange correlation treatment:
   GGA     =    --    GGA type
   LEXCH   =     8    internal setting for exchange type
   VOSKOWN=      0    Vosko Wilk Nusair interpolation
   LHFCALC =     F    Hartree Fock is set to
   LHFONE  =     F    Hartree Fock one center treatment
   AEXX    =    0.0000 exact exchange contribution

 Linear response parameters
   LEPSILON=     F    determine dielectric tensor
   LRPA    =     F    only Hartree local field effects (RPA)
   LNABLA  =     F    use nabla operator in PAW spheres
   LVEL    =     F    velocity operator in full k-point grid
   LINTERFAST=   F  fast interpolation
   KINTER  =     0    interpolate to denser k-point grid
   CSHIFT  =0.1000    complex shift for real part using Kramers Kronig
   OMEGAMAX=  -1.0    maximum frequency
   DEG_THRESHOLD= 0.2000000E-02 threshold for treating states as degnerate
   RTIME   =   -0.100 relaxation time in fs
  (WPLASMAI=    0.000 imaginary part of plasma frequency in eV, 0.658/RTIME)
   DFIELD  = 0.0000000 0.0000000 0.0000000 field for delta impulse in time
 
 Orbital magnetization related:
   ORBITALMAG=     F  switch on orbital magnetization
   LCHIMAG   =     F  perturbation theory with respect to B field
   DQ        =  0.001000  dq finite difference perturbation B field
   LLRAUG    =     F  two centre corrections for induced B field



--------------------------------------------------------------------------------------------------------


 conjugate gradient relaxation of ions
 charge density and potential will be updated during run
 non-spin polarized calculation
 Variant of blocked Davidson
 Davidson routine will perform the subspace rotation
 perform sub-space diagonalisation
    after iterative eigenvector-optimisation
 modified Broyden-mixing scheme, WC =      100.0
 initial mixing is a Kerker type mixing with AMIX =  0.4000 and BMIX =      1.0000
 Hartree-type preconditioning will be used
 using additional bands           14
 reciprocal scheme for non local part
 use partial core corrections
 calculate Harris-corrections to forces 
   (improved forces if not selfconsistent)
 use gradient corrections 
 use of overlap-Matrix (Vanderbilt PP)
 Gauss-broadening in eV      SIGMA  =   0.20


--------------------------------------------------------------------------------------------------------


  energy-cutoff  :      400.00
  volume of cell :     8000.00
      direct lattice vectors                 reciprocal lattice vectors
    20.000000000  0.000000000  0.000000000     0.050000000  0.000000000  0.000000000
     0.000000000 20.000000000  0.000000000     0.000000000  0.050000000  0.000000000
     0.000000000  0.000000000 20.000000000     0.000000000  0.000000000  0.050000000

  length of vectors
    20.000000000 20.000000000 20.000000000     0.050000000  0.050000000  0.050000000


 
 k-points in units of 2pi/SCALE and weight: Automatic mesh                          
   0.00000000  0.00000000  0.00000000       1.000
 
 k-points in reciprocal lattice and weights: Automatic mesh                          
   0.00000000  0.00000000  0.00000000       1.000
 
 position of ions in fractional coordinates (direct lattice) 
   0.47547100  0.55626000  0.38465300
   0.36907800  0.53906000  0.43641200
   0.54179100  0.45744600  0.39613600
   0.53111600  0.64794100  0.43749600
   0.38461900  0.51474100  0.55243500
   0.55736800  0.43311000  0.51215000
   0.54669200  0.62364400  0.55351800
   0.61299700  0.52481700  0.56496600
   0.45095700  0.41593600  0.56388300
   0.44028400  0.60643000  0.60524300
   0.41490100  0.35665000  0.52940300
   0.46117000  0.40042600  0.63910800
   0.60034800  0.36907000  0.51957800
   0.68182700  0.53600700  0.53118700
   0.62280400  0.50903400  0.64018900
   0.61080000  0.46880600  0.36278200
   0.50550800  0.39805500  0.36207700
   0.46538400  0.57201900  0.30946400
   0.58275500  0.68306700  0.58775000
   0.45052500  0.59044300  0.68036400
   0.39732000  0.67044900  0.59753500
   0.31566200  0.50359800  0.58596500
   0.33322800  0.47946500  0.40225200
   0.32629100  0.60324700  0.42912600
   0.48792300  0.71185500  0.43020800
   0.60015100  0.65882400  0.40403700
 
 position of ions in cartesian coordinates  (Angst):
   9.50942000 11.12520000  7.69306000
   7.38156000 10.78120000  8.72824000
  10.83582000  9.14892000  7.92272000
  10.62232000 12.95882000  8.74992000
   7.69238000 10.29482000 11.04870000
  11.14736000  8.66220000 10.24300000
  10.93384000 12.47288000 11.07036000
  12.25994000 10.49634000 11.29932000
   9.01914000  8.31872000 11.27766000
   8.80568000 12.12860000 12.10486000
   8.29802000  7.13300000 10.58806000
   9.22340000  8.00852000 12.78216000
  12.00696000  7.38140000 10.39156000
  13.63654000 10.72014000 10.62374000
  12.45608000 10.18068000 12.80378000
  12.21600000  9.37612000  7.25564000
  10.11016000  7.96110000  7.24154000
   9.30768000 11.44038000  6.18928000
  11.65510000 13.66134000 11.75500000
   9.01050000 11.80886000 13.60728000
   7.94640000 13.40898000 11.95070000
   6.31324000 10.07196000 11.71930000
   6.66456000  9.58930000  8.04504000
   6.52582000 12.06494000  8.58252000
   9.75846000 14.23710000  8.60416000
  12.00302000 13.17648000  8.08074000
 


--------------------------------------------------------------------------------------------------------


 k-point  1 :   0.0000 0.0000 0.0000  plane waves:  145165

 maximum and minimum number of plane-waves per node :     24209    24180

 maximum number of plane-waves:    145165
 maximum index in each direction: 
   IXMAX=   32   IYMAX=   32   IZMAX=   32
   IXMIN=  -32   IYMIN=  -32   IZMIN=  -32


 parallel 3D FFT for wavefunctions:
    minimum data exchange during FFTs selected (reduces bandwidth)
 parallel 3D FFT for charge:
    minimum data exchange during FFTs selected (reduces bandwidth)


 total amount of memory used by VASP MPI-rank0   131439. kBytes
=======================================================================

   base      :      30000. kBytes
   nonl-proj :      17624. kBytes
   fftplans  :      26957. kBytes
   grid      :      48673. kBytes
   one-center:         40. kBytes
   wavefun   :       8145. kBytes
 
     INWAV:  cpu time    0.0000: real time    0.0000
 Broyden mixing: mesh for mixing (old mesh)
   NGX = 65   NGY = 65   NGZ = 65
  (NGX  =196   NGY  =196   NGZ  =196)
  gives a total of 274625 points

 initial charge density was supplied:
 charge density of overlapping atoms calculated
 number of electron      56.0000000 magnetization 
 keeping initial charge density in first step


--------------------------------------------------------------------------------------------------------


 Maximum index for augmentation-charges          504 (set IRDMAX)


--------------------------------------------------------------------------------------------------------


 First call to EWALD:  gamma=   0.089
 Maximum number of real-space cells 3x 3x 3
 Maximum number of reciprocal cells 3x 3x 3

    FEWALD:  cpu time    0.0030: real time    0.0031


--------------------------------------- Iteration      1(   1)  ---------------------------------------


    POTLOK:  cpu time    1.7797: real time    1.7802
    SETDIJ:  cpu time    0.0070: real time    0.0071
     EDDAV:  cpu time    9.8095: real time    9.8073
       DOS:  cpu time    0.0010: real time    0.0003
    --------------------------------------------
      LOOP:  cpu time   11.5972: real time   11.5950

 eigenvalue-minimisations  :   116
 total energy-change (2. order) : 0.1924483E+03  (-0.1051801E+04)
 number of electron      56.0000000 magnetization 
 augmentation part       56.0000000 magnetization 

 Free energy of the ion-electron system (eV)
  ---------------------------------------------------
  alpha Z        PSCENC =         1.13752662
  Ewald energy   TEWEN  =      2629.98113996
  -Hartree energ DENC   =     -3445.53295982
  -exchange      EXHF   =         0.00000000
  -V(xc)+E(xc)   XCENC  =       -59.07316041
  PAW double counting   =       915.40383071     -742.71876868
  entropy T*S    EENTRO =        -0.43459268
  eigenvalues    EBANDS =      -338.56020843
  atomic energy  EATOM  =      1232.24550866
  Solvation  Ediel_sol  =         0.00000000
  ---------------------------------------------------
  free energy    TOTEN  =       192.44831594 eV

  energy without entropy =      192.88290862  energy(sigma->0) =      192.66561228


--------------------------------------------------------------------------------------------------------




--------------------------------------- Iteration      1(   2)  ---------------------------------------


     EDDAV:  cpu time   11.1633: real time   11.1605
       DOS:  cpu time    0.0000: real time    0.0002
    --------------------------------------------
      LOOP:  cpu time   11.1633: real time   11.1607

 eigenvalue-minimisations  :   136
 total energy-change (2. order) :-0.2255981E+03  (-0.2107873E+03)
 number of electron      56.0000000 magnetization 
 augmentation part       56.0000000 magnetization 

 Free energy of the ion-electron system (eV)
  ---------------------------------------------------
  alpha Z        PSCENC =         1.13752662
  Ewald energy   TEWEN  =      2629.98113996
  -Hartree energ DENC   =     -3445.53295982
  -exchange      EXHF   =         0.00000000
  -V(xc)+E(xc)   XCENC  =       -59.07316041
  PAW double counting   =       915.40383071     -742.71876868
  entropy T*S    EENTRO =        -0.00000000
  eigenvalues    EBANDS =      -564.59295093
  atomic energy  EATOM  =      1232.24550866
  Solvation  Ediel_sol  =         0.00000000
  ---------------------------------------------------
  free energy    TOTEN  =       -33.14983388 eV

  energy without entropy =      -33.14983388  energy(sigma->0) =      -33.14983388


--------------------------------------------------------------------------------------------------------




--------------------------------------- Iteration      1(   3)  ---------------------------------------


     EDDAV:  cpu time    9.5326: real time    9.5291
       DOS:  cpu time    0.0010: real time    0.0003
    --------------------------------------------
      LOOP:  cpu time    9.5336: real time    9.5293

 eigenvalue-minimisations  :   112
 total energy-change (2. order) :-0.7336219E+02  (-0.7318599E+02)
 number of electron      56.0000000 magnetization 
 augmentation part       56.0000000 magnetization 

 Free energy of the ion-electron system (eV)
  ---------------------------------------------------
  alpha Z        PSCENC =         1.13752662
  Ewald energy   TEWEN  =      2629.98113996
  -Hartree energ DENC   =     -3445.53295982
  -exchange      EXHF   =         0.00000000
  -V(xc)+E(xc)   XCENC  =       -59.07316041
  PAW double counting   =       915.40383071     -742.71876868
  entropy T*S    EENTRO =        -0.00000000
  eigenvalues    EBANDS =      -637.95514552
  atomic energy  EATOM  =      1232.24550866
  Solvation  Ediel_sol  =         0.00000000
  ---------------------------------------------------
  free energy    TOTEN  =      -106.51202847 eV

  energy without entropy =     -106.51202847  energy(sigma->0) =     -106.51202847


--------------------------------------------------------------------------------------------------------




--------------------------------------- Iteration      1(   4)  ---------------------------------------


     EDDAV:  cpu time    9.5565: real time    9.5534
       DOS:  cpu time    0.0000: real time    0.0003
    --------------------------------------------
      LOOP:  cpu time    9.5565: real time    9.5536

 eigenvalue-minimisations  :   112
 total energy-change (2. order) :-0.4161904E+01  (-0.4145472E+01)
 number of electron      56.0000000 magnetization 
 augmentation part       56.0000000 magnetization 

 Free energy of the ion-electron system (eV)
  ---------------------------------------------------
  alpha Z        PSCENC =         1.13752662
  Ewald energy   TEWEN  =      2629.98113996
  -Hartree energ DENC   =     -3445.53295982
  -exchange      EXHF   =         0.00000000
  -V(xc)+E(xc)   XCENC  =       -59.07316041
  PAW double counting   =       915.40383071     -742.71876868
  entropy T*S    EENTRO =        -0.00000000
  eigenvalues    EBANDS =      -642.11704914
  atomic energy  EATOM  =      1232.24550866
  Solvation  Ediel_sol  =         0.00000000
  ---------------------------------------------------
  free energy    TOTEN  =      -110.67393209 eV

  energy without entropy =     -110.67393209  energy(sigma->0) =     -110.67393209


--------------------------------------------------------------------------------------------------------




--------------------------------------- Iteration      1(   5)  ---------------------------------------


     EDDAV:  cpu time   10.6684: real time   10.6645
       DOS:  cpu time    0.0000: real time    0.0003
    CHARGE:  cpu time    0.4839: real time    0.4841
    MIXING:  cpu time    0.0420: real time    0.0420
    --------------------------------------------
      LOOP:  cpu time   11.1943: real time   11.1909

 eigenvalue-minimisations  :   128
 total energy-change (2. order) :-0.9712017E-01  (-0.9705784E-01)
 number of electron      56.0000023 magnetization 
 augmentation part       -2.3325336 magnetization 

 Broyden mixing:
  rms(total) = 0.15791E+01    rms(broyden)= 0.15790E+01
  rms(prec ) = 0.16755E+01
  weight for this iteration     100.00

 Free energy of the ion-electron system (eV)
  ---------------------------------------------------
  alpha Z        PSCENC =         1.13752662
  Ewald energy   TEWEN  =      2629.98113996
  -Hartree energ DENC   =     -3445.53295982
  -exchange      EXHF   =         0.00000000
  -V(xc)+E(xc)   XCENC  =       -59.07316041
  PAW double counting   =       915.40383071     -742.71876868
  entropy T*S    EENTRO =        -0.00000000
  eigenvalues    EBANDS =      -642.21416931
  atomic energy  EATOM  =      1232.24550866
  Solvation  Ediel_sol  =         0.00000000
  ---------------------------------------------------
  free energy    TOTEN  =      -110.77105226 eV

  energy without entropy =     -110.77105226  energy(sigma->0) =     -110.77105226


--------------------------------------------------------------------------------------------------------




--------------------------------------- Iteration      1(   6)  ---------------------------------------


    POTLOK:  cpu time    1.7097: real time    1.7091
    SETDIJ:  cpu time    0.0070: real time    0.0073
     EDDAV:  cpu time    9.0496: real time    9.0454
       DOS:  cpu time    0.0000: real time    0.0003
    CHARGE:  cpu time    0.4929: real time    0.4931
    MIXING:  cpu time    0.0450: real time    0.0445
    --------------------------------------------
      LOOP:  cpu time   11.3043: real time   11.2998

 eigenvalue-minimisations  :   104
 total energy-change (2. order) : 0.3316836E+01  (-0.1616177E+00)
 number of electron      56.0000022 magnetization 
 augmentation part       -2.3349261 magnetization 

 Broyden mixing:
  rms(total) = 0.92195E+00    rms(broyden)= 0.92195E+00
  rms(prec ) = 0.98030E+00
  weight for this iteration     100.00

 eigenvalues of (default mixing * dielectric matrix)
  average eigenvalue GAMMA=   2.3303
  2.3303

 Free energy of the ion-electron system (eV)
  ---------------------------------------------------
  alpha Z        PSCENC =         1.13752662
  Ewald energy   TEWEN  =      2629.98113996
  -Hartree energ DENC   =     -3477.69325550
  -exchange      EXHF   =         0.00000000
  -V(xc)+E(xc)   XCENC  =       -55.42827045
  PAW double counting   =      1977.29055442    -1805.21922469
  entropy T*S    EENTRO =        -0.00000000
  eigenvalues    EBANDS =      -609.76819549
  atomic energy  EATOM  =      1232.24550866
  Solvation  Ediel_sol  =         0.00000000
  ---------------------------------------------------
  free energy    TOTEN  =      -107.45421646 eV

  energy without entropy =     -107.45421646  energy(sigma->0) =     -107.45421646


--------------------------------------------------------------------------------------------------------




--------------------------------------- Iteration      1(   7)  ---------------------------------------


    POTLOK:  cpu time    1.9357: real time    1.9391
    SETDIJ:  cpu time    0.0070: real time    0.0072
     EDDAV:  cpu time    9.4416: real time    9.4377
       DOS:  cpu time    0.0000: real time    0.0003
    CHARGE:  cpu time    0.4819: real time    0.4818
    MIXING:  cpu time    0.0460: real time    0.0460
    --------------------------------------------
      LOOP:  cpu time   11.9122: real time   11.9122

 eigenvalue-minimisations  :   110
 total energy-change (2. order) : 0.1753819E+01  (-0.4287329E+00)
 number of electron      56.0000020 magnetization 
 augmentation part       -2.3363278 magnetization 

 Broyden mixing:
  rms(total) = 0.12456E+00    rms(broyden)= 0.12440E+00
  rms(prec ) = 0.15523E+00
  weight for this iteration     100.00

 eigenvalues of (default mixing * dielectric matrix)
  average eigenvalue GAMMA=   1.8267
  1.6184  2.0349

 Free energy of the ion-electron system (eV)
  ---------------------------------------------------
  alpha Z        PSCENC =         1.13752662
  Ewald energy   TEWEN  =      2629.98113996
  -Hartree energ DENC   =     -3535.57962664
  -exchange      EXHF   =         0.00000000
  -V(xc)+E(xc)   XCENC  =       -49.56966477
  PAW double counting   =      4430.13413662    -4258.90482714
  entropy T*S    EENTRO =        -0.00000000
  eigenvalues    EBANDS =      -555.14459115
  atomic energy  EATOM  =      1232.24550866
  Solvation  Ediel_sol  =         0.00000000
  ---------------------------------------------------
  free energy    TOTEN  =      -105.70039783 eV

  energy without entropy =     -105.70039783  energy(sigma->0) =     -105.70039783


--------------------------------------------------------------------------------------------------------




--------------------------------------- Iteration      1(   8)  ---------------------------------------


    POTLOK:  cpu time    1.7177: real time    1.7173
    SETDIJ:  cpu time    0.0080: real time    0.0075
     EDDAV:  cpu time    9.0356: real time    9.0332
       DOS:  cpu time    0.0000: real time    0.0003
    CHARGE:  cpu time    0.4889: real time    0.4878
    MIXING:  cpu time    0.0480: real time    0.0482
    --------------------------------------------
      LOOP:  cpu time   11.2983: real time   11.2943

 eigenvalue-minimisations  :   104
 total energy-change (2. order) : 0.4758696E-01  (-0.2702914E-01)
 number of electron      56.0000020 magnetization 
 augmentation part       -2.3346822 magnetization 

 Broyden mixing:
  rms(total) = 0.64072E-01    rms(broyden)= 0.64058E-01
  rms(prec ) = 0.83319E-01
  weight for this iteration     100.00

 eigenvalues of (default mixing * dielectric matrix)
  average eigenvalue GAMMA=   1.9953
  2.6349  1.6754  1.6754

 Free energy of the ion-electron system (eV)
  ---------------------------------------------------
  alpha Z        PSCENC =         1.13752662
  Ewald energy   TEWEN  =      2629.98113996
  -Hartree energ DENC   =     -3542.64482357
  -exchange      EXHF   =         0.00000000
  -V(xc)+E(xc)   XCENC  =       -49.67642471
  PAW double counting   =      4425.36108317    -4254.03611182
  entropy T*S    EENTRO =        -0.00000000
  eigenvalues    EBANDS =      -548.02070918
  atomic energy  EATOM  =      1232.24550866
  Solvation  Ediel_sol  =         0.00000000
  ---------------------------------------------------
  free energy    TOTEN  =      -105.65281087 eV

  energy without entropy =     -105.65281087  energy(sigma->0) =     -105.65281087


--------------------------------------------------------------------------------------------------------




--------------------------------------- Iteration      1(   9)  ---------------------------------------


    POTLOK:  cpu time    1.7247: real time    1.7245
    SETDIJ:  cpu time    0.0070: real time    0.0076
     EDDAV:  cpu time   10.6354: real time   10.6303
       DOS:  cpu time    0.0000: real time    0.0004
    CHARGE:  cpu time    0.4899: real time    0.4895
    MIXING:  cpu time    0.0510: real time    0.0513
    --------------------------------------------
      LOOP:  cpu time   12.9080: real time   12.9035

 eigenvalue-minimisations  :   128
 total energy-change (2. order) : 0.3526019E-01  (-0.7899054E-02)
 number of electron      56.0000020 magnetization 
 augmentation part       -2.3264155 magnetization 

 Broyden mixing:
  rms(total) = 0.37383E-01    rms(broyden)= 0.37382E-01
  rms(prec ) = 0.48190E-01
  weight for this iteration     100.00

 eigenvalues of (default mixing * dielectric matrix)
  average eigenvalue GAMMA=   1.7294
  2.4746  1.8408  1.8408  0.7615

 Free energy of the ion-electron system (eV)
  ---------------------------------------------------
  alpha Z        PSCENC =         1.13752662
  Ewald energy   TEWEN  =      2629.98113996
  -Hartree energ DENC   =     -3554.60642501
  -exchange      EXHF   =         0.00000000
  -V(xc)+E(xc)   XCENC  =       -49.00505530
  PAW double counting   =      4550.06514967    -4378.74798124
  entropy T*S    EENTRO =        -0.00000000
  eigenvalues    EBANDS =      -536.68741404
  atomic energy  EATOM  =      1232.24550866
  Solvation  Ediel_sol  =         0.00000000
  ---------------------------------------------------
  free energy    TOTEN  =      -105.61755068 eV

  energy without entropy =     -105.61755068  energy(sigma->0) =     -105.61755068


--------------------------------------------------------------------------------------------------------




--------------------------------------- Iteration      1(  10)  ---------------------------------------


    POTLOK:  cpu time    1.7327: real time    1.7321
    SETDIJ:  cpu time    0.0070: real time    0.0074
     EDDAV:  cpu time    9.5895: real time    9.5855
       DOS:  cpu time    0.0000: real time    0.0003
    CHARGE:  cpu time    0.4859: real time    0.4859
    MIXING:  cpu time    0.0560: real time    0.0558
    --------------------------------------------
      LOOP:  cpu time   11.8712: real time   11.8669

 eigenvalue-minimisations  :   112
 total energy-change (2. order) :-0.4238230E-03  (-0.3439286E-03)
 number of electron      56.0000020 magnetization 
 augmentation part       -2.3258848 magnetization 

 Broyden mixing:
  rms(total) = 0.17820E-01    rms(broyden)= 0.17820E-01
  rms(prec ) = 0.30515E-01
  weight for this iteration     100.00

 eigenvalues of (default mixing * dielectric matrix)
  average eigenvalue GAMMA=   1.8884
  2.7324  1.0563  2.2123  1.7205  1.7205

 Free energy of the ion-electron system (eV)
  ---------------------------------------------------
  alpha Z        PSCENC =         1.13752662
  Ewald energy   TEWEN  =      2629.98113996
  -Hartree energ DENC   =     -3556.44865262
  -exchange      EXHF   =         0.00000000
  -V(xc)+E(xc)   XCENC  =       -49.02648790
  PAW double counting   =      4448.66785110    -4277.30618578
  entropy T*S    EENTRO =        -0.00000000
  eigenvalues    EBANDS =      -534.86867456
  atomic energy  EATOM  =      1232.24550866
  Solvation  Ediel_sol  =         0.00000000
  ---------------------------------------------------
  free energy    TOTEN  =      -105.61797451 eV

  energy without entropy =     -105.61797451  energy(sigma->0) =     -105.61797451


--------------------------------------------------------------------------------------------------------




--------------------------------------- Iteration      1(  11)  ---------------------------------------


    POTLOK:  cpu time    1.7407: real time    1.7404
    SETDIJ:  cpu time    0.0080: real time    0.0073
     EDDAV:  cpu time    9.0266: real time    9.0238
       DOS:  cpu time    0.0010: real time    0.0004
    CHARGE:  cpu time    0.4829: real time    0.4835
    MIXING:  cpu time    0.0560: real time    0.0561
    --------------------------------------------
      LOOP:  cpu time   11.3153: real time   11.3115

 eigenvalue-minimisations  :   104
 total energy-change (2. order) : 0.4850607E-03  (-0.7494620E-03)
 number of electron      56.0000020 magnetization 
 augmentation part       -2.3254015 magnetization 

 Broyden mixing:
  rms(total) = 0.80016E-02    rms(broyden)= 0.80013E-02
  rms(prec ) = 0.14411E-01
  weight for this iteration     100.00

 eigenvalues of (default mixing * dielectric matrix)
  average eigenvalue GAMMA=   1.8427
  3.1560  2.4990  1.7560  1.7560  1.0419  0.8471

 Free energy of the ion-electron system (eV)
  ---------------------------------------------------
  alpha Z        PSCENC =         1.13752662
  Ewald energy   TEWEN  =      2629.98113996
  -Hartree energ DENC   =     -3563.70371812
  -exchange      EXHF   =         0.00000000
  -V(xc)+E(xc)   XCENC  =       -48.82268025
  PAW double counting   =      4388.01176148    -4216.60201578
  entropy T*S    EENTRO =        -0.00000000
  eigenvalues    EBANDS =      -527.86501201
  atomic energy  EATOM  =      1232.24550866
  Solvation  Ediel_sol  =         0.00000000
  ---------------------------------------------------
  free energy    TOTEN  =      -105.61748945 eV

  energy without entropy =     -105.61748945  energy(sigma->0) =     -105.61748945


--------------------------------------------------------------------------------------------------------




--------------------------------------- Iteration      1(  12)  ---------------------------------------


    POTLOK:  cpu time    1.7437: real time    1.7427
    SETDIJ:  cpu time    0.0080: real time    0.0076
     EDDAV:  cpu time    9.0446: real time    9.0423
       DOS:  cpu time    0.0000: real time    0.0004
    CHARGE:  cpu time    0.4829: real time    0.4830
    MIXING:  cpu time    0.0600: real time    0.0593
    --------------------------------------------
      LOOP:  cpu time   11.3393: real time   11.3354

 eigenvalue-minimisations  :   104
 total energy-change (2. order) :-0.3207798E-02  (-0.7232383E-04)
 number of electron      56.0000020 magnetization 
 augmentation part       -2.3252680 magnetization 

 Broyden mixing:
  rms(total) = 0.59251E-02    rms(broyden)= 0.59250E-02
  rms(prec ) = 0.10752E-01
  weight for this iteration     100.00

 eigenvalues of (default mixing * dielectric matrix)
  average eigenvalue GAMMA=   2.0199
  4.3024  2.5925  2.1748  1.5976  1.5976  0.9374  0.9374

 Free energy of the ion-electron system (eV)
  ---------------------------------------------------
  alpha Z        PSCENC =         1.13752662
  Ewald energy   TEWEN  =      2629.98113996
  -Hartree energ DENC   =     -3565.45353618
  -exchange      EXHF   =         0.00000000
  -V(xc)+E(xc)   XCENC  =       -48.79212050
  PAW double counting   =      4382.17179655    -4210.76003196
  entropy T*S    EENTRO =        -0.00000000
  eigenvalues    EBANDS =      -526.15098041
  atomic energy  EATOM  =      1232.24550866
  Solvation  Ediel_sol  =         0.00000000
  ---------------------------------------------------
  free energy    TOTEN  =      -105.62069724 eV

  energy without entropy =     -105.62069724  energy(sigma->0) =     -105.62069724


--------------------------------------------------------------------------------------------------------




--------------------------------------- Iteration      1(  13)  ---------------------------------------


    POTLOK:  cpu time    1.7647: real time    1.7675
    SETDIJ:  cpu time    0.0100: real time    0.0098
     EDDAV:  cpu time    9.0416: real time    9.0390
       DOS:  cpu time    0.0000: real time    0.0004
    CHARGE:  cpu time    0.4869: real time    0.4852
    MIXING:  cpu time    0.0650: real time    0.0649
    --------------------------------------------
      LOOP:  cpu time   11.3683: real time   11.3667

 eigenvalue-minimisations  :   104
 total energy-change (2. order) :-0.5185059E-02  (-0.2169458E-03)
 number of electron      56.0000020 magnetization 
 augmentation part       -2.3250424 magnetization 

 Broyden mixing:
  rms(total) = 0.37268E-02    rms(broyden)= 0.37267E-02
  rms(prec ) = 0.54844E-02
  weight for this iteration     100.00

 eigenvalues of (default mixing * dielectric matrix)
  average eigenvalue GAMMA=   2.1703
  5.6756  2.7930  2.4913  1.7691  1.7691  1.0247  0.9196  0.9196

 Free energy of the ion-electron system (eV)
  ---------------------------------------------------
  alpha Z        PSCENC =         1.13752662
  Ewald energy   TEWEN  =      2629.98113996
  -Hartree energ DENC   =     -3568.63094202
  -exchange      EXHF   =         0.00000000
  -V(xc)+E(xc)   XCENC  =       -48.73990698
  PAW double counting   =      4383.31705853    -4211.91105679
  entropy T*S    EENTRO =        -0.00000000
  eigenvalues    EBANDS =      -523.02521029
  atomic energy  EATOM  =      1232.24550866
  Solvation  Ediel_sol  =         0.00000000
  ---------------------------------------------------
  free energy    TOTEN  =      -105.62588230 eV

  energy without entropy =     -105.62588230  energy(sigma->0) =     -105.62588230


--------------------------------------------------------------------------------------------------------




--------------------------------------- Iteration      1(  14)  ---------------------------------------


    POTLOK:  cpu time    1.7377: real time    1.7388
    SETDIJ:  cpu time    0.0080: real time    0.0074
     EDDAV:  cpu time    9.5745: real time    9.5761
       DOS:  cpu time    0.0000: real time    0.0003
    CHARGE:  cpu time    0.4799: real time    0.4801
    MIXING:  cpu time    0.0710: real time    0.0707
    --------------------------------------------
      LOOP:  cpu time   11.8712: real time   11.8734

 eigenvalue-minimisations  :   112
 total energy-change (2. order) :-0.3779435E-02  (-0.3380616E-04)
 number of electron      56.0000020 magnetization 
 augmentation part       -2.3246656 magnetization 

 Broyden mixing:
  rms(total) = 0.17594E-02    rms(broyden)= 0.17594E-02
  rms(prec ) = 0.29869E-02
  weight for this iteration     100.00

 eigenvalues of (default mixing * dielectric matrix)
  average eigenvalue GAMMA=   2.3351
  6.6488  2.9660  2.9660  2.1742  1.6701  1.6701  1.0780  0.9214  0.9214

 Free energy of the ion-electron system (eV)
  ---------------------------------------------------
  alpha Z        PSCENC =         1.13752662
  Ewald energy   TEWEN  =      2629.98113996
  -Hartree energ DENC   =     -3569.51570793
  -exchange      EXHF   =         0.00000000
  -V(xc)+E(xc)   XCENC  =       -48.73976563
  PAW double counting   =      4387.27657230    -4215.87448358
  entropy T*S    EENTRO =        -0.00000000
  eigenvalues    EBANDS =      -522.14045215
  atomic energy  EATOM  =      1232.24550866
  Solvation  Ediel_sol  =         0.00000000
  ---------------------------------------------------
  free energy    TOTEN  =      -105.62966174 eV

  energy without entropy =     -105.62966174  energy(sigma->0) =     -105.62966174


--------------------------------------------------------------------------------------------------------




--------------------------------------- Iteration      1(  15)  ---------------------------------------


    POTLOK:  cpu time    1.7387: real time    1.7380
    SETDIJ:  cpu time    0.0070: real time    0.0072
     EDDAV:  cpu time    9.5665: real time    9.5635
       DOS:  cpu time    0.0000: real time    0.0004
    CHARGE:  cpu time    0.4839: real time    0.4826
    MIXING:  cpu time    0.0760: real time    0.0769
    --------------------------------------------
      LOOP:  cpu time   11.8732: real time   11.8686

 eigenvalue-minimisations  :   112
 total energy-change (2. order) :-0.5330668E-02  (-0.7675098E-04)
 number of electron      56.0000020 magnetization 
 augmentation part       -2.3244955 magnetization 

 Broyden mixing:
  rms(total) = 0.19960E-02    rms(broyden)= 0.19960E-02
  rms(prec ) = 0.23494E-02
  weight for this iteration     100.00

 eigenvalues of (default mixing * dielectric matrix)
  average eigenvalue GAMMA=   2.2942
  6.7950  3.7898  2.6027  2.2307  1.8022  1.8022  1.1314  0.9359  0.9359  0.9163

 Free energy of the ion-electron system (eV)
  ---------------------------------------------------
  alpha Z        PSCENC =         1.13752662
  Ewald energy   TEWEN  =      2629.98113996
  -Hartree energ DENC   =     -3569.72008000
  -exchange      EXHF   =         0.00000000
  -V(xc)+E(xc)   XCENC  =       -48.75665179
  PAW double counting   =      4392.95154498    -4221.54807336
  entropy T*S    EENTRO =        -0.00000000
  eigenvalues    EBANDS =      -521.92590748
  atomic energy  EATOM  =      1232.24550866
  Solvation  Ediel_sol  =         0.00000000
  ---------------------------------------------------
  free energy    TOTEN  =      -105.63499241 eV

  energy without entropy =     -105.63499241  energy(sigma->0) =     -105.63499241


--------------------------------------------------------------------------------------------------------




--------------------------------------- Iteration      1(  16)  ---------------------------------------


    POTLOK:  cpu time    1.7407: real time    1.7397
    SETDIJ:  cpu time    0.0070: real time    0.0072
     EDDAV:  cpu time    9.5985: real time    9.5952
       DOS:  cpu time    0.0000: real time    0.0004
    CHARGE:  cpu time    0.4859: real time    0.4851
    MIXING:  cpu time    0.0860: real time    0.0860
    --------------------------------------------
      LOOP:  cpu time   11.9172: real time   11.9137

 eigenvalue-minimisations  :   112
 total energy-change (2. order) :-0.7167413E-03  (-0.3092399E-05)
 number of electron      56.0000020 magnetization 
 augmentation part       -2.3245995 magnetization 

 Broyden mixing:
  rms(total) = 0.96087E-03    rms(broyden)= 0.96086E-03
  rms(prec ) = 0.12406E-02
  weight for this iteration     100.00

 eigenvalues of (default mixing * dielectric matrix)
  average eigenvalue GAMMA=   2.4235
  7.4480  4.7157  2.6252  2.6252  1.8350  1.8350  1.3720  1.3720  0.9836  0.9233
  0.9233

 Free energy of the ion-electron system (eV)
  ---------------------------------------------------
  alpha Z        PSCENC =         1.13752662
  Ewald energy   TEWEN  =      2629.98113996
  -Hartree energ DENC   =     -3569.82408779
  -exchange      EXHF   =         0.00000000
  -V(xc)+E(xc)   XCENC  =       -48.75422347
  PAW double counting   =      4391.99677950    -4220.59193136
  entropy T*S    EENTRO =        -0.00000000
  eigenvalues    EBANDS =      -521.82642127
  atomic energy  EATOM  =      1232.24550866
  Solvation  Ediel_sol  =         0.00000000
  ---------------------------------------------------
  free energy    TOTEN  =      -105.63570915 eV

  energy without entropy =     -105.63570915  energy(sigma->0) =     -105.63570915


--------------------------------------------------------------------------------------------------------




--------------------------------------- Iteration      1(  17)  ---------------------------------------


    POTLOK:  cpu time    1.7267: real time    1.7264
    SETDIJ:  cpu time    0.0140: real time    0.0147
     EDDAV:  cpu time    8.8387: real time    8.8348
       DOS:  cpu time    0.0000: real time    0.0004
    CHARGE:  cpu time    0.4889: real time    0.4884
    MIXING:  cpu time    0.0960: real time    0.0966
    --------------------------------------------
      LOOP:  cpu time   11.1653: real time   11.1613

 eigenvalue-minimisations  :   102
 total energy-change (2. order) :-0.1112385E-02  (-0.1038231E-04)
 number of electron      56.0000020 magnetization 
 augmentation part       -2.3247701 magnetization 

 Broyden mixing:
  rms(total) = 0.33976E-03    rms(broyden)= 0.33970E-03
  rms(prec ) = 0.48182E-03
  weight for this iteration     100.00

 eigenvalues of (default mixing * dielectric matrix)
  average eigenvalue GAMMA=   2.3420
  7.4968  4.9739  2.6922  2.6922  1.8750  1.8750  1.4418  1.4418  0.9436  0.9436
  0.9153  0.8126

 Free energy of the ion-electron system (eV)
  ---------------------------------------------------
  alpha Z        PSCENC =         1.13752662
  Ewald energy   TEWEN  =      2629.98113996
  -Hartree energ DENC   =     -3569.87320384
  -exchange      EXHF   =         0.00000000
  -V(xc)+E(xc)   XCENC  =       -48.75386476
  PAW double counting   =      4390.33074514    -4218.92490315
  entropy T*S    EENTRO =        -0.00000000
  eigenvalues    EBANDS =      -521.77977017
  atomic energy  EATOM  =      1232.24550866
  Solvation  Ediel_sol  =         0.00000000
  ---------------------------------------------------
  free energy    TOTEN  =      -105.63682153 eV

  energy without entropy =     -105.63682153  energy(sigma->0) =     -105.63682153


--------------------------------------------------------------------------------------------------------




--------------------------------------- Iteration      1(  18)  ---------------------------------------


    POTLOK:  cpu time    1.7287: real time    1.7272
    SETDIJ:  cpu time    0.0070: real time    0.0074
     EDDAV:  cpu time    9.6065: real time    9.6030
       DOS:  cpu time    0.0000: real time    0.0003
    CHARGE:  cpu time    0.4849: real time    0.4843
    MIXING:  cpu time    0.1080: real time    0.1079
    --------------------------------------------
      LOOP:  cpu time   11.9342: real time   11.9302

 eigenvalue-minimisations  :   112
 total energy-change (2. order) :-0.1739738E-03  (-0.5342429E-06)
 number of electron      56.0000020 magnetization 
 augmentation part       -2.3247914 magnetization 

 Broyden mixing:
  rms(total) = 0.26885E-03    rms(broyden)= 0.26882E-03
  rms(prec ) = 0.36779E-03
  weight for this iteration     100.00

 eigenvalues of (default mixing * dielectric matrix)
  average eigenvalue GAMMA=   2.4657
  8.1915  5.5037  3.1836  2.6832  2.1576  1.7787  1.7787  1.4508  1.4508  1.0114
  1.0114  0.9261  0.9261

 Free energy of the ion-electron system (eV)
  ---------------------------------------------------
  alpha Z        PSCENC =         1.13752662
  Ewald energy   TEWEN  =      2629.98113996
  -Hartree energ DENC   =     -3569.88247082
  -exchange      EXHF   =         0.00000000
  -V(xc)+E(xc)   XCENC  =       -48.75470067
  PAW double counting   =      4389.48589223    -4218.08031486
  entropy T*S    EENTRO =        -0.00000000
  eigenvalues    EBANDS =      -521.76957662
  atomic energy  EATOM  =      1232.24550866
  Solvation  Ediel_sol  =         0.00000000
  ---------------------------------------------------
  free energy    TOTEN  =      -105.63699551 eV

  energy without entropy =     -105.63699551  energy(sigma->0) =     -105.63699551


--------------------------------------------------------------------------------------------------------




--------------------------------------- Iteration      1(  19)  ---------------------------------------


    POTLOK:  cpu time    1.7547: real time    1.7564
    SETDIJ:  cpu time    0.0070: real time    0.0074
     EDDAV:  cpu time    8.3787: real time    8.3757
       DOS:  cpu time    0.0000: real time    0.0003
    CHARGE:  cpu time    0.4889: real time    0.4876
    MIXING:  cpu time    0.1190: real time    0.1195
    --------------------------------------------
      LOOP:  cpu time   10.7494: real time   10.7468

 eigenvalue-minimisations  :    94
 total energy-change (2. order) :-0.2504199E-03  (-0.1044851E-05)
 number of electron      56.0000020 magnetization 
 augmentation part       -2.3247882 magnetization 

 Broyden mixing:
  rms(total) = 0.21818E-03    rms(broyden)= 0.21817E-03
  rms(prec ) = 0.25602E-03
  weight for this iteration     100.00

 eigenvalues of (default mixing * dielectric matrix)
  average eigenvalue GAMMA=   2.4482
  8.2249  6.1474  3.3573  2.5498  2.5498  1.8409  1.8409  1.4597  1.4597  1.0252
  0.9205  0.9205  0.9894  0.9894

 Free energy of the ion-electron system (eV)
  ---------------------------------------------------
  alpha Z        PSCENC =         1.13752662
  Ewald energy   TEWEN  =      2629.98113996
  -Hartree energ DENC   =     -3569.91052504
  -exchange      EXHF   =         0.00000000
  -V(xc)+E(xc)   XCENC  =       -48.75351045
  PAW double counting   =      4388.78394387    -4217.37889088
  entropy T*S    EENTRO =        -0.00000000
  eigenvalues    EBANDS =      -521.74243868
  atomic energy  EATOM  =      1232.24550866
  Solvation  Ediel_sol  =         0.00000000
  ---------------------------------------------------
  free energy    TOTEN  =      -105.63724593 eV

  energy without entropy =     -105.63724593  energy(sigma->0) =     -105.63724593


--------------------------------------------------------------------------------------------------------




--------------------------------------- Iteration      1(  20)  ---------------------------------------


    POTLOK:  cpu time    1.7397: real time    1.7397
    SETDIJ:  cpu time    0.0160: real time    0.0153
     EDDAV:  cpu time    7.9768: real time    7.9738
       DOS:  cpu time    0.0010: real time    0.0004
    CHARGE:  cpu time    0.4869: real time    0.4870
    MIXING:  cpu time    0.1290: real time    0.1296
    --------------------------------------------
      LOOP:  cpu time   10.3484: real time   10.3458

 eigenvalue-minimisations  :    88
 total energy-change (2. order) :-0.4348506E-04  (-0.1001925E-06)
 number of electron      56.0000020 magnetization 
 augmentation part       -2.3247604 magnetization 

 Broyden mixing:
  rms(total) = 0.93707E-04    rms(broyden)= 0.93706E-04
  rms(prec ) = 0.11700E-03
  weight for this iteration     100.00

 eigenvalues of (default mixing * dielectric matrix)
  average eigenvalue GAMMA=   2.4729
  8.4608  6.2623  3.7892  2.6991  2.6991  1.7404  1.7404  1.6261  1.6261  1.4335
  1.2927  0.9425  0.9425  0.9197  0.9197

 Free energy of the ion-electron system (eV)
  ---------------------------------------------------
  alpha Z        PSCENC =         1.13752662
  Ewald energy   TEWEN  =      2629.98113996
  -Hartree energ DENC   =     -3569.91887634
  -exchange      EXHF   =         0.00000000
  -V(xc)+E(xc)   XCENC  =       -48.75396438
  PAW double counting   =      4389.07093966    -4217.66617151
  entropy T*S    EENTRO =        -0.00000000
  eigenvalues    EBANDS =      -521.73339209
  atomic energy  EATOM  =      1232.24550866
  Solvation  Ediel_sol  =         0.00000000
  ---------------------------------------------------
  free energy    TOTEN  =      -105.63728941 eV

  energy without entropy =     -105.63728941  energy(sigma->0) =     -105.63728941


--------------------------------------------------------------------------------------------------------




--------------------------------------- Iteration      1(  21)  ---------------------------------------


    POTLOK:  cpu time    1.7377: real time    1.7366
    SETDIJ:  cpu time    0.0070: real time    0.0074
     EDDAV:  cpu time    7.3099: real time    7.3069
       DOS:  cpu time    0.0010: real time    0.0008
    CHARGE:  cpu time    0.4889: real time    0.4888
    MIXING:  cpu time    0.1400: real time    0.1401
    --------------------------------------------
      LOOP:  cpu time    9.6845: real time    9.6806

 eigenvalue-minimisations  :    78
 total energy-change (2. order) :-0.3338938E-04  (-0.8657785E-07)
 number of electron      56.0000020 magnetization 
 augmentation part       -2.3247454 magnetization 

 Broyden mixing:
  rms(total) = 0.76286E-04    rms(broyden)= 0.76281E-04
  rms(prec ) = 0.90712E-04
  weight for this iteration     100.00

 eigenvalues of (default mixing * dielectric matrix)
  average eigenvalue GAMMA=   2.4921
  8.5959  6.5860  4.1903  3.0082  2.6516  2.2485  1.8678  1.8678  1.5020  1.5020
  1.1110  0.9394  0.9163  0.9163  0.9854  0.9854

 Free energy of the ion-electron system (eV)
  ---------------------------------------------------
  alpha Z        PSCENC =         1.13752662
  Ewald energy   TEWEN  =      2629.98113996
  -Hartree energ DENC   =     -3569.92385474
  -exchange      EXHF   =         0.00000000
  -V(xc)+E(xc)   XCENC  =       -48.75408838
  PAW double counting   =      4389.54796079    -4218.14313087
  entropy T*S    EENTRO =        -0.00000000
  eigenvalues    EBANDS =      -521.72838485
  atomic energy  EATOM  =      1232.24550866
  Solvation  Ediel_sol  =         0.00000000
  ---------------------------------------------------
  free energy    TOTEN  =      -105.63732280 eV

  energy without entropy =     -105.63732280  energy(sigma->0) =     -105.63732280


--------------------------------------------------------------------------------------------------------




--------------------------------------- Iteration      1(  22)  ---------------------------------------


    POTLOK:  cpu time    1.7277: real time    1.7268
    SETDIJ:  cpu time    0.0070: real time    0.0072
     EDDAV:  cpu time    7.9908: real time    7.9960
       DOS:  cpu time    0.0000: real time    0.0004
    CHARGE:  cpu time    0.4869: real time    0.4872
    MIXING:  cpu time    0.1530: real time    0.1529
    --------------------------------------------
      LOOP:  cpu time   10.3654: real time   10.3704

 eigenvalue-minimisations  :    88
 total energy-change (2. order) :-0.8586852E-05  (-0.2307792E-07)
 number of electron      56.0000020 magnetization 
 augmentation part       -2.3247541 magnetization 

 Broyden mixing:
  rms(total) = 0.53776E-04    rms(broyden)= 0.53776E-04
  rms(prec ) = 0.57955E-04
  weight for this iteration     100.00

 eigenvalues of (default mixing * dielectric matrix)
  average eigenvalue GAMMA=   2.4515
  8.7597  6.6565  4.4390  3.0810  2.4860  2.4860  1.7995  1.7995  1.4482  1.4482
  1.2489  1.2489  0.9303  0.9303  1.0067  0.9534  0.9534

 Free energy of the ion-electron system (eV)
  ---------------------------------------------------
  alpha Z        PSCENC =         1.13752662
  Ewald energy   TEWEN  =      2629.98113996
  -Hartree energ DENC   =     -3569.92187972
  -exchange      EXHF   =         0.00000000
  -V(xc)+E(xc)   XCENC  =       -48.75411459
  PAW double counting   =      4389.60143083    -4218.19641540
  entropy T*S    EENTRO =        -0.00000000
  eigenvalues    EBANDS =      -521.73052775
  atomic energy  EATOM  =      1232.24550866
  Solvation  Ediel_sol  =         0.00000000
  ---------------------------------------------------
  free energy    TOTEN  =      -105.63733139 eV

  energy without entropy =     -105.63733139  energy(sigma->0) =     -105.63733139


--------------------------------------------------------------------------------------------------------




--------------------------------------- Iteration      1(  23)  ---------------------------------------


    POTLOK:  cpu time    1.7247: real time    1.7235
    SETDIJ:  cpu time    0.0080: real time    0.0078
     EDDAV:  cpu time    7.9908: real time    7.9896
       DOS:  cpu time    0.0010: real time    0.0004
    CHARGE:  cpu time    0.4839: real time    0.4835
    MIXING:  cpu time    0.1660: real time    0.1661
    --------------------------------------------
      LOOP:  cpu time   10.3744: real time   10.3709

 eigenvalue-minimisations  :    88
 total energy-change (2. order) :-0.2521148E-05  (-0.4181981E-08)
 number of electron      56.0000020 magnetization 
 augmentation part       -2.3247562 magnetization 

 Broyden mixing:
  rms(total) = 0.24106E-04    rms(broyden)= 0.24105E-04
  rms(prec ) = 0.29363E-04
  weight for this iteration     100.00

 eigenvalues of (default mixing * dielectric matrix)
  average eigenvalue GAMMA=   2.5142
  8.7995  6.8703  4.7446  3.2746  2.7267  2.7267  2.2659  1.7867  1.7867  1.5538
  1.5538  1.1591  1.1591  1.0727  0.9204  0.9204  0.9674  0.9674

 Free energy of the ion-electron system (eV)
  ---------------------------------------------------
  alpha Z        PSCENC =         1.13752662
  Ewald energy   TEWEN  =      2629.98113996
  -Hartree energ DENC   =     -3569.92106346
  -exchange      EXHF   =         0.00000000
  -V(xc)+E(xc)   XCENC  =       -48.75426341
  PAW double counting   =      4389.43616728    -4218.03116225
  entropy T*S    EENTRO =        -0.00000000
  eigenvalues    EBANDS =      -521.73118732
  atomic energy  EATOM  =      1232.24550866
  Solvation  Ediel_sol  =         0.00000000
  ---------------------------------------------------
  free energy    TOTEN  =      -105.63733391 eV

  energy without entropy =     -105.63733391  energy(sigma->0) =     -105.63733391


--------------------------------------------------------------------------------------------------------




--------------------------------------- Iteration      1(  24)  ---------------------------------------


    POTLOK:  cpu time    1.7367: real time    1.7359
    SETDIJ:  cpu time    0.0070: real time    0.0073
     EDDAV:  cpu time    7.3109: real time    7.3087
       DOS:  cpu time    0.0010: real time    0.0006
    CHARGE:  cpu time    0.4839: real time    0.4844
    MIXING:  cpu time    0.1770: real time    0.1768
    --------------------------------------------
      LOOP:  cpu time    9.7165: real time    9.7137

 eigenvalue-minimisations  :    78
 total energy-change (2. order) :-0.4382494E-05  (-0.7977720E-08)
 number of electron      56.0000020 magnetization 
 augmentation part       -2.3247580 magnetization 

 Broyden mixing:
  rms(total) = 0.19983E-04    rms(broyden)= 0.19983E-04
  rms(prec ) = 0.21251E-04
  weight for this iteration     100.00

 eigenvalues of (default mixing * dielectric matrix)
  average eigenvalue GAMMA=   2.4856
  8.8648  6.9572  5.1365  3.6658  2.7209  2.5991  2.2533  1.8077  1.8077  1.4773
  1.4773  1.3090  1.3090  1.1252  0.9819  0.9140  0.9140  0.9530  0.9530

 Free energy of the ion-electron system (eV)
  ---------------------------------------------------
  alpha Z        PSCENC =         1.13752662
  Ewald energy   TEWEN  =      2629.98113996
  -Hartree energ DENC   =     -3569.92201057
  -exchange      EXHF   =         0.00000000
  -V(xc)+E(xc)   XCENC  =       -48.75420320
  PAW double counting   =      4389.34905017    -4217.94406673
  entropy T*S    EENTRO =        -0.00000000
  eigenvalues    EBANDS =      -521.73028321
  atomic energy  EATOM  =      1232.24550866
  Solvation  Ediel_sol  =         0.00000000
  ---------------------------------------------------
  free energy    TOTEN  =      -105.63733829 eV

  energy without entropy =     -105.63733829  energy(sigma->0) =     -105.63733829


--------------------------------------------------------------------------------------------------------




--------------------------------------- Iteration      1(  25)  ---------------------------------------


    POTLOK:  cpu time    1.7637: real time    1.7662
    SETDIJ:  cpu time    0.0070: real time    0.0072
     EDDAV:  cpu time    7.4259: real time    7.4227
       DOS:  cpu time    0.0010: real time    0.0006
    --------------------------------------------
      LOOP:  cpu time    9.1976: real time    9.1967

 eigenvalue-minimisations  :    80
 total energy-change (2. order) :-0.5504535E-06  (-0.1162316E-08)
 number of electron      56.0000020 magnetization 
 augmentation part       -2.3247580 magnetization 

 Free energy of the ion-electron system (eV)
  ---------------------------------------------------
  alpha Z        PSCENC =         1.13752662
  Ewald energy   TEWEN  =      2629.98113996
  -Hartree energ DENC   =     -3569.92219583
  -exchange      EXHF   =         0.00000000
  -V(xc)+E(xc)   XCENC  =       -48.75417890
  PAW double counting   =      4389.38238137    -4217.97739355
  entropy T*S    EENTRO =        -0.00000000
  eigenvalues    EBANDS =      -521.73012717
  atomic energy  EATOM  =      1232.24550866
  Solvation  Ediel_sol  =         0.00000000
  ---------------------------------------------------
  free energy    TOTEN  =      -105.63733884 eV

  energy without entropy =     -105.63733884  energy(sigma->0) =     -105.63733884


--------------------------------------------------------------------------------------------------------




 average (electrostatic) potential at core
  the test charge radii are     0.9892  1.1631  0.5201
  (the norm of the test charge is              1.0000)
       1 -93.3668       2 -93.4310       3 -93.4373       4 -93.4309       5 -93.4055
       6 -93.3668       7 -93.4055       8 -93.4310       9 -93.4311      10 -40.4071
      11 -40.7044      12 -40.7092      13 -40.7167      14 -40.7047      15 -40.7093
      16 -40.7094      17 -40.7101      18 -40.7168      19 -40.7055      20 -41.0755
      21 -41.0757      22 -40.7053      23 -40.7046      24 -40.7097      25 -40.7092
      26 -40.7044
 
 
 
 E-fermi :  -5.4544     XC(G=0):  -0.6051     alpha+bet : -0.3510


 k-point     1 :       0.0000    0.0000    0.0000
  band No.  band energies     occupation 
      1     -14.8305      2.00000
      2     -13.9656      2.00000
      3     -13.6485      2.00000
      4     -13.6452      2.00000
      5     -12.7741      2.00000
      6     -12.5396      2.00000
      7     -11.3387      2.00000
      8     -11.2360      2.00000
      9     -11.2306      2.00000
     10     -10.2776      2.00000
     11      -8.9360      2.00000
     12      -8.6204      2.00000
     13      -8.6110      2.00000
     14      -8.6091      2.00000
     15      -8.1922      2.00000
     16      -8.1919      2.00000
     17      -8.1797      2.00000
     18      -7.8686      2.00000
     19      -7.8624      2.00000
     20      -7.8603      2.00000
     21      -6.8154      2.00000
     22      -6.8025      2.00000
     23      -6.5068      2.00000
     24      -6.5033      2.00000
     25      -6.4966      2.00000
     26      -6.4481      2.00000
     27      -6.4411      2.00000
     28      -6.4333      2.00000
     29      -1.8553      0.00000
     30      -1.5120      0.00000
     31      -1.4753      0.00000
     32      -1.3654      0.00000
     33      -1.2223      0.00000
     34      -1.1493      0.00000
     35      -1.0452      0.00000
     36      -0.9559      0.00000
     37      -0.9333      0.00000
     38      -0.5960      0.00000
     39      -0.5702      0.00000
     40      -0.4790      0.00000
     41      -0.4469      0.00000
     42      -0.2826      0.00000


--------------------------------------------------------------------------------------------------------


 soft charge-density along one line, spin component           1
         0         1         2         3         4         5         6         7         8         9
 total charge-density along one line
 
 pseudopotential strength for first ion, spin component:           1
 19.609  27.365  -0.000   0.002   0.000  -0.001   0.004   0.000
 27.365  38.194  -0.001   0.003   0.000  -0.001   0.005   0.001
 -0.000  -0.001   4.358  -0.000  -0.000   8.129  -0.000  -0.000
  0.002   0.003  -0.000   4.358   0.000  -0.000   8.129   0.000
  0.000   0.000  -0.000   0.000   4.358  -0.000   0.000   8.129
 -0.001  -0.001   8.129  -0.000  -0.000  15.174  -0.000  -0.000
  0.004   0.005  -0.000   8.129   0.000  -0.000  15.175   0.000
  0.000   0.001  -0.000   0.000   8.129  -0.000   0.000  15.174
 total augmentation occupancy for first ion, spin component:           1
  5.579  -2.048   0.069  -0.330  -0.044  -0.021   0.099   0.013
 -2.048   0.810  -0.042   0.201   0.027   0.010  -0.045  -0.006
  0.069  -0.042   2.867  -0.094  -0.012  -0.624   0.034   0.005
 -0.330   0.201  -0.094   3.295   0.060   0.034  -0.780  -0.022
 -0.044   0.027  -0.012   0.060   2.855   0.005  -0.022  -0.620
 -0.021   0.010  -0.624   0.034   0.005   0.142  -0.010  -0.001
  0.099  -0.045   0.034  -0.780  -0.022  -0.010   0.187   0.006
  0.013  -0.006   0.005  -0.022  -0.620  -0.001   0.006   0.140


------------------------ aborting loop because EDIFF is reached ----------------------------------------


    CHARGE:  cpu time    0.4899: real time    0.4900
    FORLOC:  cpu time    0.1760: real time    0.1756
    FORNL :  cpu time    0.9898: real time    0.9900
    STRESS:  cpu time    6.5060: real time    6.5038
    FORCOR:  cpu time    1.7247: real time    1.7239
    FORHAR:  cpu time    0.5849: real time    0.5850
    MIXING:  cpu time    0.1940: real time    0.1932
    OFIELD:  cpu time    0.0000: real time    0.0000

  FORCE on cell =-STRESS in cart. coord.  units (eV):
  Direction    XX          YY          ZZ          XY          YZ          ZX
  --------------------------------------------------------------------------------------
  Alpha Z     1.13753     1.13753     1.13753
  Ewald     876.64706   876.62235   876.71007    -0.21850     0.02563    -0.50464
  Hartree  1190.13161  1189.97453  1189.81759    -0.08798    -0.31362    -0.26517
  E(xc)    -172.53900  -172.57956  -172.60150     0.04903     0.03128    -0.02045
  Local   -2600.57421 -2600.41752 -2600.36364     0.33723     0.29835     0.76354
  n-local   323.70439   323.92928   324.06392    -0.27155    -0.13364     0.08690
  augment   -47.98584   -47.98500   -47.98259    -0.00276    -0.00112     0.00057
  Kinetic   420.64948   420.53370   420.45463     0.13977     0.04409    -0.02804
  Fock        0.00000     0.00000     0.00000     0.00000     0.00000     0.00000
  -------------------------------------------------------------------------------------
  Total      -8.82900    -8.78470    -8.76401    -0.05476    -0.04903     0.03270
  in kB      -1.76820    -1.75933    -1.75519    -0.01097    -0.00982     0.00655
  external pressure =       -1.76 kB  Pullay stress =        0.00 kB


 VOLUME and BASIS-vectors are now :
 -----------------------------------------------------------------------------
  energy-cutoff  :      400.00
[...]
    SETDIJ:  cpu time    0.0070: real time    0.0077
     EDDAV:  cpu time   10.1335: real time   10.1316
       DOS:  cpu time    0.0000: real time    0.0004
    CHARGE:  cpu time    0.4489: real time    0.4834
    MIXING:  cpu time    0.0440: real time    0.0447
    --------------------------------------------
      LOOP:  cpu time   12.3721: real time   12.4062

 eigenvalue-minimisations  :   120
 total energy-change (2. order) :-0.5237286E-05  (-0.1678713E-04)
 number of electron      56.0000011 magnetization 
 augmentation part       -2.3269659 magnetization 

 Broyden mixing:
  rms(total) = 0.15528E-02    rms(broyden)= 0.15524E-02
  rms(prec ) = 0.16571E-02
  weight for this iteration     100.00

 eigenvalues of (default mixing * dielectric matrix)
  average eigenvalue GAMMA=   1.2243
  1.2243

 Free energy of the ion-electron system (eV)
  ---------------------------------------------------
  alpha Z        PSCENC =         1.13752662
  Ewald energy   TEWEN  =      2713.80957628
  -Hartree energ DENC   =     -3650.76012879
  -exchange      EXHF   =         0.00000000
  -V(xc)+E(xc)   XCENC  =       -47.19296598
  PAW double counting   =      4958.65084304    -4787.51545712
  entropy T*S    EENTRO =        -0.00000000
  eigenvalues    EBANDS =      -526.36817106
  atomic energy  EATOM  =      1232.24550866
  Solvation  Ediel_sol  =         0.00000000
  ---------------------------------------------------
  free energy    TOTEN  =      -105.99326834 eV

  energy without entropy =     -105.99326834  energy(sigma->0) =     -105.99326834


--------------------------------------------------------------------------------------------------------




--------------------------------------- Iteration     19(   3)  ---------------------------------------


    POTLOK:  cpu time    1.7447: real time    1.7445
    SETDIJ:  cpu time    0.0070: real time    0.0072
     EDDAV:  cpu time   10.6914: real time   10.6900
       DOS:  cpu time    0.0000: real time    0.0004
    CHARGE:  cpu time    0.4859: real time    0.4856
    MIXING:  cpu time    0.0460: real time    0.0462
    --------------------------------------------
      LOOP:  cpu time   12.9750: real time   12.9740

 eigenvalue-minimisations  :   128
 total energy-change (2. order) : 0.2225515E-05  (-0.1098941E-05)
 number of electron      56.0000011 magnetization 
 augmentation part       -2.3269883 magnetization 

 Broyden mixing:
  rms(total) = 0.74399E-03    rms(broyden)= 0.74396E-03
  rms(prec ) = 0.78742E-03
  weight for this iteration     100.00

 eigenvalues of (default mixing * dielectric matrix)
  average eigenvalue GAMMA=   1.5985
  1.0164  2.1806

 Free energy of the ion-electron system (eV)
  ---------------------------------------------------
  alpha Z        PSCENC =         1.13752662
  Ewald energy   TEWEN  =      2713.80957628
  -Hartree energ DENC   =     -3650.76431821
  -exchange      EXHF   =         0.00000000
  -V(xc)+E(xc)   XCENC  =       -47.19234832
  PAW double counting   =      4958.85008243    -4787.71473425
  entropy T*S    EENTRO =        -0.00000000
  eigenvalues    EBANDS =      -526.36455933
  atomic energy  EATOM  =      1232.24550866
  Solvation  Ediel_sol  =         0.00000000
  ---------------------------------------------------
  free energy    TOTEN  =      -105.99326612 eV

  energy without entropy =     -105.99326612  energy(sigma->0) =     -105.99326612


--------------------------------------------------------------------------------------------------------




--------------------------------------- Iteration     19(   4)  ---------------------------------------


    POTLOK:  cpu time    1.7377: real time    1.7363
    SETDIJ:  cpu time    0.0070: real time    0.0075
     EDDAV:  cpu time    8.5017: real time    8.5122
       DOS:  cpu time    0.0010: real time    0.0003
    --------------------------------------------
      LOOP:  cpu time   10.2474: real time   10.2563

 eigenvalue-minimisations  :    96
 total energy-change (2. order) : 0.1230246E-06  (-0.2491609E-06)
 number of electron      56.0000011 magnetization 
 augmentation part       -2.3269883 magnetization 

 Free energy of the ion-electron system (eV)
  ---------------------------------------------------
  alpha Z        PSCENC =         1.13752662
  Ewald energy   TEWEN  =      2713.80957628
  -Hartree energ DENC   =     -3650.76831304
  -exchange      EXHF   =         0.00000000
  -V(xc)+E(xc)   XCENC  =       -47.19196762
  PAW double counting   =      4959.01364619    -4787.87833273
  entropy T*S    EENTRO =        -0.00000000
  eigenvalues    EBANDS =      -526.36091036
  atomic energy  EATOM  =      1232.24550866
  Solvation  Ediel_sol  =         0.00000000
  ---------------------------------------------------
  free energy    TOTEN  =      -105.99326600 eV

  energy without entropy =     -105.99326600  energy(sigma->0) =     -105.99326600


--------------------------------------------------------------------------------------------------------




 average (electrostatic) potential at core
  the test charge radii are     0.9892  1.1631  0.5201
  (the norm of the test charge is              1.0000)
       1 -93.2308       2 -93.2557       3 -93.2539       4 -93.2558       5 -93.3010
       6 -93.2308       7 -93.3009       8 -93.2557       9 -93.2557      10 -40.3626
      11 -40.8221      12 -40.8220      13 -40.8706      14 -40.8221      15 -40.8230
      16 -40.8269      17 -40.8267      18 -40.8698      19 -40.8776      20 -40.9648
      21 -40.9647      22 -40.8777      23 -40.8216      24 -40.8224      25 -40.8228
      26 -40.8225
 
 
 
 E-fermi :  -5.4670     XC(G=0):  -0.5874     alpha+bet : -0.3510


 k-point     1 :       0.0000    0.0000    0.0000
  band No.  band energies     occupation 
      1     -14.9563      2.00000
      2     -14.0229      2.00000
      3     -13.8227      2.00000
      4     -13.8161      2.00000
      5     -12.8783      2.00000
      6     -12.6988      2.00000
      7     -11.4600      2.00000
      8     -11.3638      2.00000
      9     -11.3490      2.00000
     10     -10.4015      2.00000
     11      -9.1082      2.00000
     12      -8.7148      2.00000
     13      -8.6998      2.00000
     14      -8.6426      2.00000
     15      -8.2619      2.00000
     16      -8.2566      2.00000
     17      -8.1332      2.00000
     18      -7.9936      2.00000
     19      -7.9423      2.00000
     20      -7.9376      2.00000
     21      -6.8919      2.00000
     22      -6.8370      2.00000
     23      -6.5580      2.00000
     24      -6.5445      2.00000
     25      -6.5314      2.00000
     26      -6.4847      2.00000
     27      -6.4704      2.00000
     28      -6.4024      2.00000
     29      -1.7587      0.00000
     30      -1.4736      0.00000
     31      -1.4413      0.00000
     32      -1.3173      0.00000
     33      -1.2183      0.00000
     34      -1.0654      0.00000
     35      -0.9207      0.00000
     36      -0.7906      0.00000
     37      -0.7568      0.00000
     38      -0.4677      0.00000
     39      -0.4555      0.00000
     40      -0.3437      0.00000
     41      -0.2889      0.00000
     42      -0.1215      0.00000


--------------------------------------------------------------------------------------------------------


 soft charge-density along one line, spin component           1
         0         1         2         3         4         5         6         7         8         9
 total charge-density along one line
 
 pseudopotential strength for first ion, spin component:           1
 19.605  27.359  -0.000   0.002   0.000  -0.001   0.004   0.000
 27.359  38.185  -0.000   0.003   0.000  -0.001   0.005   0.001
 -0.000  -0.000   4.361  -0.000  -0.000   8.135  -0.000  -0.000
  0.002   0.003  -0.000   4.361   0.000  -0.000   8.135   0.000
  0.000   0.000  -0.000   0.000   4.361  -0.000   0.000   8.135
 -0.001  -0.001   8.135  -0.000  -0.000  15.184  -0.000  -0.000
  0.004   0.005  -0.000   8.135   0.000  -0.000  15.185   0.000
  0.000   0.001  -0.000   0.000   8.135  -0.000   0.000  15.184
 total augmentation occupancy for first ion, spin component:           1
  6.084  -2.323   0.080  -0.414  -0.051  -0.024   0.129   0.016
 -2.323   0.943  -0.047   0.241   0.030   0.011  -0.059  -0.007
  0.080  -0.047   3.064  -0.119  -0.016  -0.683   0.042   0.005
 -0.414   0.241  -0.119   3.577   0.076   0.042  -0.866  -0.027
 -0.051   0.030  -0.016   0.076   3.049   0.005  -0.027  -0.678
 -0.024   0.011  -0.683   0.042   0.005   0.158  -0.013  -0.001
  0.129  -0.059   0.042  -0.866  -0.027  -0.013   0.213   0.008
  0.016  -0.007   0.005  -0.027  -0.678  -0.001   0.008   0.157


------------------------ aborting loop because EDIFF is reached ----------------------------------------


    CHARGE:  cpu time    0.4819: real time    0.4823
    FORLOC:  cpu time    0.1710: real time    0.1708
    FORNL :  cpu time    0.9888: real time    0.9891
    STRESS:  cpu time    6.4910: real time    6.4893
    FORCOR:  cpu time    1.6927: real time    1.7407
    FORHAR:  cpu time    0.5869: real time    0.5871
    MIXING:  cpu time    0.0490: real time    0.0487
    OFIELD:  cpu time    0.0000: real time    0.0000

  FORCE on cell =-STRESS in cart. coord.  units (eV):
  Direction    XX          YY          ZZ          XY          YZ          ZX
  --------------------------------------------------------------------------------------
  Alpha Z     1.13753     1.13753     1.13753
  Ewald     906.64691   904.74515   902.41580     1.31811    -2.23120     1.01432
  Hartree  1219.34813  1216.95023  1214.47523     1.94286    -1.59540     0.61880
  E(xc)    -174.58440  -174.62121  -174.64418     0.04475     0.01983    -0.01269
  Local   -2662.51326 -2658.30228 -2653.51287    -3.15547     3.97743    -1.73339
  n-local   327.94588   328.25326   328.44747    -0.36994    -0.15074     0.09397
  augment   -48.16632   -48.17517   -48.17765     0.01159     0.00983    -0.00639
  Kinetic   429.28650   429.13193   428.98542     0.18082    -0.07157     0.05379
  Fock        0.00000     0.00000     0.00000     0.00000     0.00000     0.00000
  -------------------------------------------------------------------------------------
  Total      -0.89903    -0.88057    -0.87326    -0.02727    -0.04182     0.02842
  in kB      -0.18005    -0.17635    -0.17489    -0.00546    -0.00837     0.00569
  external pressure =       -0.18 kB  Pullay stress =        0.00 kB


 VOLUME and BASIS-vectors are now :
 -----------------------------------------------------------------------------
  energy-cutoff  :      400.00
  volume of cell :     8000.00
      direct lattice vectors                 reciprocal lattice vectors
    20.000000000  0.000000000  0.000000000     0.050000000  0.000000000  0.000000000
     0.000000000 20.000000000  0.000000000     0.000000000  0.050000000  0.000000000
     0.000000000  0.000000000 20.000000000     0.000000000  0.000000000  0.050000000

  length of vectors
    20.000000000 20.000000000 20.000000000     0.050000000  0.050000000  0.050000000


 FORCES acting on ions
    electron-ion (+dipol)            ewald-force                    non-local-force                 convergence-correction
 -----------------------------------------------------------------------------------------------
   0.127E+02 -.198E+02 0.918E+02   -.129E+02 0.200E+02 -.929E+02   0.111E+00 -.176E+00 0.114E+01   0.266E-03 -.421E-03 -.869E-03
   0.906E+02 -.558E+01 0.479E+02   -.921E+02 0.567E+01 -.486E+02   0.152E+01 -.855E-01 0.736E+00   -.493E-04 -.314E-03 -.281E-03
   -.380E+02 0.558E+02 0.782E+02   0.386E+02 -.567E+02 -.794E+02   -.612E+00 0.899E+00 0.126E+01   0.237E-03 -.400E-03 -.535E-03
   -.296E+02 -.863E+02 0.471E+02   0.301E+02 0.877E+02 -.478E+02   -.501E+00 -.144E+01 0.724E+00   0.276E-03 -.452E-04 -.272E-03
   0.842E+02 0.122E+02 -.424E+02   -.855E+02 -.130E+02 0.425E+02   0.128E+01 0.809E+00 -.420E-01   -.362E-03 -.451E-03 -.215E-03
   -.526E+02 0.783E+02 -.972E+01   0.533E+02 -.793E+02 0.977E+01   -.643E+00 0.959E+00 -.384E-01   0.429E-03 -.665E-03 -.627E-03
   -.427E+02 -.731E+02 -.433E+02   0.440E+02 0.740E+02 0.433E+02   -.123E+01 -.881E+00 -.606E-01   0.542E-03 0.172E-03 -.187E-03
   -.904E+02 0.539E+01 -.481E+02   0.919E+02 -.542E+01 0.489E+02   -.148E+01 0.345E-01 -.808E+00   0.314E-03 -.850E-04 -.247E-03
   0.298E+02 0.861E+02 -.473E+02   -.303E+02 -.875E+02 0.481E+02   0.535E+00 0.139E+01 -.796E+00   -.461E-04 -.335E-03 -.278E-03
   0.384E+02 -.562E+02 -.788E+02   -.386E+02 0.566E+02 0.793E+02   0.253E+00 -.372E+00 -.522E+00   -.156E-04 0.348E-04 0.308E-04
   0.210E+02 0.422E+02 0.620E+01   -.224E+02 -.445E+02 -.745E+01   0.134E+01 0.231E+01 0.125E+01   0.237E-05 0.832E-05 -.101E-04
   0.112E+01 0.227E+02 -.418E+02   -.752E+00 -.234E+02 0.446E+02   -.364E+00 0.627E+00 -.286E+01   -.841E-05 -.986E-04 -.492E-06
   -.275E+02 0.409E+02 -.483E+01   0.291E+02 -.433E+02 0.511E+01   -.161E+01 0.240E+01 -.281E+00   0.827E-04 -.127E-03 -.142E-03
   -.469E+02 -.349E+01 0.574E+01   0.496E+02 0.386E+01 -.697E+01   -.266E+01 -.379E+00 0.123E+01   -.575E-05 -.281E-05 -.376E-05
   -.211E+02 0.787E+01 -.419E+02   0.215E+02 -.846E+01 0.448E+02   -.417E+00 0.591E+00 -.286E+01   0.914E-04 -.299E-04 0.646E-05
   -.373E+02 0.549E+01 0.292E+02   0.399E+02 -.510E+01 -.305E+02   -.262E+01 -.387E+00 0.131E+01   -.166E-03 -.147E-03 -.312E-04
   0.877E+01 0.364E+02 0.295E+02   -.101E+02 -.387E+02 -.309E+02   0.134E+01 0.227E+01 0.134E+01   0.187E-03 0.971E-04 -.270E-04
   0.651E+01 -.102E+02 0.479E+02   -.689E+01 0.108E+02 -.507E+02   0.379E+00 -.592E+00 0.282E+01   0.639E-04 -.978E-04 -.167E-03
   -.230E+02 -.378E+02 -.218E+02   0.244E+02 0.400E+02 0.231E+02   -.135E+01 -.224E+01 -.129E+01   0.859E-04 0.111E-03 0.518E-04
   0.274E+01 -.360E+01 -.452E+02   -.244E+01 0.314E+01 0.476E+02   -.300E+00 0.471E+00 -.245E+01   0.195E-04 -.274E-04 0.168E-03
   0.247E+02 -.366E+02 -.111E+02   -.261E+02 0.387E+02 0.109E+02   0.140E+01 -.208E+01 0.191E+00   -.924E-04 0.142E-03 -.770E-05
   0.437E+02 0.713E+01 -.214E+02   -.463E+02 -.755E+01 0.226E+02   0.259E+01 0.414E+00 -.127E+01   -.135E-03 -.392E-04 0.461E-04
   0.325E+02 0.249E+02 0.243E+02   -.339E+02 -.271E+02 -.257E+02   0.140E+01 0.222E+01 0.135E+01   0.114E-04 -.516E-05 0.460E-05
   0.355E+02 -.292E+02 0.120E+02   -.372E+02 0.317E+02 -.123E+02   0.166E+01 -.242E+01 0.295E+00   -.557E-04 -.248E-04 -.746E-04
   0.135E+02 -.439E+02 0.119E+02   -.151E+02 0.464E+02 -.122E+02   0.161E+01 -.246E+01 0.294E+00   0.420E-04 0.450E-04 -.720E-04
   -.356E+02 -.209E+02 0.239E+02   0.382E+02 0.214E+02 -.252E+02   -.259E+01 -.472E+00 0.132E+01   -.301E-05 -.687E-05 0.294E-05
 -----------------------------------------------------------------------------------------------
   0.958E+00 -.141E+01 -.197E+01   -.568E-13 0.355E-13 0.107E-13   -.961E+00 0.141E+01 0.197E+01   0.171E-02 -.271E-02 -.374E-02
 
 
 POSITION                                       TOTAL-FORCE (eV/Angst)
 -----------------------------------------------------------------------------------
      9.51433     11.11739      7.73265        -0.007482      0.011013     -0.000505
      7.41580     10.77233      8.74262        -0.000779      0.000691      0.002801
     10.81885      9.17395      7.95780        -0.000812      0.001294      0.001918
     10.61745     12.92369      8.76395        -0.000435      0.000980      0.002728
      7.69792     10.27078     11.02193        -0.002052      0.003013      0.004351
     11.12487      8.69579     10.23969         0.001465     -0.002165      0.013082
     10.95415     12.45879     11.04365        -0.002318      0.002994      0.004355
     12.23049     10.49821     11.27508        -0.001201      0.002325      0.001369
      9.02883      8.34681     11.25355        -0.001566      0.001980      0.001444
      8.81561     12.11397     12.08434         0.003374     -0.005258     -0.007327
      8.34670      7.17456     10.61375         0.009016      0.002813      0.000981
      9.21466      8.03012     12.70721        -0.000035      0.000321     -0.004891
     11.95781      7.45465     10.38535         0.007610     -0.011458      0.002859
     13.57928     10.69104     10.64869        -0.006091     -0.006828      0.000716
     12.44009     10.19766     12.72894        -0.000014      0.000323     -0.004925
     12.14857      9.37267      7.29523         0.001613      0.002214      0.000913
     10.13891      8.02170      7.28204        -0.002334     -0.000854      0.000758
      9.31808     11.42394      6.27559        -0.002619      0.003840     -0.013015
     11.65105     13.61042     11.70848         0.011467      0.005508     -0.002149
      9.00233     11.82090     13.60260        -0.001839      0.002645     -0.000533
      7.95019     13.40332     11.96408         0.000406     -0.000824      0.002762
      6.36223     10.05649     11.67303        -0.009437     -0.008786     -0.002223
      6.70406      9.64456      8.05680         0.006791      0.005982     -0.002321
      6.57251     12.00309      8.59412         0.002892     -0.003991     -0.000292
      9.79790     14.17037      8.61553         0.002639     -0.004032     -0.000419
     11.93676     13.16080      8.09166        -0.008259     -0.003741     -0.002437
 -----------------------------------------------------------------------------------
    total drift:                               -0.001176      0.001348     -0.000332


--------------------------------------------------------------------------------------------------------



  FREE ENERGIE OF THE ION-ELECTRON SYSTEM (eV)
  ---------------------------------------------------
  free  energy   TOTEN  =      -105.99326600 eV

  energy  without entropy=     -105.99326600  energy(sigma->0) =     -105.99326600
 
 d Force = 0.2019042E-03[ 0.121E-03, 0.283E-03]  d Energy = 0.2015503E-03 0.354E-06
 d Force = 0.1957202E-02[ 0.211E-02, 0.181E-02]  d Ewald  = 0.1957207E-02-0.473E-08


--------------------------------------------------------------------------------------------------------


    POTLOK:  cpu time    1.7427: real time    1.7435


--------------------------------------------------------------------------------------------------------


 Conjugate gradient step on ions:
 trial-energy change:   -0.000202  1 .order   -0.000202   -0.000283   -0.000121
  (g-gl).g = 0.230E-03      g.g   = 0.259E-03  gl.gl    = 0.407E-03
 g(Force)  = 0.259E-03   g(Stress)= 0.000E+00 ortho     = 0.316E-04
 gamma     =   0.56468
 trial     =   1.02146
 opt step  =   1.78039  (harmonic =   1.78039) maximal distance =0.00287620
 next E    =  -105.993311   (d E  =  -0.00025)


--------------------------------------------------------------------------------------------------------


  
 reached required accuracy - stopping structural energy minimisation
 writing wavefunctions
     LOOP+:  cpu time   58.4761: real time   59.0391
    4ORBIT:  cpu time    0.0000: real time    0.0000

 total amount of memory used by VASP MPI-rank0   131439. kBytes
=======================================================================

   base      :      30000. kBytes
   nonl-proj :      17624. kBytes
   fftplans  :      26957. kBytes
   grid      :      48673. kBytes
   one-center:         40. kBytes
   wavefun   :       8145. kBytes
 
  
  
 General timing and accounting informations for this job:
 ========================================================
  
                  Total CPU time used (sec):     2062.693
                            User time (sec):     2033.977
                          System time (sec):       28.717
                         Elapsed time (sec):     2068.100
  
                   Maximum memory used (kb):      186376.
                   Average memory used (kb):           0.
  
                          Minor page faults:      5489152
                          Major page faults:            5
                 Voluntary context switches:         6472
