 vasp.5.4.4.18Apr17-6-g9f103f2a35 (build Nov 06 2017 19:16:10) complex          
  
 executed on           IFC91_ompi date 2018.07.08  13:27:10
 running on   12 total cores
 distrk:  each k-point on   12 cores,    1 groups
 distr:  one band on NCORES_PER_BAND=   6 cores,    2 groups


--------------------------------------------------------------------------------------------------------


 INCAR:
 POTCAR:    PAW_PBE Si 05Jan2001                  
 POTCAR:    PAW_PBE Ge 05Jan2001                  
 POTCAR:    PAW_PBE H 15Jun2001                   
 POTCAR:    PAW_PBE Si 05Jan2001                  
   VRHFIN =Si: s2p2                                                             
   LEXCH  = PE                                                                  
   EATOM  =   103.0669 eV,    7.5752 Ry                                         
                                                                                
   TITEL  = PAW_PBE Si 05Jan2001                                                
   LULTRA =        F    use ultrasoft PP ?                                      
   IUNSCR =        1    unscreen: 0-lin 1-nonlin 2-no                           
   RPACOR =    1.500    partial core radius                                     
   POMASS =   28.085; ZVAL   =    4.000    mass and valenz                      
   RCORE  =    1.900    outmost cutoff radius                                   
   RWIGS  =    2.480; RWIGS  =    1.312    wigner-seitz radius (au A)           
   ENMAX  =  245.345; ENMIN  =  184.009 eV                                      
   ICORE  =        2    local potential                                         
   LCOR   =        T    correct aug charges                                     
   LPAW   =        T    paw PP                                                  
   EAUG   =  322.069                                                            
   DEXC   =    0.000                                                            
   RMAX   =    1.950    core radius for proj-oper                               
   RAUG   =    1.300    factor for augmentation sphere                          
   RDEP   =    1.993    radius for radial grids                                 
   RDEPT  =    1.837    core radius for aug-charge                              
                                                                                
   Atomic configuration                                                         
    6 entries                                                                   
     n  l   j            E        occ.                                          
     1  0  0.50     -1785.8828   2.0000                                         
     2  0  0.50      -139.4969   2.0000                                         
     2  1  1.50       -95.5546   6.0000                                         
     3  0  0.50       -10.8127   2.0000                                         
     3  1  0.50        -4.0811   2.0000                                         
     3  2  1.50        -4.0817   0.0000                                         
   Description                                                                  
     l       E           TYP  RCUT    TYP  RCUT                                 
     0    -10.8127223     23  1.900                                             
     0     -7.6451159     23  1.900                                             
     1     -4.0811372     23  1.900                                             
     1      2.4879257     23  1.900                                             
     2     -4.0817478      7  1.900                                             
  local pseudopotential read in
  partial core-charges read in
  partial kinetic energy density read in
  atomic valenz-charges read in
  non local Contribution for L=           0  read in
    real space projection operators read in
  non local Contribution for L=           0  read in
    real space projection operators read in
  non local Contribution for L=           1  read in
    real space projection operators read in
  non local Contribution for L=           1  read in
    real space projection operators read in
    PAW grid and wavefunctions read in
 
   number of l-projection  operators is LMAX  =           4
   number of lm-projection operators is LMMAX =           8
 
 POTCAR:    PAW_PBE Ge 05Jan2001                  
   VRHFIN =Ge: s2p2                                                             
   LEXCH  = PE                                                                  
   EATOM  =   104.9960 eV,    7.7170 Ry                                         
                                                                                
   TITEL  = PAW_PBE Ge 05Jan2001                                                
   LULTRA =        F    use ultrasoft PP ?                                      
   IUNSCR =        1    unscreen: 0-lin 1-nonlin 2-no                           
   RPACOR =    2.170    partial core radius                                     
   POMASS =   72.610; ZVAL   =    4.000    mass and valenz                      
   RCORE  =    2.300    outmost cutoff radius                                   
   RWIGS  =    2.300; RWIGS  =    1.217    wigner-seitz radius (au A)           
   ENMAX  =  173.807; ENMIN  =  130.355 eV                                      
   ICORE  =        3    local potential                                         
   LCOR   =        T    correct aug charges                                     
   LPAW   =        T    paw PP                                                  
   EAUG   =  385.843                                                            
   DEXC   =    0.000                                                            
   RMAX   =    2.342    core radius for proj-oper                               
   RAUG   =    1.300    factor for augmentation sphere                          
   RDEP   =    2.318    radius for radial grids                                 
   RDEPT  =    2.103    core radius for aug-charge                              
                                                                                
   Atomic configuration                                                         
   10 entries                                                                   
     n  l   j            E        occ.                                          
     1  0  0.50    -10959.8463   2.0000                                         
     2  0  0.50     -1371.6056   2.0000                                         
     2  1  1.50     -1198.4791   6.0000                                         
     3  0  0.50      -168.4733   2.0000                                         
     3  1  1.50      -115.6019   6.0000                                         
     3  2  2.50       -29.3106  10.0000                                         
     4  0  0.50       -11.7309   2.0000                                         
     4  1  0.50        -3.8952   2.0000                                         
     4  2  1.50        -4.0817   0.0000                                         
     4  3  2.50        -4.0817   0.0000                                         
   Description                                                                  
     l       E           TYP  RCUT    TYP  RCUT                                 
     0    -11.7309493     23  2.300                                             
     0     -7.4578696     23  2.300                                             
     1     -3.8952261     23  2.300                                             
     1      6.1178114     23  2.300                                             
     2     -4.0817478     23  2.300                                             
     3     -1.3605826      7  2.300                                             
  local pseudopotential read in
  partial core-charges read in
  partial kinetic energy density read in
  atomic valenz-charges read in
  non local Contribution for L=           0  read in
    real space projection operators read in
  non local Contribution for L=           0  read in
    real space projection operators read in
  non local Contribution for L=           1  read in
    real space projection operators read in
  non local Contribution for L=           1  read in
    real space projection operators read in
  non local Contribution for L=           2  read in
    real space projection operators read in
    PAW grid and wavefunctions read in
 
   number of l-projection  operators is LMAX  =           5
   number of lm-projection operators is LMMAX =          13
 
 POTCAR:    PAW_PBE H 15Jun2001                   
   VRHFIN =H: ultrasoft test                                                    
   LEXCH  = PE                                                                  
   EATOM  =    12.4884 eV,    0.9179 Ry                                         
                                                                                
   TITEL  = PAW_PBE H 15Jun2001                                                 
   LULTRA =        F    use ultrasoft PP ?                                      
   IUNSCR =        0    unscreen: 0-lin 1-nonlin 2-no                           
   RPACOR =    0.000    partial core radius                                     
   POMASS =    1.000; ZVAL   =    1.000    mass and valenz                      
   RCORE  =    1.100    outmost cutoff radius                                   
   RWIGS  =    0.700; RWIGS  =    0.370    wigner-seitz radius (au A)           
   ENMAX  =  250.000; ENMIN  =  200.000 eV                                      
   RCLOC  =    0.701    cutoff for local pot                                    
   LCOR   =        T    correct aug charges                                     
   LPAW   =        T    paw PP                                                  
   EAUG   =  400.000                                                            
   RMAX   =    1.123    core radius for proj-oper                               
   RAUG   =    1.200    factor for augmentation sphere                          
   RDEP   =    1.112    radius for radial grids                                 
   RDEPT  =    0.926    core radius for aug-charge                              
                                                                                
   Atomic configuration                                                         
    2 entries                                                                   
     n  l   j            E        occ.                                          
     1  0  0.50        -6.4927   1.0000                                         
     2  1  0.50        -3.4015   0.0000                                         
   Description                                                                  
     l       E           TYP  RCUT    TYP  RCUT                                 
     0     -6.4927494     23  1.100                                             
     0      6.8029130     23  1.100                                             
     1     -4.0817478     23  1.100                                             
  local pseudopotential read in
  atomic valenz-charges read in
  non local Contribution for L=           0  read in
    real space projection operators read in
  non local Contribution for L=           0  read in
    real space projection operators read in
  non local Contribution for L=           1  read in
    real space projection operators read in
    PAW grid and wavefunctions read in
 
   number of l-projection  operators is LMAX  =           3
   number of lm-projection operators is LMMAX =           5
 

 ----------------------------------------------------------------------------- 
|                                                                             |
|  ADVICE TO THIS USER RUNNING 'VASP/VAMP'   (HEAR YOUR MASTER'S VOICE ...):  |
|                                                                             |
|      You have a (more or less) 'large supercell' and for larger cells       |
|      it might be more efficient to use real space projection opertators     |
|      So try LREAL= Auto  in the INCAR   file.                               |
|      Mind:          For very  accurate calculation you might also keep the  |
|      reciprocal projection scheme          (i.e. LREAL=.FALSE.)             |
|                                                                             |
 ----------------------------------------------------------------------------- 

  PAW_PBE Si 05Jan2001                  :
 energy of atom  1       EATOM= -103.0669
 kinetic energy error for atom=    0.0012 (will be added to EATOM!!)
  PAW_PBE Ge 05Jan2001                  :
 energy of atom  2       EATOM= -104.9960
 kinetic energy error for atom=    0.0003 (will be added to EATOM!!)
  PAW_PBE H 15Jun2001                   :
 energy of atom  3       EATOM=  -12.4884
 kinetic energy error for atom=    0.0098 (will be added to EATOM!!)
 
 
 POSCAR: SiGeH16                                 
  positions in direct lattice
  No initial velocities read in
 exchange correlation table for  LEXCH =        8
   RHO(1)=    0.500       N(1)  =     2000
   RHO(2)=  100.500       N(2)  =     4000
 


--------------------------------------------------------------------------------------------------------


 ion  position               nearest neighbor table
   1  0.475  0.556  0.385-  18 1.55   4 2.39   2 2.39   3 2.39
   2  0.369  0.539  0.436-  23 1.55  24 1.55   5 2.39   1 2.39
   3  0.542  0.457  0.396-  17 1.55  16 1.55   8 2.39   1 2.39
   4  0.531  0.648  0.437-  25 1.55  26 1.55   9 2.39   1 2.39
   5  0.385  0.515  0.552-  22 1.55  10 2.39   7 2.39   2 2.39
   6  0.613  0.525  0.565-  15 1.55  14 1.55   9 2.39   8 2.39
   7  0.451  0.416  0.564-  12 1.55  11 1.55   5 2.39   8 2.39
   8  0.557  0.433  0.512-  13 1.55   3 2.39   6 2.39   7 2.39
   9  0.547  0.624  0.554-  19 1.55   4 2.39   6 2.39  10 2.39
  10  0.440  0.606  0.605-  20 1.55  21 1.55   5 2.39   9 2.39
  11  0.415  0.357  0.529-   7 1.55
  12  0.461  0.400  0.639-   7 1.55
  13  0.600  0.369  0.520-   8 1.55
  14  0.682  0.536  0.531-   6 1.55
  15  0.623  0.509  0.640-   6 1.55
  16  0.611  0.469  0.363-   3 1.55
  17  0.506  0.398  0.362-   3 1.55
  18  0.465  0.572  0.309-   1 1.55
  19  0.583  0.683  0.588-   9 1.55
  20  0.451  0.590  0.680-  10 1.55
  21  0.397  0.670  0.598-  10 1.55
  22  0.316  0.504  0.586-   5 1.55
  23  0.333  0.479  0.402-   2 1.55
  24  0.326  0.603  0.429-   2 1.55
  25  0.488  0.712  0.430-   4 1.55
  26  0.600  0.659  0.404-   4 1.55
 
  LATTYP: Found a simple cubic cell.
 ALAT       =    20.0000000000
  
  Lattice vectors:
  
 A1 = (  20.0000000000,   0.0000000000,   0.0000000000)
 A2 = (   0.0000000000,  20.0000000000,   0.0000000000)
 A3 = (   0.0000000000,   0.0000000000,  20.0000000000)


Analysis of symmetry for initial positions (statically):
=====================================================================
 Subroutine PRICEL returns:
 Original cell was already a primitive cell.
 

 Routine SETGRP: Setting up the symmetry group for a 
 simple cubic supercell.


 Subroutine GETGRP returns: Found  1 space group operations
 (whereof  1 operations were pure point group operations)
 out of a pool of 48 trial point group operations.


The static configuration has the point symmetry C_1 .


Analysis of symmetry for dynamics (positions and initial velocities):
=====================================================================
 Subroutine PRICEL returns:
 Original cell was already a primitive cell.
 

 Routine SETGRP: Setting up the symmetry group for a 
 simple cubic supercell.


 Subroutine GETGRP returns: Found  1 space group operations
 (whereof  1 operations were pure point group operations)
 out of a pool of 48 trial point group operations.


The dynamic configuration has the point symmetry C_1 .


 Subroutine INISYM returns: Found  1 space group operations
 (whereof  1 operations are pure point group operations),
 and found     1 'primitive' translations

 
 
 KPOINTS: Automatic mesh                          

Automatic generation of k-mesh.
Space group operators:
 irot       det(A)        alpha          n_x          n_y          n_z        tau_x        tau_y        tau_z
    1     1.000000     0.000000     1.000000     0.000000     0.000000     0.000000     0.000000     0.000000
 
 Subroutine IBZKPT returns following result:
 ===========================================
 
 Found      1 irreducible k-points:
 
 Following reciprocal coordinates:
            Coordinates               Weight
  0.000000  0.000000  0.000000      1.000000
 
 Following cartesian coordinates:
            Coordinates               Weight
  0.000000  0.000000  0.000000      1.000000
 


--------------------------------------------------------------------------------------------------------




 Dimension of arrays:
   k-points           NKPTS =      1   k-points in BZ     NKDIM =      1   number of bands    NBANDS=     42
   number of dos      NEDOS =    301   number of ions     NIONS =     26
   non local maximal  LDIM  =      5   non local SUM 2l+1 LMDIM =     13
   total plane-waves  NPLWV = 941192
   max r-space proj   IRMAX =      1   max aug-charges    IRDMAX=   6593
   dimension x,y,z NGX =    98 NGY =   98 NGZ =   98
   dimension x,y,z NGXF=   196 NGYF=  196 NGZF=  196
   support grid    NGXF=   196 NGYF=  196 NGZF=  196
   ions per type =               7   3  16
   NGX,Y,Z   is equivalent  to a cutoff of   8.15,  8.15,  8.15 a.u.
   NGXF,Y,Z  is equivalent  to a cutoff of  16.29, 16.29, 16.29 a.u.

 SYSTEM =  SiGe                                    
 POSCAR =  SiGeH16                                 

 Startparameter for this run:
   NWRITE =      2    write-flag & timer
   PREC   = normal    normal or accurate (medium, high low for compatibility)
   ISTART =      0    job   : 0-new  1-cont  2-samecut
   ICHARG =      2    charge: 1-file 2-atom 10-const
   ISPIN  =      1    spin polarized calculation?
   LNONCOLLINEAR =      F non collinear calculations
   LSORBIT =      F    spin-orbit coupling
   INIWAV =      1    electr: 0-lowe 1-rand  2-diag
   LASPH  =      F    aspherical Exc in radial PAW
   METAGGA=      F    non-selfconsistent MetaGGA calc.

 Electronic Relaxation 1
   ENCUT  =  400.0 eV  29.40 Ry    5.42 a.u.  32.61 32.61 32.61*2*pi/ulx,y,z
   ENINI  =  400.0     initial cutoff
   ENAUG  =  400.0 eV  augmentation charge cutoff
   NELM   =     60;   NELMIN=  2; NELMDL= -5     # of ELM steps 
   EDIFF  = 0.1E-05   stopping-criterion for ELM
   LREAL  =      F    real-space projection
   NLSPLINE    = F    spline interpolate recip. space projectors
   LCOMPAT=      F    compatible to vasp.4.4
   GGA_COMPAT  = T    GGA compatible to vasp.4.4-vasp.4.6
   LMAXPAW     = -100 max onsite density
   LMAXMIX     =    2 max onsite mixed and CHGCAR
   VOSKOWN=      0    Vosko Wilk Nusair interpolation
   ROPT   =    0.00000   0.00000   0.00000
 Ionic relaxation
   EDIFFG = -.2E-01   stopping-criterion for IOM
   NSW    =    200    number of steps for IOM
   NBLOCK =      1;   KBLOCK =    200    inner block; outer block 
   IBRION =      2    ionic relax: 0-MD 1-quasi-New 2-CG
   NFREE  =      1    steps in history (QN), initial steepest desc. (CG)
   ISIF   =      2    stress and relaxation
   IWAVPR =     11    prediction:  0-non 1-charg 2-wave 3-comb
   ISYM   =      2    0-nonsym 1-usesym 2-fastsym
   LCORR  =      T    Harris-Foulkes like correction to forces

   POTIM  = 0.5000    time-step for ionic-motion
   TEIN   =    0.0    initial temperature
   TEBEG  =    0.0;   TEEND  =   0.0 temperature during run
   SMASS  =  -3.00    Nose mass-parameter (am)
   estimated Nose-frequenzy (Omega)   =  0.10E-29 period in steps =****** mass=  -0.914E-26a.u.
   SCALEE = 1.0000    scale energy and forces
   NPACO  =    256;   APACO  = 16.0  distance and # of slots for P.C.
   PSTRESS=    0.0 pullay stress

  Mass of Ions in am
   POMASS =  28.09 72.61  1.00
  Ionic Valenz
   ZVAL   =   4.00  4.00  1.00
  Atomic Wigner-Seitz radii
   RWIGS  =  -1.00 -1.00 -1.00
  virtual crystal weights 
   VCA    =   1.00  1.00  1.00
   NELECT =      56.0000    total number of electrons
   NUPDOWN=      -1.0000    fix difference up-down

 DOS related values:
   EMIN   =  10.00;   EMAX   =-10.00  energy-range for DOS
   EFERMI =   0.00
   ISMEAR =     0;   SIGMA  =   0.20  broadening in eV -4-tet -1-fermi 0-gaus

 Electronic relaxation 2 (details)
   IALGO  =     38    algorithm
   LDIAG  =      T    sub-space diagonalisation (order eigenvalues)
   LSUBROT=      F    optimize rotation matrix (better conditioning)
   TURBO    =      0    0=normal 1=particle mesh
   IRESTART =      0    0=no restart 2=restart with 2 vectors
   NREBOOT  =      0    no. of reboots
   NMIN     =      0    reboot dimension
   EREF     =   0.00    reference energy to select bands
   IMIX   =      4    mixing-type and parameters
     AMIX     =   0.40;   BMIX     =  1.00
     AMIX_MAG =   1.60;   BMIX_MAG =  1.00
     AMIN     =   0.10
     WC   =   100.;   INIMIX=   1;  MIXPRE=   1;  MAXMIX= -45

 Intra band minimization:
   WEIMIN = 0.0010     energy-eigenvalue tresh-hold
   EBREAK =  0.60E-08  absolut break condition
   DEPER  =   0.30     relativ break condition  

   TIME   =   0.40     timestep for ELM

  volume/ion in A,a.u.               =     307.69      2076.41
  Fermi-wavevector in a.u.,A,eV,Ry     =   0.313166  0.591797  1.334361  0.098073
  Thomas-Fermi vector in A             =   1.193276
 
 Write flags
   LWAVE        =      T    write WAVECAR
   LDOWNSAMPLE  =      F    k-point downsampling of WAVECAR
   LCHARG       =      T    write CHGCAR
   LVTOT        =      F    write LOCPOT, total local potential
   LVHAR        =      F    write LOCPOT, Hartree potential only
   LELF         =      F    write electronic localiz. function (ELF)
   LORBIT       =      0    0 simple, 1 ext, 2 COOP (PROOUT), +10 PAW based schemes


 Dipole corrections
   LMONO  =      F    monopole corrections only (constant potential shift)
   LDIPOL =      F    correct potential (dipole corrections)
   IDIPOL =      0    1-x, 2-y, 3-z, 4-all directions 
   EPSILON=  1.0000000 bulk dielectric constant

 Exchange correlation treatment:
   GGA     =    --    GGA type
   LEXCH   =     8    internal setting for exchange type
   VOSKOWN=      0    Vosko Wilk Nusair interpolation
   LHFCALC =     F    Hartree Fock is set to
   LHFONE  =     F    Hartree Fock one center treatment
   AEXX    =    0.0000 exact exchange contribution

 Linear response parameters
   LEPSILON=     F    determine dielectric tensor
   LRPA    =     F    only Hartree local field effects (RPA)
   LNABLA  =     F    use nabla operator in PAW spheres
   LVEL    =     F    velocity operator in full k-point grid
   LINTERFAST=   F  fast interpolation
   KINTER  =     0    interpolate to denser k-point grid
   CSHIFT  =0.1000    complex shift for real part using Kramers Kronig
   OMEGAMAX=  -1.0    maximum frequency
   DEG_THRESHOLD= 0.2000000E-02 threshold for treating states as degnerate
   RTIME   =   -0.100 relaxation time in fs
  (WPLASMAI=    0.000 imaginary part of plasma frequency in eV, 0.658/RTIME)
   DFIELD  = 0.0000000 0.0000000 0.0000000 field for delta impulse in time
 
 Orbital magnetization related:
   ORBITALMAG=     F  switch on orbital magnetization
   LCHIMAG   =     F  perturbation theory with respect to B field
   DQ        =  0.001000  dq finite difference perturbation B field
   LLRAUG    =     F  two centre corrections for induced B field



--------------------------------------------------------------------------------------------------------


 conjugate gradient relaxation of ions
 charge density and potential will be updated during run
 non-spin polarized calculation
 Variant of blocked Davidson
 Davidson routine will perform the subspace rotation
 perform sub-space diagonalisation
    after iterative eigenvector-optimisation
 modified Broyden-mixing scheme, WC =      100.0
 initial mixing is a Kerker type mixing with AMIX =  0.4000 and BMIX =      1.0000
 Hartree-type preconditioning will be used
 using additional bands           14
 reciprocal scheme for non local part
 use partial core corrections
 calculate Harris-corrections to forces 
   (improved forces if not selfconsistent)
 use gradient corrections 
 use of overlap-Matrix (Vanderbilt PP)
 Gauss-broadening in eV      SIGMA  =   0.20


--------------------------------------------------------------------------------------------------------


  energy-cutoff  :      400.00
  volume of cell :     8000.00
      direct lattice vectors                 reciprocal lattice vectors
    20.000000000  0.000000000  0.000000000     0.050000000  0.000000000  0.000000000
     0.000000000 20.000000000  0.000000000     0.000000000  0.050000000  0.000000000
     0.000000000  0.000000000 20.000000000     0.000000000  0.000000000  0.050000000

  length of vectors
    20.000000000 20.000000000 20.000000000     0.050000000  0.050000000  0.050000000


 
 k-points in units of 2pi/SCALE and weight: Automatic mesh                          
   0.00000000  0.00000000  0.00000000       1.000
 
 k-points in reciprocal lattice and weights: Automatic mesh                          
   0.00000000  0.00000000  0.00000000       1.000
 
 position of ions in fractional coordinates (direct lattice) 
   0.47547100  0.55626000  0.38465300
   0.36907800  0.53906000  0.43641200
   0.54179100  0.45744600  0.39613600
   0.53111600  0.64794100  0.43749600
   0.38461900  0.51474100  0.55243500
   0.61299700  0.52481700  0.56496600
   0.45095700  0.41593600  0.56388300
   0.55736800  0.43311000  0.51215000
   0.54669200  0.62364400  0.55351800
   0.44028400  0.60643000  0.60524300
   0.41490100  0.35665000  0.52940300
   0.46117000  0.40042600  0.63910800
   0.60034800  0.36907000  0.51957800
   0.68182700  0.53600700  0.53118700
   0.62280400  0.50903400  0.64018900
   0.61080000  0.46880600  0.36278200
   0.50550800  0.39805500  0.36207700
   0.46538400  0.57201900  0.30946400
   0.58275500  0.68306700  0.58775000
   0.45052500  0.59044300  0.68036400
   0.39732000  0.67044900  0.59753500
   0.31566200  0.50359800  0.58596500
   0.33322800  0.47946500  0.40225200
   0.32629100  0.60324700  0.42912600
   0.48792300  0.71185500  0.43020800
   0.60015100  0.65882400  0.40403700
 
 position of ions in cartesian coordinates  (Angst):
   9.50942000 11.12520000  7.69306000
   7.38156000 10.78120000  8.72824000
  10.83582000  9.14892000  7.92272000
  10.62232000 12.95882000  8.74992000
   7.69238000 10.29482000 11.04870000
  12.25994000 10.49634000 11.29932000
   9.01914000  8.31872000 11.27766000
  11.14736000  8.66220000 10.24300000
  10.93384000 12.47288000 11.07036000
   8.80568000 12.12860000 12.10486000
   8.29802000  7.13300000 10.58806000
   9.22340000  8.00852000 12.78216000
  12.00696000  7.38140000 10.39156000
  13.63654000 10.72014000 10.62374000
  12.45608000 10.18068000 12.80378000
  12.21600000  9.37612000  7.25564000
  10.11016000  7.96110000  7.24154000
   9.30768000 11.44038000  6.18928000
  11.65510000 13.66134000 11.75500000
   9.01050000 11.80886000 13.60728000
   7.94640000 13.40898000 11.95070000
   6.31324000 10.07196000 11.71930000
   6.66456000  9.58930000  8.04504000
   6.52582000 12.06494000  8.58252000
   9.75846000 14.23710000  8.60416000
  12.00302000 13.17648000  8.08074000
 


--------------------------------------------------------------------------------------------------------


 k-point  1 :   0.0000 0.0000 0.0000  plane waves:  145165

 maximum and minimum number of plane-waves per node :     24209    24180

 maximum number of plane-waves:    145165
 maximum index in each direction: 
   IXMAX=   32   IYMAX=   32   IZMAX=   32
   IXMIN=  -32   IYMIN=  -32   IZMIN=  -32


 parallel 3D FFT for wavefunctions:
    minimum data exchange during FFTs selected (reduces bandwidth)
 parallel 3D FFT for charge:
    minimum data exchange during FFTs selected (reduces bandwidth)


 total amount of memory used by VASP MPI-rank0   131440. kBytes
=======================================================================

   base      :      30000. kBytes
   nonl-proj :      17624. kBytes
   fftplans  :      26957. kBytes
   grid      :      48673. kBytes
   one-center:         40. kBytes
   wavefun   :       8146. kBytes
 
     INWAV:  cpu time    0.0000: real time    0.0001
 Broyden mixing: mesh for mixing (old mesh)
   NGX = 65   NGY = 65   NGZ = 65
  (NGX  =196   NGY  =196   NGZ  =196)
  gives a total of 274625 points

 initial charge density was supplied:
 charge density of overlapping atoms calculated
 number of electron      56.0000000 magnetization 
 keeping initial charge density in first step


--------------------------------------------------------------------------------------------------------


 Maximum index for augmentation-charges          504 (set IRDMAX)


--------------------------------------------------------------------------------------------------------


 First call to EWALD:  gamma=   0.089
 Maximum number of real-space cells 3x 3x 3
 Maximum number of reciprocal cells 3x 3x 3

    FEWALD:  cpu time    0.0030: real time    0.0030


--------------------------------------- Iteration      1(   1)  ---------------------------------------


    POTLOK:  cpu time    1.7717: real time    1.7732
    SETDIJ:  cpu time    0.0070: real time    0.0073
     EDDAV:  cpu time   10.3894: real time   10.3861
       DOS:  cpu time    0.0000: real time    0.0003
    --------------------------------------------
      LOOP:  cpu time   12.1682: real time   12.1669

 eigenvalue-minimisations  :   116
 total energy-change (2. order) : 0.1988822E+03  (-0.1049367E+04)
 number of electron      56.0000000 magnetization 
 augmentation part       56.0000000 magnetization 

 Free energy of the ion-electron system (eV)
  ---------------------------------------------------
  alpha Z        PSCENC =         1.68866877
  Ewald energy   TEWEN  =      2629.98113996
  -Hartree energ DENC   =     -3443.40498156
  -exchange      EXHF   =         0.00000000
  -V(xc)+E(xc)   XCENC  =       -55.12202440
  PAW double counting   =       915.44662188     -748.97298319
  entropy T*S    EENTRO =        -0.42899452
  eigenvalues    EBANDS =      -336.41062695
  atomic energy  EATOM  =      1236.10535615
  Solvation  Ediel_sol  =         0.00000000
  ---------------------------------------------------
  free energy    TOTEN  =       198.88217613 eV

  energy without entropy =      199.31117066  energy(sigma->0) =      199.09667340


--------------------------------------------------------------------------------------------------------




--------------------------------------- Iteration      1(   2)  ---------------------------------------


     EDDAV:  cpu time   12.3671: real time   12.3636
       DOS:  cpu time    0.0000: real time    0.0002
    --------------------------------------------
      LOOP:  cpu time   12.3671: real time   12.3639

 eigenvalue-minimisations  :   144
 total energy-change (2. order) :-0.2306191E+03  (-0.2155075E+03)
 number of electron      56.0000000 magnetization 
 augmentation part       56.0000000 magnetization 

 Free energy of the ion-electron system (eV)
  ---------------------------------------------------
  alpha Z        PSCENC =         1.68866877
  Ewald energy   TEWEN  =      2629.98113996
  -Hartree energ DENC   =     -3443.40498156
  -exchange      EXHF   =         0.00000000
  -V(xc)+E(xc)   XCENC  =       -55.12202440
  PAW double counting   =       915.44662188     -748.97298319
  entropy T*S    EENTRO =        -0.00000000
  eigenvalues    EBANDS =      -567.45870104
  atomic energy  EATOM  =      1236.10535615
  Solvation  Ediel_sol  =         0.00000000
  ---------------------------------------------------
  free energy    TOTEN  =       -31.73690343 eV

  energy without entropy =      -31.73690343  energy(sigma->0) =      -31.73690343


--------------------------------------------------------------------------------------------------------




--------------------------------------- Iteration      1(   3)  ---------------------------------------


     EDDAV:  cpu time   10.3064: real time   10.3033
       DOS:  cpu time    0.0010: real time    0.0002
    --------------------------------------------
      LOOP:  cpu time   10.3074: real time   10.3035

 eigenvalue-minimisations  :   112
 total energy-change (2. order) :-0.7264373E+02  (-0.7247378E+02)
 number of electron      56.0000000 magnetization 
 augmentation part       56.0000000 magnetization 

 Free energy of the ion-electron system (eV)
  ---------------------------------------------------
  alpha Z        PSCENC =         1.68866877
  Ewald energy   TEWEN  =      2629.98113996
  -Hartree energ DENC   =     -3443.40498156
  -exchange      EXHF   =         0.00000000
  -V(xc)+E(xc)   XCENC  =       -55.12202440
  PAW double counting   =       915.44662188     -748.97298319
  entropy T*S    EENTRO =        -0.00000000
  eigenvalues    EBANDS =      -640.10243268
  atomic energy  EATOM  =      1236.10535615
  Solvation  Ediel_sol  =         0.00000000
  ---------------------------------------------------
  free energy    TOTEN  =      -104.38063508 eV

  energy without entropy =     -104.38063508  energy(sigma->0) =     -104.38063508


--------------------------------------------------------------------------------------------------------




--------------------------------------- Iteration      1(   4)  ---------------------------------------


     EDDAV:  cpu time    9.5515: real time    9.5497
       DOS:  cpu time    0.0010: real time    0.0003
    --------------------------------------------
      LOOP:  cpu time    9.5525: real time    9.5500

 eigenvalue-minimisations  :   104
 total energy-change (2. order) :-0.4015930E+01  (-0.4000916E+01)
 number of electron      56.0000000 magnetization 
 augmentation part       56.0000000 magnetization 

 Free energy of the ion-electron system (eV)
  ---------------------------------------------------
  alpha Z        PSCENC =         1.68866877
  Ewald energy   TEWEN  =      2629.98113996
  -Hartree energ DENC   =     -3443.40498156
  -exchange      EXHF   =         0.00000000
  -V(xc)+E(xc)   XCENC  =       -55.12202440
  PAW double counting   =       915.44662188     -748.97298319
  entropy T*S    EENTRO =        -0.00000000
  eigenvalues    EBANDS =      -644.11836303
  atomic energy  EATOM  =      1236.10535615
  Solvation  Ediel_sol  =         0.00000000
  ---------------------------------------------------
  free energy    TOTEN  =      -108.39656543 eV

  energy without entropy =     -108.39656543  energy(sigma->0) =     -108.39656543


--------------------------------------------------------------------------------------------------------




--------------------------------------- Iteration      1(   5)  ---------------------------------------


     EDDAV:  cpu time   11.8452: real time   11.8410
       DOS:  cpu time    0.0000: real time    0.0003
    CHARGE:  cpu time    0.4899: real time    0.4894
    MIXING:  cpu time    0.0430: real time    0.0426
    --------------------------------------------
      LOOP:  cpu time   12.3781: real time   12.3734

 eigenvalue-minimisations  :   136
 total energy-change (2. order) :-0.8531230E-01  (-0.8525908E-01)
 number of electron      56.0000024 magnetization 
 augmentation part       -3.1456616 magnetization 

 Broyden mixing:
  rms(total) = 0.15357E+01    rms(broyden)= 0.15356E+01
  rms(prec ) = 0.16323E+01
  weight for this iteration     100.00

 Free energy of the ion-electron system (eV)
  ---------------------------------------------------
  alpha Z        PSCENC =         1.68866877
  Ewald energy   TEWEN  =      2629.98113996
  -Hartree energ DENC   =     -3443.40498156
  -exchange      EXHF   =         0.00000000
  -V(xc)+E(xc)   XCENC  =       -55.12202440
  PAW double counting   =       915.44662188     -748.97298319
  entropy T*S    EENTRO =        -0.00000000
  eigenvalues    EBANDS =      -644.20367534
  atomic energy  EATOM  =      1236.10535615
  Solvation  Ediel_sol  =         0.00000000
  ---------------------------------------------------
  free energy    TOTEN  =      -108.48187773 eV

  energy without entropy =     -108.48187773  energy(sigma->0) =     -108.48187773


--------------------------------------------------------------------------------------------------------




--------------------------------------- Iteration      1(   6)  ---------------------------------------


    POTLOK:  cpu time    1.7037: real time    1.7187
    SETDIJ:  cpu time    0.0080: real time    0.0081
     EDDAV:  cpu time    9.5505: real time    9.5542
       DOS:  cpu time    0.0000: real time    0.0003
    CHARGE:  cpu time    0.4879: real time    0.4874
    MIXING:  cpu time    0.0440: real time    0.0445
    --------------------------------------------
      LOOP:  cpu time   11.7942: real time   11.8132

 eigenvalue-minimisations  :   104
 total energy-change (2. order) : 0.3276554E+01  (-0.1609615E+00)
 number of electron      56.0000023 magnetization 
 augmentation part       -3.1466172 magnetization 

 Broyden mixing:
  rms(total) = 0.89281E+00    rms(broyden)= 0.89281E+00
  rms(prec ) = 0.95147E+00
  weight for this iteration     100.00

 eigenvalues of (default mixing * dielectric matrix)
  average eigenvalue GAMMA=   2.3164
  2.3164

 Free energy of the ion-electron system (eV)
  ---------------------------------------------------
  alpha Z        PSCENC =         1.68866877
  Ewald energy   TEWEN  =      2629.98113996
  -Hartree energ DENC   =     -3475.08530617
  -exchange      EXHF   =         0.00000000
  -V(xc)+E(xc)   XCENC  =       -51.47933647
  PAW double counting   =      1889.85226926    -1724.08463126
  entropy T*S    EENTRO =        -0.00000000
  eigenvalues    EBANDS =      -612.18348363
  atomic energy  EATOM  =      1236.10535615
  Solvation  Ediel_sol  =         0.00000000
  ---------------------------------------------------
  free energy    TOTEN  =      -105.20532338 eV

  energy without entropy =     -105.20532338  energy(sigma->0) =     -105.20532338


--------------------------------------------------------------------------------------------------------




--------------------------------------- Iteration      1(   7)  ---------------------------------------


    POTLOK:  cpu time    1.7047: real time    1.7064
    SETDIJ:  cpu time    0.0080: real time    0.0078
     EDDAV:  cpu time    9.5615: real time    9.5641
       DOS:  cpu time    0.0010: real time    0.0004
    CHARGE:  cpu time    0.4849: real time    0.4857
    MIXING:  cpu time    0.0480: real time    0.0471
    --------------------------------------------
      LOOP:  cpu time   11.8082: real time   11.8114

 eigenvalue-minimisations  :   104
 total energy-change (2. order) : 0.1720792E+01  (-0.4204798E+00)
 number of electron      56.0000021 magnetization 
 augmentation part       -3.1441916 magnetization 

 Broyden mixing:
  rms(total) = 0.12267E+00    rms(broyden)= 0.12252E+00
  rms(prec ) = 0.15369E+00
  weight for this iteration     100.00

 eigenvalues of (default mixing * dielectric matrix)
  average eigenvalue GAMMA=   1.8248
  1.6370  2.0127

 Free energy of the ion-electron system (eV)
  ---------------------------------------------------
  alpha Z        PSCENC =         1.68866877
  Ewald energy   TEWEN  =      2629.98113996
  -Hartree energ DENC   =     -3531.83490463
  -exchange      EXHF   =         0.00000000
  -V(xc)+E(xc)   XCENC  =       -45.66472285
  PAW double counting   =      4080.82237868    -3916.01363455
  entropy T*S    EENTRO =        -0.00000000
  eigenvalues    EBANDS =      -558.56881242
  atomic energy  EATOM  =      1236.10535615
  Solvation  Ediel_sol  =         0.00000000
  ---------------------------------------------------
  free energy    TOTEN  =      -103.48453089 eV

  energy without entropy =     -103.48453089  energy(sigma->0) =     -103.48453089


--------------------------------------------------------------------------------------------------------




--------------------------------------- Iteration      1(   8)  ---------------------------------------


    POTLOK:  cpu time    1.7087: real time    1.7093
    SETDIJ:  cpu time    0.0070: real time    0.0074
     EDDAV:  cpu time    9.5106: real time    9.5278
       DOS:  cpu time    0.0000: real time    0.0003
    CHARGE:  cpu time    0.4839: real time    0.4840
    MIXING:  cpu time    0.0490: real time    0.0483
    --------------------------------------------
      LOOP:  cpu time   11.7592: real time   11.7771

 eigenvalue-minimisations  :   104
 total energy-change (2. order) : 0.4882893E-01  (-0.2736636E-01)
 number of electron      56.0000021 magnetization 
 augmentation part       -3.1426135 magnetization 

 Broyden mixing:
  rms(total) = 0.63119E-01    rms(broyden)= 0.63103E-01
  rms(prec ) = 0.82609E-01
  weight for this iteration     100.00

 eigenvalues of (default mixing * dielectric matrix)
  average eigenvalue GAMMA=   1.9772
  2.6327  1.6495  1.6495

 Free energy of the ion-electron system (eV)
  ---------------------------------------------------
  alpha Z        PSCENC =         1.68866877
  Ewald energy   TEWEN  =      2629.98113996
  -Hartree energ DENC   =     -3539.21995882
  -exchange      EXHF   =         0.00000000
  -V(xc)+E(xc)   XCENC  =       -45.73234781
  PAW double counting   =      4079.96311625    -3915.06799442
  entropy T*S    EENTRO =        -0.00000000
  eigenvalues    EBANDS =      -551.15368204
  atomic energy  EATOM  =      1236.10535615
  Solvation  Ediel_sol  =         0.00000000
  ---------------------------------------------------
  free energy    TOTEN  =      -103.43570196 eV

  energy without entropy =     -103.43570196  energy(sigma->0) =     -103.43570196


--------------------------------------------------------------------------------------------------------




--------------------------------------- Iteration      1(   9)  ---------------------------------------


    POTLOK:  cpu time    1.7147: real time    1.7166
    SETDIJ:  cpu time    0.0080: real time    0.0077
     EDDAV:  cpu time   10.6724: real time   10.6727
       DOS:  cpu time    0.0000: real time    0.0003
    CHARGE:  cpu time    0.4859: real time    0.4864
    MIXING:  cpu time    0.0520: real time    0.0517
    --------------------------------------------
      LOOP:  cpu time   12.9330: real time   12.9353

 eigenvalue-minimisations  :   120
 total energy-change (2. order) : 0.3615404E-01  (-0.8212289E-02)
 number of electron      56.0000021 magnetization 
 augmentation part       -3.1306848 magnetization 

 Broyden mixing:
  rms(total) = 0.35030E-01    rms(broyden)= 0.35029E-01
  rms(prec ) = 0.46096E-01
  weight for this iteration     100.00

 eigenvalues of (default mixing * dielectric matrix)
  average eigenvalue GAMMA=   1.7423
  2.5077  1.8358  1.8358  0.7902

 Free energy of the ion-electron system (eV)
  ---------------------------------------------------
  alpha Z        PSCENC =         1.68866877
  Ewald energy   TEWEN  =      2629.98113996
  -Hartree energ DENC   =     -3551.30143456
  -exchange      EXHF   =         0.00000000
  -V(xc)+E(xc)   XCENC  =       -45.05276823
  PAW double counting   =      4213.53268363    -4048.66151284
  entropy T*S    EENTRO =        -0.00000000
  eigenvalues    EBANDS =      -539.69168081
  atomic energy  EATOM  =      1236.10535615
  Solvation  Ediel_sol  =         0.00000000
  ---------------------------------------------------
  free energy    TOTEN  =      -103.39954792 eV

  energy without entropy =     -103.39954792  energy(sigma->0) =     -103.39954792


--------------------------------------------------------------------------------------------------------




--------------------------------------- Iteration      1(  10)  ---------------------------------------


    POTLOK:  cpu time    1.7247: real time    1.7251
    SETDIJ:  cpu time    0.0080: real time    0.0079
     EDDAV:  cpu time   10.1065: real time   10.1067
       DOS:  cpu time    0.0000: real time    0.0003
    CHARGE:  cpu time    0.4889: real time    0.4887
    MIXING:  cpu time    0.0530: real time    0.0538
    --------------------------------------------
      LOOP:  cpu time   12.3811: real time   12.3826

 eigenvalue-minimisations  :   112
 total energy-change (2. order) :-0.1928192E-03  (-0.3452439E-03)
 number of electron      56.0000021 magnetization 
 augmentation part       -3.1297665 magnetization 

 Broyden mixing:
  rms(total) = 0.17238E-01    rms(broyden)= 0.17238E-01
  rms(prec ) = 0.29923E-01
  weight for this iteration     100.00

 eigenvalues of (default mixing * dielectric matrix)
  average eigenvalue GAMMA=   1.8586
  2.7647  2.1486  1.0708  1.6545  1.6545

 Free energy of the ion-electron system (eV)
  ---------------------------------------------------
  alpha Z        PSCENC =         1.68866877
  Ewald energy   TEWEN  =      2629.98113996
  -Hartree energ DENC   =     -3553.28035838
  -exchange      EXHF   =         0.00000000
  -V(xc)+E(xc)   XCENC  =       -45.04766804
  PAW double counting   =      4133.88061459    -3968.96736724
  entropy T*S    EENTRO =        -0.00000000
  eigenvalues    EBANDS =      -537.76012655
  atomic energy  EATOM  =      1236.10535615
  Solvation  Ediel_sol  =         0.00000000
  ---------------------------------------------------
  free energy    TOTEN  =      -103.39974074 eV

  energy without entropy =     -103.39974074  energy(sigma->0) =     -103.39974074


--------------------------------------------------------------------------------------------------------




--------------------------------------- Iteration      1(  11)  ---------------------------------------


    POTLOK:  cpu time    1.7357: real time    1.7758
    SETDIJ:  cpu time    0.0090: real time    0.0084
     EDDAV:  cpu time    9.5415: real time    9.5664
       DOS:  cpu time    0.0000: real time    0.0003
    CHARGE:  cpu time    0.4849: real time    0.4847
    MIXING:  cpu time    0.0570: real time    0.0574
    --------------------------------------------
      LOOP:  cpu time   11.8282: real time   11.8929

 eigenvalue-minimisations  :   104
 total energy-change (2. order) : 0.7944692E-04  (-0.6659626E-03)
 number of electron      56.0000021 magnetization 
 augmentation part       -3.1291934 magnetization 

 Broyden mixing:
  rms(total) = 0.78113E-02    rms(broyden)= 0.78110E-02
  rms(prec ) = 0.14627E-01
  weight for this iteration     100.00

 eigenvalues of (default mixing * dielectric matrix)
  average eigenvalue GAMMA=   1.8551
  3.1708  2.5443  1.7466  1.7466  1.0462  0.8759

 Free energy of the ion-electron system (eV)
  ---------------------------------------------------
  alpha Z        PSCENC =         1.68866877
  Ewald energy   TEWEN  =      2629.98113996
  -Hartree energ DENC   =     -3560.05086331
  -exchange      EXHF   =         0.00000000
  -V(xc)+E(xc)   XCENC  =       -44.85981401
  PAW double counting   =      4084.72461698    -3919.76647165
  entropy T*S    EENTRO =        -0.00000000
  eigenvalues    EBANDS =      -531.22229419
  atomic energy  EATOM  =      1236.10535615
  Solvation  Ediel_sol  =         0.00000000
  ---------------------------------------------------
  free energy    TOTEN  =      -103.39966130 eV

  energy without entropy =     -103.39966130  energy(sigma->0) =     -103.39966130


--------------------------------------------------------------------------------------------------------




--------------------------------------- Iteration      1(  12)  ---------------------------------------


    POTLOK:  cpu time    1.7347: real time    1.7396
    SETDIJ:  cpu time    0.0070: real time    0.0140
     EDDAV:  cpu time    8.9656: real time    8.9798
       DOS:  cpu time    0.0000: real time    0.0003
    CHARGE:  cpu time    0.4849: real time    0.4865
    MIXING:  cpu time    0.0590: real time    0.0596
    --------------------------------------------
      LOOP:  cpu time   11.2513: real time   11.2799

 eigenvalue-minimisations  :    96
 total energy-change (2. order) :-0.3981171E-02  (-0.9480897E-04)
 number of electron      56.0000021 magnetization 
 augmentation part       -3.1290134 magnetization 

 Broyden mixing:
  rms(total) = 0.56468E-02    rms(broyden)= 0.56468E-02
  rms(prec ) = 0.10174E-01
  weight for this iteration     100.00

 eigenvalues of (default mixing * dielectric matrix)
  average eigenvalue GAMMA=   2.0600
  4.5076  2.6834  2.1225  1.5885  1.5885  0.9649  0.9649

 Free energy of the ion-electron system (eV)
  ---------------------------------------------------
  alpha Z        PSCENC =         1.68866877
  Ewald energy   TEWEN  =      2629.98113996
  -Hartree energ DENC   =     -3562.32694645
  -exchange      EXHF   =         0.00000000
  -V(xc)+E(xc)   XCENC  =       -44.81991469
  PAW double counting   =      4072.41338236    -3907.44992682
  entropy T*S    EENTRO =        -0.00000000
  eigenvalues    EBANDS =      -528.99540175
  atomic energy  EATOM  =      1236.10535615
  Solvation  Ediel_sol  =         0.00000000
  ---------------------------------------------------
  free energy    TOTEN  =      -103.40364247 eV

  energy without entropy =     -103.40364247  energy(sigma->0) =     -103.40364247


--------------------------------------------------------------------------------------------------------




--------------------------------------- Iteration      1(  13)  ---------------------------------------


    POTLOK:  cpu time    1.7487: real time    1.7507
    SETDIJ:  cpu time    0.0150: real time    0.0148
     EDDAV:  cpu time    9.5106: real time    9.5473
       DOS:  cpu time    0.0000: real time    0.0003
    CHARGE:  cpu time    0.4879: real time    0.4862
    MIXING:  cpu time    0.0660: real time    0.0667
    --------------------------------------------
      LOOP:  cpu time   11.8282: real time   11.8661

 eigenvalue-minimisations  :   104
 total energy-change (2. order) :-0.4600087E-02  (-0.1979545E-03)
 number of electron      56.0000021 magnetization 
 augmentation part       -3.1287872 magnetization 

 Broyden mixing:
  rms(total) = 0.35125E-02    rms(broyden)= 0.35124E-02
  rms(prec ) = 0.52877E-02
  weight for this iteration     100.00

 eigenvalues of (default mixing * dielectric matrix)
  average eigenvalue GAMMA=   2.1870
  5.6577  2.7994  2.4547  1.7908  1.7908  1.0891  0.9567  0.9567

 Free energy of the ion-electron system (eV)
  ---------------------------------------------------
  alpha Z        PSCENC =         1.68866877
  Ewald energy   TEWEN  =      2629.98113996
  -Hartree energ DENC   =     -3565.26361142
  -exchange      EXHF   =         0.00000000
  -V(xc)+E(xc)   XCENC  =       -44.77170666
  PAW double counting   =      4073.02238465    -3908.06504716
  entropy T*S    EENTRO =        -0.00000000
  eigenvalues    EBANDS =      -526.10542684
  atomic energy  EATOM  =      1236.10535615
  Solvation  Ediel_sol  =         0.00000000
  ---------------------------------------------------
  free energy    TOTEN  =      -103.40824255 eV

  energy without entropy =     -103.40824255  energy(sigma->0) =     -103.40824255


--------------------------------------------------------------------------------------------------------




--------------------------------------- Iteration      1(  14)  ---------------------------------------


    POTLOK:  cpu time    1.7287: real time    1.7341
    SETDIJ:  cpu time    0.0080: real time    0.0079
     EDDAV:  cpu time   10.1215: real time   10.1401
       DOS:  cpu time    0.0010: real time    0.0003
    CHARGE:  cpu time    0.4829: real time    0.4841
    MIXING:  cpu time    0.0690: real time    0.0687
    --------------------------------------------
      LOOP:  cpu time   12.4111: real time   12.4353

 eigenvalue-minimisations  :   112
 total energy-change (2. order) :-0.4367598E-02  (-0.4180098E-04)
 number of electron      56.0000021 magnetization 
 augmentation part       -3.1282004 magnetization 

 Broyden mixing:
  rms(total) = 0.15717E-02    rms(broyden)= 0.15717E-02
  rms(prec ) = 0.27818E-02
  weight for this iteration     100.00

 eigenvalues of (default mixing * dielectric matrix)
  average eigenvalue GAMMA=   2.3065
  6.5765  2.8952  2.8952  2.0407  1.6783  1.6783  1.1052  0.9447  0.9447

 Free energy of the ion-electron system (eV)
  ---------------------------------------------------
  alpha Z        PSCENC =         1.68866877
  Ewald energy   TEWEN  =      2629.98113996
  -Hartree energ DENC   =     -3566.11413748
  -exchange      EXHF   =         0.00000000
  -V(xc)+E(xc)   XCENC  =       -44.77553057
  PAW double counting   =      4077.17647047    -3912.22344618
  entropy T*S    EENTRO =        -0.00000000
  eigenvalues    EBANDS =      -525.25113128
  atomic energy  EATOM  =      1236.10535615
  Solvation  Ediel_sol  =         0.00000000
  ---------------------------------------------------
  free energy    TOTEN  =      -103.41261015 eV

  energy without entropy =     -103.41261015  energy(sigma->0) =     -103.41261015


--------------------------------------------------------------------------------------------------------




--------------------------------------- Iteration      1(  15)  ---------------------------------------


    POTLOK:  cpu time    1.7237: real time    1.7279
    SETDIJ:  cpu time    0.0070: real time    0.0079
     EDDAV:  cpu time   10.1075: real time   10.1243
       DOS:  cpu time    0.0000: real time    0.0003
    CHARGE:  cpu time    0.4859: real time    0.4859
    MIXING:  cpu time    0.0760: real time    0.0764
    --------------------------------------------
      LOOP:  cpu time   12.4001: real time   12.4227

 eigenvalue-minimisations  :   112
 total energy-change (2. order) :-0.4498344E-02  (-0.5542089E-04)
 number of electron      56.0000021 magnetization 
 augmentation part       -3.1280489 magnetization 

 Broyden mixing:
  rms(total) = 0.15505E-02    rms(broyden)= 0.15504E-02
  rms(prec ) = 0.19714E-02
  weight for this iteration     100.00

 eigenvalues of (default mixing * dielectric matrix)
  average eigenvalue GAMMA=   2.2982
  6.7361  3.7837  2.5923  2.1755  1.8332  1.8332  1.1861  0.9233  0.9591  0.9591

 Free energy of the ion-electron system (eV)
  ---------------------------------------------------
  alpha Z        PSCENC =         1.68866877
  Ewald energy   TEWEN  =      2629.98113996
  -Hartree energ DENC   =     -3566.29421335
  -exchange      EXHF   =         0.00000000
  -V(xc)+E(xc)   XCENC  =       -44.78731388
  PAW double counting   =      4081.95681976    -3917.00268538
  entropy T*S    EENTRO =        -0.00000000
  eigenvalues    EBANDS =      -525.06488052
  atomic energy  EATOM  =      1236.10535615
  Solvation  Ediel_sol  =         0.00000000
  ---------------------------------------------------
  free energy    TOTEN  =      -103.41710850 eV

  energy without entropy =     -103.41710850  energy(sigma->0) =     -103.41710850


--------------------------------------------------------------------------------------------------------




--------------------------------------- Iteration      1(  16)  ---------------------------------------


    POTLOK:  cpu time    1.7207: real time    1.7249
    SETDIJ:  cpu time    0.0080: real time    0.0129
     EDDAV:  cpu time   10.0825: real time   10.1027
       DOS:  cpu time    0.0000: real time    0.0003
    CHARGE:  cpu time    0.4829: real time    0.4843
    MIXING:  cpu time    0.0840: real time    0.0848
    --------------------------------------------
      LOOP:  cpu time   12.3781: real time   12.4100

 eigenvalue-minimisations  :   112
 total energy-change (2. order) :-0.9527556E-03  (-0.4617885E-05)
 number of electron      56.0000021 magnetization 
 augmentation part       -3.1282428 magnetization 

 Broyden mixing:
  rms(total) = 0.68201E-03    rms(broyden)= 0.68200E-03
  rms(prec ) = 0.10052E-02
  weight for this iteration     100.00

 eigenvalues of (default mixing * dielectric matrix)
  average eigenvalue GAMMA=   2.3853
  7.2651  4.5811  2.6006  2.6006  1.7946  1.7946  1.3681  1.3681  0.9509  0.9509
  0.9633

 Free energy of the ion-electron system (eV)
  ---------------------------------------------------
  alpha Z        PSCENC =         1.68866877
  Ewald energy   TEWEN  =      2629.98113996
  -Hartree energ DENC   =     -3566.40187986
  -exchange      EXHF   =         0.00000000
  -V(xc)+E(xc)   XCENC  =       -44.78582631
  PAW double counting   =      4080.94289426    -3915.98705013
  entropy T*S    EENTRO =        -0.00000000
  eigenvalues    EBANDS =      -524.96136410
  atomic energy  EATOM  =      1236.10535615
  Solvation  Ediel_sol  =         0.00000000
  ---------------------------------------------------
  free energy    TOTEN  =      -103.41806125 eV

  energy without entropy =     -103.41806125  energy(sigma->0) =     -103.41806125


--------------------------------------------------------------------------------------------------------




--------------------------------------- Iteration      1(  17)  ---------------------------------------


    POTLOK:  cpu time    1.7347: real time    1.7364
    SETDIJ:  cpu time    0.0080: real time    0.0085
     EDDAV:  cpu time    9.5515: real time    9.5485
       DOS:  cpu time    0.0000: real time    0.0003
    CHARGE:  cpu time    0.4859: real time    0.4850
    MIXING:  cpu time    0.0980: real time    0.0982
    --------------------------------------------
      LOOP:  cpu time   11.8782: real time   11.8768

 eigenvalue-minimisations  :   104
 total energy-change (2. order) :-0.1040932E-02  (-0.8018213E-05)
 number of electron      56.0000021 magnetization 
 augmentation part       -3.1283948 magnetization 

 Broyden mixing:
  rms(total) = 0.32051E-03    rms(broyden)= 0.32047E-03
  rms(prec ) = 0.47477E-03
  weight for this iteration     100.00

 eigenvalues of (default mixing * dielectric matrix)
  average eigenvalue GAMMA=   2.3769
  7.4976  4.9236  2.6888  2.6888  1.9205  1.9205  1.5057  1.5057  0.9926  0.9926
  0.9431  0.9431

 Free energy of the ion-electron system (eV)
  ---------------------------------------------------
  alpha Z        PSCENC =         1.68866877
  Ewald energy   TEWEN  =      2629.98113996
  -Hartree energ DENC   =     -3566.43246520
  -exchange      EXHF   =         0.00000000
  -V(xc)+E(xc)   XCENC  =       -44.78775169
  PAW double counting   =      4079.01497583    -3914.05835954
  entropy T*S    EENTRO =        -0.00000000
  eigenvalues    EBANDS =      -524.93066646
  atomic energy  EATOM  =      1236.10535615
  Solvation  Ediel_sol  =         0.00000000
  ---------------------------------------------------
  free energy    TOTEN  =      -103.41910218 eV

  energy without entropy =     -103.41910218  energy(sigma->0) =     -103.41910218


--------------------------------------------------------------------------------------------------------




--------------------------------------- Iteration      1(  18)  ---------------------------------------


    POTLOK:  cpu time    1.7097: real time    1.7336
    SETDIJ:  cpu time    0.0070: real time    0.0089
     EDDAV:  cpu time    9.5685: real time    9.5653
       DOS:  cpu time    0.0000: real time    0.0003
    CHARGE:  cpu time    0.4839: real time    0.4834
    MIXING:  cpu time    0.1050: real time    0.1054
    --------------------------------------------
      LOOP:  cpu time   11.8742: real time   11.8969

 eigenvalue-minimisations  :   104
 total energy-change (2. order) :-0.2963222E-03  (-0.9865286E-06)
 number of electron      56.0000021 magnetization 
 augmentation part       -3.1283850 magnetization 

 Broyden mixing:
  rms(total) = 0.19827E-03    rms(broyden)= 0.19824E-03
  rms(prec ) = 0.28969E-03
  weight for this iteration     100.00

 eigenvalues of (default mixing * dielectric matrix)
  average eigenvalue GAMMA=   2.4746
  8.1123  5.7203  3.1541  2.6172  2.3323  1.7734  1.7734  1.3926  1.3926  0.9543
  0.9543  0.9968  0.9968

 Free energy of the ion-electron system (eV)
  ---------------------------------------------------
  alpha Z        PSCENC =         1.68866877
  Ewald energy   TEWEN  =      2629.98113996
  -Hartree energ DENC   =     -3566.45969098
  -exchange      EXHF   =         0.00000000
  -V(xc)+E(xc)   XCENC  =       -44.78758775
  PAW double counting   =      4078.45919191    -3913.50298611
  entropy T*S    EENTRO =        -0.00000000
  eigenvalues    EBANDS =      -524.90349045
  atomic energy  EATOM  =      1236.10535615
  Solvation  Ediel_sol  =         0.00000000
  ---------------------------------------------------
  free energy    TOTEN  =      -103.41939851 eV

  energy without entropy =     -103.41939851  energy(sigma->0) =     -103.41939851


--------------------------------------------------------------------------------------------------------




--------------------------------------- Iteration      1(  19)  ---------------------------------------


    POTLOK:  cpu time    1.7297: real time    1.7291
    SETDIJ:  cpu time    0.0080: real time    0.0074
     EDDAV:  cpu time    8.9786: real time    8.9752
       DOS:  cpu time    0.0000: real time    0.0003
    CHARGE:  cpu time    0.4859: real time    0.4858
    MIXING:  cpu time    0.1160: real time    0.1159
    --------------------------------------------
      LOOP:  cpu time   11.3183: real time   11.3138

 eigenvalue-minimisations  :    96
 total energy-change (2. order) :-0.1824735E-03  (-0.6734943E-06)
 number of electron      56.0000021 magnetization 
 augmentation part       -3.1284071 magnetization 

 Broyden mixing:
  rms(total) = 0.18153E-03    rms(broyden)= 0.18152E-03
  rms(prec ) = 0.22338E-03
  weight for this iteration     100.00

 eigenvalues of (default mixing * dielectric matrix)
  average eigenvalue GAMMA=   2.4770
  8.3302  6.1008  3.3319  2.6933  2.0262  1.8537  1.8537  1.7210  1.7210  1.2170
  0.9834  0.9834  0.9311  0.9311

 Free energy of the ion-electron system (eV)
  ---------------------------------------------------
  alpha Z        PSCENC =         1.68866877
  Ewald energy   TEWEN  =      2629.98113996
  -Hartree energ DENC   =     -3566.48045595
  -exchange      EXHF   =         0.00000000
  -V(xc)+E(xc)   XCENC  =       -44.78617141
  PAW double counting   =      4078.51837965    -3913.56243125
  entropy T*S    EENTRO =        -0.00000000
  eigenvalues    EBANDS =      -524.88406690
  atomic energy  EATOM  =      1236.10535615
  Solvation  Ediel_sol  =         0.00000000
  ---------------------------------------------------
  free energy    TOTEN  =      -103.41958098 eV

  energy without entropy =     -103.41958098  energy(sigma->0) =     -103.41958098


--------------------------------------------------------------------------------------------------------




--------------------------------------- Iteration      1(  20)  ---------------------------------------


    POTLOK:  cpu time    1.7327: real time    1.7326
    SETDIJ:  cpu time    0.0080: real time    0.0076
     EDDAV:  cpu time    7.8518: real time    7.8727
       DOS:  cpu time    0.0000: real time    0.0003
    CHARGE:  cpu time    0.4849: real time    0.4842
    MIXING:  cpu time    0.1290: real time    0.1291
    --------------------------------------------
      LOOP:  cpu time   10.2064: real time   10.2264

 eigenvalue-minimisations  :    80
 total energy-change (2. order) :-0.5993608E-04  (-0.1260379E-06)
 number of electron      56.0000021 magnetization 
 augmentation part       -3.1283904 magnetization 

 Broyden mixing:
  rms(total) = 0.57843E-04    rms(broyden)= 0.57842E-04
  rms(prec ) = 0.82925E-04
  weight for this iteration     100.00

 eigenvalues of (default mixing * dielectric matrix)
  average eigenvalue GAMMA=   2.4969
  8.5915  6.2739  3.8605  2.6664  2.6664  1.9524  1.8016  1.8016  1.4313  1.4313
  1.1737  0.9705  0.9705  0.9573  0.9039

 Free energy of the ion-electron system (eV)
  ---------------------------------------------------
  alpha Z        PSCENC =         1.68866877
  Ewald energy   TEWEN  =      2629.98113996
  -Hartree energ DENC   =     -3566.48384916
  -exchange      EXHF   =         0.00000000
  -V(xc)+E(xc)   XCENC  =       -44.78712612
  PAW double counting   =      4078.40779005    -3913.45190367
  entropy T*S    EENTRO =        -0.00000000
  eigenvalues    EBANDS =      -524.87971690
  atomic energy  EATOM  =      1236.10535615
  Solvation  Ediel_sol  =         0.00000000
  ---------------------------------------------------
  free energy    TOTEN  =      -103.41964091 eV

  energy without entropy =     -103.41964091  energy(sigma->0) =     -103.41964091


--------------------------------------------------------------------------------------------------------




--------------------------------------- Iteration      1(  21)  ---------------------------------------


    POTLOK:  cpu time    1.7247: real time    1.7251
    SETDIJ:  cpu time    0.0090: real time    0.0082
     EDDAV:  cpu time    7.9228: real time    7.9204
       DOS:  cpu time    0.0000: real time    0.0003
    CHARGE:  cpu time    0.4849: real time    0.4840
    MIXING:  cpu time    0.1410: real time    0.1406
    --------------------------------------------
      LOOP:  cpu time   10.2824: real time   10.2786

 eigenvalue-minimisations  :    80
 total energy-change (2. order) :-0.2518684E-04  (-0.7687541E-07)
 number of electron      56.0000021 magnetization 
 augmentation part       -3.1283759 magnetization 

 Broyden mixing:
  rms(total) = 0.60316E-04    rms(broyden)= 0.60312E-04
  rms(prec ) = 0.76065E-04
  weight for this iteration     100.00

 eigenvalues of (default mixing * dielectric matrix)
  average eigenvalue GAMMA=   2.5037
  8.5289  6.6198  4.0753  2.9487  2.6775  1.9637  1.9637  1.7961  1.7177  1.7177
  1.1432  0.9382  0.9382  0.9705  1.0301  1.0301

 Free energy of the ion-electron system (eV)
  ---------------------------------------------------
  alpha Z        PSCENC =         1.68866877
  Ewald energy   TEWEN  =      2629.98113996
  -Hartree energ DENC   =     -3566.49108496
  -exchange      EXHF   =         0.00000000
  -V(xc)+E(xc)   XCENC  =       -44.78711570
  PAW double counting   =      4078.55529931    -3913.59945770
  entropy T*S    EENTRO =        -0.00000000
  eigenvalues    EBANDS =      -524.87247193
  atomic energy  EATOM  =      1236.10535615
  Solvation  Ediel_sol  =         0.00000000
  ---------------------------------------------------
  free energy    TOTEN  =      -103.41966610 eV

  energy without entropy =     -103.41966610  energy(sigma->0) =     -103.41966610


--------------------------------------------------------------------------------------------------------




--------------------------------------- Iteration      1(  22)  ---------------------------------------


    POTLOK:  cpu time    1.7177: real time    1.7168
    SETDIJ:  cpu time    0.0070: real time    0.0077
     EDDAV:  cpu time    8.4197: real time    8.4163
       DOS:  cpu time    0.0000: real time    0.0004
    CHARGE:  cpu time    0.4769: real time    0.4770
    MIXING:  cpu time    0.1510: real time    0.1513
    --------------------------------------------
      LOOP:  cpu time   10.7724: real time   10.7695

 eigenvalue-minimisations  :    88
 total energy-change (2. order) :-0.8460961E-05  (-0.1956363E-07)
 number of electron      56.0000021 magnetization 
 augmentation part       -3.1283846 magnetization 

 Broyden mixing:
  rms(total) = 0.21731E-04    rms(broyden)= 0.21731E-04
  rms(prec ) = 0.29068E-04
  weight for this iteration     100.00

 eigenvalues of (default mixing * dielectric matrix)
  average eigenvalue GAMMA=   2.5007
  8.7987  6.7223  4.5472  3.1273  2.5172  2.5172  1.8381  1.8381  1.6818  1.6818
  1.2048  1.2048  0.9502  0.9502  0.9956  0.9600  0.9770

 Free energy of the ion-electron system (eV)
  ---------------------------------------------------
  alpha Z        PSCENC =         1.68866877
  Ewald energy   TEWEN  =      2629.98113996
  -Hartree energ DENC   =     -3566.48980782
  -exchange      EXHF   =         0.00000000
  -V(xc)+E(xc)   XCENC  =       -44.78701271
  PAW double counting   =      4078.62227021    -3913.66634841
  entropy T*S    EENTRO =        -0.00000000
  eigenvalues    EBANDS =      -524.87394071
  atomic energy  EATOM  =      1236.10535615
  Solvation  Ediel_sol  =         0.00000000
  ---------------------------------------------------
  free energy    TOTEN  =      -103.41967456 eV

  energy without entropy =     -103.41967456  energy(sigma->0) =     -103.41967456


--------------------------------------------------------------------------------------------------------




--------------------------------------- Iteration      1(  23)  ---------------------------------------


    POTLOK:  cpu time    1.7347: real time    1.7365
    SETDIJ:  cpu time    0.0080: real time    0.0078
     EDDAV:  cpu time    7.8708: real time    7.8689
       DOS:  cpu time    0.0010: real time    0.0003
    CHARGE:  cpu time    0.4869: real time    0.4876
    MIXING:  cpu time    0.1640: real time    0.1637
    --------------------------------------------
      LOOP:  cpu time   10.2654: real time   10.2647

 eigenvalue-minimisations  :    80
 total energy-change (2. order) :-0.3169263E-05  (-0.7053929E-08)
 number of electron      56.0000021 magnetization 
 augmentation part       -3.1283922 magnetization 

 Broyden mixing:
  rms(total) = 0.17931E-04    rms(broyden)= 0.17930E-04
  rms(prec ) = 0.22326E-04
  weight for this iteration     100.00

 eigenvalues of (default mixing * dielectric matrix)
  average eigenvalue GAMMA=   2.4720
  8.8489  6.7787  4.6617  3.0891  2.5364  2.5364  1.9383  1.9383  1.6826  1.6826
  1.5130  1.2609  1.0937  1.0937  0.9342  0.9342  0.9868  0.9868

 Free energy of the ion-electron system (eV)
  ---------------------------------------------------
  alpha Z        PSCENC =         1.68866877
  Ewald energy   TEWEN  =      2629.98113996
  -Hartree energ DENC   =     -3566.48891741
  -exchange      EXHF   =         0.00000000
  -V(xc)+E(xc)   XCENC  =       -44.78710631
  PAW double counting   =      4078.57243455    -3913.61647393
  entropy T*S    EENTRO =        -0.00000000
  eigenvalues    EBANDS =      -524.87477950
  atomic energy  EATOM  =      1236.10535615
  Solvation  Ediel_sol  =         0.00000000
  ---------------------------------------------------
  free energy    TOTEN  =      -103.41967773 eV

  energy without entropy =     -103.41967773  energy(sigma->0) =     -103.41967773


--------------------------------------------------------------------------------------------------------




--------------------------------------- Iteration      1(  24)  ---------------------------------------


    POTLOK:  cpu time    1.7317: real time    1.7306
    SETDIJ:  cpu time    0.0070: real time    0.0076
     EDDAV:  cpu time    7.8588: real time    7.8562
       DOS:  cpu time    0.0010: real time    0.0003
    CHARGE:  cpu time    0.4819: real time    0.4827
    MIXING:  cpu time    0.1780: real time    0.1775
    --------------------------------------------
      LOOP:  cpu time   10.2584: real time   10.2549

 eigenvalue-minimisations  :    80
 total energy-change (2. order) :-0.2633355E-05  (-0.3055709E-08)
 number of electron      56.0000021 magnetization 
 augmentation part       -3.1283920 magnetization 

 Broyden mixing:
  rms(total) = 0.95734E-05    rms(broyden)= 0.95730E-05
  rms(prec ) = 0.11918E-04
  weight for this iteration     100.00

 eigenvalues of (default mixing * dielectric matrix)
  average eigenvalue GAMMA=   2.5303
  8.8477  7.0560  5.2734  3.7337  2.8688  2.4519  2.4519  1.8342  1.8342  1.6908
  1.6908  1.2213  1.2213  1.0711  0.9730  0.9730  0.9386  0.9386  1.0048

 Free energy of the ion-electron system (eV)
  ---------------------------------------------------
  alpha Z        PSCENC =         1.68866877
  Ewald energy   TEWEN  =      2629.98113996
  -Hartree energ DENC   =     -3566.48964706
  -exchange      EXHF   =         0.00000000
  -V(xc)+E(xc)   XCENC  =       -44.78711249
  PAW double counting   =      4078.50582113    -3913.54988612
  entropy T*S    EENTRO =        -0.00000000
  eigenvalues    EBANDS =      -524.87402071
  atomic energy  EATOM  =      1236.10535615
  Solvation  Ediel_sol  =         0.00000000
  ---------------------------------------------------
  free energy    TOTEN  =      -103.41968037 eV

  energy without entropy =     -103.41968037  energy(sigma->0) =     -103.41968037


--------------------------------------------------------------------------------------------------------




--------------------------------------- Iteration      1(  25)  ---------------------------------------


    POTLOK:  cpu time    1.7367: real time    1.7360
    SETDIJ:  cpu time    0.0080: real time    0.0079
     EDDAV:  cpu time    7.8398: real time    7.8368
       DOS:  cpu time    0.0000: real time    0.0002
    --------------------------------------------
      LOOP:  cpu time    9.5845: real time    9.5810

 eigenvalue-minimisations  :    80
 total energy-change (2. order) :-0.9727405E-06  (-0.1681173E-08)
 number of electron      56.0000021 magnetization 
 augmentation part       -3.1283920 magnetization 

 Free energy of the ion-electron system (eV)
  ---------------------------------------------------
  alpha Z        PSCENC =         1.68866877
  Ewald energy   TEWEN  =      2629.98113996
  -Hartree energ DENC   =     -3566.49040526
  -exchange      EXHF   =         0.00000000
  -V(xc)+E(xc)   XCENC  =       -44.78707813
  PAW double counting   =      4078.51783546    -3913.56190632
  entropy T*S    EENTRO =        -0.00000000
  eigenvalues    EBANDS =      -524.87329197
  atomic energy  EATOM  =      1236.10535615
  Solvation  Ediel_sol  =         0.00000000
  ---------------------------------------------------
  free energy    TOTEN  =      -103.41968134 eV

  energy without entropy =     -103.41968134  energy(sigma->0) =     -103.41968134


--------------------------------------------------------------------------------------------------------




 average (electrostatic) potential at core
  the test charge radii are     0.9892  1.1631  0.5201
  (the norm of the test charge is              1.0000)
       1 -93.3589       2 -93.4323       3 -93.4785       4 -93.4718       5 -93.3974
       6 -93.5121       7 -93.4722       8 -40.3467       9 -40.3869      10 -40.4499
      11 -40.6985      12 -40.7029      13 -41.0823      14 -40.6916      15 -40.6955
      16 -40.7031      17 -40.7044      18 -40.7107      19 -41.0696      20 -41.0678
      21 -41.0687      22 -40.6999      23 -40.7069      24 -40.7120      25 -40.7034
      26 -40.6988
 
 
 
 E-fermi :  -5.4415     XC(G=0):  -0.6068     alpha+bet : -0.3428


 k-point     1 :       0.0000    0.0000    0.0000
  band No.  band energies     occupation 
      1     -15.1301      2.00000
      2     -14.3093      2.00000
      3     -13.8549      2.00000
      4     -13.7769      2.00000
      5     -12.8126      2.00000
      6     -12.5528      2.00000
      7     -11.6642      2.00000
      8     -11.4388      2.00000
      9     -11.2818      2.00000
     10     -10.3880      2.00000
     11      -8.9662      2.00000
     12      -8.6261      2.00000
     13      -8.6170      2.00000
     14      -8.6150      2.00000
     15      -8.2047      2.00000
     16      -8.1995      2.00000
     17      -8.1890      2.00000
     18      -7.8710      2.00000
     19      -7.8612      2.00000
     20      -7.8582      2.00000
     21      -6.7947      2.00000
     22      -6.7817      2.00000
     23      -6.4983      2.00000
     24      -6.4816      2.00000
     25      -6.4721      2.00000
     26      -6.4080      2.00000
     27      -6.3936      2.00000
     28      -6.3892      2.00000
     29      -1.7460      0.00000
     30      -1.4709      0.00000
     31      -1.3844      0.00000
     32      -1.3060      0.00000
     33      -1.1924      0.00000
     34      -1.0916      0.00000
     35      -1.0553      0.00000
     36      -0.9214      0.00000
     37      -0.9159      0.00000
     38      -0.5234      0.00000
     39      -0.4662      0.00000
     40      -0.4469      0.00000
     41      -0.2865      0.00000
     42      -0.2777      0.00000


--------------------------------------------------------------------------------------------------------


 soft charge-density along one line, spin component           1
         0         1         2         3         4         5         6         7         8         9
 total charge-density along one line
 
 pseudopotential strength for first ion, spin component:           1
 19.609  27.364  -0.000   0.002   0.000  -0.001   0.004   0.000
 27.364  38.193  -0.001   0.003   0.000  -0.001   0.005   0.000
 -0.000  -0.001   4.358  -0.000   0.000   8.129  -0.000   0.000
  0.002   0.003  -0.000   4.358  -0.000  -0.000   8.129  -0.000
  0.000   0.000   0.000  -0.000   4.358   0.000  -0.000   8.129
 -0.001  -0.001   8.129  -0.000   0.000  15.174  -0.000   0.000
  0.004   0.005  -0.000   8.129  -0.000  -0.000  15.174  -0.000
  0.000   0.000   0.000  -0.000   8.129   0.000  -0.000  15.174
 total augmentation occupancy for first ion, spin component:           1
  5.586  -2.052   0.069  -0.327  -0.043  -0.021   0.098   0.013
 -2.052   0.813  -0.042   0.200   0.027   0.009  -0.045  -0.006
  0.069  -0.042   2.872  -0.093  -0.013  -0.626   0.034   0.005
 -0.327   0.200  -0.093   3.299   0.062   0.034  -0.781  -0.022
 -0.043   0.027  -0.013   0.062   2.859   0.005  -0.022  -0.621
 -0.021   0.009  -0.626   0.034   0.005   0.142  -0.010  -0.001
  0.098  -0.045   0.034  -0.781  -0.022  -0.010   0.188   0.007
  0.013  -0.006   0.005  -0.022  -0.621  -0.001   0.007   0.141


------------------------ aborting loop because EDIFF is reached ----------------------------------------


    CHARGE:  cpu time    0.4789: real time    0.4782
    FORLOC:  cpu time    0.1740: real time    0.1734
    FORNL :  cpu time    1.0538: real time    1.0546
    STRESS:  cpu time    7.1219: real time    7.1185
    FORCOR:  cpu time    1.7207: real time    1.7204
    FORHAR:  cpu time    0.5849: real time    0.5847
    MIXING:  cpu time    0.1900: real time    0.1901
    OFIELD:  cpu time    0.0000: real time    0.0000

  FORCE on cell =-STRESS in cart. coord.  units (eV):
  Direction    XX          YY          ZZ          XY          YZ          ZX
  --------------------------------------------------------------------------------------
  Alpha Z     1.68867     1.68867     1.68867
  Ewald     876.64706   876.62235   876.71007    -0.21850     0.02563    -0.50464
  Hartree  1189.08049  1188.42534  1188.98494    -0.03179    -0.46151    -0.41407
  E(xc)    -175.63136  -175.75257  -175.66441     0.06003     0.00440    -0.04866
  Local   -2579.18765 -2578.60365 -2579.13392     0.28929     0.41460     0.89223
  n-local   289.22278   289.92373   289.36993    -0.33605     0.03403     0.24967
  augment   -34.29339   -34.30203   -34.29944    -0.00090    -0.00135    -0.00440
  Kinetic   426.77933   426.43306   426.63779     0.17390    -0.02711    -0.11296
  Fock        0.00000     0.00000     0.00000     0.00000     0.00000     0.00000
  -------------------------------------------------------------------------------------
  Total      -5.69407    -5.56510    -5.70637    -0.06401    -0.01131     0.05718
  in kB      -1.14036    -1.11454    -1.14283    -0.01282    -0.00227     0.01145
  external pressure =       -1.13 kB  Pullay stress =        0.00 kB


 VOLUME and BASIS-vectors are now :
 -----------------------------------------------------------------------------
  energy-cutoff  :      400.00
[...]
    SETDIJ:  cpu time    0.0080: real time    0.0075
     EDDAV:  cpu time   10.7324: real time   10.7289
       DOS:  cpu time    0.0000: real time    0.0003
    CHARGE:  cpu time    0.4859: real time    0.4862
    MIXING:  cpu time    0.0450: real time    0.0452
    --------------------------------------------
      LOOP:  cpu time   13.0130: real time   13.0097

 eigenvalue-minimisations  :   120
 total energy-change (2. order) :-0.2665029E-04  (-0.3278617E-04)
 number of electron      56.0000015 magnetization 
 augmentation part       -3.1243273 magnetization 

 Broyden mixing:
  rms(total) = 0.16326E-02    rms(broyden)= 0.16321E-02
  rms(prec ) = 0.17470E-02
  weight for this iteration     100.00

 eigenvalues of (default mixing * dielectric matrix)
  average eigenvalue GAMMA=   1.0648
  1.0648

 Free energy of the ion-electron system (eV)
  ---------------------------------------------------
  alpha Z        PSCENC =         1.68866877
  Ewald energy   TEWEN  =      2661.79036322
  -Hartree energ DENC   =     -3596.93910536
  -exchange      EXHF   =         0.00000000
  -V(xc)+E(xc)   XCENC  =       -43.77894924
  PAW double counting   =      4437.33372629    -4272.53494334
  entropy T*S    EENTRO =        -0.00000000
  eigenvalues    EBANDS =      -527.39691383
  atomic energy  EATOM  =      1236.10535615
  Solvation  Ediel_sol  =         0.00000000
  ---------------------------------------------------
  free energy    TOTEN  =      -103.73179733 eV

  energy without entropy =     -103.73179733  energy(sigma->0) =     -103.73179733


--------------------------------------------------------------------------------------------------------




--------------------------------------- Iteration     18(   3)  ---------------------------------------


    POTLOK:  cpu time    1.7477: real time    1.7490
    SETDIJ:  cpu time    0.0080: real time    0.0075
     EDDAV:  cpu time   10.6704: real time   10.7068
       DOS:  cpu time    0.0000: real time    0.0003
    CHARGE:  cpu time    0.4869: real time    0.4867
    MIXING:  cpu time    0.0470: real time    0.0471
    --------------------------------------------
      LOOP:  cpu time   12.9600: real time   12.9973

 eigenvalue-minimisations  :   120
 total energy-change (2. order) : 0.2208430E-05  (-0.1094533E-05)
 number of electron      56.0000015 magnetization 
 augmentation part       -3.1244037 magnetization 

 Broyden mixing:
  rms(total) = 0.91390E-03    rms(broyden)= 0.91386E-03
  rms(prec ) = 0.96914E-03
  weight for this iteration     100.00

 eigenvalues of (default mixing * dielectric matrix)
  average eigenvalue GAMMA=   1.5732
  1.0818  2.0647

 Free energy of the ion-electron system (eV)
  ---------------------------------------------------
  alpha Z        PSCENC =         1.68866877
  Ewald energy   TEWEN  =      2661.79036322
  -Hartree energ DENC   =     -3596.93633477
  -exchange      EXHF   =         0.00000000
  -V(xc)+E(xc)   XCENC  =       -43.77851241
  PAW double counting   =      4437.12806136    -4272.32905266
  entropy T*S    EENTRO =        -0.00000000
  eigenvalues    EBANDS =      -527.40034479
  atomic energy  EATOM  =      1236.10535615
  Solvation  Ediel_sol  =         0.00000000
  ---------------------------------------------------
  free energy    TOTEN  =      -103.73179513 eV

  energy without entropy =     -103.73179513  energy(sigma->0) =     -103.73179513


--------------------------------------------------------------------------------------------------------




--------------------------------------- Iteration     18(   4)  ---------------------------------------


    POTLOK:  cpu time    1.7457: real time    1.7449
    SETDIJ:  cpu time    0.0070: real time    0.0077
     EDDAV:  cpu time   10.1465: real time   10.1422
       DOS:  cpu time    0.0000: real time    0.0002
    --------------------------------------------
      LOOP:  cpu time   11.8992: real time   11.8950

 eigenvalue-minimisations  :   112
 total energy-change (2. order) :-0.1552053E-06  (-0.4541658E-06)
 number of electron      56.0000015 magnetization 
 augmentation part       -3.1244037 magnetization 

 Free energy of the ion-electron system (eV)
  ---------------------------------------------------
  alpha Z        PSCENC =         1.68866877
  Ewald energy   TEWEN  =      2661.79036322
  -Hartree energ DENC   =     -3596.93569184
  -exchange      EXHF   =         0.00000000
  -V(xc)+E(xc)   XCENC  =       -43.77819748
  PAW double counting   =      4436.87070217    -4272.07149293
  entropy T*S    EENTRO =        -0.00000000
  eigenvalues    EBANDS =      -527.40150335
  atomic energy  EATOM  =      1236.10535615
  Solvation  Ediel_sol  =         0.00000000
  ---------------------------------------------------
  free energy    TOTEN  =      -103.73179528 eV

  energy without entropy =     -103.73179528  energy(sigma->0) =     -103.73179528


--------------------------------------------------------------------------------------------------------




 average (electrostatic) potential at core
  the test charge radii are     0.9892  1.1631  0.5201
  (the norm of the test charge is              1.0000)
       1 -93.2385       2 -93.2680       3 -93.3323       4 -93.3357       5 -93.3158
       6 -93.4045       7 -93.3345       8 -40.3254       9 -40.3804      10 -40.4227
      11 -40.8349      12 -40.8344      13 -40.9969      14 -40.8396      15 -40.8413
      16 -40.8380      17 -40.8377      18 -40.8729      19 -41.0034      20 -40.9675
      21 -40.9671      22 -40.8810      23 -40.8309      24 -40.8303      25 -40.8368
      26 -40.8357
 
 
 
 E-fermi :  -5.3552     XC(G=0):  -0.6010     alpha+bet : -0.3428


 k-point     1 :       0.0000    0.0000    0.0000
  band No.  band energies     occupation 
      1     -15.0904      2.00000
      2     -14.2142      2.00000
      3     -13.9559      2.00000
      4     -13.9012      2.00000
      5     -12.8899      2.00000
      6     -12.7016      2.00000
      7     -11.7432      2.00000
      8     -11.5377      2.00000
      9     -11.3997      2.00000
     10     -10.5234      2.00000
     11      -9.0252      2.00000
     12      -8.7065      2.00000
     13      -8.6878      2.00000
     14      -8.6279      2.00000
     15      -8.2986      2.00000
     16      -8.2648      2.00000
     17      -8.1397      2.00000
     18      -7.9703      2.00000
     19      -7.8994      2.00000
     20      -7.8262      2.00000
     21      -6.8676      2.00000
     22      -6.8164      2.00000
     23      -6.5579      2.00000
     24      -6.4847      2.00000
     25      -6.4537      2.00000
     26      -6.4071      2.00000
     27      -6.3841      2.00000
     28      -6.3257      2.00000
     29      -1.6793      0.00000
     30      -1.4621      0.00000
     31      -1.3661      0.00000
     32      -1.2902      0.00000
     33      -1.2143      0.00000
     34      -1.0386      0.00000
     35      -1.0131      0.00000
     36      -0.8675      0.00000
     37      -0.7954      0.00000
     38      -0.3883      0.00000
     39      -0.3666      0.00000
     40      -0.3314      0.00000
     41      -0.2420      0.00000
     42      -0.1627      0.00000


--------------------------------------------------------------------------------------------------------


 soft charge-density along one line, spin component           1
         0         1         2         3         4         5         6         7         8         9
 total charge-density along one line
 
 pseudopotential strength for first ion, spin component:           1
 19.606  27.361  -0.000   0.002   0.000  -0.001   0.004   0.000
 27.361  38.187  -0.000   0.003   0.000  -0.001   0.006   0.000
 -0.000  -0.000   4.361  -0.000  -0.000   8.135  -0.000  -0.000
  0.002   0.003  -0.000   4.361   0.000  -0.000   8.136   0.000
  0.000   0.000  -0.000   0.000   4.361  -0.000   0.000   8.135
 -0.001  -0.001   8.135  -0.000  -0.000  15.184  -0.000  -0.000
  0.004   0.006  -0.000   8.136   0.000  -0.000  15.186   0.000
  0.000   0.000  -0.000   0.000   8.135  -0.000   0.000  15.184
 total augmentation occupancy for first ion, spin component:           1
  6.091  -2.328   0.081  -0.419  -0.059  -0.025   0.131   0.018
 -2.328   0.946  -0.048   0.244   0.035   0.011  -0.060  -0.008
  0.081  -0.048   3.076  -0.113  -0.018  -0.687   0.040   0.006
 -0.419   0.244  -0.113   3.569   0.087   0.041  -0.864  -0.031
 -0.059   0.035  -0.018   0.087   3.055   0.006  -0.031  -0.680
 -0.025   0.011  -0.687   0.041   0.006   0.159  -0.012  -0.002
  0.131  -0.060   0.040  -0.864  -0.031  -0.012   0.212   0.009
  0.018  -0.008   0.006  -0.031  -0.680  -0.002   0.009   0.157


------------------------ aborting loop because EDIFF is reached ----------------------------------------


    CHARGE:  cpu time    0.4929: real time    0.4933
    FORLOC:  cpu time    0.1710: real time    0.1706
    FORNL :  cpu time    1.0458: real time    1.0452
    STRESS:  cpu time    6.9989: real time    6.9970
    FORCOR:  cpu time    1.7227: real time    1.7221
    FORHAR:  cpu time    0.5819: real time    0.5819
    MIXING:  cpu time    0.0490: real time    0.0479
    OFIELD:  cpu time    0.0000: real time    0.0000

  FORCE on cell =-STRESS in cart. coord.  units (eV):
  Direction    XX          YY          ZZ          XY          YZ          ZX
  --------------------------------------------------------------------------------------
  Alpha Z     1.68867     1.68867     1.68867
  Ewald     889.92698   884.31654   887.54514     1.79026    -3.13071    -0.02878
  Hartree  1202.18337  1195.08597  1199.67633     2.51330    -2.93389    -0.73005
  E(xc)    -176.87292  -177.00949  -176.93528     0.05842    -0.00511    -0.05048
  Local   -2607.18183 -2594.33224 -2602.07652    -4.21994     6.21264     0.81698
  n-local   291.32548   291.97318   291.42366    -0.40834     0.03803     0.15196
  augment   -34.49376   -34.45494   -34.46103     0.00432     0.01110     0.01909
  Kinetic   432.51585   431.79959   432.31091     0.22728    -0.27828    -0.16358
  Fock        0.00000     0.00000     0.00000     0.00000     0.00000     0.00000
  -------------------------------------------------------------------------------------
  Total      -0.90817    -0.93271    -0.82813    -0.03470    -0.08622     0.01514
  in kB      -0.18188    -0.18680    -0.16585    -0.00695    -0.01727     0.00303
  external pressure =       -0.18 kB  Pullay stress =        0.00 kB


 VOLUME and BASIS-vectors are now :
 -----------------------------------------------------------------------------
  energy-cutoff  :      400.00
  volume of cell :     8000.00
      direct lattice vectors                 reciprocal lattice vectors
    20.000000000  0.000000000  0.000000000     0.050000000  0.000000000  0.000000000
     0.000000000 20.000000000  0.000000000     0.000000000  0.050000000  0.000000000
     0.000000000  0.000000000 20.000000000     0.000000000  0.000000000  0.050000000

  length of vectors
    20.000000000 20.000000000 20.000000000     0.050000000  0.050000000  0.050000000


 FORCES acting on ions
    electron-ion (+dipol)            ewald-force                    non-local-force                 convergence-correction
 -----------------------------------------------------------------------------------------------
   0.121E+02 -.194E+02 0.895E+02   -.122E+02 0.196E+02 -.907E+02   0.113E+00 -.190E+00 0.119E+01   0.667E-03 -.338E-03 -.133E-02
   0.887E+02 -.540E+01 0.468E+02   -.903E+02 0.551E+01 -.476E+02   0.160E+01 -.107E+00 0.790E+00   0.604E-03 0.221E-04 -.103E-03
   -.382E+02 0.552E+02 0.743E+02   0.386E+02 -.559E+02 -.763E+02   -.462E+00 0.713E+00 0.203E+01   -.313E-04 -.869E-04 -.174E-02
   -.299E+02 -.841E+02 0.437E+02   0.303E+02 0.857E+02 -.452E+02   -.335E+00 -.158E+01 0.153E+01   -.599E-03 -.191E-04 -.147E-02
   0.820E+02 0.118E+02 -.418E+02   -.833E+02 -.126E+02 0.418E+02   0.132E+01 0.846E+00 -.393E-01   0.153E-03 -.363E-03 0.732E-03
   -.864E+02 0.506E+01 -.460E+02   0.886E+02 -.516E+01 0.472E+02   -.218E+01 0.112E+00 -.119E+01   0.617E-03 -.744E-03 0.136E-02
   0.269E+02 0.841E+02 -.457E+02   -.281E+02 -.856E+02 0.468E+02   0.125E+01 0.148E+01 -.112E+01   -.456E-03 0.239E-03 0.835E-03
   -.526E+02 0.779E+02 -.979E+01   0.529E+02 -.782E+02 0.981E+01   -.252E+00 0.361E+00 -.154E-01   0.513E-03 -.686E-03 -.684E-04
   -.433E+02 -.727E+02 -.429E+02   0.438E+02 0.731E+02 0.428E+02   -.534E+00 -.328E+00 0.120E-01   0.831E-04 0.647E-04 0.686E-03
   0.357E+02 -.553E+02 -.768E+02   -.363E+02 0.556E+02 0.774E+02   0.573E+00 -.320E+00 -.662E+00   -.375E-03 -.768E-03 0.307E-03
   0.208E+02 0.418E+02 0.630E+01   -.221E+02 -.441E+02 -.757E+01   0.134E+01 0.231E+01 0.127E+01   -.720E-04 -.230E-04 0.760E-04
   0.102E+01 0.224E+02 -.414E+02   -.655E+00 -.230E+02 0.443E+02   -.366E+00 0.631E+00 -.287E+01   -.183E-04 0.540E-04 0.110E-03
   -.258E+02 0.390E+02 -.430E+01   0.271E+02 -.411E+02 0.452E+01   -.134E+01 0.206E+01 -.216E+00   0.265E-03 -.216E-03 0.270E-04
   -.461E+02 -.342E+01 0.587E+01   0.488E+02 0.380E+01 -.711E+01   -.266E+01 -.379E+00 0.124E+01   0.407E-04 -.127E-03 0.196E-03
   -.205E+02 0.778E+01 -.413E+02   0.209E+02 -.837E+01 0.442E+02   -.407E+00 0.597E+00 -.288E+01   0.533E-04 -.128E-03 0.142E-03
   -.370E+02 0.534E+01 0.288E+02   0.397E+02 -.495E+01 -.302E+02   -.263E+01 -.387E+00 0.131E+01   -.237E-03 -.118E-03 -.240E-03
   0.882E+01 0.361E+02 0.292E+02   -.102E+02 -.384E+02 -.305E+02   0.135E+01 0.228E+01 0.133E+01   0.143E-03 0.872E-04 -.258E-03
   0.704E+01 -.101E+02 0.476E+02   -.747E+01 0.107E+02 -.504E+02   0.426E+00 -.587E+00 0.281E+01   0.282E-03 -.116E-03 -.126E-04
   -.214E+02 -.361E+02 -.206E+02   0.225E+02 0.380E+02 0.216E+02   -.111E+01 -.192E+01 -.109E+01   0.152E-03 0.146E-03 0.274E-03
   0.260E+01 -.351E+01 -.447E+02   -.230E+01 0.304E+01 0.471E+02   -.304E+00 0.465E+00 -.245E+01   0.338E-04 -.172E-03 -.363E-04
   0.245E+02 -.363E+02 -.109E+02   -.259E+02 0.384E+02 0.107E+02   0.139E+01 -.208E+01 0.197E+00   -.104E-04 -.613E-04 -.361E-04
   0.438E+02 0.703E+01 -.207E+02   -.464E+02 -.745E+01 0.219E+02   0.261E+01 0.410E+00 -.121E+01   0.255E-03 -.227E-04 0.158E-03
   0.324E+02 0.249E+02 0.243E+02   -.338E+02 -.271E+02 -.256E+02   0.141E+01 0.221E+01 0.136E+01   -.151E-04 -.202E-03 -.160E-03
   0.354E+02 -.292E+02 0.120E+02   -.370E+02 0.316E+02 -.123E+02   0.167E+01 -.242E+01 0.296E+00   -.753E-04 0.245E-03 -.863E-04
   0.135E+02 -.435E+02 0.117E+02   -.151E+02 0.460E+02 -.120E+02   0.162E+01 -.246E+01 0.290E+00   -.138E-03 0.121E-03 -.256E-03
   -.353E+02 -.206E+02 0.236E+02   0.379E+02 0.211E+02 -.250E+02   -.260E+01 -.475E+00 0.133E+01   -.751E-04 -.788E-05 -.254E-03
 -----------------------------------------------------------------------------------------------
   -.148E+01 -.123E+01 -.323E+01   0.142E-13 0.355E-14 -.711E-14   0.147E+01 0.124E+01 0.323E+01   0.176E-02 -.322E-02 -.115E-02
 
 
 POSITION                                       TOTAL-FORCE (eV/Angst)
 -----------------------------------------------------------------------------------
      9.51185     11.12081      7.71730        -0.002950      0.006430     -0.003502
      7.42216     10.77115      8.74572         0.000578      0.001546      0.000810
     10.82043      9.17845      7.91632         0.003492      0.003197      0.006866
     10.61776     12.93744      8.72365         0.004841     -0.001980      0.006517
      7.68318     10.26792     11.02837        -0.009575      0.000309      0.009551
     12.29038     10.49405     11.30741        -0.003252      0.003391     -0.005950
      8.99477      8.33407     11.27621         0.005539      0.000250      0.000356
     11.14001      8.67287     10.24331        -0.003143      0.010303      0.008428
     10.96886     12.48236     11.05671        -0.001543     -0.010885     -0.003516
      8.78226     12.11223     12.10986         0.005082     -0.000053      0.000762
      8.31531      7.16304     10.63270         0.004082      0.006181      0.002922
      9.18042      8.01727     12.72869        -0.002368     -0.002038      0.003445
     11.98860      7.36958     10.38066         0.003548     -0.010236      0.001485
     13.63627     10.68515     10.67708        -0.004653     -0.004854      0.006845
     12.49448     10.19334     12.76003         0.006428     -0.000684      0.003897
     12.14943      9.37634      7.25361         0.001056      0.001560     -0.002229
     10.13695      8.02727      7.24380        -0.001766     -0.000490     -0.002042
      9.29073     11.42500      6.26298        -0.005471      0.005467     -0.016701
     11.67412     13.69550     11.74179         0.001773      0.001103     -0.004638
      8.97004     11.82243     13.62911        -0.003917     -0.000087     -0.006931
      7.91867     13.40328     11.98629         0.002280     -0.009624      0.001651
      6.33455     10.05543     11.65550        -0.001661     -0.002649     -0.004516
      6.70939      9.64564      8.05712         0.007735      0.001836      0.001505
      6.57811     12.00106      8.59678         0.000878      0.002183      0.000712
      9.79532     14.18113      8.57744        -0.001306      0.002381     -0.003014
     11.93534     13.17521      8.04991        -0.005707     -0.002558     -0.002714
 -----------------------------------------------------------------------------------
    total drift:                               -0.000605      0.001226     -0.000410


--------------------------------------------------------------------------------------------------------



  FREE ENERGIE OF THE ION-ELECTRON SYSTEM (eV)
  ---------------------------------------------------
  free  energy   TOTEN  =      -103.73179528 eV

  energy  without entropy=     -103.73179528  energy(sigma->0) =     -103.73179528
 
 d Force = 0.1301825E-03[ 0.159E-04, 0.245E-03]  d Energy = 0.1314123E-03-0.123E-05
 d Force = 0.3895093E+00[ 0.389E+00, 0.390E+00]  d Ewald  = 0.3895094E+00-0.697E-07


--------------------------------------------------------------------------------------------------------


    POTLOK:  cpu time    1.7487: real time    1.7485


--------------------------------------------------------------------------------------------------------


 Conjugate gradient step on ions:
 trial-energy change:   -0.000131  1 .order   -0.000130   -0.000245   -0.000016
  (g-gl).g = 0.183E-03      g.g   = 0.211E-03  gl.gl    = 0.619E-03
 g(Force)  = 0.211E-03   g(Stress)= 0.000E+00 ortho     = 0.530E-05
 gamma     =   0.29529
 trial     =   1.14893
 opt step  =   1.22862  (harmonic =   1.22862) maximal distance =0.00136299
 next E    =  -103.731795   (d E  =  -0.00013)


--------------------------------------------------------------------------------------------------------


  
 reached required accuracy - stopping structural energy minimisation
 writing wavefunctions
     LOOP+:  cpu time   61.7336: real time   62.2676
    4ORBIT:  cpu time    0.0000: real time    0.0000

 total amount of memory used by VASP MPI-rank0   131440. kBytes
=======================================================================

   base      :      30000. kBytes
   nonl-proj :      17624. kBytes
   fftplans  :      26957. kBytes
   grid      :      48673. kBytes
   one-center:         40. kBytes
   wavefun   :       8146. kBytes
 
  
  
 General timing and accounting informations for this job:
 ========================================================
  
                  Total CPU time used (sec):     2192.188
                            User time (sec):     2163.936
                          System time (sec):       28.252
                         Elapsed time (sec):     2197.155
  
                   Maximum memory used (kb):      185208.
                   Average memory used (kb):           0.
  
                          Minor page faults:      5352303
                          Major page faults:            3
                 Voluntary context switches:         2365
