librdmacm: Fatal: no RDMA devices found
librdmacm: Fatal: no RDMA devices found
librdmacm: Fatal: no RDMA devices found
librdmacm: Fatal: no RDMA devices found
--------------------------------------------------------------------------
[[26390,1],3]: A high-performance Open MPI point-to-point messaging module
was unable to find any relevant network interfaces:

Module: OpenFabrics (openib)
  Host: compute-0-19

Another transport will be used instead, although this may result in
lower performance.
--------------------------------------------------------------------------
librdmacm: Fatal: no RDMA devices found
librdmacm: Fatal: no RDMA devices found
librdmacm: Fatal: no RDMA devices found
librdmacm: Fatal: no RDMA devices found
librdmacm: Fatal: no RDMA devices found
librdmacm: Fatal: no RDMA devices found
librdmacm: Fatal: no RDMA devices found
librdmacm: Fatal: no RDMA devices found
 running on   12 total cores
 distrk:  each k-point on   12 cores,    1 groups
 distr:  one band on    6 cores,    2 groups
 using from now: INCAR     
 vasp.5.4.4.18Apr17-6-g9f103f2a35 (build Nov 06 2017 19:16:10) complex          
  
 POSCAR found type information on POSCAR  Si Ge H 
 POSCAR found :  3 types and      26 ions
 scaLAPACK will be used

 ----------------------------------------------------------------------------- 
|                                                                             |
|  ADVICE TO THIS USER RUNNING 'VASP/VAMP'   (HEAR YOUR MASTER'S VOICE ...):  |
|                                                                             |
|      You have a (more or less) 'large supercell' and for larger cells       |
|      it might be more efficient to use real space projection opertators     |
|      So try LREAL= Auto  in the INCAR   file.                               |
|      Mind:          For very  accurate calculation you might also keep the  |
|      reciprocal projection scheme          (i.e. LREAL=.FALSE.)             |
|                                                                             |
 ----------------------------------------------------------------------------- 

 LDA part: xc-table for Pade appr. of Perdew
 POSCAR, INCAR and KPOINTS ok, starting setup
 FFT: planning ...
 WAVECAR not read
 entering main loop
       N       E                     dE             d eps       ncg     rms          rms(c)
[compute-0-19.local:28253] 11 more processes have sent help message help-mpi-btl-base.txt / btl:no-nics
[compute-0-19.local:28253] Set MCA parameter "orte_base_help_aggregate" to 0 to see all help / error messages
DAV:   1     0.197995028725E+03    0.19800E+03   -0.10501E+04   116   0.546E+02
DAV:   2    -0.294650979940E+02   -0.22746E+03   -0.21320E+03   136   0.102E+02
DAV:   3    -0.103889400642E+03   -0.74424E+02   -0.74246E+02   112   0.553E+01
DAV:   4    -0.108117557132E+03   -0.42282E+01   -0.42117E+01   112   0.184E+01
DAV:   5    -0.108202638503E+03   -0.85081E-01   -0.85024E-01   144   0.278E+00    0.152E+01
DAV:   6    -0.104964158179E+03    0.32385E+01   -0.15854E+00   104   0.457E+00    0.887E+00
DAV:   7    -0.103256629095E+03    0.17075E+01   -0.41479E+00   112   0.676E+00    0.124E+00
DAV:   8    -0.103206059467E+03    0.50570E-01   -0.26123E-01   104   0.218E+00    0.624E-01
DAV:   9    -0.103170826733E+03    0.35233E-01   -0.75976E-02   128   0.793E-01    0.348E-01
DAV:  10    -0.103171087374E+03   -0.26064E-03   -0.29335E-03   112   0.212E-01    0.163E-01
DAV:  11    -0.103170586350E+03    0.50102E-03   -0.73635E-03   104   0.247E-01    0.789E-02
DAV:  12    -0.103174416272E+03   -0.38299E-02   -0.81388E-04    96   0.899E-02    0.593E-02
DAV:  13    -0.103179664147E+03   -0.52479E-02   -0.20967E-03   104   0.116E-01    0.343E-02
DAV:  14    -0.103183199322E+03   -0.35352E-02   -0.27087E-04   112   0.480E-02    0.167E-02
DAV:  15    -0.103188191799E+03   -0.49925E-02   -0.67304E-04   112   0.671E-02    0.170E-02
DAV:  16    -0.103189034476E+03   -0.84268E-03   -0.38279E-05   112   0.194E-02    0.810E-03
DAV:  17    -0.103190119861E+03   -0.10854E-02   -0.96981E-05   104   0.242E-02    0.312E-03
DAV:  18    -0.103190354998E+03   -0.23514E-03   -0.78001E-06   112   0.856E-03    0.220E-03
DAV:  19    -0.103190551411E+03   -0.19641E-03   -0.72164E-06    94   0.654E-03    0.184E-03
DAV:  20    -0.103190591287E+03   -0.39876E-04   -0.64442E-07    88   0.283E-03    0.644E-04
DAV:  21    -0.103190622823E+03   -0.31536E-04   -0.10262E-06    78   0.270E-03    0.618E-04
DAV:  22    -0.103190630472E+03   -0.76483E-05   -0.20553E-07    88   0.147E-03    0.241E-04
DAV:  23    -0.103190633431E+03   -0.29589E-05   -0.66645E-08    80   0.697E-04    0.169E-04
DAV:  24    -0.103190636380E+03   -0.29499E-05   -0.43599E-08    80   0.536E-04    0.925E-05
DAV:  25    -0.103190636881E+03   -0.50007E-06   -0.10219E-08    88   0.284E-04
   1 F= -.10319064E+03 E0= -.10319064E+03  d E =-.103191E+03
 curvature:   0.00 expect dE= 0.000E+00 dE for cont linesearch  0.000E+00
 trial: gam= 0.00000 g(F)=  0.375E+00 g(S)=  0.000E+00 ort = 0.000E+00 (trialstep = 0.100E+01)
 search vector abs. value=  0.375E+00
 bond charge predicted
       N       E                     dE             d eps       ncg     rms          rms(c)
DAV:   1    -0.103337795774E+03   -0.14716E+00   -0.66812E+00    84   0.110E+01    0.112E+00
DAV:   2    -0.103359878199E+03   -0.22082E-01   -0.29452E-01   120   0.223E+00    0.589E-01
DAV:   3    -0.103355102695E+03    0.47755E-02   -0.11962E-02   120   0.452E-01    0.288E-01
DAV:   4    -0.103354054651E+03    0.10480E-02   -0.62176E-03   112   0.276E-01    0.655E-02
DAV:   5    -0.103353921643E+03    0.13301E-03   -0.46164E-04   112   0.954E-02    0.396E-02
DAV:   6    -0.103353973207E+03   -0.51565E-04   -0.14202E-04   112   0.488E-02    0.189E-02
DAV:   7    -0.103354155077E+03   -0.18187E-03   -0.64314E-05   102   0.341E-02    0.905E-03
DAV:   8    -0.103354251100E+03   -0.96023E-04   -0.14796E-05   112   0.155E-02    0.805E-03
DAV:   9    -0.103354339258E+03   -0.88158E-04   -0.26050E-06    96   0.505E-03    0.451E-03
DAV:  10    -0.103354514322E+03   -0.17506E-03   -0.15439E-05   104   0.905E-03    0.309E-03
DAV:  11    -0.103354556198E+03   -0.41876E-04   -0.14502E-06    96   0.451E-03    0.136E-03
DAV:  12    -0.103354632299E+03   -0.76101E-04   -0.46242E-06   104   0.491E-03    0.792E-04
DAV:  13    -0.103354647896E+03   -0.15597E-04   -0.25416E-07    88   0.200E-03    0.513E-04
DAV:  14    -0.103354673190E+03   -0.25294E-04   -0.84842E-07    88   0.213E-03    0.546E-04
DAV:  15    -0.103354676835E+03   -0.36454E-05   -0.91892E-08    96   0.840E-04    0.300E-04
DAV:  16    -0.103354681827E+03   -0.49913E-05   -0.85809E-08    88   0.769E-04    0.277E-04
DAV:  17    -0.103354682615E+03   -0.78825E-06   -0.13819E-08    88   0.356E-04
   2 F= -.10335468E+03 E0= -.10335468E+03  d E =-.164046E+00
 trial-energy change:   -0.164046  1 .order   -0.155928   -0.375381    0.063525
 step:   0.8680(harm=  0.8553)  dis= 0.02981  next Energy=  -103.358857 (dE=-0.168E+00)
 bond charge predicted
       N       E                     dE             d eps       ncg     rms          rms(c)
DAV:   1    -0.103358560919E+03   -0.38791E-02   -0.11782E-01    84   0.148E+00    0.145E-01
DAV:   2    -0.103358930085E+03   -0.36917E-03   -0.52602E-03   120   0.297E-01    0.810E-02
DAV:   3    -0.103358831893E+03    0.98192E-04   -0.22921E-04   120   0.621E-02    0.393E-02
DAV:   4    -0.103358803463E+03    0.28430E-04   -0.10981E-04   112   0.367E-02    0.962E-03
DAV:   5    -0.103358800929E+03    0.25338E-05   -0.74230E-06   112   0.122E-02    0.532E-03
DAV:   6    -0.103358806112E+03   -0.51826E-05   -0.27929E-06    88   0.685E-03    0.231E-03
DAV:   7    -0.103358816294E+03   -0.10182E-04   -0.13947E-06    78   0.487E-03    0.111E-03
DAV:   8    -0.103358820902E+03   -0.46084E-05   -0.41900E-07    88   0.253E-03    0.107E-03
DAV:   9    -0.103358826348E+03   -0.54456E-05   -0.23596E-07    80   0.149E-03    0.397E-04
DAV:  10    -0.103358833237E+03   -0.68888E-05   -0.54098E-07    80   0.165E-03    0.361E-04
DAV:  11    -0.103358834705E+03   -0.14685E-05   -0.67841E-08    88   0.805E-04    0.137E-04
DAV:  12    -0.103358837332E+03   -0.26267E-05   -0.14046E-07    78   0.889E-04    0.865E-05
DAV:  13    -0.103358838075E+03   -0.74326E-06   -0.32237E-08    88   0.443E-04
   3 F= -.10335884E+03 E0= -.10335884E+03  d E =-.168201E+00
 curvature:  -0.42 expect dE=-0.316E-01 dE for cont linesearch -0.864E-08
 trial: gam= 0.19816 g(F)=  0.745E-01 g(S)=  0.000E+00 ort = 0.874E-04 (trialstep = 0.974E+00)
 search vector abs. value=  0.892E-01
 bond charge predicted
       N       E                     dE             d eps       ncg     rms          rms(c)
DAV:   1    -0.103405443253E+03   -0.46606E-01   -0.10861E+00    84   0.443E+00    0.454E-01
DAV:   2    -0.103409422118E+03   -0.39789E-02   -0.52817E-02   120   0.914E-01    0.221E-01
DAV:   3    -0.103408886060E+03    0.53606E-03   -0.27323E-03   128   0.214E-01    0.112E-01
DAV:   4    -0.103408916244E+03   -0.30183E-04   -0.90647E-04   112   0.110E-01    0.414E-02
DAV:   5    -0.103408907935E+03    0.83092E-05   -0.50827E-05   112   0.322E-02    0.202E-02
DAV:   6    -0.103408901650E+03    0.62844E-05   -0.24539E-05   112   0.215E-02    0.715E-03
DAV:   7    -0.103408910203E+03   -0.85532E-05   -0.12554E-05   112   0.139E-02    0.398E-03
DAV:   8    -0.103408915007E+03   -0.48037E-05   -0.15474E-06    96   0.528E-03    0.258E-03
DAV:   9    -0.103408920301E+03   -0.52939E-05   -0.32989E-07    78   0.194E-03    0.114E-03
DAV:  10    -0.103408931407E+03   -0.11106E-04   -0.84894E-07    78   0.297E-03    0.760E-04
DAV:  11    -0.103408935119E+03   -0.37125E-05   -0.21474E-07    88   0.141E-03    0.469E-04
DAV:  12    -0.103408942186E+03   -0.70664E-05   -0.44639E-07    78   0.184E-03    0.180E-04
DAV:  13    -0.103408944419E+03   -0.22332E-05   -0.15155E-07    88   0.102E-03    0.204E-04
DAV:  14    -0.103408946352E+03   -0.19330E-05   -0.58231E-08    88   0.749E-04    0.150E-04
DAV:  15    -0.103408947373E+03   -0.10210E-05   -0.49791E-08    88   0.502E-04    0.744E-05
DAV:  16    -0.103408947729E+03   -0.35654E-06   -0.91112E-09    88   0.242E-04
   4 F= -.10340895E+03 E0= -.10340895E+03  d E =-.501097E-01
 trial-energy change:   -0.050110  1 .order   -0.049914   -0.072525   -0.027304
 step:   1.5383(harm=  1.5614)  dis= 0.02682  next Energy=  -103.416904 (dE=-0.581E-01)
 bond charge predicted
       N       E                     dE             d eps       ncg     rms          rms(c)
DAV:   1    -0.103415792341E+03   -0.68450E-02   -0.36582E-01    84   0.258E+00    0.263E-01
DAV:   2    -0.103417137070E+03   -0.13447E-02   -0.18042E-02   120   0.535E-01    0.129E-01
DAV:   3    -0.103416957512E+03    0.17956E-03   -0.95365E-04   128   0.127E-01    0.650E-02
DAV:   4    -0.103416975406E+03   -0.17894E-04   -0.31699E-04   112   0.650E-02    0.251E-02
DAV:   5    -0.103416971501E+03    0.39058E-05   -0.16651E-05   104   0.185E-02    0.124E-02
DAV:   6    -0.103416967880E+03    0.36210E-05   -0.93650E-06   104   0.133E-02    0.380E-03
DAV:   7    -0.103416970401E+03   -0.25217E-05   -0.46789E-06   112   0.821E-03    0.234E-03
DAV:   8    -0.103416972118E+03   -0.17171E-05   -0.40007E-07    88   0.271E-03    0.149E-03
DAV:   9    -0.103416974521E+03   -0.24027E-05   -0.13603E-07    78   0.128E-03    0.594E-04
DAV:  10    -0.103416978736E+03   -0.42148E-05   -0.26384E-07    78   0.165E-03    0.442E-04
DAV:  11    -0.103416981088E+03   -0.23523E-05   -0.10798E-07    88   0.102E-03    0.192E-04
DAV:  12    -0.103416983413E+03   -0.23252E-05   -0.12721E-07    78   0.103E-03    0.125E-04
DAV:  13    -0.103416984274E+03   -0.86067E-06   -0.38069E-08    88   0.598E-04
   5 F= -.10341698E+03 E0= -.10341698E+03  d E =-.581462E-01
 curvature:  -0.93 expect dE=-0.214E-01 dE for cont linesearch -0.520E-06
 trial: gam= 0.30233 g(F)=  0.230E-01 g(S)=  0.000E+00 ort = 0.223E-03 (trialstep = 0.109E+01)
 search vector abs. value=  0.313E-01
 bond charge predicted
       N       E                     dE             d eps       ncg     rms          rms(c)
DAV:   1    -0.103431054189E+03   -0.14071E-01   -0.45262E-01    84   0.294E+00    0.270E-01
DAV:   2    -0.103432537545E+03   -0.14834E-02   -0.19146E-02   120   0.551E-01    0.145E-01
DAV:   3    -0.103432368408E+03    0.16914E-03   -0.74769E-04   120   0.111E-01    0.747E-02
DAV:   4    -0.103432363577E+03    0.48312E-05   -0.26463E-04   110   0.582E-02    0.206E-02
DAV:   5    -0.103432352035E+03    0.11542E-04   -0.26076E-05   112   0.202E-02    0.106E-02
DAV:   6    -0.103432354041E+03   -0.20062E-05   -0.74771E-06   112   0.934E-03    0.450E-03
DAV:   7    -0.103432366260E+03   -0.12219E-04   -0.15160E-06    78   0.558E-03    0.126E-03
DAV:   8    -0.103432377298E+03   -0.11038E-04   -0.10843E-06    86   0.381E-03    0.123E-03
DAV:   9    -0.103432392091E+03   -0.14793E-04   -0.70871E-07    78   0.245E-03    0.415E-04
DAV:  10    -0.103432402199E+03   -0.10108E-04   -0.76552E-07    86   0.207E-03    0.453E-04
DAV:  11    -0.103432405887E+03   -0.36887E-05   -0.17362E-07    88   0.121E-03    0.192E-04
DAV:  12    -0.103432409994E+03   -0.41072E-05   -0.19603E-07    78   0.104E-03    0.133E-04
DAV:  13    -0.103432411648E+03   -0.16538E-05   -0.60958E-08    88   0.602E-04    0.108E-04
DAV:  14    -0.103432413146E+03   -0.14980E-05   -0.60208E-08    80   0.559E-04    0.363E-05
DAV:  15    -0.103432413347E+03   -0.20076E-06   -0.80991E-09    88   0.241E-04
   6 F= -.10343241E+03 E0= -.10343241E+03  d E =-.154291E-01
 trial-energy change:   -0.015429  1 .order   -0.015333   -0.025019   -0.005647
 step:   1.3916(harm=  1.4032)  dis= 0.02078  next Energy=  -103.433208 (dE=-0.162E-01)
 bond charge predicted
       N       E                     dE             d eps       ncg     rms          rms(c)
DAV:   1    -0.103433113746E+03   -0.70060E-03   -0.35672E-02    84   0.827E-01    0.756E-02
DAV:   2    -0.103433235411E+03   -0.12167E-03   -0.15387E-03   120   0.156E-01    0.409E-02
DAV:   3    -0.103433224230E+03    0.11181E-04   -0.60684E-05   120   0.317E-02    0.209E-02
DAV:   4    -0.103433225497E+03   -0.12673E-05   -0.21287E-05   110   0.166E-02    0.603E-03
DAV:   5    -0.103433223795E+03    0.17019E-05   -0.20921E-06   104   0.577E-03    0.300E-03
DAV:   6    -0.103433223418E+03    0.37672E-06   -0.60236E-07    88   0.284E-03
   7 F= -.10343322E+03 E0= -.10343322E+03  d E =-.162391E-01
 curvature:  -0.95 expect dE=-0.822E-02 dE for cont linesearch -0.135E-06
 trial: gam= 0.37147 g(F)=  0.865E-02 g(S)=  0.000E+00 ort = 0.667E-04 (trialstep = 0.115E+01)
 search vector abs. value=  0.130E-01
 bond charge predicted
       N       E                     dE             d eps       ncg     rms          rms(c)
DAV:   1    -0.103438512435E+03   -0.52886E-02   -0.21824E-01    84   0.215E+00    0.161E-01
DAV:   2    -0.103438795289E+03   -0.28285E-03   -0.67851E-03   120   0.330E-01    0.870E-02
DAV:   3    -0.103438691533E+03    0.10376E-03   -0.49112E-04   128   0.916E-02    0.428E-02
DAV:   4    -0.103438687967E+03    0.35662E-05   -0.13128E-04   120   0.499E-02    0.152E-02
DAV:   5    -0.103438690319E+03   -0.23521E-05   -0.18038E-05   112   0.179E-02    0.873E-03
DAV:   6    -0.103438691751E+03   -0.14319E-05   -0.19094E-06    96   0.547E-03    0.315E-03
DAV:   7    -0.103438694241E+03   -0.24898E-05   -0.52045E-07    88   0.284E-03    0.100E-03
DAV:   8    -0.103438698025E+03   -0.37846E-05   -0.20847E-07    88   0.224E-03    0.558E-04
DAV:   9    -0.103438701678E+03   -0.36527E-05   -0.20719E-07    88   0.173E-03    0.348E-04
DAV:  10    -0.103438705011E+03   -0.33329E-05   -0.17428E-07    88   0.128E-03    0.182E-04
DAV:  11    -0.103438706078E+03   -0.10673E-05   -0.37320E-08    88   0.696E-04    0.127E-04
DAV:  12    -0.103438707234E+03   -0.11563E-05   -0.26756E-08    88   0.443E-04    0.756E-05
DAV:  13    -0.103438708218E+03   -0.98368E-06   -0.20813E-08    88   0.349E-04
   8 F= -.10343871E+03 E0= -.10343871E+03  d E =-.548480E-02
 trial-energy change:   -0.005485  1 .order   -0.005444   -0.009951   -0.000937
 step:   1.2634(harm=  1.2669)  dis= 0.01129  next Energy=  -103.438756 (dE=-0.553E-02)
 bond charge predicted
       N       E                     dE             d eps       ncg     rms          rms(c)
DAV:   1    -0.103438755599E+03   -0.48364E-04   -0.22273E-03    84   0.217E-01    0.163E-02
DAV:   2    -0.103438759789E+03   -0.41907E-05   -0.69440E-05   120   0.333E-02    0.884E-03
DAV:   3    -0.103438759407E+03    0.38264E-06   -0.50124E-06   128   0.925E-03
   9 F= -.10343876E+03 E0= -.10343876E+03  d E =-.553599E-02
 curvature:  -0.95 expect dE=-0.294E-02 dE for cont linesearch -0.833E-07
 trial: gam= 0.35769 g(F)=  0.309E-02 g(S)=  0.000E+00 ort = 0.338E-04 (trialstep = 0.117E+01)
 search vector abs. value=  0.478E-02
 bond charge predicted
       N       E                     dE             d eps       ncg     rms          rms(c)
DAV:   1    -0.103441091783E+03   -0.23320E-02   -0.74737E-02    84   0.125E+00    0.978E-02
DAV:   2    -0.103441287190E+03   -0.19541E-03   -0.32423E-03   120   0.223E-01    0.571E-02
DAV:   3    -0.103441246378E+03    0.40812E-04   -0.17004E-04   128   0.525E-02    0.307E-02
DAV:   4    -0.103441234616E+03    0.11762E-04   -0.49350E-05   112   0.285E-02    0.803E-03
DAV:   5    -0.103441229157E+03    0.54588E-05   -0.93782E-06   112   0.129E-02    0.559E-03
DAV:   6    -0.103441228806E+03    0.35074E-06   -0.14899E-06    96   0.546E-03
  10 F= -.10344123E+03 E0= -.10344123E+03  d E =-.246940E-02
 trial-energy change:   -0.002469  1 .order   -0.002490   -0.003636   -0.001344
 step:   1.9234(harm=  1.8569)  dis= 0.01173  next Energy=  -103.441655 (dE=-0.290E-02)
 bond charge predicted
       N       E                     dE             d eps       ncg     rms          rms(c)
DAV:   1    -0.103441555084E+03   -0.32593E-03   -0.30992E-02    84   0.804E-01    0.626E-02
DAV:   2    -0.103441639463E+03   -0.84379E-04   -0.13590E-03   120   0.145E-01    0.367E-02
DAV:   3    -0.103441622078E+03    0.17385E-04   -0.70704E-05   128   0.339E-02    0.198E-02
DAV:   4    -0.103441617340E+03    0.47377E-05   -0.20322E-05   120   0.185E-02    0.521E-03
DAV:   5    -0.103441617076E+03    0.26383E-06   -0.42272E-06   120   0.868E-03
  11 F= -.10344162E+03 E0= -.10344162E+03  d E =-.285767E-02
 curvature:  -1.42 expect dE=-0.240E-02 dE for cont linesearch -0.371E-05
 trial: gam= 0.58932 g(F)=  0.169E-02 g(S)=  0.000E+00 ort =-0.112E-03 (trialstep = 0.132E+01)
 search vector abs. value=  0.322E-02
 bond charge predicted
       N       E                     dE             d eps       ncg     rms          rms(c)
DAV:   1    -0.103442887923E+03   -0.12706E-02   -0.89017E-02    84   0.136E+00    0.985E-02
DAV:   2    -0.103442953253E+03   -0.65330E-04   -0.17810E-03   120   0.171E-01    0.520E-02
DAV:   3    -0.103442914485E+03    0.38768E-04   -0.14244E-04   120   0.484E-02    0.232E-02
DAV:   4    -0.103442917967E+03   -0.34815E-05   -0.55323E-05   120   0.262E-02    0.750E-03
DAV:   5    -0.103442919130E+03   -0.11634E-05   -0.36005E-06   104   0.806E-03    0.465E-03
DAV:   6    -0.103442921133E+03   -0.20027E-05   -0.64902E-07    88   0.330E-03    0.131E-03
DAV:   7    -0.103442923211E+03   -0.20786E-05   -0.32451E-07    88   0.228E-03    0.526E-04
DAV:   8    -0.103442926730E+03   -0.35185E-05   -0.20159E-07    88   0.175E-03    0.436E-04
DAV:   9    -0.103442928690E+03   -0.19599E-05   -0.98734E-08    88   0.115E-03    0.201E-04
DAV:  10    -0.103442930819E+03   -0.21298E-05   -0.92200E-08    88   0.870E-04    0.206E-04
DAV:  11    -0.103442931581E+03   -0.76181E-06   -0.28528E-08    88   0.527E-04
  12 F= -.10344293E+03 E0= -.10344293E+03  d E =-.131450E-02
 trial-energy change:   -0.001315  1 .order   -0.001290   -0.002149   -0.000431
 step:   1.6213(harm=  1.6529)  dis= 0.00934  next Energy=  -103.442981 (dE=-0.136E-02)
 bond charge predicted
       N       E                     dE             d eps       ncg     rms          rms(c)
DAV:   1    -0.103442984738E+03   -0.53919E-04   -0.45842E-03    84   0.309E-01    0.224E-02
DAV:   2    -0.103442988062E+03   -0.33240E-05   -0.91859E-05   112   0.389E-02    0.119E-02
DAV:   3    -0.103442986081E+03    0.19810E-05   -0.73326E-06   128   0.109E-02    0.529E-03
DAV:   4    -0.103442986157E+03   -0.75850E-07   -0.28031E-06   112   0.588E-03
  13 F= -.10344299E+03 E0= -.10344299E+03  d E =-.136908E-02
 curvature:  -1.62 expect dE=-0.284E-02 dE for cont linesearch -0.297E-06
 trial: gam= 0.95659 g(F)=  0.175E-02 g(S)=  0.000E+00 ort = 0.243E-04 (trialstep = 0.938E+00)
 search vector abs. value=  0.474E-02
 bond charge predicted
       N       E                     dE             d eps       ncg     rms          rms(c)
DAV:   1    -0.103444196538E+03   -0.12105E-02   -0.62066E-02    84   0.114E+00    0.862E-02
DAV:   2    -0.103444251620E+03   -0.55083E-04   -0.13682E-03   112   0.149E-01    0.438E-02
DAV:   3    -0.103444224116E+03    0.27505E-04   -0.93087E-05   128   0.375E-02    0.214E-02
DAV:   4    -0.103444221763E+03    0.23528E-05   -0.27101E-05   112   0.174E-02    0.661E-03
DAV:   5    -0.103444221000E+03    0.76313E-06   -0.14843E-06    96   0.528E-03
  14 F= -.10344422E+03 E0= -.10344422E+03  d E =-.123484E-02
 trial-energy change:   -0.001235  1 .order   -0.001237   -0.001663   -0.000812
 step:   1.8313(harm=  1.8313)  dis= 0.00883  next Energy=  -103.444610 (dE=-0.162E-02)
 bond charge predicted
       N       E                     dE             d eps       ncg     rms          rms(c)
DAV:   1    -0.103444584983E+03   -0.36322E-03   -0.56409E-02    84   0.108E+00    0.822E-02
DAV:   2    -0.103444635010E+03   -0.50027E-04   -0.12562E-03   112   0.143E-01    0.416E-02
DAV:   3    -0.103444608574E+03    0.26436E-04   -0.84432E-05   120   0.357E-02    0.205E-02
DAV:   4    -0.103444605990E+03    0.25838E-05   -0.24767E-05   112   0.166E-02    0.633E-03
DAV:   5    -0.103444606374E+03   -0.38318E-06   -0.13702E-06    96   0.508E-03
  15 F= -.10344461E+03 E0= -.10344461E+03  d E =-.162022E-02
 curvature:  -2.45 expect dE=-0.724E-03 dE for cont linesearch -0.115E-07
 trial: gam= 0.23561 g(F)=  0.295E-03 g(S)=  0.000E+00 ort = 0.471E-05 (trialstep = 0.112E+01)
 search vector abs. value=  0.561E-03
 bond charge predicted
       N       E                     dE             d eps       ncg     rms          rms(c)
DAV:   1    -0.103444744947E+03   -0.13896E-03   -0.10789E-02    84   0.437E-01    0.343E-02
DAV:   2    -0.103444794853E+03   -0.49906E-04   -0.56182E-04   112   0.924E-02    0.216E-02
DAV:   3    -0.103444792022E+03    0.28302E-05   -0.16098E-05   120   0.180E-02    0.119E-02
DAV:   4    -0.103444794255E+03   -0.22322E-05   -0.77260E-06   102   0.113E-02    0.257E-03
DAV:   5    -0.103444795534E+03   -0.12797E-05   -0.12732E-06    88   0.471E-03    0.133E-03
DAV:   6    -0.103444796139E+03   -0.60479E-06   -0.17443E-07    88   0.171E-03
  16 F= -.10344480E+03 E0= -.10344480E+03  d E =-.189765E-03
 trial-energy change:   -0.000190  1 .order   -0.000182   -0.000331   -0.000033
 step:   1.2215(harm=  1.2395)  dis= 0.00169  next Energy=  -103.444798 (dE=-0.191E-03)
 bond charge predicted
       N       E                     dE             d eps       ncg     rms          rms(c)
DAV:   1    -0.103444798352E+03   -0.28179E-05   -0.96389E-05    84   0.412E-02    0.327E-03
DAV:   2    -0.103444799015E+03   -0.66235E-06   -0.52256E-06   112   0.894E-03
  17 F= -.10344480E+03 E0= -.10344480E+03  d E =-.192641E-03
 curvature:  -1.15 expect dE=-0.217E-03 dE for cont linesearch -0.456E-07
 trial: gam= 0.63098 g(F)=  0.189E-03 g(S)=  0.000E+00 ort = 0.472E-05 (trialstep = 0.114E+01)
 search vector abs. value=  0.419E-03
 bond charge predicted
       N       E                     dE             d eps       ncg     rms          rms(c)
DAV:   1    -0.103444971768E+03   -0.17342E-03   -0.76435E-03    84   0.408E-01    0.266E-02
DAV:   2    -0.103444970485E+03    0.12838E-05   -0.12805E-04   118   0.467E-02    0.151E-02
DAV:   3    -0.103444967049E+03    0.34359E-05   -0.12762E-05   128   0.139E-02    0.630E-03
DAV:   4    -0.103444967227E+03   -0.17837E-06   -0.29132E-06   104   0.619E-03
  18 F= -.10344497E+03 E0= -.10344497E+03  d E =-.168213E-03
 trial-energy change:   -0.000168  1 .order   -0.000169   -0.000219   -0.000119
 step:   2.4891(harm=  2.4891)  dis= 0.00340  next Energy=  -103.445038 (dE=-0.239E-03)
 reached required accuracy - stopping structural energy minimisation
 writing wavefunctions
librdmacm: Fatal: no RDMA devices found
librdmacm: Fatal: no RDMA devices found
librdmacm: Fatal: no RDMA devices found
librdmacm: Fatal: no RDMA devices found
librdmacm: Fatal: no RDMA devices found
librdmacm: Fatal: no RDMA devices found
--------------------------------------------------------------------------
[[31501,1],0]: A high-performance Open MPI point-to-point messaging module
was unable to find any relevant network interfaces:

Module: OpenFabrics (openib)
  Host: compute-0-19

Another transport will be used instead, although this may result in
lower performance.
--------------------------------------------------------------------------
librdmacm: Fatal: no RDMA devices found
librdmacm: Fatal: no RDMA devices found
librdmacm: Fatal: no RDMA devices found
librdmacm: Fatal: no RDMA devices found
librdmacm: Fatal: no RDMA devices found
librdmacm: Fatal: no RDMA devices found
 running on   12 total cores
 distrk:  each k-point on   12 cores,    1 groups
 distr:  one band on    1 cores,   12 groups
 using from now: INCAR     
 vasp.5.4.4.18Apr17-6-g9f103f2a35 (build Nov 06 2017 19:16:10) complex          
  
 POSCAR found type information on POSCAR  Si Ge H 
 POSCAR found :  3 types and      26 ions
 scaLAPACK will be used

 ----------------------------------------------------------------------------- 
|                                                                             |
|           W    W    AA    RRRRR   N    N  II  N    N   GGGG   !!!           |
|           W    W   A  A   R    R  NN   N  II  NN   N  G    G  !!!           |
|           W    W  A    A  R    R  N N  N  II  N N  N  G       !!!           |
|           W WW W  AAAAAA  RRRRR   N  N N  II  N  N N  G  GGG   !            |
|           WW  WW  A    A  R   R   N   NN  II  N   NN  G    G                |
|           W    W  A    A  R    R  N    N  II  N    N   GGGG   !!!           |
|                                                                             |
|      For optimal performance we recommend to set                            |
|        NCORE= 4 - approx SQRT( number of cores)                             |
|      NCORE specifies how many cores store one orbital (NPAR=cpu/NCORE).     |
|      This setting can  greatly improve the performance of VASP for DFT.     |
|      The default,   NCORE=1            might be grossly inefficient         |
|      on modern multi-core architectures or massively parallel machines.     |
|      Do your own testing !!!!                                               |
|      Unfortunately you need to use the default for GW and RPA calculations. |
|      (for HF NCORE is supported but not extensively tested yet)             |
|                                                                             |
 ----------------------------------------------------------------------------- 


 ----------------------------------------------------------------------------- 
|                                                                             |
|  ADVICE TO THIS USER RUNNING 'VASP/VAMP'   (HEAR YOUR MASTER'S VOICE ...):  |
|                                                                             |
|      You have a (more or less) 'large supercell' and for larger cells       |
|      it might be more efficient to use real space projection opertators     |
|      So try LREAL= Auto  in the INCAR   file.                               |
|      Mind:          For very  accurate calculation you might also keep the  |
|      reciprocal projection scheme          (i.e. LREAL=.FALSE.)             |
|                                                                             |
 ----------------------------------------------------------------------------- 

 LDA part: xc-table for Pade appr. of Perdew
 POSCAR, INCAR and KPOINTS ok, starting setup
 FFT: planning ...
 WAVECAR not read
[compute-0-19.local:29254] 11 more processes have sent help message help-mpi-btl-base.txt / btl:no-nics
[compute-0-19.local:29254] Set MCA parameter "orte_base_help_aggregate" to 0 to see all help / error messages
 entering main loop
       N       E                     dE             d eps       ncg     rms          rms(c)
DAV:   1     0.243069851135E+03    0.24307E+03   -0.10227E+04   120   0.484E+02
DAV:   2    -0.246910449561E+02   -0.26776E+03   -0.25290E+03   156   0.919E+01
DAV:   3    -0.104924857960E+03   -0.80234E+02   -0.80017E+02   120   0.550E+01
DAV:   4    -0.108865236438E+03   -0.39404E+01   -0.39238E+01   120   0.177E+01
DAV:   5    -0.108953054842E+03   -0.87818E-01   -0.87616E-01   144   0.302E+00    0.160E+01
DAV:   6    -0.105376682878E+03    0.35764E+01   -0.15834E+00   108   0.432E+00    0.929E+00
DAV:   7    -0.103513660716E+03    0.18630E+01   -0.44405E+00   120   0.644E+00    0.134E+00
DAV:   8    -0.103461488119E+03    0.52173E-01   -0.33341E-01   132   0.221E+00    0.703E-01
DAV:   9    -0.103426292245E+03    0.35196E-01   -0.64108E-02   144   0.696E-01    0.400E-01
DAV:  10    -0.103425469981E+03    0.82226E-03   -0.46714E-03   120   0.239E-01    0.151E-01
DAV:  11    -0.103423981519E+03    0.14885E-02   -0.67708E-03   108   0.220E-01    0.108E-01
DAV:  12    -0.103429420488E+03   -0.54390E-02   -0.13833E-03   108   0.103E-01    0.518E-02
DAV:  13    -0.103433162631E+03   -0.37421E-02   -0.19862E-03   120   0.108E-01    0.459E-02
DAV:  14    -0.103435911575E+03   -0.27489E-02   -0.14733E-04   144   0.406E-02    0.231E-02
DAV:  15    -0.103441499774E+03   -0.55882E-02   -0.64276E-04   120   0.614E-02    0.139E-02
DAV:  16    -0.103442931633E+03   -0.14319E-02   -0.84297E-05   132   0.268E-02    0.864E-03
DAV:  17    -0.103444349571E+03   -0.14179E-02   -0.13447E-04   120   0.247E-02    0.764E-03
DAV:  18    -0.103444616392E+03   -0.26682E-03   -0.72460E-06   132   0.720E-03    0.217E-03
DAV:  19    -0.103444852584E+03   -0.23619E-03   -0.10307E-05   132   0.702E-03    0.223E-03
DAV:  20    -0.103444909835E+03   -0.57252E-04   -0.90585E-07   108   0.306E-03    0.680E-04
DAV:  21    -0.103444944415E+03   -0.34579E-04   -0.79604E-07   108   0.218E-03    0.496E-04
DAV:  22    -0.103444958868E+03   -0.14453E-04   -0.30480E-07   108   0.132E-03    0.240E-04
DAV:  23    -0.103444962258E+03   -0.33903E-05   -0.67438E-08   108   0.625E-04    0.189E-04
DAV:  24    -0.103444966975E+03   -0.47173E-05   -0.83673E-08   108   0.695E-04    0.206E-04
DAV:  25    -0.103444967495E+03   -0.51969E-06   -0.72487E-09   108   0.325E-04
   1 F= -.10344497E+03 E0= -.10344497E+03  d E =-.784768E-10
 Finite differences POTIM= 0.02000 DOF=  78
 bond charge predicted
       N       E                     dE             d eps       ncg     rms          rms(c)
DAV:   1    -0.103441605416E+03    0.33616E-02   -0.81114E-02    96   0.779E-01    0.134E-01
DAV:   2    -0.103441919401E+03   -0.31399E-03   -0.37065E-03   132   0.197E-01    0.570E-02
DAV:   3    -0.103441904968E+03    0.14433E-04   -0.15211E-04   144   0.448E-02    0.301E-02
DAV:   4    -0.103441908015E+03   -0.30473E-05   -0.34894E-05   132   0.214E-02    0.897E-03
DAV:   5    -0.103441907303E+03    0.71244E-06   -0.65216E-06   132   0.963E-03
   2 F= -.10344191E+03 E0= -.10344191E+03  d E =-.760940E-10
 Finite differences progress:
  Degree of freedom:   1/ 78
  Displacement:        1/  2
  Total:               1/156
 bond charge predicted
       N       E                     dE             d eps       ncg     rms          rms(c)
DAV:   1    -0.103440668250E+03    0.12398E-02   -0.32555E-01    96   0.155E+00    0.265E-01
DAV:   2    -0.103441928496E+03   -0.12602E-02   -0.14804E-02   132   0.393E-01    0.116E-01
DAV:   3    -0.103441870992E+03    0.57504E-04   -0.61238E-04   132   0.905E-02    0.615E-02
DAV:   4    -0.103441888148E+03   -0.17157E-04   -0.14279E-04   132   0.435E-02    0.188E-02
DAV:   5    -0.103441885916E+03    0.22328E-05   -0.25536E-05   132   0.192E-02    0.104E-02
DAV:   6    -0.103441885511E+03    0.40436E-06   -0.52309E-06   132   0.781E-03
   3 F= -.10344189E+03 E0= -.10344189E+03  d E =-.856040E-10
 Finite differences progress:
  Degree of freedom:   1/ 78
  Displacement:        2/  2
  Total:               2/156
 bond charge predicted
       N       E                     dE             d eps       ncg     rms          rms(c)
DAV:   1    -0.103441307818E+03    0.57810E-03   -0.16315E-01    96   0.111E+00    0.192E-01
DAV:   2    -0.103441911330E+03   -0.60351E-03   -0.72025E-03   132   0.275E-01    0.804E-02
DAV:   3    -0.103441886626E+03    0.24705E-04   -0.30057E-04   132   0.630E-02    0.426E-02
DAV:   4    -0.103441897411E+03   -0.10785E-04   -0.67327E-05   132   0.296E-02    0.130E-02
DAV:   5    -0.103441897421E+03   -0.96593E-08   -0.11766E-05   132   0.133E-02    0.733E-03
DAV:   6    -0.103441897687E+03   -0.26680E-06   -0.25641E-06   132   0.547E-03
   4 F= -.10344190E+03 E0= -.10344190E+03  d E =-.828693E-10
 Finite differences progress:
  Degree of freedom:   2/ 78
  Displacement:        1/  2
  Total:               3/156
 bond charge predicted
       N       E                     dE             d eps       ncg     rms          rms(c)
DAV:   1    -0.103440529678E+03    0.13677E-02   -0.32518E-01    96   0.157E+00    0.266E-01
DAV:   2    -0.103441864526E+03   -0.13348E-02   -0.15487E-02   132   0.407E-01    0.117E-01
DAV:   3    -0.103441805089E+03    0.59437E-04   -0.61402E-04   144   0.917E-02    0.618E-02
DAV:   4    -0.103441819265E+03   -0.14176E-04   -0.14896E-04   144   0.438E-02    0.192E-02
DAV:   5    -0.103441815374E+03    0.38911E-05   -0.23350E-05   132   0.188E-02    0.100E-02
DAV:   6    -0.103441814863E+03    0.51039E-06   -0.54864E-06   132   0.800E-03
   5 F= -.10344181E+03 E0= -.10344181E+03  d E =-.712747E-10
 Finite differences progress:
  Degree of freedom:   2/ 78
  Displacement:        2/  2
  Total:               4/156
 bond charge predicted
       N       E                     dE             d eps       ncg     rms          rms(c)
DAV:   1    -0.103439768592E+03    0.20468E-02   -0.16248E-01    96   0.112E+00    0.189E-01
DAV:   2    -0.103440603929E+03   -0.83534E-03   -0.93495E-03   132   0.309E-01    0.945E-02
DAV:   3    -0.103440559007E+03    0.44923E-04   -0.33417E-04   132   0.688E-02    0.501E-02
DAV:   4    -0.103440565705E+03   -0.66979E-05   -0.11118E-04   132   0.362E-02    0.140E-02
DAV:   5    -0.103440563936E+03    0.17685E-05   -0.16071E-05   132   0.149E-02    0.757E-03
DAV:   6    -0.103440565727E+03   -0.17911E-05   -0.33242E-06   132   0.583E-03    0.460E-03
DAV:   7    -0.103440571382E+03   -0.56546E-05   -0.47262E-07   108   0.234E-03    0.129E-03
DAV:   8    -0.103440575725E+03   -0.43427E-05   -0.31271E-07   108   0.179E-03    0.612E-04
DAV:   9    -0.103440581689E+03   -0.59648E-05   -0.34089E-07   108   0.163E-03    0.491E-04
DAV:  10    -0.103440587751E+03   -0.60615E-05   -0.52026E-07   120   0.153E-03    0.390E-04
DAV:  11    -0.103440589038E+03   -0.12871E-05   -0.31033E-08   108   0.691E-04    0.249E-04
DAV:  12    -0.103440590725E+03   -0.16869E-05   -0.48134E-08   108   0.508E-04    0.966E-05
DAV:  13    -0.103440591648E+03   -0.92372E-06   -0.14120E-08   108   0.292E-04
   6 F= -.10344059E+03 E0= -.10344059E+03  d E =-.816693E-10
 Finite differences progress:
  Degree of freedom:   3/ 78
  Displacement:        1/  2
  Total:               5/156
 bond charge predicted
       N       E                     dE             d eps       ncg     rms          rms(c)
DAV:   1    -0.103438539274E+03    0.20515E-02   -0.33186E-01    96   0.153E+00    0.273E-01
DAV:   2    -0.103440749326E+03   -0.22101E-02   -0.24343E-02   120   0.468E-01    0.169E-01
DAV:   3    -0.103440578967E+03    0.17036E-03   -0.72870E-04   132   0.103E-01    0.867E-02
DAV:   4    -0.103440584884E+03   -0.59177E-05   -0.40674E-04   120   0.626E-02    0.171E-02
DAV:   5    -0.103440574181E+03    0.10703E-04   -0.46015E-05   132   0.228E-02    0.115E-02
DAV:   6    -0.103440575122E+03   -0.94091E-06   -0.10106E-05   132   0.795E-03    0.691E-03
DAV:   7    -0.103440587060E+03   -0.11937E-04   -0.10615E-06   132   0.332E-03    0.273E-03
DAV:   8    -0.103440603502E+03   -0.16443E-04   -0.15237E-06   132   0.379E-03    0.128E-03
DAV:   9    -0.103440617245E+03   -0.13743E-04   -0.84722E-07   120   0.210E-03    0.141E-03
DAV:  10    -0.103440638773E+03   -0.21527E-04   -0.13026E-06   132   0.222E-03    0.674E-04
DAV:  11    -0.103440642476E+03   -0.37036E-05   -0.64039E-08   108   0.783E-04    0.396E-04
DAV:  12    -0.103440650965E+03   -0.84890E-05   -0.26326E-07   108   0.104E-03    0.248E-04
DAV:  13    -0.103440653008E+03   -0.20429E-05   -0.49392E-08   108   0.483E-04    0.225E-04
DAV:  14    -0.103440655335E+03   -0.23272E-05   -0.24248E-08   108   0.398E-04    0.684E-05
DAV:  15    -0.103440656122E+03   -0.78698E-06   -0.71902E-09   108   0.245E-04
   7 F= -.10344066E+03 E0= -.10344066E+03  d E =-.789436E-10
 Finite differences progress:
  Degree of freedom:   3/ 78
  Displacement:        2/  2
  Total:               6/156
 bond charge predicted
       N       E                     dE             d eps       ncg     rms          rms(c)
DAV:   1    -0.103439734855E+03    0.92048E-03   -0.18972E-01    96   0.130E+00    0.196E-01
DAV:   2    -0.103441051316E+03   -0.13165E-02   -0.13860E-02   120   0.398E-01    0.119E-01
DAV:   3    -0.103440974752E+03    0.76565E-04   -0.41277E-04   144   0.826E-02    0.633E-02
DAV:   4    -0.103440976630E+03   -0.18784E-05   -0.20103E-04   132   0.510E-02    0.127E-02
DAV:   5    -0.103440971127E+03    0.55030E-05   -0.34952E-05   120   0.204E-02    0.934E-03
DAV:   6    -0.103440971967E+03   -0.84040E-06   -0.39554E-06   144   0.619E-03
   8 F= -.10344097E+03 E0= -.10344097E+03  d E =-.635898E-10
 Finite differences progress:
  Degree of freedom:   4/ 78
  Displacement:        1/  2
  Total:               7/156
 bond charge predicted
       N       E                     dE             d eps       ncg     rms          rms(c)
DAV:   1    -0.103439169392E+03    0.18017E-02   -0.33834E-01    96   0.171E+00    0.259E-01
DAV:   2    -0.103441081913E+03   -0.19125E-02   -0.19761E-02   132   0.462E-01    0.154E-01
DAV:   3    -0.103441016500E+03    0.65412E-04   -0.55841E-04   132   0.874E-02    0.858E-02
DAV:   4    -0.103441012857E+03    0.36437E-05   -0.20378E-04   132   0.529E-02    0.163E-02
DAV:   5    -0.103441002412E+03    0.10445E-04   -0.39772E-05   144   0.232E-02    0.103E-02
DAV:   6    -0.103441002110E+03    0.30171E-06   -0.72030E-06   132   0.940E-03
   9 F= -.10344100E+03 E0= -.10344100E+03  d E =-.714201E-10
 Finite differences progress:
  Degree of freedom:   4/ 78
  Displacement:        2/  2
  Total:               8/156
 bond charge predicted
       N       E                     dE             d eps       ncg     rms          rms(c)
DAV:   1    -0.103439029059E+03    0.19734E-02   -0.17143E-01    96   0.119E+00    0.182E-01
DAV:   2    -0.103440092222E+03   -0.10632E-02   -0.10771E-02   132   0.372E-01    0.115E-01
DAV:   3    -0.103440074806E+03    0.17416E-04   -0.28905E-04   132   0.708E-02    0.603E-02
DAV:   4    -0.103440093648E+03   -0.18842E-04   -0.14816E-04   120   0.468E-02    0.118E-02
DAV:   5    -0.103440088945E+03    0.47037E-05   -0.27093E-05   144   0.198E-02    0.816E-03
DAV:   6    -0.103440090023E+03   -0.10783E-05   -0.65650E-06   132   0.781E-03    0.497E-03
DAV:   7    -0.103440097680E+03   -0.76570E-05   -0.84560E-07   108   0.368E-03    0.196E-03
DAV:   8    -0.103440106652E+03   -0.89725E-05   -0.67643E-07   108   0.274E-03    0.685E-04
DAV:   9    -0.103440116188E+03   -0.95362E-05   -0.98445E-07   108   0.259E-03    0.952E-04
DAV:  10    -0.103440125196E+03   -0.90081E-05   -0.60497E-07   108   0.199E-03    0.304E-04
DAV:  11    -0.103440127543E+03   -0.23461E-05   -0.13582E-07   108   0.867E-04    0.239E-04
DAV:  12    -0.103440130207E+03   -0.26645E-05   -0.75961E-08    96   0.643E-04    0.103E-04
DAV:  13    -0.103440132309E+03   -0.21018E-05   -0.95898E-08   108   0.603E-04    0.138E-04
DAV:  14    -0.103440133299E+03   -0.99046E-06   -0.18099E-08   108   0.318E-04
  10 F= -.10344013E+03 E0= -.10344013E+03  d E =-.891383E-10
 Finite differences progress:
  Degree of freedom:   5/ 78
  Displacement:        1/  2
  Total:               9/156
 bond charge predicted
       N       E                     dE             d eps       ncg     rms          rms(c)
DAV:   1    -0.103437799073E+03    0.23332E-02   -0.34991E-01    96   0.183E+00    0.274E-01
DAV:   2    -0.103440196331E+03   -0.23973E-02   -0.24601E-02   132   0.557E-01    0.181E-01
DAV:   3    -0.103440041117E+03    0.15521E-03   -0.61797E-04   132   0.109E-01    0.900E-02
DAV:   4    -0.103440056878E+03   -0.15761E-04   -0.44679E-04   120   0.802E-02    0.186E-02
DAV:   5    -0.103440043666E+03    0.13212E-04   -0.80597E-05   132   0.338E-02    0.125E-02
DAV:   6    -0.103440048657E+03   -0.49910E-05   -0.16108E-05   132   0.112E-02    0.598E-03
DAV:   7    -0.103440066320E+03   -0.17663E-04   -0.11624E-06   120   0.350E-03    0.296E-03
DAV:   8    -0.103440095770E+03   -0.29450E-04   -0.39948E-06   132   0.559E-03    0.168E-03
DAV:   9    -0.103440117761E+03   -0.21991E-04   -0.17120E-06   120   0.343E-03    0.120E-03
DAV:  10    -0.103440134798E+03   -0.17037E-04   -0.11509E-06    96   0.242E-03    0.441E-04
DAV:  11    -0.103440141680E+03   -0.68824E-05   -0.31046E-07   108   0.126E-03    0.297E-04
DAV:  12    -0.103440149168E+03   -0.74874E-05   -0.30294E-07   108   0.112E-03    0.159E-04
DAV:  13    -0.103440151421E+03   -0.22532E-05   -0.61867E-08   108   0.551E-04    0.147E-04
DAV:  14    -0.103440153776E+03   -0.23548E-05   -0.42278E-08    96   0.456E-04    0.711E-05
DAV:  15    -0.103440154351E+03   -0.57508E-06   -0.27198E-09   108   0.238E-04
  11 F= -.10344015E+03 E0= -.10344015E+03  d E =-.797755E-10
 Finite differences progress:
  Degree of freedom:   5/ 78
  Displacement:        2/  2
  Total:              10/156
 bond charge predicted
       N       E                     dE             d eps       ncg     rms          rms(c)
DAV:   1    -0.103440392113E+03   -0.23834E-03   -0.17306E-01    96   0.130E+00    0.195E-01
DAV:   2    -0.103441472691E+03   -0.10806E-02   -0.11258E-02   132   0.362E-01    0.120E-01
DAV:   3    -0.103441411157E+03    0.61534E-04   -0.30819E-04   132   0.724E-02    0.608E-02
DAV:   4    -0.103441415757E+03   -0.46000E-05   -0.18079E-04   120   0.497E-02    0.119E-02
DAV:   5    -0.103441409957E+03    0.58001E-05   -0.32725E-05   132   0.212E-02    0.860E-03
DAV:   6    -0.103441412460E+03   -0.25033E-05   -0.65568E-06   144   0.715E-03    0.506E-03
DAV:   7    -0.103441422131E+03   -0.96705E-05   -0.65810E-07   108   0.292E-03    0.214E-03
DAV:   8    -0.103441435805E+03   -0.13674E-04   -0.17984E-06   120   0.377E-03    0.107E-03
DAV:   9    -0.103441447147E+03   -0.11342E-04   -0.91130E-07   120   0.251E-03    0.101E-03
DAV:  10    -0.103441457772E+03   -0.10626E-04   -0.73793E-07    96   0.196E-03    0.382E-04
DAV:  11    -0.103441461033E+03   -0.32606E-05   -0.16671E-07   108   0.953E-04    0.276E-04
DAV:  12    -0.103441464831E+03   -0.37983E-05   -0.12112E-07    96   0.770E-04    0.129E-04
DAV:  13    -0.103441467059E+03   -0.22274E-05   -0.90973E-08   108   0.593E-04    0.143E-04
DAV:  14    -0.103441468466E+03   -0.14075E-05   -0.30434E-08    96   0.381E-04    0.872E-05
DAV:  15    -0.103441468957E+03   -0.49096E-06   -0.10576E-09   108   0.206E-04
  12 F= -.10344147E+03 E0= -.10344147E+03  d E =-.729971E-10
 Finite differences progress:
  Degree of freedom:   6/ 78
  Displacement:        1/  2
  Total:              11/156
 bond charge predicted
       N       E                     dE             d eps       ncg     rms          rms(c)
DAV:   1    -0.103439815351E+03    0.16531E-02   -0.33089E-01    96   0.166E+00    0.274E-01
DAV:   2    -0.103441622363E+03   -0.18070E-02   -0.18952E-02   132   0.449E-01    0.134E-01
DAV:   3    -0.103441556884E+03    0.65479E-04   -0.58558E-04   132   0.904E-02    0.729E-02
DAV:   4    -0.103441565919E+03   -0.90349E-05   -0.20136E-04   120   0.550E-02    0.156E-02
DAV:   5    -0.103441559282E+03    0.66367E-05   -0.46295E-05   144   0.255E-02    0.117E-02
DAV:   6    -0.103441558750E+03    0.53199E-06   -0.62477E-06   132   0.849E-03
  13 F= -.10344156E+03 E0= -.10344156E+03  d E =-.432928E-11
 Finite differences progress:
  Degree of freedom:   6/ 78
  Displacement:        2/  2
  Total:              12/156
 bond charge predicted
       N       E                     dE             d eps       ncg     rms          rms(c)
DAV:   1    -0.103439121223E+03    0.24381E-02   -0.16813E-01    96   0.129E+00    0.192E-01
DAV:   2    -0.103440425833E+03   -0.13046E-02   -0.13471E-02   132   0.401E-01    0.116E-01
DAV:   3    -0.103440371294E+03    0.54539E-04   -0.36637E-04   144   0.779E-02    0.667E-02
DAV:   4    -0.103440390905E+03   -0.19611E-04   -0.19290E-04   132   0.560E-02    0.127E-02
DAV:   5    -0.103440389881E+03    0.10242E-05   -0.55087E-05   144   0.273E-02    0.105E-02
DAV:   6    -0.103440388838E+03    0.10431E-05   -0.51829E-06   132   0.750E-03    0.774E-03
DAV:   7    -0.103440392259E+03   -0.34209E-05   -0.13695E-06   120   0.469E-03    0.285E-03
DAV:   8    -0.103440396928E+03   -0.46690E-05   -0.75237E-07   108   0.389E-03    0.882E-04
DAV:   9    -0.103440403328E+03   -0.64004E-05   -0.63618E-07   108   0.266E-03    0.103E-03
DAV:  10    -0.103440411160E+03   -0.78319E-05   -0.39405E-07   108   0.177E-03    0.408E-04
DAV:  11    -0.103440413750E+03   -0.25902E-05   -0.12232E-07   108   0.961E-04    0.377E-04
DAV:  12    -0.103440417186E+03   -0.34359E-05   -0.83697E-08   108   0.731E-04    0.204E-04
DAV:  13    -0.103440419537E+03   -0.23511E-05   -0.74990E-08   108   0.599E-04    0.160E-04
DAV:  14    -0.103440420736E+03   -0.11986E-05   -0.17193E-08   108   0.332E-04    0.117E-04
DAV:  15    -0.103440421603E+03   -0.86732E-06   -0.82545E-09   108   0.259E-04
  14 F= -.10344042E+03 E0= -.10344042E+03  d E =-.765931E-10
 Finite differences progress:
  Degree of freedom:   7/ 78
  Displacement:        1/  2
  Total:              13/156
 bond charge predicted
       N       E                     dE             d eps       ncg     rms          rms(c)
DAV:   1    -0.103438346580E+03    0.20742E-02   -0.34554E-01    96   0.177E+00    0.261E-01
DAV:   2    -0.103440562420E+03   -0.22158E-02   -0.23019E-02   132   0.534E-01    0.172E-01
DAV:   3    -0.103440449314E+03    0.11311E-03   -0.59111E-04   144   0.104E-01    0.888E-02
DAV:   4    -0.103440457840E+03   -0.85257E-05   -0.36976E-04   120   0.730E-02    0.184E-02
DAV:   5    -0.103440448436E+03    0.94042E-05   -0.71034E-05   132   0.314E-02    0.127E-02
DAV:   6    -0.103440454681E+03   -0.62455E-05   -0.15789E-05   132   0.113E-02    0.715E-03
DAV:   7    -0.103440474486E+03   -0.19805E-04   -0.16773E-06   132   0.448E-03    0.295E-03
DAV:   8    -0.103440499915E+03   -0.25429E-04   -0.24196E-06   120   0.431E-03    0.108E-03
DAV:   9    -0.103440521388E+03   -0.21472E-04   -0.20266E-06   108   0.344E-03    0.138E-03
DAV:  10    -0.103440543193E+03   -0.21806E-04   -0.21307E-06   108   0.320E-03    0.404E-04
DAV:  11    -0.103440547807E+03   -0.46134E-05   -0.16281E-07   108   0.119E-03    0.304E-04
DAV:  12    -0.103440553426E+03   -0.56193E-05   -0.20736E-07    96   0.991E-04    0.156E-04
DAV:  13    -0.103440555953E+03   -0.25266E-05   -0.91908E-08   108   0.617E-04    0.164E-04
DAV:  14    -0.103440557744E+03   -0.17913E-05   -0.33821E-08   108   0.421E-04    0.671E-05
DAV:  15    -0.103440558255E+03   -0.51148E-06   -0.13635E-09   108   0.200E-04
  15 F= -.10344056E+03 E0= -.10344056E+03  d E =-.904271E-10
 Finite differences progress:
  Degree of freedom:   7/ 78
  Displacement:        2/  2
  Total:              14/156
 bond charge predicted
       N       E                     dE             d eps       ncg     rms          rms(c)
DAV:   1    -0.103439971958E+03    0.58579E-03   -0.17542E-01    96   0.127E+00    0.198E-01
DAV:   2    -0.103441046089E+03   -0.10741E-02   -0.11237E-02   132   0.373E-01    0.125E-01
DAV:   3    -0.103440981639E+03    0.64451E-04   -0.31231E-04   144   0.760E-02    0.598E-02
DAV:   4    -0.103440989501E+03   -0.78624E-05   -0.19960E-04   120   0.510E-02    0.129E-02
DAV:   5    -0.103440981876E+03    0.76247E-05   -0.28567E-05   132   0.199E-02    0.779E-03
DAV:   6    -0.103440985896E+03   -0.40193E-05   -0.73294E-06   132   0.733E-03    0.359E-03
DAV:   7    -0.103440996612E+03   -0.10716E-04   -0.52864E-07   108   0.235E-03    0.165E-03
DAV:   8    -0.103441013079E+03   -0.16467E-04   -0.18562E-06   108   0.337E-03    0.107E-03
DAV:   9    -0.103441026433E+03   -0.13353E-04   -0.91662E-07   120   0.227E-03    0.742E-04
DAV:  10    -0.103441036506E+03   -0.10074E-04   -0.63088E-07    84   0.175E-03    0.287E-04
DAV:  11    -0.103441039848E+03   -0.33416E-05   -0.12702E-07   108   0.817E-04    0.209E-04
DAV:  12    -0.103441043802E+03   -0.39540E-05   -0.14348E-07    84   0.795E-04    0.960E-05
DAV:  13    -0.103441045046E+03   -0.12437E-05   -0.33726E-08   108   0.423E-04    0.841E-05
DAV:  14    -0.103441046212E+03   -0.11667E-05   -0.14821E-08    96   0.318E-04    0.434E-05
DAV:  15    -0.103441046574E+03   -0.36158E-06    0.10607E-09   108   0.178E-04
  16 F= -.10344105E+03 E0= -.10344105E+03  d E =-.942626E-10
 Finite differences progress:
  Degree of freedom:   8/ 78
  Displacement:        1/  2
  Total:              15/156
 bond charge predicted
       N       E                     dE             d eps       ncg     rms          rms(c)
DAV:   1    -0.103439066513E+03    0.19797E-02   -0.34067E-01    96   0.172E+00    0.260E-01
DAV:   2    -0.103441034290E+03   -0.19678E-02   -0.20568E-02   132   0.477E-01    0.155E-01
DAV:   3    -0.103440942953E+03    0.91337E-04   -0.57099E-04   132   0.951E-02    0.803E-02
DAV:   4    -0.103440948704E+03   -0.57505E-05   -0.28210E-04   132   0.635E-02    0.164E-02
DAV:   5    -0.103440938022E+03    0.10682E-04   -0.56651E-05   144   0.281E-02    0.115E-02
DAV:   6    -0.103440937323E+03    0.69918E-06   -0.11181E-05   132   0.103E-02    0.687E-03
DAV:   7    -0.103440946571E+03   -0.92486E-05   -0.17835E-06   132   0.520E-03    0.260E-03
DAV:   8    -0.103440959853E+03   -0.13282E-04   -0.12945E-06   132   0.413E-03    0.121E-03
DAV:   9    -0.103440975349E+03   -0.15497E-04   -0.94447E-07   120   0.292E-03    0.119E-03
DAV:  10    -0.103440991814E+03   -0.16465E-04   -0.10365E-06   120   0.237E-03    0.527E-04
DAV:  11    -0.103440999005E+03   -0.71906E-05   -0.21560E-07   108   0.125E-03    0.302E-04
DAV:  12    -0.103441005347E+03   -0.63418E-05   -0.16559E-07   108   0.853E-04    0.202E-04
DAV:  13    -0.103441008614E+03   -0.32676E-05   -0.58469E-08   108   0.502E-04    0.173E-04
DAV:  14    -0.103441011028E+03   -0.24142E-05   -0.30768E-08    96   0.391E-04    0.616E-05
DAV:  15    -0.103441011923E+03   -0.89482E-06   -0.50811E-09   120   0.225E-04
  17 F= -.10344101E+03 E0= -.10344101E+03  d E =-.717976E-10
 Finite differences progress:
  Degree of freedom:   8/ 78
  Displacement:        2/  2
  Total:              16/156
 bond charge predicted
       N       E                     dE             d eps       ncg     rms          rms(c)
DAV:   1    -0.103440156025E+03    0.85500E-03   -0.17225E-01    96   0.124E+00    0.187E-01
DAV:   2    -0.103441112599E+03   -0.95657E-03   -0.10092E-02   120   0.340E-01    0.115E-01
DAV:   3    -0.103441066553E+03    0.46046E-04   -0.28335E-04   132   0.646E-02    0.594E-02
DAV:   4    -0.103441054732E+03    0.11821E-04   -0.11689E-04   120   0.390E-02    0.114E-02
DAV:   5    -0.103441050325E+03    0.44069E-05   -0.15770E-05   144   0.150E-02    0.768E-03
DAV:   6    -0.103441055776E+03   -0.54509E-05   -0.55497E-06   132   0.787E-03    0.424E-03
DAV:   7    -0.103441072946E+03   -0.17169E-04   -0.23973E-06   120   0.538E-03    0.150E-03
DAV:   8    -0.103441087202E+03   -0.14257E-04   -0.87894E-07   108   0.293E-03    0.107E-03
DAV:   9    -0.103441104951E+03   -0.17749E-04   -0.12981E-06   120   0.262E-03    0.664E-04
DAV:  10    -0.103441116946E+03   -0.11995E-04   -0.99365E-07   120   0.215E-03    0.484E-04
DAV:  11    -0.103441124578E+03   -0.76328E-05   -0.46894E-07    96   0.152E-03    0.167E-04
DAV:  12    -0.103441127538E+03   -0.29594E-05   -0.18070E-07   108   0.859E-04    0.192E-04
DAV:  13    -0.103441128985E+03   -0.14474E-05   -0.36123E-08    96   0.473E-04    0.986E-05
DAV:  14    -0.103441129877E+03   -0.89155E-06   -0.18748E-08   108   0.337E-04
  18 F= -.10344113E+03 E0= -.10344113E+03  d E =-.740494E-10
 Finite differences progress:
  Degree of freedom:   9/ 78
  Displacement:        1/  2
  Total:              17/156
 bond charge predicted
       N       E                     dE             d eps       ncg     rms          rms(c)
DAV:   1    -0.103439356951E+03    0.17720E-02   -0.33333E-01    96   0.169E+00    0.267E-01
DAV:   2    -0.103441287760E+03   -0.19308E-02   -0.20097E-02   132   0.458E-01    0.146E-01
DAV:   3    -0.103441204889E+03    0.82872E-04   -0.56599E-04   132   0.884E-02    0.790E-02
DAV:   4    -0.103441199230E+03    0.56589E-05   -0.21815E-04   132   0.552E-02    0.154E-02
DAV:   5    -0.103441189113E+03    0.10117E-04   -0.44377E-05   144   0.247E-02    0.113E-02
DAV:   6    -0.103441189246E+03   -0.13289E-06   -0.68359E-06   120   0.882E-03
  19 F= -.10344119E+03 E0= -.10344119E+03  d E =-.891329E-10
 Finite differences progress:
  Degree of freedom:   9/ 78
  Displacement:        2/  2
  Total:              18/156
 bond charge predicted
       N       E                     dE             d eps       ncg     rms          rms(c)
DAV:   1    -0.103438899436E+03    0.22897E-02   -0.16821E-01    96   0.131E+00    0.187E-01
DAV:   2    -0.103440277148E+03   -0.13777E-02   -0.13727E-02   132   0.412E-01    0.119E-01
DAV:   3    -0.103440240175E+03    0.36972E-04   -0.31664E-04   144   0.724E-02    0.703E-02
DAV:   4    -0.103440267751E+03   -0.27576E-04   -0.18560E-04   132   0.539E-02    0.118E-02
DAV:   5    -0.103440267391E+03    0.36009E-06   -0.50757E-05   132   0.261E-02    0.955E-03
DAV:   6    -0.103440267638E+03   -0.24701E-06   -0.53707E-06   120   0.758E-03
  20 F= -.10344027E+03 E0= -.10344027E+03  d E =-.696558E-10
 Finite differences progress:
  Degree of freedom:  10/ 78
  Displacement:        1/  2
  Total:              19/156
 bond charge predicted
       N       E                     dE             d eps       ncg     rms          rms(c)
DAV:   1    -0.103438122407E+03    0.21450E-02   -0.34613E-01    96   0.178E+00    0.262E-01
DAV:   2    -0.103440453945E+03   -0.23315E-02   -0.23796E-02   132   0.547E-01    0.176E-01
DAV:   3    -0.103440351212E+03    0.10273E-03   -0.59458E-04   132   0.106E-01    0.899E-02
DAV:   4    -0.103440372355E+03   -0.21143E-04   -0.40614E-04   120   0.764E-02    0.186E-02
DAV:   5    -0.103440357952E+03    0.14403E-04   -0.72804E-05   132   0.319E-02    0.127E-02
DAV:   6    -0.103440358329E+03   -0.37726E-06   -0.15473E-05   132   0.110E-02    0.688E-03
DAV:   7    -0.103440370517E+03   -0.12188E-04   -0.12074E-06   120   0.393E-03    0.293E-03
DAV:   8    -0.103440387445E+03   -0.16927E-04   -0.20578E-06   120   0.428E-03    0.105E-03
DAV:   9    -0.103440402852E+03   -0.15407E-04   -0.15295E-06   120   0.311E-03    0.129E-03
DAV:  10    -0.103440418538E+03   -0.15687E-04   -0.13989E-06   108   0.268E-03    0.389E-04
DAV:  11    -0.103440422565E+03   -0.40269E-05   -0.13592E-07   108   0.107E-03    0.282E-04
DAV:  12    -0.103440427556E+03   -0.49910E-05   -0.20030E-07    96   0.950E-04    0.136E-04
DAV:  13    -0.103440429705E+03   -0.21490E-05   -0.76803E-08   108   0.570E-04    0.155E-04
DAV:  14    -0.103440431431E+03   -0.17258E-05   -0.36790E-08   108   0.434E-04    0.672E-05
DAV:  15    -0.103440431883E+03   -0.45200E-06   -0.15046E-09   108   0.208E-04
  21 F= -.10344043E+03 E0= -.10344043E+03  d E =-.900071E-10
 Finite differences progress:
  Degree of freedom:  10/ 78
  Displacement:        2/  2
  Total:              20/156
 bond charge predicted
       N       E                     dE             d eps       ncg     rms          rms(c)
DAV:   1    -0.103439831427E+03    0.60000E-03   -0.16966E-01    96   0.126E+00    0.180E-01
DAV:   2    -0.103440775512E+03   -0.94409E-03   -0.98931E-03   120   0.338E-01    0.107E-01
DAV:   3    -0.103440736171E+03    0.39341E-04   -0.27166E-04   144   0.634E-02    0.557E-02
DAV:   4    -0.103440732983E+03    0.31874E-05   -0.11016E-04   120   0.390E-02    0.109E-02
DAV:   5    -0.103440726240E+03    0.67432E-05   -0.18807E-05   132   0.165E-02    0.717E-03
DAV:   6    -0.103440725992E+03    0.24764E-06   -0.44790E-06   132   0.707E-03
  22 F= -.10344073E+03 E0= -.10344073E+03  d E =-.775648E-10
 Finite differences progress:
  Degree of freedom:  11/ 78
  Displacement:        1/  2
  Total:              21/156
 bond charge predicted
       N       E                     dE             d eps       ncg     rms          rms(c)
DAV:   1    -0.103438803690E+03    0.19226E-02   -0.34294E-01    96   0.172E+00    0.264E-01
DAV:   2    -0.103440801014E+03   -0.19973E-02   -0.20485E-02   132   0.489E-01    0.159E-01
DAV:   3    -0.103440744044E+03    0.56970E-04   -0.55053E-04   132   0.910E-02    0.861E-02
DAV:   4    -0.103440737745E+03    0.62982E-05   -0.23678E-04   132   0.573E-02    0.164E-02
DAV:   5    -0.103440728735E+03    0.90103E-05   -0.41586E-05   144   0.236E-02    0.111E-02
DAV:   6    -0.103440733627E+03   -0.48916E-05   -0.10126E-05   132   0.105E-02    0.639E-03
DAV:   7    -0.103440754841E+03   -0.21214E-04   -0.35249E-06   132   0.679E-03    0.215E-03
DAV:   8    -0.103440773514E+03   -0.18673E-04   -0.13571E-06   108   0.382E-03    0.126E-03
DAV:   9    -0.103440795676E+03   -0.22162E-04   -0.18223E-06   108   0.334E-03    0.920E-04
DAV:  10    -0.103440811652E+03   -0.15977E-04   -0.13785E-06   120   0.263E-03    0.598E-04
DAV:  11    -0.103440821115E+03   -0.94631E-05   -0.58073E-07   108   0.174E-03    0.220E-04
DAV:  12    -0.103440825990E+03   -0.48747E-05   -0.32108E-07   108   0.116E-03    0.224E-04
DAV:  13    -0.103440827587E+03   -0.15965E-05   -0.46676E-08   108   0.546E-04    0.142E-04
DAV:  14    -0.103440828631E+03   -0.10441E-05   -0.16041E-08   108   0.375E-04    0.566E-05
DAV:  15    -0.103440829051E+03   -0.42005E-06   -0.34146E-09   108   0.221E-04
  23 F= -.10344083E+03 E0= -.10344083E+03  d E =-.862973E-10
 Finite differences progress:
  Degree of freedom:  11/ 78
  Displacement:        2/  2
  Total:              22/156
 bond charge predicted
       N       E                     dE             d eps       ncg     rms          rms(c)
DAV:   1    -0.103440643125E+03    0.18551E-03   -0.16822E-01    96   0.119E+00    0.187E-01
DAV:   2    -0.103441473459E+03   -0.83033E-03   -0.88508E-03   132   0.317E-01    0.971E-02
DAV:   3    -0.103441445163E+03    0.28296E-04   -0.29456E-04   132   0.655E-02    0.510E-02
DAV:   4    -0.103441452912E+03   -0.77486E-05   -0.10613E-04   132   0.406E-02    0.111E-02
DAV:   5    -0.103441449221E+03    0.36903E-05   -0.24274E-05   132   0.186E-02    0.815E-03
DAV:   6    -0.103441448769E+03    0.45231E-06   -0.39192E-06   132   0.637E-03
  24 F= -.10344145E+03 E0= -.10344145E+03  d E =-.693097E-10
 Finite differences progress:
  Degree of freedom:  12/ 78
  Displacement:        1/  2
  Total:              23/156
 bond charge predicted
       N       E                     dE             d eps       ncg     rms          rms(c)
DAV:   1    -0.103439812705E+03    0.16365E-02   -0.33073E-01    96   0.165E+00    0.274E-01
DAV:   2    -0.103441614261E+03   -0.18016E-02   -0.18852E-02   132   0.448E-01    0.134E-01
DAV:   3    -0.103441556309E+03    0.57952E-04   -0.58678E-04   132   0.901E-02    0.727E-02
DAV:   4    -0.103441574782E+03   -0.18473E-04   -0.20083E-04   132   0.545E-02    0.156E-02
DAV:   5    -0.103441571113E+03    0.36692E-05   -0.44827E-05   132   0.250E-02    0.117E-02
DAV:   6    -0.103441571908E+03   -0.79433E-06   -0.61384E-06   132   0.838E-03
  25 F= -.10344157E+03 E0= -.10344157E+03  d E =-.442109E-11
 Finite differences progress:
  Degree of freedom:  12/ 78
  Displacement:        2/  2
  Total:              24/156
 bond charge predicted
       N       E                     dE             d eps       ncg     rms          rms(c)
DAV:   1    -0.103439724399E+03    0.18467E-02   -0.16663E-01    96   0.130E+00    0.177E-01
DAV:   2    -0.103440986103E+03   -0.12617E-02   -0.12989E-02   132   0.393E-01    0.108E-01
DAV:   3    -0.103440938323E+03    0.47780E-04   -0.33262E-04   132   0.733E-02    0.617E-02
DAV:   4    -0.103440950288E+03   -0.11965E-04   -0.15540E-04   132   0.489E-02    0.115E-02
DAV:   5    -0.103440949591E+03    0.69760E-06   -0.38579E-05   132   0.227E-02    0.897E-03
DAV:   6    -0.103440951063E+03   -0.14721E-05   -0.42628E-06   132   0.683E-03    0.623E-03
DAV:   7    -0.103440958072E+03   -0.70094E-05   -0.84108E-07    96   0.403E-03    0.210E-03
DAV:   8    -0.103440964483E+03   -0.64112E-05   -0.11558E-06   120   0.375E-03    0.984E-04
DAV:   9    -0.103440971786E+03   -0.73024E-05   -0.46514E-07   108   0.234E-03    0.618E-04
DAV:  10    -0.103440978050E+03   -0.62646E-05   -0.49112E-07   120   0.163E-03    0.447E-04
DAV:  11    -0.103440980456E+03   -0.24057E-05   -0.69965E-08   108   0.829E-04    0.386E-04
DAV:  12    -0.103440983603E+03   -0.31474E-05   -0.12597E-07   108   0.786E-04    0.159E-04
DAV:  13    -0.103440984922E+03   -0.13185E-05   -0.32591E-08   108   0.435E-04    0.107E-04
DAV:  14    -0.103440986365E+03   -0.14431E-05   -0.41200E-08   108   0.434E-04    0.761E-05
DAV:  15    -0.103440986664E+03   -0.29914E-06   -0.34852E-10   108   0.185E-04
  26 F= -.10344099E+03 E0= -.10344099E+03  d E =-.901687E-10
 Finite differences progress:
  Degree of freedom:  13/ 78
  Displacement:        1/  2
  Total:              25/156
 bond charge predicted
       N       E                     dE             d eps       ncg     rms          rms(c)
DAV:   1    -0.103438335627E+03    0.26507E-02   -0.33989E-01    96   0.165E+00    0.245E-01
DAV:   2    -0.103440723786E+03   -0.23882E-02   -0.25373E-02   132   0.509E-01    0.161E-01
DAV:   3    -0.103440574115E+03    0.14967E-03   -0.64780E-04   132   0.101E-01    0.852E-02
DAV:   4    -0.103440568589E+03    0.55267E-05   -0.35914E-04   132   0.680E-02    0.158E-02
DAV:   5    -0.103440559682E+03    0.89073E-05   -0.71099E-05   144   0.293E-02    0.115E-02
DAV:   6    -0.103440560398E+03   -0.71676E-06   -0.99021E-06   132   0.886E-03
  27 F= -.10344056E+03 E0= -.10344056E+03  d E =-.434335E-11
 Finite differences progress:
  Degree of freedom:  13/ 78
  Displacement:        2/  2
  Total:              26/156
 bond charge predicted
       N       E                     dE             d eps       ncg     rms          rms(c)
DAV:   1    -0.103440908378E+03   -0.34870E-03   -0.17067E-01    96   0.119E+00    0.159E-01
DAV:   2    -0.103441986451E+03   -0.10781E-02   -0.11140E-02   120   0.360E-01    0.105E-01
DAV:   3    -0.103441960397E+03    0.26054E-04   -0.31781E-04   144   0.730E-02    0.583E-02
DAV:   4    -0.103441990302E+03   -0.29906E-04   -0.14379E-04   132   0.460E-02    0.117E-02
DAV:   5    -0.103441992652E+03   -0.23492E-05   -0.28653E-05   132   0.196E-02    0.832E-03
DAV:   6    -0.103441992943E+03   -0.29102E-06   -0.39124E-06   144   0.644E-03
  28 F= -.10344199E+03 E0= -.10344199E+03  d E =-.703743E-11
 Finite differences progress:
  Degree of freedom:  14/ 78
  Displacement:        1/  2
  Total:              27/156
 bond charge predicted
       N       E                     dE             d eps       ncg     rms          rms(c)
DAV:   1    -0.103440451550E+03    0.15411E-02   -0.33863E-01    96   0.166E+00    0.192E-01
DAV:   2    -0.103442044885E+03   -0.15933E-02   -0.16591E-02   132   0.421E-01    0.106E-01
DAV:   3    -0.103442031526E+03    0.13359E-04   -0.50414E-04   144   0.860E-02    0.510E-02
DAV:   4    -0.103442050926E+03   -0.19400E-04   -0.11823E-04   132   0.420E-02    0.141E-02
DAV:   5    -0.103442046597E+03    0.43290E-05   -0.21605E-05   132   0.180E-02    0.733E-03
DAV:   6    -0.103442046466E+03    0.13110E-06   -0.59828E-06   132   0.813E-03
  29 F= -.10344205E+03 E0= -.10344205E+03  d E =-.541024E-11
 Finite differences progress:
  Degree of freedom:  14/ 78
  Displacement:        2/  2
  Total:              28/156
 bond charge predicted
       N       E                     dE             d eps       ncg     rms          rms(c)
DAV:   1    -0.103441041823E+03    0.10048E-02   -0.17043E-01    96   0.118E+00    0.146E-01
DAV:   2    -0.103441830545E+03   -0.78872E-03   -0.82833E-03   132   0.295E-01    0.774E-02
DAV:   3    -0.103441821405E+03    0.91402E-05   -0.25753E-04   144   0.609E-02    0.386E-02
DAV:   4    -0.103441835327E+03   -0.13922E-04   -0.68072E-05   132   0.311E-02    0.105E-02
DAV:   5    -0.103441834952E+03    0.37525E-06   -0.11950E-05   132   0.134E-02    0.568E-03
DAV:   6    -0.103441835680E+03   -0.72861E-06   -0.30354E-06   144   0.581E-03
  30 F= -.10344184E+03 E0= -.10344184E+03  d E =-.505247E-10
 Finite differences progress:
  Degree of freedom:  15/ 78
  Displacement:        1/  2
  Total:              29/156
 bond charge predicted
       N       E                     dE             d eps       ncg     rms          rms(c)
DAV:   1    -0.103439804141E+03    0.20308E-02   -0.34762E-01    96   0.167E+00    0.259E-01
DAV:   2    -0.103441393296E+03   -0.15892E-02   -0.17355E-02   120   0.449E-01    0.123E-01
DAV:   3    -0.103441346150E+03    0.47146E-04   -0.58164E-04   144   0.924E-02    0.679E-02
DAV:   4    -0.103441358944E+03   -0.12794E-04   -0.18490E-04   132   0.502E-02    0.174E-02
DAV:   5    -0.103441353335E+03    0.56087E-05   -0.34253E-05   132   0.216E-02    0.995E-03
DAV:   6    -0.103441352688E+03    0.64701E-06   -0.56513E-06   132   0.793E-03
  31 F= -.10344135E+03 E0= -.10344135E+03  d E =-.628238E-11
 Finite differences progress:
  Degree of freedom:  15/ 78
  Displacement:        2/  2
  Total:              30/156
 bond charge predicted
       N       E                     dE             d eps       ncg     rms          rms(c)
DAV:   1    -0.103440475022E+03    0.87831E-03   -0.16887E-01    96   0.125E+00    0.166E-01
DAV:   2    -0.103441597709E+03   -0.11227E-02   -0.11872E-02   120   0.366E-01    0.919E-02
DAV:   3    -0.103441562633E+03    0.35077E-04   -0.37694E-04   144   0.766E-02    0.509E-02
DAV:   4    -0.103441572694E+03   -0.10062E-04   -0.12131E-04   132   0.428E-02    0.119E-02
DAV:   5    -0.103441572953E+03   -0.25904E-06   -0.27715E-05   132   0.195E-02    0.849E-03
DAV:   6    -0.103441572931E+03    0.22505E-07   -0.36686E-06   132   0.675E-03
  32 F= -.10344157E+03 E0= -.10344157E+03  d E =-.510953E-11
 Finite differences progress:
  Degree of freedom:  16/ 78
  Displacement:        1/  2
  Total:              31/156
 bond charge predicted
       N       E                     dE             d eps       ncg     rms          rms(c)
DAV:   1    -0.103439730362E+03    0.18426E-02   -0.34079E-01    96   0.167E+00    0.211E-01
DAV:   2    -0.103441586154E+03   -0.18558E-02   -0.19359E-02   120   0.469E-01    0.130E-01
DAV:   3    -0.103441544616E+03    0.41539E-04   -0.60304E-04   144   0.966E-02    0.724E-02
DAV:   4    -0.103441555392E+03   -0.10776E-04   -0.19004E-04   132   0.529E-02    0.155E-02
DAV:   5    -0.103441549372E+03    0.60197E-05   -0.40220E-05   132   0.232E-02    0.977E-03
DAV:   6    -0.103441548241E+03    0.11310E-05   -0.58532E-06   144   0.827E-03    0.637E-03
DAV:   7    -0.103441553685E+03   -0.54444E-05   -0.15181E-06   132   0.435E-03    0.208E-03
DAV:   8    -0.103441559590E+03   -0.59044E-05   -0.39521E-07   108   0.243E-03    0.813E-04
DAV:   9    -0.103441568115E+03   -0.85247E-05   -0.63014E-07   120   0.221E-03    0.717E-04
DAV:  10    -0.103441577137E+03   -0.90223E-05   -0.79407E-07   120   0.211E-03    0.348E-04
DAV:  11    -0.103441579566E+03   -0.24294E-05   -0.82949E-08   120   0.965E-04    0.285E-04
DAV:  12    -0.103441581394E+03   -0.18275E-05   -0.41949E-08   108   0.520E-04    0.187E-04
DAV:  13    -0.103441583812E+03   -0.24180E-05   -0.78388E-08   108   0.573E-04    0.944E-05
DAV:  14    -0.103441584830E+03   -0.10183E-05   -0.25271E-08   108   0.345E-04    0.993E-05
DAV:  15    -0.103441585403E+03   -0.57325E-06   -0.23089E-09   108   0.204E-04
  33 F= -.10344159E+03 E0= -.10344159E+03  d E =-.629386E-11
 Finite differences progress:
  Degree of freedom:  16/ 78
  Displacement:        2/  2
  Total:              32/156
 bond charge predicted
       N       E                     dE             d eps       ncg     rms          rms(c)
DAV:   1    -0.103440256170E+03    0.13287E-02   -0.16980E-01    96   0.117E+00    0.138E-01
DAV:   2    -0.103441032367E+03   -0.77620E-03   -0.81852E-03   132   0.296E-01    0.756E-02
DAV:   3    -0.103441020061E+03    0.12306E-04   -0.24179E-04   144   0.598E-02    0.374E-02
DAV:   4    -0.103441026147E+03   -0.60857E-05   -0.59725E-05   132   0.299E-02    0.104E-02
DAV:   5    -0.103441023302E+03    0.28448E-05   -0.11687E-05   144   0.135E-02    0.524E-03
DAV:   6    -0.103441023808E+03   -0.50572E-06   -0.32989E-06   132   0.608E-03
  34 F= -.10344102E+03 E0= -.10344102E+03  d E =-.504582E-11
 Finite differences progress:
  Degree of freedom:  17/ 78
  Displacement:        1/  2
  Total:              33/156
 bond charge predicted
       N       E                     dE             d eps       ncg     rms          rms(c)
DAV:   1    -0.103438736139E+03    0.22872E-02   -0.34023E-01    96   0.169E+00    0.236E-01
DAV:   2    -0.103440974492E+03   -0.22384E-02   -0.23659E-02   120   0.509E-01    0.154E-01
DAV:   3    -0.103440860013E+03    0.11448E-03   -0.64718E-04   132   0.104E-01    0.809E-02
DAV:   4    -0.103440866614E+03   -0.66008E-05   -0.33025E-04   132   0.671E-02    0.157E-02
DAV:   5    -0.103440858883E+03    0.77311E-05   -0.61592E-05   144   0.282E-02    0.116E-02
DAV:   6    -0.103440857461E+03    0.14219E-05   -0.92530E-06   132   0.920E-03    0.782E-03
DAV:   7    -0.103440864919E+03   -0.74577E-05   -0.13206E-06   120   0.412E-03    0.286E-03
DAV:   8    -0.103440875257E+03   -0.10338E-04   -0.93674E-07   120   0.348E-03    0.103E-03
DAV:   9    -0.103440886618E+03   -0.11361E-04   -0.78879E-07   120   0.234E-03    0.112E-03
DAV:  10    -0.103440903383E+03   -0.16766E-04   -0.10469E-06   120   0.215E-03    0.539E-04
DAV:  11    -0.103440906632E+03   -0.32484E-05   -0.71586E-08   120   0.837E-04    0.411E-04
DAV:  12    -0.103440913013E+03   -0.63814E-05   -0.17410E-07   108   0.899E-04    0.202E-04
DAV:  13    -0.103440915948E+03   -0.29349E-05   -0.76001E-08   108   0.570E-04    0.174E-04
DAV:  14    -0.103440917902E+03   -0.19537E-05   -0.16361E-08   108   0.349E-04    0.979E-05
DAV:  15    -0.103440918885E+03   -0.98348E-06   -0.87634E-09   108   0.251E-04
  35 F= -.10344092E+03 E0= -.10344092E+03  d E =-.439948E-11
 Finite differences progress:
  Degree of freedom:  17/ 78
  Displacement:        2/  2
  Total:              34/156
 bond charge predicted
       N       E                     dE             d eps       ncg     rms          rms(c)
DAV:   1    -0.103441270607E+03   -0.35271E-03   -0.17032E-01    96   0.118E+00    0.157E-01
DAV:   2    -0.103442175699E+03   -0.90509E-03   -0.95805E-03   132   0.324E-01    0.919E-02
DAV:   3    -0.103442138729E+03    0.36969E-04   -0.27184E-04   132   0.637E-02    0.499E-02
DAV:   4    -0.103442141338E+03   -0.26081E-05   -0.98664E-05   132   0.368E-02    0.118E-02
DAV:   5    -0.103442138245E+03    0.30924E-05   -0.18650E-05   132   0.159E-02    0.664E-03
DAV:   6    -0.103442139386E+03   -0.11403E-05   -0.32298E-06   132   0.593E-03    0.429E-03
DAV:   7    -0.103442144887E+03   -0.55019E-05   -0.52090E-07   108   0.258E-03    0.138E-03
DAV:   8    -0.103442150149E+03   -0.52612E-05   -0.40841E-07   108   0.214E-03    0.688E-04
DAV:   9    -0.103442157930E+03   -0.77816E-05   -0.53030E-07   120   0.204E-03    0.510E-04
DAV:  10    -0.103442163792E+03   -0.58617E-05   -0.38773E-07   108   0.157E-03    0.355E-04
DAV:  11    -0.103442165381E+03   -0.15890E-05   -0.65304E-08   120   0.772E-04    0.251E-04
DAV:  12    -0.103442167662E+03   -0.22808E-05   -0.74369E-08   108   0.632E-04    0.946E-05
DAV:  13    -0.103442168776E+03   -0.11143E-05   -0.32543E-08   108   0.394E-04    0.111E-04
DAV:  14    -0.103442169711E+03   -0.93451E-06   -0.14444E-08   108   0.286E-04
  36 F= -.10344217E+03 E0= -.10344217E+03  d E =-.553863E-10
 Finite differences progress:
  Degree of freedom:  18/ 78
  Displacement:        1/  2
  Total:              35/156
 bond charge predicted
       N       E                     dE             d eps       ncg     rms          rms(c)
DAV:   1    -0.103440260951E+03    0.19078E-02   -0.34576E-01    96   0.160E+00    0.252E-01
DAV:   2    -0.103441637856E+03   -0.13769E-02   -0.15255E-02   132   0.411E-01    0.109E-01
DAV:   3    -0.103441607062E+03    0.30794E-04   -0.50390E-04   144   0.817E-02    0.599E-02
DAV:   4    -0.103441619437E+03   -0.12376E-04   -0.11413E-04   132   0.401E-02    0.173E-02
DAV:   5    -0.103441616862E+03    0.25750E-05   -0.24117E-05   132   0.188E-02    0.816E-03
DAV:   6    -0.103441618096E+03   -0.12334E-05   -0.48752E-06   120   0.746E-03    0.517E-03
DAV:   7    -0.103441622364E+03   -0.42687E-05   -0.37290E-07   108   0.223E-03    0.213E-03
DAV:   8    -0.103441627669E+03   -0.53046E-05   -0.41729E-07   108   0.251E-03    0.949E-04
DAV:   9    -0.103441634507E+03   -0.68379E-05   -0.40981E-07   108   0.246E-03    0.550E-04
DAV:  10    -0.103441640395E+03   -0.58882E-05   -0.43407E-07   108   0.200E-03    0.662E-04
DAV:  11    -0.103441642324E+03   -0.19291E-05   -0.86367E-08   108   0.109E-03    0.406E-04
DAV:  12    -0.103441644399E+03   -0.20749E-05   -0.54437E-08   108   0.653E-04    0.128E-04
DAV:  13    -0.103441645643E+03   -0.12438E-05   -0.23508E-08   108   0.387E-04    0.114E-04
DAV:  14    -0.103441646924E+03   -0.12811E-05   -0.26252E-08   108   0.351E-04    0.124E-04
DAV:  15    -0.103441647298E+03   -0.37432E-06    0.35348E-10   108   0.177E-04
  37 F= -.10344165E+03 E0= -.10344165E+03  d E =-.665152E-11
 Finite differences progress:
  Degree of freedom:  18/ 78
  Displacement:        2/  2
  Total:              36/156
 bond charge predicted
       N       E                     dE             d eps       ncg     rms          rms(c)
DAV:   1    -0.103440697533E+03    0.94939E-03   -0.16706E-01    96   0.122E+00    0.163E-01
DAV:   2    -0.103441750245E+03   -0.10527E-02   -0.10955E-02   132   0.341E-01    0.846E-02
DAV:   3    -0.103441719441E+03    0.30804E-04   -0.28911E-04   144   0.646E-02    0.458E-02
DAV:   4    -0.103441724317E+03   -0.48755E-05   -0.91390E-05   132   0.345E-02    0.111E-02
DAV:   5    -0.103441722381E+03    0.19353E-05   -0.15731E-05   132   0.149E-02    0.694E-03
DAV:   6    -0.103441722702E+03   -0.32023E-06   -0.28623E-06   132   0.587E-03
  38 F= -.10344172E+03 E0= -.10344172E+03  d E =-.486299E-11
 Finite differences progress:
  Degree of freedom:  19/ 78
  Displacement:        1/  2
  Total:              37/156
 bond charge predicted
       N       E                     dE             d eps       ncg     rms          rms(c)
DAV:   1    -0.103439947921E+03    0.17745E-02   -0.34036E-01    96   0.167E+00    0.206E-01
DAV:   2    -0.103441714008E+03   -0.17661E-02   -0.18409E-02   132   0.457E-01    0.124E-01
DAV:   3    -0.103441676497E+03    0.37511E-04   -0.52361E-04   144   0.903E-02    0.666E-02
DAV:   4    -0.103441689274E+03   -0.12777E-04   -0.16748E-04   132   0.499E-02    0.158E-02
DAV:   5    -0.103441682883E+03    0.63917E-05   -0.33467E-05   144   0.219E-02    0.876E-03
DAV:   6    -0.103441682949E+03   -0.66225E-07   -0.61770E-06   144   0.843E-03
  39 F= -.10344168E+03 E0= -.10344168E+03  d E =-.597726E-11
 Finite differences progress:
  Degree of freedom:  19/ 78
  Displacement:        2/  2
  Total:              38/156
 bond charge predicted
       N       E                     dE             d eps       ncg     rms          rms(c)
DAV:   1    -0.103439860063E+03    0.18228E-02   -0.16988E-01    96   0.122E+00    0.171E-01
DAV:   2    -0.103441047712E+03   -0.11876E-02   -0.12490E-02   132   0.366E-01    0.113E-01
DAV:   3    -0.103440987718E+03    0.59995E-04   -0.31193E-04   132   0.722E-02    0.599E-02
DAV:   4    -0.103440999390E+03   -0.11673E-04   -0.18713E-04   132   0.496E-02    0.117E-02
DAV:   5    -0.103440995002E+03    0.43881E-05   -0.34875E-05   144   0.212E-02    0.848E-03
DAV:   6    -0.103440993790E+03    0.12123E-05   -0.50523E-06   132   0.643E-03    0.560E-03
DAV:   7    -0.103440995749E+03   -0.19585E-05   -0.41045E-07    96   0.250E-03    0.229E-03
DAV:   8    -0.103440999690E+03   -0.39417E-05   -0.57196E-07   108   0.291E-03    0.754E-04
DAV:   9    -0.103441004624E+03   -0.49339E-05   -0.54373E-07   120   0.198E-03    0.888E-04
DAV:  10    -0.103441011232E+03   -0.66083E-05   -0.29355E-07    96   0.141E-03    0.446E-04
DAV:  11    -0.103441013136E+03   -0.19036E-05   -0.85354E-08   108   0.737E-04    0.348E-04
DAV:  12    -0.103441016069E+03   -0.29327E-05   -0.69429E-08   108   0.622E-04    0.136E-04
DAV:  13    -0.103441017858E+03   -0.17897E-05   -0.49538E-08   108   0.466E-04    0.133E-04
DAV:  14    -0.103441018959E+03   -0.11004E-05   -0.78296E-09   108   0.268E-04    0.848E-05
DAV:  15    -0.103441019658E+03   -0.69947E-06   -0.45250E-09   108   0.220E-04
  40 F= -.10344102E+03 E0= -.10344102E+03  d E =-.512889E-11
 Finite differences progress:
  Degree of freedom:  20/ 78
  Displacement:        1/  2
  Total:              39/156
 bond charge predicted
       N       E                     dE             d eps       ncg     rms          rms(c)
DAV:   1    -0.103439123880E+03    0.18951E-02   -0.34013E-01    96   0.169E+00    0.226E-01
DAV:   2    -0.103441312223E+03   -0.21883E-02   -0.22966E-02   132   0.494E-01    0.151E-01
DAV:   3    -0.103441198160E+03    0.11406E-03   -0.61134E-04   144   0.965E-02    0.843E-02
DAV:   4    -0.103441192659E+03    0.55010E-05   -0.27418E-04   132   0.597E-02    0.173E-02
DAV:   5    -0.103441186311E+03    0.63476E-05   -0.49302E-05   144   0.248E-02    0.106E-02
DAV:   6    -0.103441189071E+03   -0.27597E-05   -0.67081E-06   132   0.820E-03    0.705E-03
DAV:   7    -0.103441205887E+03   -0.16816E-04   -0.21369E-06   132   0.485E-03    0.204E-03
DAV:   8    -0.103441219620E+03   -0.13733E-04   -0.10073E-06   120   0.315E-03    0.119E-03
DAV:   9    -0.103441236345E+03   -0.16724E-04   -0.10606E-06   120   0.254E-03    0.851E-04
DAV:  10    -0.103441251086E+03   -0.14741E-04   -0.12851E-06   120   0.231E-03    0.502E-04
DAV:  11    -0.103441256264E+03   -0.51787E-05   -0.18293E-07   120   0.115E-03    0.350E-04
DAV:  12    -0.103441260833E+03   -0.45689E-05   -0.19936E-07   108   0.901E-04    0.171E-04
DAV:  13    -0.103441263130E+03   -0.22968E-05   -0.62756E-08   108   0.529E-04    0.152E-04
DAV:  14    -0.103441264810E+03   -0.16795E-05   -0.36334E-08    96   0.412E-04    0.819E-05
DAV:  15    -0.103441265388E+03   -0.57824E-06   -0.25396E-09   120   0.212E-04
  41 F= -.10344127E+03 E0= -.10344127E+03  d E =-.950695E-10
 Finite differences progress:
  Degree of freedom:  20/ 78
  Displacement:        2/  2
  Total:              40/156
 bond charge predicted
[...]
DAV:   2    -0.106124510531E+03    0.47685E-03   -0.44671E-03   132   0.215E-01    0.140E-01
DAV:   3    -0.106124222701E+03    0.28783E-03   -0.71014E-04   132   0.762E-02    0.529E-02
DAV:   4    -0.106124204442E+03    0.18259E-04   -0.19944E-04   120   0.410E-02    0.186E-02
DAV:   5    -0.106124201819E+03    0.26229E-05   -0.10885E-05   132   0.130E-02    0.847E-03
DAV:   6    -0.106124203155E+03   -0.13361E-05   -0.45825E-06   132   0.775E-03    0.310E-03
DAV:   7    -0.106124206180E+03   -0.30243E-05   -0.13519E-06   132   0.393E-03    0.125E-03
DAV:   8    -0.106124210339E+03   -0.41595E-05   -0.25793E-07   108   0.185E-03    0.662E-04
DAV:   9    -0.106124214004E+03   -0.36647E-05   -0.20193E-07   108   0.131E-03    0.445E-04
DAV:  10    -0.106124219280E+03   -0.52758E-05   -0.26808E-07    96   0.126E-03    0.215E-04
DAV:  11    -0.106124221627E+03   -0.23477E-05   -0.88141E-08   108   0.767E-04    0.173E-04
DAV:  12    -0.106124223264E+03   -0.16369E-05   -0.18021E-08   108   0.404E-04    0.120E-04
DAV:  13    -0.106124224701E+03   -0.14370E-05   -0.16770E-08    96   0.349E-04    0.883E-05
DAV:  14    -0.106124225640E+03   -0.93848E-06   -0.99673E-09   108   0.254E-04
 149 F= -.10612423E+03 E0= -.10612423E+03  d E =-.896945E-10
 Finite differences progress:
  Degree of freedom:  74/ 78
  Displacement:        2/  2
  Total:             148/156
 bond charge predicted
       N       E                     dE             d eps       ncg     rms          rms(c)
DAV:   1    -0.106126582557E+03   -0.23579E-02   -0.27867E-01    96   0.176E+00    0.171E-01
DAV:   2    -0.106126373982E+03    0.20858E-03   -0.17873E-03   132   0.149E-01    0.891E-02
DAV:   3    -0.106126261255E+03    0.11273E-03   -0.28569E-04   144   0.521E-02    0.279E-02
DAV:   4    -0.106126262961E+03   -0.17054E-05   -0.69368E-05   144   0.254E-02    0.108E-02
DAV:   5    -0.106126263832E+03   -0.87144E-06   -0.37710E-06   132   0.769E-03
 150 F= -.10612626E+03 E0= -.10612626E+03  d E =-.487410E-11
 Finite differences progress:
  Degree of freedom:  75/ 78
  Displacement:        1/  2
  Total:             149/156
 bond charge predicted
       N       E                     dE             d eps       ncg     rms          rms(c)
DAV:   1    -0.106126897529E+03   -0.63457E-03   -0.54367E-01    96   0.257E+00    0.201E-01
DAV:   2    -0.106126605156E+03    0.29237E-03   -0.27003E-03   132   0.179E-01    0.112E-01
DAV:   3    -0.106126428761E+03    0.17640E-03   -0.47503E-04   132   0.652E-02    0.238E-02
DAV:   4    -0.106126435830E+03   -0.70685E-05   -0.73989E-05   132   0.272E-02    0.889E-03
DAV:   5    -0.106126437129E+03   -0.12998E-05   -0.33831E-06   132   0.646E-03    0.631E-03
DAV:   6    -0.106126440677E+03   -0.35472E-05   -0.16680E-06   120   0.406E-03    0.116E-03
DAV:   7    -0.106126442861E+03   -0.21839E-05   -0.32013E-07   120   0.199E-03    0.904E-04
DAV:   8    -0.106126446150E+03   -0.32896E-05   -0.16465E-07   108   0.167E-03    0.385E-04
DAV:   9    -0.106126449661E+03   -0.35106E-05   -0.22219E-07   108   0.171E-03    0.435E-04
DAV:  10    -0.106126451682E+03   -0.20212E-05   -0.10098E-07   108   0.976E-04    0.215E-04
DAV:  11    -0.106126452863E+03   -0.11806E-05   -0.32902E-08   108   0.477E-04    0.158E-04
DAV:  12    -0.106126453647E+03   -0.78396E-06   -0.14457E-08   108   0.336E-04
 151 F= -.10612645E+03 E0= -.10612645E+03  d E =-.727633E-10
 Finite differences progress:
  Degree of freedom:  75/ 78
  Displacement:        2/  2
  Total:             150/156
 bond charge predicted
       N       E                     dE             d eps       ncg     rms          rms(c)
DAV:   1    -0.106124366297E+03    0.20866E-02   -0.28102E-01    96   0.189E+00    0.180E-01
DAV:   2    -0.106124146710E+03    0.21959E-03   -0.22383E-03   144   0.161E-01    0.910E-02
DAV:   3    -0.106124009825E+03    0.13688E-03   -0.35203E-04   132   0.592E-02    0.308E-02
DAV:   4    -0.106124014127E+03   -0.43014E-05   -0.11125E-04   144   0.321E-02    0.109E-02
DAV:   5    -0.106124014997E+03   -0.87048E-06   -0.53544E-06   132   0.833E-03
 152 F= -.10612401E+03 E0= -.10612401E+03  d E =-.908561E-10
 Finite differences progress:
  Degree of freedom:  76/ 78
  Displacement:        1/  2
  Total:             151/156
 bond charge predicted
       N       E                     dE             d eps       ncg     rms          rms(c)
DAV:   1    -0.106124940680E+03   -0.92655E-03   -0.58459E-01    96   0.246E+00    0.304E-01
DAV:   2    -0.106124361990E+03    0.57869E-03   -0.48647E-03   132   0.236E-01    0.146E-01
DAV:   3    -0.106124043313E+03    0.31868E-03   -0.90647E-04   132   0.912E-02    0.515E-02
DAV:   4    -0.106124040520E+03    0.27921E-05   -0.24846E-04   132   0.476E-02    0.205E-02
DAV:   5    -0.106124038340E+03    0.21805E-05   -0.10758E-05   132   0.128E-02    0.894E-03
DAV:   6    -0.106124038850E+03   -0.50992E-06   -0.59605E-06   120   0.879E-03
 153 F= -.10612404E+03 E0= -.10612404E+03  d E =-.945371E-10
 Finite differences progress:
  Degree of freedom:  76/ 78
  Displacement:        2/  2
  Total:             152/156
 bond charge predicted
       N       E                     dE             d eps       ncg     rms          rms(c)
DAV:   1    -0.106126707075E+03   -0.26687E-02   -0.28512E-01    96   0.177E+00    0.197E-01
DAV:   2    -0.106126468884E+03    0.23819E-03   -0.21243E-03   132   0.155E-01    0.960E-02
DAV:   3    -0.106126343915E+03    0.12497E-03   -0.32224E-04   132   0.511E-02    0.346E-02
DAV:   4    -0.106126342896E+03    0.10194E-05   -0.85168E-05   120   0.274E-02    0.119E-02
DAV:   5    -0.106126342685E+03    0.21105E-06   -0.50692E-06   144   0.919E-03
 154 F= -.10612634E+03 E0= -.10612634E+03  d E =-.827316E-10
 Finite differences progress:
  Degree of freedom:  77/ 78
  Displacement:        1/  2
  Total:             153/156
 bond charge predicted
       N       E                     dE             d eps       ncg     rms          rms(c)
DAV:   1    -0.106126657776E+03   -0.31488E-03   -0.55100E-01    96   0.252E+00    0.205E-01
DAV:   2    -0.106126400188E+03    0.25759E-03   -0.28132E-03   120   0.173E-01    0.113E-01
DAV:   3    -0.106126215809E+03    0.18438E-03   -0.43980E-04   132   0.596E-02    0.298E-02
DAV:   4    -0.106126217535E+03   -0.17259E-05   -0.81661E-05   132   0.273E-02    0.880E-03
DAV:   5    -0.106126216579E+03    0.95661E-06   -0.43294E-06   132   0.746E-03
 155 F= -.10612622E+03 E0= -.10612622E+03  d E =-.457629E-11
 Finite differences progress:
  Degree of freedom:  77/ 78
  Displacement:        2/  2
  Total:             154/156
 bond charge predicted
       N       E                     dE             d eps       ncg     rms          rms(c)
DAV:   1    -0.106126028926E+03    0.18861E-03   -0.27398E-01    96   0.176E+00    0.146E-01
DAV:   2    -0.106125873620E+03    0.15531E-03   -0.14718E-03   132   0.128E-01    0.818E-02
DAV:   3    -0.106125787578E+03    0.86043E-04   -0.26125E-04   132   0.504E-02    0.170E-02
DAV:   4    -0.106125792899E+03   -0.53219E-05   -0.45742E-05   132   0.215E-02    0.773E-03
DAV:   5    -0.106125793359E+03   -0.45958E-06   -0.16648E-06   132   0.486E-03
 156 F= -.10612579E+03 E0= -.10612579E+03  d E =-.573752E-11
 Finite differences progress:
  Degree of freedom:  78/ 78
  Displacement:        1/  2
  Total:             155/156
 bond charge predicted
       N       E                     dE             d eps       ncg     rms          rms(c)
DAV:   1    -0.106126423726E+03   -0.63083E-03   -0.54876E-01    96   0.259E+00    0.230E-01
DAV:   2    -0.106126091375E+03    0.33235E-03   -0.31777E-03   132   0.188E-01    0.120E-01
DAV:   3    -0.106125882823E+03    0.20855E-03   -0.47144E-04   132   0.636E-02    0.368E-02
DAV:   4    -0.106125882996E+03   -0.17373E-06   -0.10186E-04   144   0.304E-02    0.112E-02
DAV:   5    -0.106125883909E+03   -0.91225E-06   -0.69681E-06   132   0.975E-03
 157 F= -.10612588E+03 E0= -.10612588E+03  d E =-.657025E-10
 Finite differences progress:
  Degree of freedom:  78/ 78
  Displacement:        2/  2
  Total:             156/156
 Finite differences POTIM=  2.000000000000000E-002
librdmacm: Fatal: no RDMA devices found
librdmacm: Fatal: no RDMA devices found
librdmacm: Fatal: no RDMA devices found
--------------------------------------------------------------------------
[[10958,1],3]: A high-performance Open MPI point-to-point messaging module
was unable to find any relevant network interfaces:

Module: OpenFabrics (openib)
  Host: compute-0-19

Another transport will be used instead, although this may result in
lower performance.
--------------------------------------------------------------------------
librdmacm: Fatal: no RDMA devices found
librdmacm: Fatal: no RDMA devices found
librdmacm: Fatal: no RDMA devices found
librdmacm: Fatal: no RDMA devices found
librdmacm: Fatal: no RDMA devices found
librdmacm: Fatal: no RDMA devices found
librdmacm: Fatal: no RDMA devices found
librdmacm: Fatal: no RDMA devices found
librdmacm: Fatal: no RDMA devices found
 running on   12 total cores
 distrk:  each k-point on   12 cores,    1 groups
 distr:  one band on    6 cores,    2 groups
 using from now: INCAR     
 vasp.5.4.4.18Apr17-6-g9f103f2a35 (build Nov 06 2017 19:16:10) complex          
  
 POSCAR found type information on POSCAR  Si Ge H 
 POSCAR found :  3 types and      26 ions
 scaLAPACK will be used

 ----------------------------------------------------------------------------- 
|                                                                             |
|  ADVICE TO THIS USER RUNNING 'VASP/VAMP'   (HEAR YOUR MASTER'S VOICE ...):  |
|                                                                             |
|      You have a (more or less) 'large supercell' and for larger cells       |
|      it might be more efficient to use real space projection opertators     |
|      So try LREAL= Auto  in the INCAR   file.                               |
|      Mind:          For very  accurate calculation you might also keep the  |
|      reciprocal projection scheme          (i.e. LREAL=.FALSE.)             |
|                                                                             |
 ----------------------------------------------------------------------------- 

 LDA part: xc-table for Pade appr. of Perdew
--------------------------------------------------------------------------
mpirun noticed that process rank 3 with PID 9104 on node compute-0-19 exited on signal 11 (Segmentation fault).
--------------------------------------------------------------------------
[compute-0-19.local:09093] 11 more processes have sent help message help-mpi-btl-base.txt / btl:no-nics
[compute-0-19.local:09093] Set MCA parameter "orte_base_help_aggregate" to 0 to see all help / error messages
librdmacm: Fatal: no RDMA devices found
--------------------------------------------------------------------------
[[10995,1],0]: A high-performance Open MPI point-to-point messaging module
was unable to find any relevant network interfaces:

Module: OpenFabrics (openib)
  Host: compute-0-19

Another transport will be used instead, although this may result in
lower performance.
--------------------------------------------------------------------------
librdmacm: Fatal: no RDMA devices found
librdmacm: Fatal: no RDMA devices found
librdmacm: Fatal: no RDMA devices found
librdmacm: Fatal: no RDMA devices found
librdmacm: Fatal: no RDMA devices found
librdmacm: Fatal: no RDMA devices found
librdmacm: Fatal: no RDMA devices found
librdmacm: Fatal: no RDMA devices found
librdmacm: Fatal: no RDMA devices found
librdmacm: Fatal: no RDMA devices found
librdmacm: Fatal: no RDMA devices found
 running on   12 total cores
 distrk:  each k-point on   12 cores,    1 groups
 distr:  one band on    1 cores,   12 groups
 using from now: INCAR     
 vasp.5.4.4.18Apr17-6-g9f103f2a35 (build Nov 06 2017 19:16:10) complex          
  
 POSCAR found :  0 types and       0 ions
 scaLAPACK will be used

 ----------------------------------------------------------------------------- 
|                                                                             |
|           W    W    AA    RRRRR   N    N  II  N    N   GGGG   !!!           |
|           W    W   A  A   R    R  NN   N  II  NN   N  G    G  !!!           |
|           W    W  A    A  R    R  N N  N  II  N N  N  G       !!!           |
|           W WW W  AAAAAA  RRRRR   N  N N  II  N  N N  G  GGG   !            |
|           WW  WW  A    A  R   R   N   NN  II  N   NN  G    G                |
|           W    W  A    A  R    R  N    N  II  N    N   GGGG   !!!           |
|                                                                             |
|      For optimal performance we recommend to set                            |
|        NCORE= 4 - approx SQRT( number of cores)                             |
|      NCORE specifies how many cores store one orbital (NPAR=cpu/NCORE).     |
|      This setting can  greatly improve the performance of VASP for DFT.     |
|      The default,   NCORE=1            might be grossly inefficient         |
|      on modern multi-core architectures or massively parallel machines.     |
|      Do your own testing !!!!                                               |
|      Unfortunately you need to use the default for GW and RPA calculations. |
|      (for HF NCORE is supported but not extensively tested yet)             |
|                                                                             |
 ----------------------------------------------------------------------------- 

--------------------------------------------------------------------------
mpirun noticed that process rank 7 with PID 9153 on node compute-0-19 exited on signal 11 (Segmentation fault).
--------------------------------------------------------------------------
[compute-0-19.local:09144] 11 more processes have sent help message help-mpi-btl-base.txt / btl:no-nics
[compute-0-19.local:09144] Set MCA parameter "orte_base_help_aggregate" to 0 to see all help / error messages
librdmacm: Fatal: no RDMA devices found
librdmacm: Fatal: no RDMA devices found
--------------------------------------------------------------------------
[[10926,1],0]: A high-performance Open MPI point-to-point messaging module
was unable to find any relevant network interfaces:

Module: OpenFabrics (openib)
  Host: compute-0-19

Another transport will be used instead, although this may result in
lower performance.
--------------------------------------------------------------------------
librdmacm: Fatal: no RDMA devices found
librdmacm: Fatal: no RDMA devices found
librdmacm: Fatal: no RDMA devices found
librdmacm: Fatal: no RDMA devices found
librdmacm: Fatal: no RDMA devices found
librdmacm: Fatal: no RDMA devices found
librdmacm: Fatal: no RDMA devices found
librdmacm: Fatal: no RDMA devices found
librdmacm: Fatal: no RDMA devices found
librdmacm: Fatal: no RDMA devices found
 running on   12 total cores
 distrk:  each k-point on   12 cores,    1 groups
 distr:  one band on    6 cores,    2 groups
 using from now: INCAR     
 vasp.5.4.4.18Apr17-6-g9f103f2a35 (build Nov 06 2017 19:16:10) complex          
  
 POSCAR found type information on POSCAR  Si Ge H 
 POSCAR found :  3 types and      26 ions
 scaLAPACK will be used

 ----------------------------------------------------------------------------- 
|                                                                             |
|  ADVICE TO THIS USER RUNNING 'VASP/VAMP'   (HEAR YOUR MASTER'S VOICE ...):  |
|                                                                             |
|      You have a (more or less) 'large supercell' and for larger cells       |
|      it might be more efficient to use real space projection opertators     |
|      So try LREAL= Auto  in the INCAR   file.                               |
|      Mind:          For very  accurate calculation you might also keep the  |
|      reciprocal projection scheme          (i.e. LREAL=.FALSE.)             |
|                                                                             |
 ----------------------------------------------------------------------------- 

 LDA part: xc-table for Pade appr. of Perdew
--------------------------------------------------------------------------
mpirun noticed that process rank 2 with PID 9193 on node compute-0-19 exited on signal 11 (Segmentation fault).
--------------------------------------------------------------------------
[compute-0-19.local:09189] 11 more processes have sent help message help-mpi-btl-base.txt / btl:no-nics
[compute-0-19.local:09189] Set MCA parameter "orte_base_help_aggregate" to 0 to see all help / error messages
librdmacm: Fatal: no RDMA devices found
--------------------------------------------------------------------------
[[11609,1],0]: A high-performance Open MPI point-to-point messaging module
was unable to find any relevant network interfaces:

Module: OpenFabrics (openib)
  Host: compute-0-19

Another transport will be used instead, although this may result in
lower performance.
--------------------------------------------------------------------------
librdmacm: Fatal: no RDMA devices found
librdmacm: Fatal: no RDMA devices found
librdmacm: Fatal: no RDMA devices found
librdmacm: Fatal: no RDMA devices found
librdmacm: Fatal: no RDMA devices found
librdmacm: Fatal: no RDMA devices found
librdmacm: Fatal: no RDMA devices found
librdmacm: Fatal: no RDMA devices found
librdmacm: Fatal: no RDMA devices found
librdmacm: Fatal: no RDMA devices found
librdmacm: Fatal: no RDMA devices found
 running on   12 total cores
 distrk:  each k-point on   12 cores,    1 groups
 distr:  one band on    1 cores,   12 groups
 using from now: INCAR     
 vasp.5.4.4.18Apr17-6-g9f103f2a35 (build Nov 06 2017 19:16:10) complex          
  
 POSCAR found :  0 types and       0 ions
 scaLAPACK will be used

 ----------------------------------------------------------------------------- 
|                                                                             |
|           W    W    AA    RRRRR   N    N  II  N    N   GGGG   !!!           |
|           W    W   A  A   R    R  NN   N  II  NN   N  G    G  !!!           |
|           W    W  A    A  R    R  N N  N  II  N N  N  G       !!!           |
|           W WW W  AAAAAA  RRRRR   N  N N  II  N  N N  G  GGG   !            |
|           WW  WW  A    A  R   R   N   NN  II  N   NN  G    G                |
|           W    W  A    A  R    R  N    N  II  N    N   GGGG   !!!           |
|                                                                             |
|      For optimal performance we recommend to set                            |
|        NCORE= 4 - approx SQRT( number of cores)                             |
|      NCORE specifies how many cores store one orbital (NPAR=cpu/NCORE).     |
|      This setting can  greatly improve the performance of VASP for DFT.     |
|      The default,   NCORE=1            might be grossly inefficient         |
|      on modern multi-core architectures or massively parallel machines.     |
|      Do your own testing !!!!                                               |
|      Unfortunately you need to use the default for GW and RPA calculations. |
|      (for HF NCORE is supported but not extensively tested yet)             |
|                                                                             |
 ----------------------------------------------------------------------------- 

--------------------------------------------------------------------------
mpirun noticed that process rank 1 with PID 9237 on node compute-0-19 exited on signal 11 (Segmentation fault).
--------------------------------------------------------------------------
[compute-0-19.local:09234] 11 more processes have sent help message help-mpi-btl-base.txt / btl:no-nics
[compute-0-19.local:09234] Set MCA parameter "orte_base_help_aggregate" to 0 to see all help / error messages
