librdmacm: Fatal: no RDMA devices found
librdmacm: Fatal: no RDMA devices found
librdmacm: Fatal: no RDMA devices found
librdmacm: Fatal: no RDMA devices found
librdmacm: Fatal: no RDMA devices found
librdmacm: Fatal: no RDMA devices found
--------------------------------------------------------------------------
[[37866,1],1]: A high-performance Open MPI point-to-point messaging module
was unable to find any relevant network interfaces:

Module: OpenFabrics (openib)
  Host: compute-0-13

Another transport will be used instead, although this may result in
lower performance.
--------------------------------------------------------------------------
librdmacm: Fatal: no RDMA devices found
librdmacm: Fatal: no RDMA devices found
librdmacm: Fatal: no RDMA devices found
librdmacm: Fatal: no RDMA devices found
librdmacm: Fatal: no RDMA devices found
librdmacm: Fatal: no RDMA devices found
 running on   12 total cores
 distrk:  each k-point on   12 cores,    1 groups
 distr:  one band on    6 cores,    2 groups
 using from now: INCAR     
 vasp.5.4.4.18Apr17-6-g9f103f2a35 (build Nov 06 2017 19:16:10) complex          
  
 POSCAR found type information on POSCAR  Si Ge H 
 POSCAR found :  3 types and      26 ions
 scaLAPACK will be used

 ----------------------------------------------------------------------------- 
|                                                                             |
|  ADVICE TO THIS USER RUNNING 'VASP/VAMP'   (HEAR YOUR MASTER'S VOICE ...):  |
|                                                                             |
|      You have a (more or less) 'large supercell' and for larger cells       |
|      it might be more efficient to use real space projection opertators     |
|      So try LREAL= Auto  in the INCAR   file.                               |
|      Mind:          For very  accurate calculation you might also keep the  |
|      reciprocal projection scheme          (i.e. LREAL=.FALSE.)             |
|                                                                             |
 ----------------------------------------------------------------------------- 

 LDA part: xc-table for Pade appr. of Perdew
 POSCAR, INCAR and KPOINTS ok, starting setup
 FFT: planning ...
 WAVECAR not read
 entering main loop
       N       E                     dE             d eps       ncg     rms          rms(c)
[compute-0-13.local:28355] 11 more processes have sent help message help-mpi-btl-base.txt / btl:no-nics
[compute-0-13.local:28355] Set MCA parameter "orte_base_help_aggregate" to 0 to see all help / error messages
DAV:   1     0.192778128476E+03    0.19278E+03   -0.10515E+04   116   0.546E+02
DAV:   2    -0.338373708128E+02   -0.22662E+03   -0.21237E+03   136   0.102E+02
DAV:   3    -0.106748598651E+03   -0.72911E+02   -0.72742E+02   112   0.547E+01
DAV:   4    -0.110811131294E+03   -0.40625E+01   -0.40474E+01   104   0.182E+01
DAV:   5    -0.110911030780E+03   -0.99899E-01   -0.99842E-01   136   0.319E+00    0.158E+01
DAV:   6    -0.107575417409E+03    0.33356E+01   -0.16304E+00   104   0.464E+00    0.925E+00
DAV:   7    -0.105815722534E+03    0.17597E+01   -0.43190E+00   112   0.688E+00    0.124E+00
DAV:   8    -0.105769093489E+03    0.46629E-01   -0.27218E-01   104   0.223E+00    0.643E-01
DAV:   9    -0.105732692547E+03    0.36401E-01   -0.83943E-02   120   0.844E-01    0.376E-01
DAV:  10    -0.105733449732E+03   -0.75718E-03   -0.39779E-03   112   0.251E-01    0.183E-01
DAV:  11    -0.105733434567E+03    0.15165E-04   -0.69776E-03   104   0.243E-01    0.750E-02
DAV:  12    -0.105736692607E+03   -0.32580E-02   -0.81105E-04    96   0.892E-02    0.580E-02
DAV:  13    -0.105741499298E+03   -0.48067E-02   -0.19744E-03   104   0.112E-01    0.393E-02
DAV:  14    -0.105745594328E+03   -0.40950E-02   -0.42271E-04   112   0.539E-02    0.178E-02
DAV:  15    -0.105750629227E+03   -0.50349E-02   -0.65454E-04   112   0.676E-02    0.170E-02
DAV:  16    -0.105751432807E+03   -0.80358E-03   -0.32710E-05   112   0.184E-02    0.796E-03
DAV:  17    -0.105752604311E+03   -0.11715E-02   -0.10215E-04   102   0.243E-02    0.348E-03
DAV:  18    -0.105752847340E+03   -0.24303E-03   -0.69504E-06   104   0.771E-03    0.226E-03
DAV:  19    -0.105753076278E+03   -0.22894E-03   -0.89439E-06    94   0.721E-03    0.187E-03
DAV:  20    -0.105753141776E+03   -0.65498E-04   -0.18046E-06    96   0.422E-03    0.873E-04
DAV:  21    -0.105753166404E+03   -0.24628E-04   -0.53857E-07    78   0.224E-03    0.557E-04
DAV:  22    -0.105753173603E+03   -0.71991E-05   -0.22091E-07    88   0.139E-03    0.309E-04
DAV:  23    -0.105753177473E+03   -0.38701E-05   -0.56199E-08    88   0.714E-04    0.175E-04
DAV:  24    -0.105753180414E+03   -0.29410E-05   -0.53062E-08    80   0.593E-04    0.733E-05
DAV:  25    -0.105753181160E+03   -0.74655E-06   -0.10726E-08    80   0.291E-04
   1 F= -.10575318E+03 E0= -.10575318E+03  d E =-.105753E+03
 curvature:   0.00 expect dE= 0.000E+00 dE for cont linesearch  0.000E+00
 trial: gam= 0.00000 g(F)=  0.511E+00 g(S)=  0.000E+00 ort = 0.000E+00 (trialstep = 0.100E+01)
 search vector abs. value=  0.511E+00
 bond charge predicted
       N       E                     dE             d eps       ncg     rms          rms(c)
DAV:   1    -0.105972555870E+03   -0.21938E+00   -0.95735E+00    84   0.135E+01    0.128E+00
DAV:   2    -0.105994196799E+03   -0.21641E-01   -0.34764E-01   120   0.235E+00    0.680E-01
DAV:   3    -0.105987104445E+03    0.70924E-02   -0.17678E-02   120   0.507E-01    0.315E-01
DAV:   4    -0.105985674403E+03    0.14300E-02   -0.70406E-03   112   0.264E-01    0.665E-02
DAV:   5    -0.105985604632E+03    0.69771E-04   -0.41241E-04   112   0.809E-02    0.390E-02
DAV:   6    -0.105985732262E+03   -0.12763E-03   -0.15071E-04   112   0.411E-02    0.175E-02
DAV:   7    -0.105985982540E+03   -0.25028E-03   -0.42151E-05   102   0.224E-02    0.109E-02
DAV:   8    -0.105986074417E+03   -0.91876E-04   -0.83819E-06   112   0.924E-03    0.750E-03
DAV:   9    -0.105986229464E+03   -0.15505E-03   -0.10635E-05   104   0.804E-03    0.226E-03
DAV:  10    -0.105986319645E+03   -0.90180E-04   -0.52598E-06   104   0.529E-03    0.180E-03
DAV:  11    -0.105986389706E+03   -0.70061E-04   -0.24778E-06    96   0.392E-03    0.765E-04
DAV:  12    -0.105986419561E+03   -0.29855E-04   -0.97135E-07    96   0.249E-03    0.841E-04
DAV:  13    -0.105986441687E+03   -0.22126E-04   -0.29230E-07    88   0.166E-03    0.350E-04
DAV:  14    -0.105986452398E+03   -0.10711E-04   -0.27049E-07    88   0.126E-03    0.307E-04
DAV:  15    -0.105986461049E+03   -0.86509E-05   -0.16354E-07    88   0.959E-04    0.135E-04
DAV:  16    -0.105986462384E+03   -0.13352E-05   -0.20355E-08    88   0.396E-04    0.852E-05
DAV:  17    -0.105986464298E+03   -0.19139E-05   -0.36278E-08    78   0.465E-04    0.450E-05
DAV:  18    -0.105986464636E+03   -0.33720E-06   -0.75702E-09    72   0.234E-04
   2 F= -.10598646E+03 E0= -.10598646E+03  d E =-.233283E+00
 trial-energy change:   -0.233283  1 .order   -0.223835   -0.511016    0.063346
 step:   0.8987(harm=  0.8897)  dis= 0.02872  next Energy=  -105.989663 (dE=-0.236E+00)
 bond charge predicted
       N       E                     dE             d eps       ncg     rms          rms(c)
DAV:   1    -0.105989539681E+03   -0.30754E-02   -0.99524E-02    84   0.138E+00    0.129E-01
DAV:   2    -0.105989720942E+03   -0.18126E-03   -0.35290E-03   120   0.235E-01    0.717E-02
DAV:   3    -0.105989633598E+03    0.87344E-04   -0.19087E-04   120   0.517E-02    0.346E-02
DAV:   4    -0.105989608296E+03    0.25302E-04   -0.70313E-05   112   0.264E-02    0.804E-03
DAV:   5    -0.105989609765E+03   -0.14687E-05   -0.41955E-06   112   0.815E-03    0.393E-03
DAV:   6    -0.105989616589E+03   -0.68241E-05   -0.14558E-06    80   0.422E-03    0.144E-03
DAV:   7    -0.105989625226E+03   -0.86368E-05   -0.59892E-07    80   0.252E-03    0.777E-04
DAV:   8    -0.105989630895E+03   -0.56694E-05   -0.26580E-07    80   0.145E-03    0.437E-04
DAV:   9    -0.105989637909E+03   -0.70139E-05   -0.45837E-07    80   0.161E-03    0.252E-04
DAV:  10    -0.105989640137E+03   -0.22276E-05   -0.11588E-07    88   0.859E-04    0.113E-04
DAV:  11    -0.105989641773E+03   -0.16365E-05   -0.64619E-08    80   0.657E-04    0.722E-05
DAV:  12    -0.105989642517E+03   -0.74371E-06   -0.23279E-08    88   0.403E-04
   3 F= -.10598964E+03 E0= -.10598964E+03  d E =-.236461E+00
 curvature:  -0.44 expect dE=-0.450E-01 dE for cont linesearch -0.167E-08
 trial: gam= 0.19908 g(F)=  0.102E+00 g(S)=  0.000E+00 ort = 0.439E-04 (trialstep = 0.980E+00)
 search vector abs. value=  0.122E+00
 bond charge predicted
       N       E                     dE             d eps       ncg     rms          rms(c)
DAV:   1    -0.106062224962E+03   -0.72583E-01   -0.13723E+00    84   0.516E+00    0.469E-01
DAV:   2    -0.106067144911E+03   -0.49199E-02   -0.67454E-02   112   0.104E+00    0.256E-01
DAV:   3    -0.106066530288E+03    0.61462E-03   -0.32116E-03   120   0.242E-01    0.125E-01
DAV:   4    -0.106066609727E+03   -0.79439E-04   -0.10950E-03   112   0.123E-01    0.449E-02
DAV:   5    -0.106066598167E+03    0.11560E-04   -0.73278E-05   112   0.361E-02    0.232E-02
DAV:   6    -0.106066587944E+03    0.10223E-04   -0.33448E-05   112   0.214E-02    0.739E-03
DAV:   7    -0.106066591892E+03   -0.39476E-05   -0.79369E-06   112   0.108E-02    0.331E-03
DAV:   8    -0.106066596544E+03   -0.46527E-05   -0.49059E-07    88   0.298E-03    0.171E-03
DAV:   9    -0.106066605773E+03   -0.92285E-05   -0.78381E-07    78   0.317E-03    0.825E-04
DAV:  10    -0.106066609817E+03   -0.40442E-05   -0.29274E-07    80   0.194E-03    0.764E-04
DAV:  11    -0.106066616910E+03   -0.70926E-05   -0.38475E-07    80   0.192E-03    0.481E-04
DAV:  12    -0.106066620578E+03   -0.36687E-05   -0.24449E-07    88   0.133E-03    0.383E-04
DAV:  13    -0.106066622210E+03   -0.16317E-05   -0.57943E-08    88   0.871E-04    0.202E-04
DAV:  14    -0.106066623910E+03   -0.16999E-05   -0.64893E-08    88   0.675E-04    0.131E-04
DAV:  15    -0.106066624523E+03   -0.61301E-06   -0.18532E-08    88   0.342E-04
   4 F= -.10606662E+03 E0= -.10606662E+03  d E =-.769820E-01
 trial-energy change:   -0.076982  1 .order   -0.076779   -0.099725   -0.053833
 step:   2.0679(harm=  2.1290)  dis= 0.03581  next Energy=  -106.096799 (dE=-0.107E+00)
 bond charge predicted
       N       E                     dE             d eps       ncg     rms          rms(c)
DAV:   1    -0.106091855568E+03   -0.25232E-01   -0.16872E+00    84   0.575E+00    0.527E-01
DAV:   2    -0.106098006639E+03   -0.61511E-02   -0.83985E-02   112   0.117E+00    0.286E-01
DAV:   3    -0.106097226243E+03    0.78040E-03   -0.40476E-03   120   0.271E-01    0.140E-01
DAV:   4    -0.106097321499E+03   -0.95256E-04   -0.13536E-03   112   0.138E-01    0.512E-02
DAV:   5    -0.106097307269E+03    0.14230E-04   -0.88807E-05   104   0.401E-02    0.258E-02
DAV:   6    -0.106097295128E+03    0.12141E-04   -0.42045E-05   120   0.239E-02    0.803E-03
DAV:   7    -0.106097300242E+03   -0.51140E-05   -0.94369E-06   104   0.119E-02    0.370E-03
DAV:   8    -0.106097305724E+03   -0.54816E-05   -0.61106E-07    80   0.330E-03    0.192E-03
DAV:   9    -0.106097316609E+03   -0.10885E-04   -0.93225E-07    78   0.345E-03    0.890E-04
DAV:  10    -0.106097321335E+03   -0.47260E-05   -0.35400E-07    80   0.213E-03    0.858E-04
DAV:  11    -0.106097329498E+03   -0.81635E-05   -0.46440E-07    80   0.215E-03    0.577E-04
DAV:  12    -0.106097333680E+03   -0.41819E-05   -0.29537E-07    88   0.148E-03    0.440E-04
DAV:  13    -0.106097335420E+03   -0.17395E-05   -0.65152E-08    88   0.951E-04    0.214E-04
DAV:  14    -0.106097337392E+03   -0.19719E-05   -0.76062E-08    80   0.745E-04    0.142E-04
DAV:  15    -0.106097338102E+03   -0.71033E-06   -0.21887E-08    88   0.376E-04
   5 F= -.10609734E+03 E0= -.10609734E+03  d E =-.107696E+00
 curvature:  -1.27 expect dE=-0.418E-01 dE for cont linesearch -0.104E-04
 trial: gam= 0.30903 g(F)=  0.328E-01 g(S)=  0.000E+00 ort = 0.998E-03 (trialstep = 0.120E+01)
 search vector abs. value=  0.451E-01
 bond charge predicted
       N       E                     dE             d eps       ncg     rms          rms(c)
DAV:   1    -0.106110656835E+03   -0.13319E-01   -0.82462E-01    84   0.393E+00    0.360E-01
DAV:   2    -0.106113461085E+03   -0.28042E-02   -0.37844E-02   120   0.784E-01    0.201E-01
DAV:   3    -0.106113105625E+03    0.35546E-03   -0.14855E-03   128   0.155E-01    0.106E-01
DAV:   4    -0.106113010227E+03    0.95398E-04   -0.49464E-04   110   0.827E-02    0.259E-02
DAV:   5    -0.106112989231E+03    0.20996E-04   -0.59919E-05   112   0.317E-02    0.151E-02
DAV:   6    -0.106113002383E+03   -0.13152E-04   -0.17493E-05   120   0.148E-02    0.740E-03
DAV:   7    -0.106113040429E+03   -0.38046E-04   -0.49782E-06   104   0.812E-03    0.250E-03
DAV:   8    -0.106113068597E+03   -0.28168E-04   -0.11061E-06    78   0.369E-03    0.185E-03
DAV:   9    -0.106113119916E+03   -0.51319E-04   -0.36096E-06    94   0.451E-03    0.970E-04
DAV:  10    -0.106113142563E+03   -0.22647E-04   -0.94153E-07    78   0.269E-03    0.569E-04
DAV:  11    -0.106113160213E+03   -0.17650E-04   -0.95456E-07    86   0.206E-03    0.346E-04
DAV:  12    -0.106113169384E+03   -0.91714E-05   -0.26314E-07    78   0.129E-03    0.225E-04
DAV:  13    -0.106113174037E+03   -0.46532E-05   -0.13543E-07    78   0.853E-04    0.147E-04
DAV:  14    -0.106113176918E+03   -0.28807E-05   -0.63980E-08    78   0.581E-04    0.667E-05
DAV:  15    -0.106113177493E+03   -0.57527E-06   -0.77887E-09    88   0.263E-04
   6 F= -.10611318E+03 E0= -.10611318E+03  d E =-.158394E-01
 trial-energy change:   -0.015839  1 .order   -0.015515   -0.039694    0.008664
 step:   0.9898(harm=  0.9829)  dis= 0.01249  next Energy=  -106.113927 (dE=-0.166E-01)
 bond charge predicted
       N       E                     dE             d eps       ncg     rms          rms(c)
DAV:   1    -0.106113856069E+03   -0.67915E-03   -0.24835E-02    84   0.684E-01    0.621E-02
DAV:   2    -0.106113934967E+03   -0.78898E-04   -0.11539E-03   120   0.137E-01    0.351E-02
DAV:   3    -0.106113919201E+03    0.15766E-04   -0.45068E-05   120   0.271E-02    0.186E-02
DAV:   4    -0.106113912069E+03    0.71319E-05   -0.15008E-05   102   0.144E-02    0.469E-03
DAV:   5    -0.106113911865E+03    0.20380E-06   -0.16445E-06    80   0.553E-03
   7 F= -.10611391E+03 E0= -.10611391E+03  d E =-.165738E-01
 curvature:  -0.67 expect dE=-0.434E-02 dE for cont linesearch -0.392E-08
 trial: gam= 0.20660 g(F)=  0.649E-02 g(S)=  0.000E+00 ort =-0.163E-04 (trialstep = 0.116E+01)
 search vector abs. value=  0.841E-02
 bond charge predicted
       N       E                     dE             d eps       ncg     rms          rms(c)
DAV:   1    -0.106118243491E+03   -0.43314E-02   -0.13714E-01    84   0.169E+00    0.133E-01
DAV:   2    -0.106118651448E+03   -0.40796E-03   -0.60952E-03   120   0.308E-01    0.767E-02
DAV:   3    -0.106118580240E+03    0.71209E-04   -0.32654E-04   128   0.733E-02    0.381E-02
DAV:   4    -0.106118571921E+03    0.83186E-05   -0.95296E-05   120   0.391E-02    0.127E-02
DAV:   5    -0.106118567895E+03    0.40263E-05   -0.10394E-05   120   0.145E-02    0.762E-03
DAV:   6    -0.106118569310E+03   -0.14149E-05   -0.33217E-06   112   0.721E-03    0.326E-03
DAV:   7    -0.106118574802E+03   -0.54923E-05   -0.86711E-07    80   0.389E-03    0.113E-03
DAV:   8    -0.106118579777E+03   -0.49745E-05   -0.26167E-07    80   0.207E-03    0.864E-04
DAV:   9    -0.106118590585E+03   -0.10808E-04   -0.77706E-07    78   0.275E-03    0.642E-04
DAV:  10    -0.106118593190E+03   -0.26054E-05   -0.20232E-07    88   0.147E-03    0.371E-04
DAV:  11    -0.106118595908E+03   -0.27174E-05   -0.86410E-08    80   0.909E-04    0.161E-04
DAV:  12    -0.106118598448E+03   -0.25402E-05   -0.75908E-08    88   0.661E-04    0.113E-04
DAV:  13    -0.106118600599E+03   -0.21515E-05   -0.63715E-08    88   0.567E-04    0.684E-05
DAV:  14    -0.106118601534E+03   -0.93497E-06   -0.21001E-08    88   0.345E-04
   8 F= -.10611860E+03 E0= -.10611860E+03  d E =-.468967E-02
 trial-energy change:   -0.004690  1 .order   -0.004662   -0.007498   -0.001826
 step:   1.5143(harm=  1.5281)  dis= 0.00864  next Energy=  -106.118886 (dE=-0.497E-02)
 bond charge predicted
       N       E                     dE             d eps       ncg     rms          rms(c)
DAV:   1    -0.106118864019E+03   -0.26342E-03   -0.13196E-02    84   0.524E-01    0.412E-02
DAV:   2    -0.106118904960E+03   -0.40941E-04   -0.58599E-04   118   0.956E-02    0.237E-02
DAV:   3    -0.106118899199E+03    0.57612E-05   -0.31518E-05   128   0.228E-02    0.118E-02
DAV:   4    -0.106118898847E+03    0.35138E-06   -0.92432E-06   112   0.122E-02
   9 F= -.10611890E+03 E0= -.10611890E+03  d E =-.498698E-02
 curvature:  -0.99 expect dE=-0.275E-02 dE for cont linesearch -0.321E-06
 trial: gam= 0.41058 g(F)=  0.278E-02 g(S)=  0.000E+00 ort = 0.522E-04 (trialstep = 0.123E+01)
 search vector abs. value=  0.424E-02
 bond charge predicted
       N       E                     dE             d eps       ncg     rms          rms(c)
DAV:   1    -0.106121555182E+03   -0.26560E-02   -0.93990E-02    84   0.140E+00    0.105E-01
DAV:   2    -0.106121675253E+03   -0.12007E-03   -0.26572E-03   120   0.214E-01    0.547E-02
DAV:   3    -0.106121628855E+03    0.46398E-04   -0.20155E-04   128   0.593E-02    0.262E-02
DAV:   4    -0.106121629502E+03   -0.64699E-06   -0.59600E-05   120   0.291E-02    0.911E-03
DAV:   5    -0.106121628395E+03    0.11068E-05   -0.38693E-06   128   0.898E-03    0.475E-03
DAV:   6    -0.106121628461E+03   -0.65965E-07   -0.97925E-07    88   0.462E-03
  10 F= -.10612163E+03 E0= -.10612163E+03  d E =-.272961E-02
 trial-energy change:   -0.002730  1 .order   -0.002728   -0.003442   -0.002014
 step:   2.9581(harm=  2.9581)  dis= 0.00963  next Energy=  -106.123046 (dE=-0.415E-02)
 bond charge predicted
       N       E                     dE             d eps       ncg     rms          rms(c)
DAV:   1    -0.106122906334E+03   -0.12779E-02   -0.18693E-01    84   0.197E+00    0.148E-01
DAV:   2    -0.106123146467E+03   -0.24013E-03   -0.52812E-03   120   0.302E-01    0.774E-02
DAV:   3    -0.106123052622E+03    0.93845E-04   -0.40200E-04   128   0.837E-02    0.370E-02
DAV:   4    -0.106123053314E+03   -0.69210E-06   -0.11838E-04   120   0.409E-02    0.127E-02
DAV:   5    -0.106123051222E+03    0.20916E-05   -0.75362E-06   128   0.124E-02    0.668E-03
DAV:   6    -0.106123051237E+03   -0.14758E-07   -0.18654E-06    96   0.635E-03
  11 F= -.10612305E+03 E0= -.10612305E+03  d E =-.415239E-02
 curvature:  -2.24 expect dE=-0.525E-02 dE for cont linesearch -0.743E-08
 trial: gam= 0.86026 g(F)=  0.234E-02 g(S)=  0.000E+00 ort =-0.375E-05 (trialstep = 0.122E+01)
 search vector abs. value=  0.548E-02
 bond charge predicted
       N       E                     dE             d eps       ncg     rms          rms(c)
DAV:   1    -0.106124756958E+03   -0.17057E-02   -0.13255E-01    86   0.164E+00    0.118E-01
DAV:   2    -0.106124940674E+03   -0.18372E-03   -0.32502E-03   112   0.222E-01    0.624E-02
DAV:   3    -0.106124892619E+03    0.48054E-04   -0.17433E-04   120   0.554E-02    0.288E-02
DAV:   4    -0.106124895511E+03   -0.28916E-05   -0.61362E-05   120   0.279E-02    0.852E-03
DAV:   5    -0.106124896267E+03   -0.75634E-06   -0.45439E-06   112   0.873E-03
  12 F= -.10612490E+03 E0= -.10612490E+03  d E =-.184503E-02
 trial-energy change:   -0.001845  1 .order   -0.001825   -0.002853   -0.000798
 step:   1.6578(harm=  1.6921)  dis= 0.00658  next Energy=  -106.125041 (dE=-0.199E-02)
 bond charge predicted
       N       E                     dE             d eps       ncg     rms          rms(c)
DAV:   1    -0.106125035631E+03   -0.14012E-03   -0.17173E-02    86   0.592E-01    0.428E-02
DAV:   2    -0.106125061195E+03   -0.25563E-04   -0.42581E-04   104   0.802E-02    0.222E-02
DAV:   3    -0.106125056385E+03    0.48100E-05   -0.22050E-05   120   0.199E-02    0.104E-02
DAV:   4    -0.106125058048E+03   -0.16629E-05   -0.79232E-06   128   0.100E-02    0.298E-03
DAV:   5    -0.106125059072E+03   -0.10242E-05   -0.59828E-07    70   0.331E-03    0.153E-03
DAV:   6    -0.106125060303E+03   -0.12308E-05   -0.22306E-07    78   0.170E-03    0.601E-04
DAV:   7    -0.106125061637E+03   -0.13339E-05   -0.52759E-08    78   0.854E-04    0.211E-04
DAV:   8    -0.106125063263E+03   -0.16268E-05   -0.62053E-08    78   0.683E-04    0.231E-04
DAV:   9    -0.106125064552E+03   -0.12887E-05   -0.37776E-08    88   0.506E-04    0.791E-05
DAV:  10    -0.106125065399E+03   -0.84657E-06   -0.30649E-08    88   0.430E-04
  13 F= -.10612507E+03 E0= -.10612507E+03  d E =-.201416E-02
 curvature:  -1.97 expect dE=-0.335E-02 dE for cont linesearch -0.981E-06
 trial: gam= 0.70015 g(F)=  0.170E-02 g(S)=  0.000E+00 ort = 0.522E-04 (trialstep = 0.131E+01)
 search vector abs. value=  0.446E-02
 bond charge predicted
       N       E                     dE             d eps       ncg     rms          rms(c)
DAV:   1    -0.106126022549E+03   -0.95800E-03   -0.12542E-01    84   0.158E+00    0.128E-01
DAV:   2    -0.106126196880E+03   -0.17433E-03   -0.32245E-03   110   0.230E-01    0.621E-02
DAV:   3    -0.106126139263E+03    0.57617E-04   -0.20840E-04   128   0.610E-02    0.301E-02
DAV:   4    -0.106126136048E+03    0.32152E-05   -0.72613E-05   112   0.295E-02    0.968E-03
DAV:   5    -0.106126135151E+03    0.89725E-06   -0.42746E-06   104   0.895E-03
  14 F= -.10612614E+03 E0= -.10612614E+03  d E =-.106975E-02
 trial-energy change:   -0.001070  1 .order   -0.001071   -0.002272    0.000129
 step:   1.2365(harm=  1.2365)  dis= 0.00485  next Energy=  -106.126140 (dE=-0.107E-02)
 bond charge predicted
       N       E                     dE             d eps       ncg     rms          rms(c)
DAV:   1    -0.106126138058E+03   -0.20102E-05   -0.35347E-04    88   0.843E-02    0.627E-03
DAV:   2    -0.106126139073E+03   -0.10148E-05   -0.72928E-06   120   0.114E-02    0.352E-03
DAV:   3    -0.106126140112E+03   -0.10390E-05   -0.78516E-07    88   0.390E-03    0.148E-03
DAV:   4    -0.106126141481E+03   -0.13689E-05   -0.34207E-07    78   0.227E-03    0.488E-04
DAV:   5    -0.106126142554E+03   -0.10728E-05   -0.88521E-08    88   0.114E-03    0.317E-04
DAV:   6    -0.106126143814E+03   -0.12608E-05   -0.62707E-08    78   0.796E-04    0.122E-04
DAV:   7    -0.106126144899E+03   -0.10846E-05   -0.45901E-08    78   0.553E-04    0.104E-04
DAV:   8    -0.106126145651E+03   -0.75242E-06   -0.34661E-08    86   0.465E-04
  15 F= -.10612615E+03 E0= -.10612615E+03  d E =-.108025E-02
 curvature:  -1.59 expect dE=-0.347E-03 dE for cont linesearch -0.471E-07
 trial: gam= 0.15546 g(F)=  0.219E-03 g(S)=  0.000E+00 ort = 0.115E-04 (trialstep = 0.129E+01)
 search vector abs. value=  0.330E-03
 bond charge predicted
       N       E                     dE             d eps       ncg     rms          rms(c)
DAV:   1    -0.106126360919E+03   -0.21602E-03   -0.75814E-03    84   0.395E-01    0.265E-02
DAV:   2    -0.106126374741E+03   -0.13822E-04   -0.23774E-04   110   0.626E-02    0.170E-02
DAV:   3    -0.106126371705E+03    0.30364E-05   -0.10008E-05   136   0.133E-02    0.874E-03
DAV:   4    -0.106126371454E+03    0.25028E-06   -0.42925E-06   102   0.736E-03
  16 F= -.10612637E+03 E0= -.10612637E+03  d E =-.225803E-03
 trial-energy change:   -0.000226  1 .order   -0.000226   -0.000285   -0.000167
 step:   3.1142(harm=  3.1142)  dis= 0.00295  next Energy=  -106.126489 (dE=-0.343E-03)
 bond charge predicted
       N       E                     dE             d eps       ncg     rms          rms(c)
DAV:   1    -0.106126468783E+03   -0.97078E-04   -0.15076E-02    84   0.557E-01    0.378E-02
DAV:   2    -0.106126496965E+03   -0.28182E-04   -0.47777E-04   112   0.886E-02    0.241E-02
DAV:   3    -0.106126490928E+03    0.60368E-05   -0.19619E-05   136   0.187E-02    0.123E-02
DAV:   4    -0.106126490205E+03    0.72327E-06   -0.83800E-06   102   0.103E-02
  17 F= -.10612649E+03 E0= -.10612649E+03  d E =-.344553E-03
 curvature:  -2.33 expect dE=-0.839E-03 dE for cont linesearch -0.215E-07
 trial: gam= 1.63472 g(F)=  0.360E-03 g(S)=  0.000E+00 ort = 0.174E-05 (trialstep = 0.438E+00)
 search vector abs. value=  0.125E-02
 bond charge predicted
       N       E                     dE             d eps       ncg     rms          rms(c)
DAV:   1    -0.106126616036E+03   -0.12511E-03   -0.37335E-03    84   0.278E-01    0.211E-02
DAV:   2    -0.106126618220E+03   -0.21839E-05   -0.78932E-05   112   0.353E-02    0.112E-02
DAV:   3    -0.106126616891E+03    0.13295E-05   -0.58132E-06   128   0.938E-03    0.507E-03
DAV:   4    -0.106126617186E+03   -0.29548E-06   -0.14717E-06    96   0.438E-03
  18 F= -.10612662E+03 E0= -.10612662E+03  d E =-.126981E-03
 trial-energy change:   -0.000127  1 .order   -0.000126   -0.000159   -0.000093
 step:   1.0639(harm=  1.0639)  dis= 0.00159  next Energy=  -106.126683 (dE=-0.193E-03)
 bond charge predicted
       N       E                     dE             d eps       ncg     rms          rms(c)
DAV:   1    -0.106126681069E+03   -0.64178E-04   -0.75610E-03    84   0.396E-01    0.299E-02
DAV:   2    -0.106126685539E+03   -0.44704E-05   -0.15911E-04   112   0.502E-02    0.158E-02
DAV:   3    -0.106126682347E+03    0.31927E-05   -0.11371E-05   128   0.131E-02    0.719E-03
DAV:   4    -0.106126682300E+03    0.46582E-07   -0.30627E-06   102   0.616E-03
  19 F= -.10612668E+03 E0= -.10612668E+03  d E =-.192095E-03
 curvature:  -1.83 expect dE=-0.660E-04 dE for cont linesearch -0.496E-07
 trial: gam= 0.13716 g(F)=  0.361E-04 g(S)=  0.000E+00 ort =-0.581E-05 (trialstep = 0.564E+00)
 search vector abs. value=  0.579E-04
 reached required accuracy - stopping structural energy minimisation
 writing wavefunctions
librdmacm: Fatal: no RDMA devices found
librdmacm: Fatal: no RDMA devices found
--------------------------------------------------------------------------
[[36751,1],1]: A high-performance Open MPI point-to-point messaging module
was unable to find any relevant network interfaces:

Module: OpenFabrics (openib)
  Host: compute-0-13

Another transport will be used instead, although this may result in
lower performance.
--------------------------------------------------------------------------
librdmacm: Fatal: no RDMA devices found
librdmacm: Fatal: no RDMA devices found
librdmacm: Fatal: no RDMA devices found
librdmacm: Fatal: no RDMA devices found
librdmacm: Fatal: no RDMA devices found
librdmacm: Fatal: no RDMA devices found
librdmacm: Fatal: no RDMA devices found
librdmacm: Fatal: no RDMA devices found
librdmacm: Fatal: no RDMA devices found
librdmacm: Fatal: no RDMA devices found
 running on   12 total cores
 distrk:  each k-point on   12 cores,    1 groups
 distr:  one band on    1 cores,   12 groups
 using from now: INCAR     
 vasp.5.4.4.18Apr17-6-g9f103f2a35 (build Nov 06 2017 19:16:10) complex          
  
 POSCAR found type information on POSCAR  Si Ge H 
 POSCAR found :  3 types and      26 ions
 scaLAPACK will be used

 ----------------------------------------------------------------------------- 
|                                                                             |
|           W    W    AA    RRRRR   N    N  II  N    N   GGGG   !!!           |
|           W    W   A  A   R    R  NN   N  II  NN   N  G    G  !!!           |
|           W    W  A    A  R    R  N N  N  II  N N  N  G       !!!           |
|           W WW W  AAAAAA  RRRRR   N  N N  II  N  N N  G  GGG   !            |
|           WW  WW  A    A  R   R   N   NN  II  N   NN  G    G                |
|           W    W  A    A  R    R  N    N  II  N    N   GGGG   !!!           |
|                                                                             |
|      For optimal performance we recommend to set                            |
|        NCORE= 4 - approx SQRT( number of cores)                             |
|      NCORE specifies how many cores store one orbital (NPAR=cpu/NCORE).     |
|      This setting can  greatly improve the performance of VASP for DFT.     |
|      The default,   NCORE=1            might be grossly inefficient         |
|      on modern multi-core architectures or massively parallel machines.     |
|      Do your own testing !!!!                                               |
|      Unfortunately you need to use the default for GW and RPA calculations. |
|      (for HF NCORE is supported but not extensively tested yet)             |
|                                                                             |
 ----------------------------------------------------------------------------- 


 ----------------------------------------------------------------------------- 
|                                                                             |
|  ADVICE TO THIS USER RUNNING 'VASP/VAMP'   (HEAR YOUR MASTER'S VOICE ...):  |
|                                                                             |
|      You have a (more or less) 'large supercell' and for larger cells       |
|      it might be more efficient to use real space projection opertators     |
|      So try LREAL= Auto  in the INCAR   file.                               |
|      Mind:          For very  accurate calculation you might also keep the  |
|      reciprocal projection scheme          (i.e. LREAL=.FALSE.)             |
|                                                                             |
 ----------------------------------------------------------------------------- 

 LDA part: xc-table for Pade appr. of Perdew
 POSCAR, INCAR and KPOINTS ok, starting setup
 FFT: planning ...
 WAVECAR not read
[compute-0-13.local:29350] 11 more processes have sent help message help-mpi-btl-base.txt / btl:no-nics
[compute-0-13.local:29350] Set MCA parameter "orte_base_help_aggregate" to 0 to see all help / error messages
 entering main loop
       N       E                     dE             d eps       ncg     rms          rms(c)
DAV:   1     0.240524701232E+03    0.24052E+03   -0.10271E+04   120   0.484E+02
DAV:   2    -0.275130035683E+02   -0.26804E+03   -0.25357E+03   156   0.922E+01
DAV:   3    -0.107974494781E+03   -0.80461E+02   -0.80243E+02   120   0.549E+01
DAV:   4    -0.111978028549E+03   -0.40035E+01   -0.39888E+01   120   0.177E+01
DAV:   5    -0.112082681175E+03   -0.10465E+00   -0.10454E+00   156   0.325E+00    0.170E+01
DAV:   6    -0.108214965166E+03    0.38677E+01   -0.17417E+00   120   0.447E+00    0.989E+00
DAV:   7    -0.106193780090E+03    0.20212E+01   -0.47499E+00   120   0.661E+00    0.137E+00
DAV:   8    -0.106143157574E+03    0.50623E-01   -0.33449E-01   132   0.219E+00    0.718E-01
DAV:   9    -0.106107995412E+03    0.35162E-01   -0.66296E-02   156   0.709E-01    0.422E-01
DAV:  10    -0.106107740526E+03    0.25489E-03   -0.38504E-03   132   0.225E-01    0.166E-01
DAV:  11    -0.106104847772E+03    0.28928E-02   -0.85420E-03   132   0.236E-01    0.104E-01
DAV:  12    -0.106109852963E+03   -0.50052E-02   -0.94192E-04    96   0.914E-02    0.563E-02
DAV:  13    -0.106114147593E+03   -0.42946E-02   -0.28013E-03   120   0.121E-01    0.466E-02
DAV:  14    -0.106117253086E+03   -0.31055E-02   -0.16787E-04   144   0.387E-02    0.245E-02
DAV:  15    -0.106123384349E+03   -0.61313E-02   -0.78893E-04   108   0.678E-02    0.199E-02
DAV:  16    -0.106124600791E+03   -0.12164E-02   -0.71142E-05   132   0.278E-02    0.108E-02
DAV:  17    -0.106126013793E+03   -0.14130E-02   -0.13836E-04   132   0.256E-02    0.775E-03
DAV:  18    -0.106126251463E+03   -0.23767E-03   -0.44188E-06   132   0.541E-03    0.338E-03
DAV:  19    -0.106126566216E+03   -0.31475E-03   -0.14345E-05   120   0.872E-03    0.274E-03
DAV:  20    -0.106126632001E+03   -0.65785E-04   -0.14769E-06   120   0.382E-03    0.114E-03
DAV:  21    -0.106126666713E+03   -0.34712E-04   -0.88025E-07    96   0.240E-03    0.538E-04
DAV:  22    -0.106126675459E+03   -0.87461E-05   -0.21437E-07   108   0.115E-03    0.520E-04
DAV:  23    -0.106126681100E+03   -0.56406E-05   -0.12451E-07    84   0.979E-04    0.225E-04
DAV:  24    -0.106126682755E+03   -0.16552E-05   -0.19465E-08   108   0.500E-04    0.836E-05
DAV:  25    -0.106126684212E+03   -0.14576E-05   -0.13312E-08    84   0.343E-04    0.423E-05
DAV:  26    -0.106126684461E+03   -0.24875E-06    0.32182E-09   108   0.166E-04
   1 F= -.10612668E+03 E0= -.10612668E+03  d E =-.923457E-10
 Finite differences POTIM= 0.02000 DOF=  78
 bond charge predicted
       N       E                     dE             d eps       ncg     rms          rms(c)
DAV:   1    -0.106123302348E+03    0.33819E-02   -0.84610E-02    96   0.857E-01    0.134E-01
DAV:   2    -0.106123626336E+03   -0.32399E-03   -0.37966E-03   132   0.215E-01    0.577E-02
DAV:   3    -0.106123609021E+03    0.17315E-04   -0.15453E-04   132   0.459E-02    0.302E-02
DAV:   4    -0.106123612345E+03   -0.33234E-05   -0.41022E-05   132   0.230E-02    0.911E-03
DAV:   5    -0.106123611559E+03    0.78583E-06   -0.62742E-06   144   0.982E-03
   2 F= -.10612361E+03 E0= -.10612361E+03  d E =-.901098E-10
 Finite differences progress:
  Degree of freedom:   1/ 78
  Displacement:        1/  2
  Total:               1/156
 bond charge predicted
       N       E                     dE             d eps       ncg     rms          rms(c)
DAV:   1    -0.106122299666E+03    0.13127E-02   -0.34320E-01    96   0.170E+00    0.267E-01
DAV:   2    -0.106123644797E+03   -0.13451E-02   -0.15675E-02   132   0.436E-01    0.116E-01
DAV:   3    -0.106123583273E+03    0.61524E-04   -0.63697E-04   144   0.927E-02    0.614E-02
DAV:   4    -0.106123600544E+03   -0.17271E-04   -0.15656E-04   132   0.452E-02    0.190E-02
DAV:   5    -0.106123598010E+03    0.25340E-05   -0.23740E-05   144   0.191E-02    0.100E-02
DAV:   6    -0.106123597598E+03    0.41160E-06   -0.53540E-06   132   0.801E-03
   3 F= -.10612360E+03 E0= -.10612360E+03  d E =-.491112E-11
 Finite differences progress:
  Degree of freedom:   1/ 78
  Displacement:        2/  2
  Total:               2/156
 bond charge predicted
       N       E                     dE             d eps       ncg     rms          rms(c)
DAV:   1    -0.106122956564E+03    0.64145E-03   -0.17184E-01    96   0.123E+00    0.193E-01
DAV:   2    -0.106123607142E+03   -0.65058E-03   -0.76457E-03   132   0.299E-01    0.809E-02
DAV:   3    -0.106123578297E+03    0.28844E-04   -0.31306E-04   120   0.641E-02    0.436E-02
DAV:   4    -0.106123588832E+03   -0.10535E-04   -0.74882E-05   132   0.307E-02    0.136E-02
DAV:   5    -0.106123588855E+03   -0.23263E-07   -0.12325E-05   132   0.137E-02    0.725E-03
DAV:   6    -0.106123589186E+03   -0.33089E-06   -0.28295E-06   132   0.578E-03
   4 F= -.10612359E+03 E0= -.10612359E+03  d E =-.732320E-10
 Finite differences progress:
  Degree of freedom:   2/ 78
  Displacement:        1/  2
  Total:               3/156
 bond charge predicted
       N       E                     dE             d eps       ncg     rms          rms(c)
DAV:   1    -0.106122220864E+03    0.13680E-02   -0.34270E-01    96   0.170E+00    0.268E-01
DAV:   2    -0.106123598415E+03   -0.13776E-02   -0.15902E-02   132   0.436E-01    0.117E-01
DAV:   3    -0.106123529989E+03    0.68425E-04   -0.63652E-04   144   0.929E-02    0.617E-02
DAV:   4    -0.106123544628E+03   -0.14638E-04   -0.16460E-04   144   0.454E-02    0.191E-02
DAV:   5    -0.106123541019E+03    0.36085E-05   -0.24408E-05   144   0.192E-02    0.990E-03
DAV:   6    -0.106123540607E+03    0.41225E-06   -0.53700E-06   132   0.804E-03
   5 F= -.10612354E+03 E0= -.10612354E+03  d E =-.582857E-11
 Finite differences progress:
  Degree of freedom:   2/ 78
  Displacement:        2/  2
  Total:               4/156
 bond charge predicted
       N       E                     dE             d eps       ncg     rms          rms(c)
DAV:   1    -0.106121479610E+03    0.20614E-02   -0.17092E-01    96   0.120E+00    0.192E-01
DAV:   2    -0.106122340296E+03   -0.86069E-03   -0.95992E-03   132   0.334E-01    0.959E-02
DAV:   3    -0.106122289488E+03    0.50808E-04   -0.34042E-04   144   0.701E-02    0.516E-02
DAV:   4    -0.106122296037E+03   -0.65487E-05   -0.12641E-04   132   0.390E-02    0.139E-02
DAV:   5    -0.106122294319E+03    0.17187E-05   -0.18249E-05   132   0.157E-02    0.781E-03
DAV:   6    -0.106122295973E+03   -0.16548E-05   -0.33295E-06   144   0.594E-03    0.500E-03
DAV:   7    -0.106122301875E+03   -0.59021E-05   -0.53075E-07   108   0.263E-03    0.137E-03
DAV:   8    -0.106122306386E+03   -0.45106E-05   -0.38510E-07   108   0.207E-03    0.687E-04
DAV:   9    -0.106122312661E+03   -0.62750E-05   -0.33551E-07   108   0.171E-03    0.462E-04
DAV:  10    -0.106122319080E+03   -0.64190E-05   -0.55182E-07   120   0.159E-03    0.448E-04
DAV:  11    -0.106122320279E+03   -0.11991E-05   -0.31181E-08   120   0.693E-04    0.315E-04
DAV:  12    -0.106122322216E+03   -0.19368E-05   -0.55875E-08   108   0.581E-04    0.129E-04
DAV:  13    -0.106122323287E+03   -0.10706E-05   -0.22625E-08   108   0.357E-04    0.959E-05
DAV:  14    -0.106122324222E+03   -0.93580E-06   -0.13409E-08   108   0.282E-04
   6 F= -.10612232E+03 E0= -.10612232E+03  d E =-.613050E-11
 Finite differences progress:
  Degree of freedom:   3/ 78
  Displacement:        1/  2
  Total:               5/156
 bond charge predicted
       N       E                     dE             d eps       ncg     rms          rms(c)
DAV:   1    -0.106120123764E+03    0.21995E-02   -0.34031E-01    96   0.167E+00    0.272E-01
DAV:   2    -0.106122395648E+03   -0.22719E-02   -0.24921E-02   132   0.510E-01    0.171E-01
DAV:   3    -0.106122216418E+03    0.17923E-03   -0.72902E-04   132   0.108E-01    0.875E-02
DAV:   4    -0.106122221974E+03   -0.55553E-05   -0.43114E-04   132   0.705E-02    0.171E-02
DAV:   5    -0.106122211701E+03    0.10273E-04   -0.53215E-05   132   0.260E-02    0.118E-02
DAV:   6    -0.106122212511E+03   -0.81021E-06   -0.10004E-05   132   0.869E-03    0.781E-03
DAV:   7    -0.106122224871E+03   -0.12360E-04   -0.11931E-06   132   0.379E-03    0.299E-03
DAV:   8    -0.106122241161E+03   -0.16289E-04   -0.17503E-06   132   0.451E-03    0.152E-03
DAV:   9    -0.106122253942E+03   -0.12782E-04   -0.86324E-07   120   0.240E-03    0.151E-03
DAV:  10    -0.106122277488E+03   -0.23546E-04   -0.14665E-06   132   0.249E-03    0.102E-03
DAV:  11    -0.106122281340E+03   -0.38515E-05   -0.85136E-08   120   0.947E-04    0.582E-04
DAV:  12    -0.106122289463E+03   -0.81230E-05   -0.21171E-07   108   0.111E-03    0.419E-04
DAV:  13    -0.106122293020E+03   -0.35575E-05   -0.10508E-07   108   0.686E-04    0.272E-04
DAV:  14    -0.106122295309E+03   -0.22888E-05   -0.22077E-08   108   0.416E-04    0.110E-04
DAV:  15    -0.106122296475E+03   -0.11661E-05   -0.13649E-08   108   0.298E-04    0.106E-04
DAV:  16    -0.106122297044E+03   -0.56871E-06    0.26644E-09   120   0.175E-04
   7 F= -.10612230E+03 E0= -.10612230E+03  d E =-.751488E-10
 Finite differences progress:
  Degree of freedom:   3/ 78
  Displacement:        2/  2
  Total:               6/156
 bond charge predicted
       N       E                     dE             d eps       ncg     rms          rms(c)
DAV:   1    -0.106121361570E+03    0.93490E-03   -0.19322E-01    96   0.135E+00    0.199E-01
DAV:   2    -0.106122724829E+03   -0.13633E-02   -0.14281E-02   120   0.421E-01    0.120E-01
DAV:   3    -0.106122646370E+03    0.78459E-04   -0.42835E-04   144   0.874E-02    0.642E-02
DAV:   4    -0.106122648762E+03   -0.23920E-05   -0.21178E-04   132   0.553E-02    0.129E-02
DAV:   5    -0.106122643340E+03    0.54218E-05   -0.36941E-05   120   0.216E-02    0.948E-03
DAV:   6    -0.106122644180E+03   -0.83930E-06   -0.39366E-06   144   0.634E-03
   8 F= -.10612264E+03 E0= -.10612264E+03  d E =-.662122E-10
 Finite differences progress:
  Degree of freedom:   4/ 78
  Displacement:        1/  2
  Total:               7/156
 bond charge predicted
       N       E                     dE             d eps       ncg     rms          rms(c)
DAV:   1    -0.106120846119E+03    0.17972E-02   -0.33856E-01    96   0.173E+00    0.253E-01
DAV:   2    -0.106122765722E+03   -0.19196E-02   -0.19924E-02   132   0.493E-01    0.152E-01
DAV:   3    -0.106122702868E+03    0.62855E-04   -0.58148E-04   132   0.928E-02    0.773E-02
DAV:   4    -0.106122702471E+03    0.39649E-06   -0.21008E-04   132   0.530E-02    0.160E-02
DAV:   5    -0.106122690725E+03    0.11746E-04   -0.32698E-05   144   0.219E-02    0.990E-03
DAV:   6    -0.106122692002E+03   -0.12769E-05   -0.76510E-06   132   0.938E-03    0.582E-03
DAV:   7    -0.106122705297E+03   -0.13295E-04   -0.24368E-06   120   0.708E-03    0.171E-03
DAV:   8    -0.106122719530E+03   -0.14233E-04   -0.17267E-06   120   0.536E-03    0.176E-03
DAV:   9    -0.106122729739E+03   -0.10209E-04   -0.59742E-07   108   0.276E-03    0.138E-03
DAV:  10    -0.106122746625E+03   -0.16886E-04   -0.85396E-07   108   0.205E-03    0.448E-04
DAV:  11    -0.106122755476E+03   -0.88510E-05   -0.50017E-07   108   0.172E-03    0.603E-04
DAV:  12    -0.106122763101E+03   -0.76244E-05   -0.25894E-07    96   0.148E-03    0.509E-04
DAV:  13    -0.106122766546E+03   -0.34456E-05   -0.11527E-07   108   0.930E-04    0.554E-04
DAV:  14    -0.106122768139E+03   -0.15923E-05   -0.23057E-08   108   0.606E-04    0.134E-04
DAV:  15    -0.106122770284E+03   -0.21453E-05   -0.49843E-08    96   0.601E-04    0.284E-04
DAV:  16    -0.106122770715E+03   -0.43144E-06   -0.11455E-09   108   0.342E-04
   9 F= -.10612277E+03 E0= -.10612277E+03  d E =-.450209E-11
 Finite differences progress:
  Degree of freedom:   4/ 78
  Displacement:        2/  2
  Total:               8/156
 bond charge predicted
       N       E                     dE             d eps       ncg     rms          rms(c)
DAV:   1    -0.106120702266E+03    0.20680E-02   -0.17449E-01    96   0.125E+00    0.184E-01
DAV:   2    -0.106121857773E+03   -0.11555E-02   -0.11908E-02   132   0.376E-01    0.117E-01
DAV:   3    -0.106121801778E+03    0.55995E-04   -0.28858E-04   132   0.702E-02    0.647E-02
DAV:   4    -0.106121796988E+03    0.47906E-05   -0.16853E-04   120   0.486E-02    0.120E-02
DAV:   5    -0.106121791980E+03    0.50081E-05   -0.36798E-05   132   0.220E-02    0.886E-03
DAV:   6    -0.106121794407E+03   -0.24275E-05   -0.65339E-06   132   0.748E-03    0.597E-03
DAV:   7    -0.106121805896E+03   -0.11489E-04   -0.96834E-07    96   0.380E-03    0.241E-03
DAV:   8    -0.106121820214E+03   -0.14318E-04   -0.17726E-06   132   0.394E-03    0.101E-03
DAV:   9    -0.106121832811E+03   -0.12597E-04   -0.11393E-06   108   0.286E-03    0.113E-03
DAV:  10    -0.106121843726E+03   -0.10915E-04   -0.80937E-07   120   0.209E-03    0.509E-04
DAV:  11    -0.106121847676E+03   -0.39504E-05   -0.15525E-07   108   0.104E-03    0.348E-04
DAV:  12    -0.106121852276E+03   -0.45997E-05   -0.21510E-07    96   0.973E-04    0.135E-04
DAV:  13    -0.106121853630E+03   -0.13545E-05   -0.42658E-08   108   0.474E-04    0.199E-04
DAV:  14    -0.106121855032E+03   -0.14019E-05   -0.24616E-08    96   0.405E-04    0.885E-05
DAV:  15    -0.106121855495E+03   -0.46291E-06   -0.56183E-09   108   0.238E-04
  10 F= -.10612186E+03 E0= -.10612186E+03  d E =-.483986E-11
 Finite differences progress:
  Degree of freedom:   5/ 78
  Displacement:        1/  2
  Total:               9/156
 bond charge predicted
       N       E                     dE             d eps       ncg     rms          rms(c)
DAV:   1    -0.106119055032E+03    0.28000E-02   -0.34770E-01    96   0.174E+00    0.271E-01
DAV:   2    -0.106121934015E+03   -0.28790E-02   -0.29254E-02   132   0.573E-01    0.187E-01
DAV:   3    -0.106121756400E+03    0.17762E-03   -0.66718E-04   144   0.109E-01    0.987E-02
DAV:   4    -0.106121768080E+03   -0.11680E-04   -0.50936E-04   120   0.821E-02    0.185E-02
DAV:   5    -0.106121753467E+03    0.14613E-04   -0.11155E-04   132   0.377E-02    0.129E-02
DAV:   6    -0.106121758019E+03   -0.45527E-05   -0.14914E-05   132   0.106E-02    0.792E-03
DAV:   7    -0.106121778227E+03   -0.20208E-04   -0.14712E-06   132   0.345E-03    0.378E-03
DAV:   8    -0.106121805560E+03   -0.27333E-04   -0.44203E-06   132   0.616E-03    0.196E-03
DAV:   9    -0.106121821090E+03   -0.15529E-04   -0.14746E-06   132   0.331E-03    0.170E-03
DAV:  10    -0.106121844778E+03   -0.23688E-04   -0.20218E-06   120   0.298E-03    0.745E-04
DAV:  11    -0.106121849902E+03   -0.51241E-05   -0.16455E-07   120   0.118E-03    0.463E-04
DAV:  12    -0.106121858084E+03   -0.81821E-05   -0.26117E-07    96   0.112E-03    0.227E-04
DAV:  13    -0.106121861279E+03   -0.31946E-05   -0.10188E-07   108   0.638E-04    0.201E-04
DAV:  14    -0.106121863861E+03   -0.25820E-05   -0.34865E-08    96   0.497E-04    0.142E-04
DAV:  15    -0.106121864782E+03   -0.92176E-06   -0.14505E-08   108   0.315E-04
  11 F= -.10612186E+03 E0= -.10612186E+03  d E =-.852610E-10
 Finite differences progress:
  Degree of freedom:   5/ 78
  Displacement:        2/  2
  Total:              10/156
 bond charge predicted
       N       E                     dE             d eps       ncg     rms          rms(c)
DAV:   1    -0.106121946836E+03   -0.82976E-04   -0.17145E-01    96   0.126E+00    0.183E-01
DAV:   2    -0.106123271324E+03   -0.13245E-02   -0.13578E-02   132   0.395E-01    0.125E-01
DAV:   3    -0.106123195757E+03    0.75566E-04   -0.30791E-04   132   0.737E-02    0.691E-02
DAV:   4    -0.106123197215E+03   -0.14579E-05   -0.22031E-04   120   0.563E-02    0.125E-02
DAV:   5    -0.106123191667E+03    0.55480E-05   -0.54041E-05   132   0.264E-02    0.970E-03
DAV:   6    -0.106123192273E+03   -0.60560E-06   -0.80842E-06   132   0.814E-03
  12 F= -.10612319E+03 E0= -.10612319E+03  d E =-.902736E-10
 Finite differences progress:
  Degree of freedom:   6/ 78
  Displacement:        1/  2
  Total:              11/156
 bond charge predicted
       N       E                     dE             d eps       ncg     rms          rms(c)
DAV:   1    -0.106121686338E+03    0.15053E-02   -0.33725E-01    96   0.171E+00    0.265E-01
DAV:   2    -0.106123332658E+03   -0.16463E-02   -0.17328E-02   132   0.449E-01    0.133E-01
DAV:   3    -0.106123298805E+03    0.33853E-04   -0.58570E-04   132   0.917E-02    0.706E-02
DAV:   4    -0.106123327460E+03   -0.28655E-04   -0.19294E-04   120   0.549E-02    0.166E-02
DAV:   5    -0.106123323290E+03    0.41703E-05   -0.43915E-05   144   0.254E-02    0.112E-02
DAV:   6    -0.106123323381E+03   -0.91377E-07   -0.65820E-06   132   0.841E-03
  13 F= -.10612332E+03 E0= -.10612332E+03  d E =-.451434E-11
 Finite differences progress:
  Degree of freedom:   6/ 78
  Displacement:        2/  2
  Total:              12/156
 bond charge predicted
       N       E                     dE             d eps       ncg     rms          rms(c)
DAV:   1    -0.106120884468E+03    0.24388E-02   -0.17043E-01    96   0.129E+00    0.195E-01
DAV:   2    -0.106122191140E+03   -0.13067E-02   -0.13583E-02   132   0.402E-01    0.115E-01
DAV:   3    -0.106122135198E+03    0.55942E-04   -0.38600E-04   132   0.794E-02    0.663E-02
DAV:   4    -0.106122146113E+03   -0.10915E-04   -0.18641E-04   132   0.548E-02    0.134E-02
DAV:   5    -0.106122142946E+03    0.31672E-05   -0.50251E-05   132   0.259E-02    0.105E-02
DAV:   6    -0.106122140723E+03    0.22230E-05   -0.56203E-06   132   0.809E-03    0.754E-03
DAV:   7    -0.106122144632E+03   -0.39092E-05   -0.16605E-06   132   0.490E-03    0.278E-03
DAV:   8    -0.106122151123E+03   -0.64907E-05   -0.54751E-07   108   0.330E-03    0.792E-04
DAV:   9    -0.106122158867E+03   -0.77436E-05   -0.54096E-07   108   0.237E-03    0.999E-04
DAV:  10    -0.106122169650E+03   -0.10783E-04   -0.61196E-07   108   0.199E-03    0.365E-04
DAV:  11    -0.106122171999E+03   -0.23492E-05   -0.10723E-07   108   0.943E-04    0.322E-04
DAV:  12    -0.106122175243E+03   -0.32444E-05   -0.75049E-08    96   0.701E-04    0.181E-04
DAV:  13    -0.106122178059E+03   -0.28161E-05   -0.91612E-08    96   0.635E-04    0.137E-04
DAV:  14    -0.106122179556E+03   -0.14970E-05   -0.26351E-08   108   0.371E-04    0.101E-04
DAV:  15    -0.106122180361E+03   -0.80427E-06   -0.61714E-09    96   0.249E-04
  14 F= -.10612218E+03 E0= -.10612218E+03  d E =-.480384E-11
 Finite differences progress:
  Degree of freedom:   7/ 78
  Displacement:        1/  2
  Total:              13/156
 bond charge predicted
       N       E                     dE             d eps       ncg     rms          rms(c)
DAV:   1    -0.106119606970E+03    0.25726E-02   -0.34607E-01    96   0.173E+00    0.266E-01
DAV:   2    -0.106122223845E+03   -0.26169E-02   -0.26743E-02   132   0.548E-01    0.176E-01
DAV:   3    -0.106122088801E+03    0.13504E-03   -0.66296E-04   144   0.105E-01    0.952E-02
DAV:   4    -0.106122089992E+03   -0.11906E-05   -0.40197E-04   120   0.745E-02    0.181E-02
DAV:   5    -0.106122080483E+03    0.95086E-05   -0.91269E-05   132   0.342E-02    0.127E-02
DAV:   6    -0.106122085343E+03   -0.48603E-05   -0.13438E-05   132   0.103E-02    0.854E-03
DAV:   7    -0.106122107124E+03   -0.21781E-04   -0.18269E-06   108   0.455E-03    0.352E-03
DAV:   8    -0.106122133471E+03   -0.26347E-04   -0.31001E-06   120   0.521E-03    0.139E-03
DAV:   9    -0.106122155006E+03   -0.21535E-04   -0.21555E-06    96   0.383E-03    0.161E-03
DAV:  10    -0.106122174185E+03   -0.19179E-04   -0.16248E-06   108   0.299E-03    0.674E-04
DAV:  11    -0.106122178827E+03   -0.46423E-05   -0.16776E-07   120   0.125E-03    0.488E-04
DAV:  12    -0.106122185041E+03   -0.62137E-05   -0.23239E-07    96   0.111E-03    0.187E-04
DAV:  13    -0.106122187982E+03   -0.29414E-05   -0.12167E-07   108   0.755E-04    0.248E-04
DAV:  14    -0.106122190170E+03   -0.21877E-05   -0.46912E-08   108   0.537E-04    0.127E-04
DAV:  15    -0.106122190671E+03   -0.50120E-06   -0.53130E-09   120   0.273E-04
  15 F= -.10612219E+03 E0= -.10612219E+03  d E =-.838115E-10
 Finite differences progress:
  Degree of freedom:   7/ 78
  Displacement:        2/  2
  Total:              14/156
 bond charge predicted
       N       E                     dE             d eps       ncg     rms          rms(c)
DAV:   1    -0.106121453240E+03    0.73693E-03   -0.17374E-01    96   0.123E+00    0.193E-01
DAV:   2    -0.106122773827E+03   -0.13206E-02   -0.13540E-02   132   0.391E-01    0.128E-01
DAV:   3    -0.106122698737E+03    0.75090E-04   -0.33527E-04   156   0.770E-02    0.649E-02
DAV:   4    -0.106122704019E+03   -0.52821E-05   -0.22282E-04   120   0.530E-02    0.126E-02
DAV:   5    -0.106122695592E+03    0.84271E-05   -0.39469E-05   132   0.222E-02    0.821E-03
DAV:   6    -0.106122698465E+03   -0.28734E-05   -0.71818E-06   144   0.712E-03    0.478E-03
DAV:   7    -0.106122710053E+03   -0.11588E-04   -0.59637E-07    96   0.234E-03    0.216E-03
DAV:   8    -0.106122726365E+03   -0.16312E-04   -0.23664E-06   120   0.406E-03    0.132E-03
DAV:   9    -0.106122736788E+03   -0.10423E-04   -0.72141E-07   120   0.229E-03    0.105E-03
DAV:  10    -0.106122749270E+03   -0.12482E-04   -0.93344E-07   108   0.202E-03    0.419E-04
DAV:  11    -0.106122752341E+03   -0.30704E-05   -0.84956E-08   108   0.835E-04    0.279E-04
DAV:  12    -0.106122756577E+03   -0.42367E-05   -0.12680E-07    96   0.777E-04    0.111E-04
DAV:  13    -0.106122758187E+03   -0.16101E-05   -0.39245E-08   108   0.440E-04    0.131E-04
DAV:  14    -0.106122759483E+03   -0.12955E-05   -0.11489E-08    96   0.323E-04    0.802E-05
DAV:  15    -0.106122760001E+03   -0.51780E-06   -0.36909E-09   108   0.222E-04
  16 F= -.10612276E+03 E0= -.10612276E+03  d E =-.463856E-11
 Finite differences progress:
  Degree of freedom:   8/ 78
  Displacement:        1/  2
  Total:              15/156
 bond charge predicted
       N       E                     dE             d eps       ncg     rms          rms(c)
DAV:   1    -0.106120672877E+03    0.20866E-02   -0.34234E-01    96   0.172E+00    0.264E-01
DAV:   2    -0.106122703641E+03   -0.20308E-02   -0.21135E-02   132   0.499E-01    0.154E-01
DAV:   3    -0.106122607555E+03    0.96086E-04   -0.59044E-04   132   0.970E-02    0.796E-02
DAV:   4    -0.106122615765E+03   -0.82095E-05   -0.30008E-04   120   0.640E-02    0.169E-02
DAV:   5    -0.106122603938E+03    0.11827E-04   -0.58114E-05   132   0.283E-02    0.116E-02
DAV:   6    -0.106122604484E+03   -0.54561E-06   -0.11617E-05   132   0.100E-02    0.727E-03
DAV:   7    -0.106122614013E+03   -0.95287E-05   -0.10916E-06   120   0.441E-03    0.302E-03
DAV:   8    -0.106122628789E+03   -0.14777E-04   -0.20865E-06   132   0.503E-03    0.149E-03
DAV:   9    -0.106122641709E+03   -0.12920E-04   -0.89201E-07   120   0.294E-03    0.127E-03
DAV:  10    -0.106122658434E+03   -0.16724E-04   -0.84699E-07   108   0.232E-03    0.638E-04
DAV:  11    -0.106122664262E+03   -0.58283E-05   -0.19158E-07   108   0.128E-03    0.532E-04
DAV:  12    -0.106122670813E+03   -0.65512E-05   -0.13623E-07    96   0.935E-04    0.265E-04
DAV:  13    -0.106122675483E+03   -0.46691E-05   -0.13464E-07   108   0.777E-04    0.255E-04
DAV:  14    -0.106122677719E+03   -0.22368E-05   -0.27056E-08   108   0.440E-04    0.133E-04
DAV:  15    -0.106122679144E+03   -0.14246E-05   -0.20091E-08    96   0.340E-04    0.581E-05
DAV:  16    -0.106122679681E+03   -0.53672E-06    0.13855E-09   108   0.185E-04
  17 F= -.10612268E+03 E0= -.10612268E+03  d E =-.915152E-10
 Finite differences progress:
  Degree of freedom:   8/ 78
  Displacement:        2/  2
  Total:              16/156
 bond charge predicted
       N       E                     dE             d eps       ncg     rms          rms(c)
DAV:   1    -0.106121791855E+03    0.88729E-03   -0.17304E-01    96   0.124E+00    0.182E-01
DAV:   2    -0.106122901372E+03   -0.11095E-02   -0.11521E-02   120   0.364E-01    0.117E-01
DAV:   3    -0.106122849659E+03    0.51713E-04   -0.29254E-04   132   0.668E-02    0.638E-02
DAV:   4    -0.106122834245E+03    0.15413E-04   -0.13625E-04   120   0.423E-02    0.112E-02
DAV:   5    -0.106122829947E+03    0.42983E-05   -0.22755E-05   132   0.170E-02    0.816E-03
DAV:   6    -0.106122834283E+03   -0.43361E-05   -0.62455E-06   132   0.808E-03    0.474E-03
DAV:   7    -0.106122850974E+03   -0.16692E-04   -0.23318E-06   120   0.554E-03    0.163E-03
DAV:   8    -0.106122867701E+03   -0.16727E-04   -0.12222E-06   120   0.364E-03    0.103E-03
DAV:   9    -0.106122884553E+03   -0.16852E-04   -0.13308E-06   108   0.288E-03    0.909E-04
DAV:  10    -0.106122898368E+03   -0.13815E-04   -0.12163E-06   120   0.227E-03    0.373E-04
DAV:  11    -0.106122902248E+03   -0.38800E-05   -0.12824E-07   120   0.977E-04    0.251E-04
DAV:  12    -0.106122907249E+03   -0.50011E-05   -0.33632E-07    96   0.115E-03    0.166E-04
DAV:  13    -0.106122907993E+03   -0.74378E-06   -0.26147E-08   120   0.426E-04
  18 F= -.10612291E+03 E0= -.10612291E+03  d E =-.893775E-10
 Finite differences progress:
  Degree of freedom:   9/ 78
  Displacement:        1/  2
  Total:              17/156
 bond charge predicted
       N       E                     dE             d eps       ncg     rms          rms(c)
DAV:   1    -0.106121246503E+03    0.16607E-02   -0.33732E-01    96   0.173E+00    0.255E-01
DAV:   2    -0.106123030344E+03   -0.17838E-02   -0.18818E-02   132   0.478E-01    0.145E-01
DAV:   3    -0.106122961970E+03    0.68373E-04   -0.57155E-04   132   0.916E-02    0.751E-02
DAV:   4    -0.106122959176E+03    0.27945E-05   -0.19819E-04   120   0.536E-02    0.165E-02
DAV:   5    -0.106122948224E+03    0.10952E-04   -0.37317E-05   144   0.236E-02    0.102E-02
DAV:   6    -0.106122950459E+03   -0.22353E-05   -0.71979E-06   132   0.896E-03    0.642E-03
DAV:   7    -0.106122964503E+03   -0.14043E-04   -0.17708E-06   132   0.649E-03    0.165E-03
DAV:   8    -0.106122976623E+03   -0.12120E-04   -0.19781E-06   132   0.506E-03    0.187E-03
DAV:   9    -0.106122984631E+03   -0.80081E-05   -0.31672E-07   108   0.215E-03    0.138E-03
DAV:  10    -0.106123003569E+03   -0.18938E-04   -0.91150E-07   120   0.222E-03    0.500E-04
DAV:  11    -0.106123013879E+03   -0.10310E-04   -0.55742E-07   108   0.188E-03    0.692E-04
DAV:  12    -0.106123022400E+03   -0.85211E-05   -0.32585E-07    96   0.156E-03    0.475E-04
DAV:  13    -0.106123026079E+03   -0.36790E-05   -0.11172E-07   108   0.908E-04    0.500E-04
DAV:  14    -0.106123027666E+03   -0.15872E-05   -0.19309E-08   108   0.494E-04    0.229E-04
DAV:  15    -0.106123029804E+03   -0.21375E-05   -0.43093E-08    96   0.537E-04    0.193E-04
DAV:  16    -0.106123030355E+03   -0.55151E-06   -0.12821E-09   108   0.271E-04
  19 F= -.10612303E+03 E0= -.10612303E+03  d E =-.449525E-11
 Finite differences progress:
  Degree of freedom:   9/ 78
  Displacement:        2/  2
  Total:              18/156
 bond charge predicted
       N       E                     dE             d eps       ncg     rms          rms(c)
DAV:   1    -0.106120750689E+03    0.22791E-02   -0.17338E-01    96   0.132E+00    0.187E-01
DAV:   2    -0.106122103814E+03   -0.13531E-02   -0.13810E-02   132   0.427E-01    0.118E-01
DAV:   3    -0.106122049906E+03    0.53908E-04   -0.32366E-04   156   0.739E-02    0.698E-02
DAV:   4    -0.106122040040E+03    0.98668E-05   -0.17582E-04   132   0.530E-02    0.117E-02
DAV:   5    -0.106122035903E+03    0.41365E-05   -0.47645E-05   144   0.253E-02    0.950E-03
DAV:   6    -0.106122036005E+03   -0.10185E-06   -0.53638E-06   120   0.818E-03
  20 F= -.10612204E+03 E0= -.10612204E+03  d E =-.729613E-10
 Finite differences progress:
  Degree of freedom:  10/ 78
  Displacement:        1/  2
  Total:              19/156
 bond charge predicted
       N       E                     dE             d eps       ncg     rms          rms(c)
DAV:   1    -0.106119641007E+03    0.23949E-02   -0.35937E-01    96   0.181E+00    0.272E-01
DAV:   2    -0.106121969965E+03   -0.23290E-02   -0.23593E-02   132   0.554E-01    0.173E-01
DAV:   3    -0.106121881775E+03    0.88190E-04   -0.60059E-04   132   0.106E-01    0.881E-02
DAV:   4    -0.106121906328E+03   -0.24553E-04   -0.37703E-04   132   0.720E-02    0.176E-02
DAV:   5    -0.106121893650E+03    0.12678E-04   -0.61895E-05   132   0.291E-02    0.111E-02
DAV:   6    -0.106121897821E+03   -0.41706E-05   -0.12804E-05   144   0.101E-02    0.636E-03
DAV:   7    -0.106121914210E+03   -0.16389E-04   -0.12561E-06   108   0.376E-03    0.256E-03
DAV:   8    -0.106121933765E+03   -0.19556E-04   -0.21705E-06   108   0.426E-03    0.114E-03
DAV:   9    -0.106121951662E+03   -0.17897E-04   -0.17421E-06   108   0.331E-03    0.123E-03
DAV:  10    -0.106121966636E+03   -0.14974E-04   -0.11789E-06   108   0.259E-03    0.448E-04
DAV:  11    -0.106121970238E+03   -0.36012E-05   -0.20441E-07   108   0.114E-03    0.299E-04
DAV:  12    -0.106121975136E+03   -0.48988E-05   -0.19064E-07    96   0.989E-04    0.153E-04
DAV:  13    -0.106121977612E+03   -0.24757E-05   -0.12492E-07   108   0.719E-04    0.194E-04
DAV:  14    -0.106121979217E+03   -0.16046E-05   -0.33776E-08    96   0.436E-04    0.712E-05
DAV:  15    -0.106121979646E+03   -0.42929E-06   -0.12390E-09   120   0.230E-04
  21 F= -.10612198E+03 E0= -.10612198E+03  d E =-.653364E-11
 Finite differences progress:
  Degree of freedom:  10/ 78
  Displacement:        2/  2
  Total:              20/156
 bond charge predicted
       N       E                     dE             d eps       ncg     rms          rms(c)
DAV:   1    -0.106121489442E+03    0.48977E-03   -0.17353E-01    96   0.128E+00    0.185E-01
DAV:   2    -0.106122458109E+03   -0.96867E-03   -0.10060E-02   132   0.343E-01    0.107E-01
DAV:   3    -0.106122417696E+03    0.40413E-04   -0.24695E-04   132   0.616E-02    0.575E-02
DAV:   4    -0.106122413307E+03    0.43889E-05   -0.11686E-04   120   0.403E-02    0.113E-02
DAV:   5    -0.106122406655E+03    0.66526E-05   -0.22925E-05   144   0.178E-02    0.745E-03
DAV:   6    -0.106122406776E+03   -0.12080E-06   -0.42270E-06   132   0.674E-03
  22 F= -.10612241E+03 E0= -.10612241E+03  d E =-.473020E-11
 Finite differences progress:
  Degree of freedom:  11/ 78
  Displacement:        1/  2
  Total:              21/156
 bond charge predicted
       N       E                     dE             d eps       ncg     rms          rms(c)
DAV:   1    -0.106120365685E+03    0.20410E-02   -0.35317E-01    96   0.174E+00    0.267E-01
DAV:   2    -0.106122397909E+03   -0.20322E-02   -0.20690E-02   132   0.489E-01    0.158E-01
DAV:   3    -0.106122345519E+03    0.52389E-04   -0.51862E-04   120   0.882E-02    0.885E-02
DAV:   4    -0.106122334824E+03    0.10696E-04   -0.24465E-04   132   0.573E-02    0.167E-02
DAV:   5    -0.106122327030E+03    0.77939E-05   -0.46265E-05   132   0.244E-02    0.112E-02
DAV:   6    -0.106122332171E+03   -0.51409E-05   -0.10536E-05   132   0.102E-02    0.661E-03
DAV:   7    -0.106122353839E+03   -0.21668E-04   -0.32401E-06   120   0.641E-03    0.234E-03
DAV:   8    -0.106122375528E+03   -0.21689E-04   -0.17561E-06   108   0.425E-03    0.119E-03
DAV:   9    -0.106122398246E+03   -0.22718E-04   -0.21254E-06   108   0.366E-03    0.113E-03
DAV:  10    -0.106122416451E+03   -0.18204E-04   -0.17275E-06   120   0.286E-03    0.520E-04
DAV:  11    -0.106122422993E+03   -0.65420E-05   -0.27256E-07   108   0.133E-03    0.251E-04
DAV:  12    -0.106122428682E+03   -0.56892E-05   -0.35576E-07    96   0.120E-03    0.201E-04
DAV:  13    -0.106122430097E+03   -0.14155E-05   -0.40550E-08   120   0.508E-04    0.153E-04
DAV:  14    -0.106122431252E+03   -0.11549E-05   -0.19337E-08    96   0.392E-04    0.696E-05
DAV:  15    -0.106122431763E+03   -0.51026E-06   -0.43124E-09   108   0.244E-04
  23 F= -.10612243E+03 E0= -.10612243E+03  d E =-.529308E-11
 Finite differences progress:
  Degree of freedom:  11/ 78
  Displacement:        2/  2
  Total:              22/156
 bond charge predicted
       N       E                     dE             d eps       ncg     rms          rms(c)
DAV:   1    -0.106122627917E+03   -0.19666E-03   -0.17288E-01    96   0.120E+00    0.176E-01
DAV:   2    -0.106123501978E+03   -0.87406E-03   -0.90811E-03   120   0.317E-01    0.945E-02
DAV:   3    -0.106123481181E+03    0.20796E-04   -0.28536E-04   144   0.659E-02    0.495E-02
DAV:   4    -0.106123488865E+03   -0.76836E-05   -0.10838E-04   132   0.412E-02    0.107E-02
DAV:   5    -0.106123485703E+03    0.31614E-05   -0.26276E-05   132   0.191E-02    0.819E-03
DAV:   6    -0.106123485448E+03    0.25514E-06   -0.39650E-06   132   0.629E-03
  24 F= -.10612349E+03 E0= -.10612349E+03  d E =-.531407E-10
 Finite differences progress:
  Degree of freedom:  12/ 78
  Displacement:        1/  2
  Total:              23/156
 bond charge predicted
       N       E                     dE             d eps       ncg     rms          rms(c)
DAV:   1    -0.106121577340E+03    0.19084E-02   -0.34376E-01    96   0.161E+00    0.215E-01
DAV:   2    -0.106123286694E+03   -0.17094E-02   -0.17483E-02   120   0.428E-01    0.127E-01
DAV:   3    -0.106123282408E+03    0.42854E-05   -0.53466E-04   144   0.874E-02    0.679E-02
DAV:   4    -0.106123299822E+03   -0.17414E-04   -0.15803E-04   120   0.513E-02    0.131E-02
DAV:   5    -0.106123296134E+03    0.36881E-05   -0.40081E-05   132   0.238E-02    0.101E-02
DAV:   6    -0.106123297268E+03   -0.11344E-05   -0.63356E-06   156   0.805E-03    0.677E-03
DAV:   7    -0.106123304779E+03   -0.75113E-05   -0.10589E-06   108   0.480E-03    0.247E-03
DAV:   8    -0.106123314311E+03   -0.95315E-05   -0.16708E-06   120   0.486E-03    0.146E-03
DAV:   9    -0.106123327616E+03   -0.13306E-04   -0.85545E-07   108   0.334E-03    0.820E-04
DAV:  10    -0.106123336238E+03   -0.86215E-05   -0.51075E-07   108   0.210E-03    0.720E-04
DAV:  11    -0.106123341101E+03   -0.48626E-05   -0.15967E-07   108   0.121E-03    0.527E-04
DAV:  12    -0.106123346985E+03   -0.58847E-05   -0.16294E-07   108   0.933E-04    0.188E-04
DAV:  13    -0.106123349170E+03   -0.21850E-05   -0.40938E-08   108   0.493E-04    0.184E-04
DAV:  14    -0.106123351901E+03   -0.27310E-05   -0.51389E-08    96   0.484E-04    0.698E-05
DAV:  15    -0.106123352586E+03   -0.68486E-06   -0.72591E-09   108   0.252E-04
  25 F= -.10612335E+03 E0= -.10612335E+03  d E =-.123576E-10
 Finite differences progress:
  Degree of freedom:  12/ 78
  Displacement:        2/  2
  Total:              24/156
 bond charge predicted
       N       E                     dE             d eps       ncg     rms          rms(c)
DAV:   1    -0.106121293891E+03    0.20580E-02   -0.16693E-01    96   0.127E+00    0.168E-01
DAV:   2    -0.106122527982E+03   -0.12341E-02   -0.12899E-02   132   0.391E-01    0.107E-01
DAV:   3    -0.106122471035E+03    0.56947E-04   -0.34580E-04   144   0.732E-02    0.606E-02
DAV:   4    -0.106122461369E+03    0.96658E-05   -0.15328E-04   132   0.471E-02    0.119E-02
DAV:   5    -0.106122454693E+03    0.66766E-05   -0.33740E-05   144   0.216E-02    0.863E-03
DAV:   6    -0.106122455188E+03   -0.49560E-06   -0.47767E-06   156   0.739E-03
  26 F= -.10612246E+03 E0= -.10612246E+03  d E =-.872916E-10
 Finite differences progress:
  Degree of freedom:  13/ 78
  Displacement:        1/  2
  Total:              25/156
 bond charge predicted
       N       E                     dE             d eps       ncg     rms          rms(c)
DAV:   1    -0.106120407736E+03    0.20470E-02   -0.33951E-01    96   0.170E+00    0.271E-01
DAV:   2    -0.106122623487E+03   -0.22158E-02   -0.24080E-02   132   0.509E-01    0.164E-01
DAV:   3    -0.106122471506E+03    0.15198E-03   -0.73712E-04   132   0.108E-01    0.837E-02
DAV:   4    -0.106122495225E+03   -0.23719E-04   -0.40353E-04   132   0.690E-02    0.180E-02
DAV:   5    -0.106122485939E+03    0.92858E-05   -0.52240E-05   144   0.262E-02    0.119E-02
DAV:   6    -0.106122485381E+03    0.55817E-06   -0.92409E-06   144   0.878E-03
  27 F= -.10612249E+03 E0= -.10612249E+03  d E =-.675900E-10
 Finite differences progress:
  Degree of freedom:  13/ 78
  Displacement:        2/  2
  Total:              26/156
 bond charge predicted
       N       E                     dE             d eps       ncg     rms          rms(c)
DAV:   1    -0.106122597273E+03   -0.11133E-03   -0.17130E-01    96   0.120E+00    0.194E-01
DAV:   2    -0.106123602360E+03   -0.10051E-02   -0.10972E-02   132   0.363E-01    0.108E-01
DAV:   3    -0.106123546780E+03    0.55580E-04   -0.36120E-04   132   0.769E-02    0.575E-02
DAV:   4    -0.106123570856E+03   -0.24076E-04   -0.17233E-04   132   0.475E-02    0.148E-02
DAV:   5    -0.106123568824E+03    0.20323E-05   -0.22465E-05   120   0.177E-02    0.863E-03
DAV:   6    -0.106123567628E+03    0.11954E-05   -0.39933E-06   132   0.651E-03    0.544E-03
DAV:   7    -0.106123569190E+03   -0.15613E-05   -0.50382E-07    96   0.294E-03    0.131E-03
DAV:   8    -0.106123570948E+03   -0.17580E-05   -0.27465E-07   108   0.205E-03    0.628E-04
DAV:   9    -0.106123573695E+03   -0.27468E-05   -0.17452E-07   108   0.144E-03    0.509E-04
DAV:  10    -0.106123578080E+03   -0.43856E-05   -0.31373E-07   108   0.144E-03    0.455E-04
DAV:  11    -0.106123578920E+03   -0.83972E-06   -0.50829E-08   108   0.743E-04
  28 F= -.10612358E+03 E0= -.10612358E+03  d E =-.789123E-10
 Finite differences progress:
  Degree of freedom:  14/ 78
  Displacement:        1/  2
  Total:              27/156
 bond charge predicted
       N       E                     dE             d eps       ncg     rms          rms(c)
DAV:   1    -0.106122253145E+03    0.13249E-02   -0.34274E-01    96   0.171E+00    0.269E-01
DAV:   2    -0.106123645725E+03   -0.13926E-02   -0.16069E-02   132   0.440E-01    0.116E-01
DAV:   3    -0.106123573637E+03    0.72088E-04   -0.64142E-04   144   0.938E-02    0.608E-02
DAV:   4    -0.106123586099E+03   -0.12462E-04   -0.16478E-04   132   0.465E-02    0.184E-02
DAV:   5    -0.106123583392E+03    0.27068E-05   -0.26777E-05   144   0.203E-02    0.103E-02
DAV:   6    -0.106123583921E+03   -0.52922E-06   -0.59468E-06   144   0.844E-03
  29 F= -.10612358E+03 E0= -.10612358E+03  d E =-.536907E-11
 Finite differences progress:
  Degree of freedom:  14/ 78
  Displacement:        2/  2
  Total:              28/156
 bond charge predicted
       N       E                     dE             d eps       ncg     rms          rms(c)
DAV:   1    -0.106122787007E+03    0.79639E-03   -0.17196E-01    96   0.121E+00    0.189E-01
DAV:   2    -0.106123471802E+03   -0.68480E-03   -0.78891E-03   132   0.306E-01    0.828E-02
DAV:   3    -0.106123439914E+03    0.31888E-04   -0.31418E-04   144   0.648E-02    0.445E-02
DAV:   4    -0.106123452977E+03   -0.13063E-04   -0.84991E-05   132   0.328E-02    0.138E-02
DAV:   5    -0.106123453895E+03   -0.91785E-06   -0.13650E-05   132   0.141E-02    0.731E-03
DAV:   6    -0.106123454865E+03   -0.97003E-06   -0.28186E-06   144   0.587E-03
  30 F= -.10612345E+03 E0= -.10612345E+03  d E =-.731721E-10
 Finite differences progress:
  Degree of freedom:  15/ 78
  Displacement:        1/  2
  Total:              29/156
 bond charge predicted
       N       E                     dE             d eps       ncg     rms          rms(c)
DAV:   1    -0.106121860844E+03    0.15931E-02   -0.34532E-01    96   0.171E+00    0.270E-01
DAV:   2    -0.106123349903E+03   -0.14891E-02   -0.17100E-02   132   0.460E-01    0.128E-01
DAV:   3    -0.106123274897E+03    0.75007E-04   -0.63552E-04   132   0.957E-02    0.705E-02
DAV:   4    -0.106123290233E+03   -0.15336E-04   -0.19213E-04   132   0.507E-02    0.206E-02
DAV:   5    -0.106123285413E+03    0.48196E-05   -0.27803E-05   144   0.202E-02    0.102E-02
DAV:   6    -0.106123284981E+03    0.43180E-06   -0.55128E-06   144   0.821E-03
  31 F= -.10612328E+03 E0= -.10612328E+03  d E =-.537481E-11
 Finite differences progress:
  Degree of freedom:  15/ 78
  Displacement:        2/  2
  Total:              30/156
 bond charge predicted
       N       E                     dE             d eps       ncg     rms          rms(c)
DAV:   1    -0.106122252262E+03    0.10332E-02   -0.16744E-01    96   0.124E+00    0.192E-01
DAV:   2    -0.106123318837E+03   -0.10666E-02   -0.11734E-02   132   0.364E-01    0.958E-02
DAV:   3    -0.106123257733E+03    0.61104E-04   -0.43012E-04   144   0.785E-02    0.526E-02
DAV:   4    -0.106123268058E+03   -0.10325E-04   -0.14203E-04   132   0.435E-02    0.142E-02
DAV:   5    -0.106123268342E+03   -0.28370E-06   -0.24344E-05   132   0.185E-02    0.878E-03
DAV:   6    -0.106123268633E+03   -0.29162E-06   -0.36295E-06   144   0.666E-03
  32 F= -.10612327E+03 E0= -.10612327E+03  d E =-.651581E-10
 Finite differences progress:
  Degree of freedom:  16/ 78
  Displacement:        1/  2
  Total:              31/156
 bond charge predicted
       N       E                     dE             d eps       ncg     rms          rms(c)
DAV:   1    -0.106121527161E+03    0.17412E-02   -0.34395E-01    96   0.172E+00    0.269E-01
DAV:   2    -0.106123216684E+03   -0.16895E-02   -0.18921E-02   132   0.473E-01    0.136E-01
DAV:   3    -0.106123121407E+03    0.95277E-04   -0.66114E-04   132   0.989E-02    0.733E-02
DAV:   4    -0.106123135758E+03   -0.14351E-04   -0.24219E-04   132   0.555E-02    0.197E-02
DAV:   5    -0.106123129050E+03    0.67073E-05   -0.34734E-05   144   0.220E-02    0.106E-02
DAV:   6    -0.106123128799E+03    0.25148E-06   -0.63836E-06   156   0.837E-03
  33 F= -.10612313E+03 E0= -.10612313E+03  d E =-.571861E-11
 Finite differences progress:
  Degree of freedom:  16/ 78
  Displacement:        2/  2
  Total:              32/156
 bond charge predicted
       N       E                     dE             d eps       ncg     rms          rms(c)
DAV:   1    -0.106121935299E+03    0.11938E-02   -0.17147E-01    96   0.121E+00    0.193E-01
DAV:   2    -0.106122612683E+03   -0.67738E-03   -0.79051E-03   132   0.307E-01    0.834E-02
DAV:   3    -0.106122579865E+03    0.32818E-04   -0.32282E-04   144   0.659E-02    0.441E-02
DAV:   4    -0.106122592718E+03   -0.12853E-04   -0.83926E-05   144   0.321E-02    0.144E-02
DAV:   5    -0.106122594390E+03   -0.16722E-05   -0.12030E-05   132   0.134E-02    0.704E-03
DAV:   6    -0.106122596549E+03   -0.21589E-05   -0.29643E-06   144   0.592E-03    0.382E-03
DAV:   7    -0.106122600511E+03   -0.39620E-05   -0.41402E-07   108   0.230E-03    0.873E-04
DAV:   8    -0.106122603403E+03   -0.28925E-05   -0.20011E-07   108   0.164E-03    0.570E-04
DAV:   9    -0.106122608336E+03   -0.49327E-05   -0.27683E-07    96   0.172E-03    0.292E-04
DAV:  10    -0.106122611210E+03   -0.28742E-05   -0.21778E-07   108   0.124E-03    0.288E-04
DAV:  11    -0.106122612382E+03   -0.11714E-05   -0.34575E-08   108   0.655E-04    0.168E-04
DAV:  12    -0.106122613763E+03   -0.13810E-05   -0.37032E-08    96   0.477E-04    0.763E-05
DAV:  13    -0.106122614521E+03   -0.75799E-06   -0.12303E-08   108   0.297E-04
  34 F= -.10612261E+03 E0= -.10612261E+03  d E =-.516015E-11
 Finite differences progress:
  Degree of freedom:  17/ 78
  Displacement:        1/  2
  Total:              33/156
 bond charge predicted
       N       E                     dE             d eps       ncg     rms          rms(c)
DAV:   1    -0.106120600332E+03    0.20134E-02   -0.33713E-01    96   0.168E+00    0.271E-01
DAV:   2    -0.106122779741E+03   -0.21794E-02   -0.23785E-02   132   0.502E-01    0.160E-01
DAV:   3    -0.106122610323E+03    0.16942E-03   -0.70667E-04   132   0.105E-01    0.835E-02
DAV:   4    -0.106122614510E+03   -0.41878E-05   -0.38018E-04   120   0.666E-02    0.183E-02
DAV:   5    -0.106122605878E+03    0.86328E-05   -0.55213E-05   132   0.265E-02    0.122E-02
DAV:   6    -0.106122606617E+03   -0.73895E-06   -0.92456E-06   144   0.885E-03
  35 F= -.10612261E+03 E0= -.10612261E+03  d E =-.826536E-10
 Finite differences progress:
  Degree of freedom:  17/ 78
  Displacement:        2/  2
  Total:              34/156
 bond charge predicted
       N       E                     dE             d eps       ncg     rms          rms(c)
DAV:   1    -0.106122815808E+03   -0.20993E-03   -0.17083E-01    96   0.120E+00    0.192E-01
DAV:   2    -0.106123682588E+03   -0.86678E-03   -0.95448E-03   132   0.346E-01    0.963E-02
DAV:   3    -0.106123643801E+03    0.38787E-04   -0.34001E-04   132   0.727E-02    0.509E-02
DAV:   4    -0.106123672802E+03   -0.29001E-04   -0.13616E-04   132   0.423E-02    0.140E-02
DAV:   5    -0.106123677101E+03   -0.42984E-05   -0.18981E-05   132   0.166E-02    0.835E-03
DAV:   6    -0.106123679020E+03   -0.19190E-05   -0.35296E-06   132   0.643E-03    0.506E-03
DAV:   7    -0.106123682017E+03   -0.29970E-05   -0.45292E-07    96   0.276E-03    0.123E-03
DAV:   8    -0.106123683689E+03   -0.16722E-05   -0.21028E-07   108   0.193E-03    0.528E-04
DAV:   9    -0.106123685756E+03   -0.20669E-05   -0.12879E-07   108   0.144E-03    0.396E-04
DAV:  10    -0.106123688113E+03   -0.23573E-05   -0.14532E-07    96   0.127E-03    0.371E-04
DAV:  11    -0.106123688603E+03   -0.48938E-06   -0.34043E-08   120   0.704E-04
  36 F= -.10612369E+03 E0= -.10612369E+03  d E =-.821125E-10
 Finite differences progress:
  Degree of freedom:  18/ 78
  Displacement:        1/  2
  Total:              35/156
 bond charge predicted
       N       E                     dE             d eps       ncg     rms          rms(c)
DAV:   1    -0.106122341975E+03    0.13461E-02   -0.34514E-01    96   0.169E+00    0.269E-01
DAV:   2    -0.106123598566E+03   -0.12566E-02   -0.14968E-02   132   0.430E-01    0.115E-01
DAV:   3    -0.106123543783E+03    0.54783E-04   -0.61781E-04   144   0.907E-02    0.624E-02
DAV:   4    -0.106123559202E+03   -0.15419E-04   -0.13549E-04   144   0.425E-02    0.207E-02
DAV:   5    -0.106123557623E+03    0.15789E-05   -0.20491E-05   132   0.183E-02    0.936E-03
DAV:   6    -0.106123558335E+03   -0.71222E-06   -0.53396E-06   120   0.809E-03
  37 F= -.10612356E+03 E0= -.10612356E+03  d E =-.523216E-11
 Finite differences progress:
  Degree of freedom:  18/ 78
  Displacement:        2/  2
  Total:              36/156
 bond charge predicted
       N       E                     dE             d eps       ncg     rms          rms(c)
DAV:   1    -0.106121199436E+03    0.23582E-02   -0.15728E-01    96   0.127E+00    0.173E-01
DAV:   2    -0.106122266206E+03   -0.10668E-02   -0.11357E-02   120   0.363E-01    0.104E-01
DAV:   3    -0.106122229138E+03    0.37068E-04   -0.30684E-04   144   0.677E-02    0.598E-02
DAV:   4    -0.106122226444E+03    0.26938E-05   -0.11768E-04   120   0.412E-02    0.110E-02
DAV:   5    -0.106122221828E+03    0.46158E-05   -0.23824E-05   144   0.181E-02    0.812E-03
DAV:   6    -0.106122221016E+03    0.81240E-06   -0.34946E-06   108   0.665E-03
  38 F= -.10612222E+03 E0= -.10612222E+03  d E =-.647983E-11
 Finite differences progress:
  Degree of freedom:  19/ 78
  Displacement:        1/  2
  Total:              37/156
 bond charge predicted
       N       E                     dE             d eps       ncg     rms          rms(c)
DAV:   1    -0.106120233083E+03    0.19887E-02   -0.35129E-01    96   0.174E+00    0.247E-01
DAV:   2    -0.106122357990E+03   -0.21249E-02   -0.21512E-02   120   0.503E-01    0.161E-01
DAV:   3    -0.106122314983E+03    0.43007E-04   -0.53350E-04   144   0.906E-02    0.857E-02
DAV:   4    -0.106122294344E+03    0.20639E-04   -0.24641E-04   132   0.564E-02    0.152E-02
DAV:   5    -0.106122281473E+03    0.12871E-04   -0.39864E-05   132   0.228E-02    0.106E-02
DAV:   6    -0.106122283471E+03   -0.19981E-05   -0.11906E-05   132   0.108E-02    0.604E-03
DAV:   7    -0.106122303333E+03   -0.19862E-04   -0.33531E-06   108   0.643E-03    0.226E-03
DAV:   8    -0.106122326211E+03   -0.22878E-04   -0.20521E-06   108   0.456E-03    0.118E-03
DAV:   9    -0.106122349177E+03   -0.22965E-04   -0.23771E-06   108   0.386E-03    0.121E-03
DAV:  10    -0.106122368418E+03   -0.19241E-04   -0.18564E-06   120   0.295E-03    0.401E-04
DAV:  11    -0.106122374023E+03   -0.56055E-05   -0.20536E-07   108   0.117E-03    0.256E-04
DAV:  12    -0.106122379209E+03   -0.51859E-05   -0.26768E-07    96   0.108E-03    0.160E-04
DAV:  13    -0.106122380643E+03   -0.14340E-05   -0.39027E-08   108   0.503E-04    0.118E-04
DAV:  14    -0.106122381631E+03   -0.98771E-06   -0.13093E-08    96   0.345E-04
  39 F= -.10612238E+03 E0= -.10612238E+03  d E =-.915214E-10
 Finite differences progress:
  Degree of freedom:  19/ 78
  Displacement:        2/  2
  Total:              38/156
 bond charge predicted
       N       E                     dE             d eps       ncg     rms          rms(c)
DAV:   1    -0.106122813622E+03   -0.43298E-03   -0.17365E-01    96   0.124E+00    0.183E-01
DAV:   2    -0.106123798109E+03   -0.98449E-03   -0.10204E-02   132   0.344E-01    0.105E-01
DAV:   3    -0.106123759218E+03    0.38891E-04   -0.25211E-04   132   0.635E-02    0.567E-02
DAV:   4    -0.106123758681E+03    0.53645E-06   -0.13186E-04   132   0.439E-02    0.114E-02
DAV:   5    -0.106123753391E+03    0.52899E-05   -0.28551E-05   144   0.199E-02    0.797E-03
DAV:   6    -0.106123753442E+03   -0.50131E-07   -0.44068E-06   132   0.667E-03
  40 F= -.10612375E+03 E0= -.10612375E+03  d E =-.560235E-10
 Finite differences progress:
  Degree of freedom:  20/ 78
  Displacement:        1/  2
  Total:              39/156
 bond charge predicted
       N       E                     dE             d eps       ncg     rms          rms(c)
DAV:   1    -0.106121917509E+03    0.18359E-02   -0.34666E-01    96   0.158E+00    0.238E-01
DAV:   2    -0.106123404563E+03   -0.14871E-02   -0.15319E-02   132   0.394E-01    0.116E-01
DAV:   3    -0.106123412349E+03   -0.77863E-05   -0.48622E-04   132   0.836E-02    0.621E-02
DAV:   4    -0.106123441417E+03   -0.29068E-04   -0.13433E-04   132   0.497E-02    0.135E-02
DAV:   5    -0.106123441544E+03   -0.12745E-06   -0.41342E-05   132   0.241E-02    0.101E-02
DAV:   6    -0.106123442439E+03   -0.89505E-06   -0.51683E-06   156   0.712E-03
  41 F= -.10612344E+03 E0= -.10612344E+03  d E =-.126704E-10
 Finite differences progress:
  Degree of freedom:  20/ 78
[...]
DAV:   4    -0.106125717488E+03    0.56901E-07   -0.61102E-05   132   0.240E-02    0.846E-03
DAV:   5    -0.106125716749E+03    0.73831E-06   -0.36794E-06   144   0.730E-03
 134 F= -.10612572E+03 E0= -.10612572E+03  d E =-.477678E-11
 Finite differences progress:
  Degree of freedom:  67/ 78
  Displacement:        1/  2
  Total:             133/156
 bond charge predicted
       N       E                     dE             d eps       ncg     rms          rms(c)
DAV:   1    -0.106126231174E+03   -0.51369E-03   -0.55406E-01    96   0.239E+00    0.231E-01
DAV:   2    -0.106125913446E+03    0.31773E-03   -0.33157E-03   132   0.180E-01    0.121E-01
DAV:   3    -0.106125702019E+03    0.21143E-03   -0.46897E-04   144   0.611E-02    0.382E-02
DAV:   4    -0.106125695369E+03    0.66500E-05   -0.11128E-04   132   0.306E-02    0.123E-02
DAV:   5    -0.106125695636E+03   -0.26712E-06   -0.63434E-06   132   0.100E-02
 135 F= -.10612570E+03 E0= -.10612570E+03  d E =-.756732E-10
 Finite differences progress:
  Degree of freedom:  67/ 78
  Displacement:        2/  2
  Total:             134/156
 bond charge predicted
       N       E                     dE             d eps       ncg     rms          rms(c)
DAV:   1    -0.106125123348E+03    0.57202E-03   -0.29074E-01    96   0.165E+00    0.210E-01
DAV:   2    -0.106124853656E+03    0.26969E-03   -0.22826E-03   132   0.156E-01    0.102E-01
DAV:   3    -0.106124713683E+03    0.13997E-03   -0.41512E-04   132   0.604E-02    0.355E-02
DAV:   4    -0.106124713584E+03    0.98828E-07   -0.11089E-04   120   0.312E-02    0.154E-02
DAV:   5    -0.106124712255E+03    0.13292E-05   -0.45516E-06   132   0.859E-03    0.615E-03
DAV:   6    -0.106124712299E+03   -0.44007E-07   -0.25682E-06   132   0.577E-03
 136 F= -.10612471E+03 E0= -.10612471E+03  d E =-.935138E-10
 Finite differences progress:
  Degree of freedom:  68/ 78
  Displacement:        1/  2
  Total:             135/156
 bond charge predicted
       N       E                     dE             d eps       ncg     rms          rms(c)
DAV:   1    -0.106125425421E+03   -0.71317E-03   -0.57362E-01    96   0.235E+00    0.270E-01
DAV:   2    -0.106124886673E+03    0.53875E-03   -0.45966E-03   132   0.214E-01    0.138E-01
DAV:   3    -0.106124588607E+03    0.29807E-03   -0.84085E-04   132   0.843E-02    0.446E-02
DAV:   4    -0.106124590769E+03   -0.21623E-05   -0.20374E-04   132   0.432E-02    0.207E-02
DAV:   5    -0.106124589961E+03    0.80853E-06   -0.82364E-06   120   0.108E-02
 137 F= -.10612459E+03 E0= -.10612459E+03  d E =-.905311E-10
 Finite differences progress:
  Degree of freedom:  68/ 78
  Displacement:        2/  2
  Total:             136/156
 bond charge predicted
       N       E                     dE             d eps       ncg     rms          rms(c)
DAV:   1    -0.106126261262E+03   -0.16705E-02   -0.28912E-01    96   0.167E+00    0.204E-01
DAV:   2    -0.106125979436E+03    0.28183E-03   -0.23067E-03   132   0.161E-01    0.101E-01
DAV:   3    -0.106125841941E+03    0.13749E-03   -0.43171E-04   132   0.632E-02    0.336E-02
DAV:   4    -0.106125843808E+03   -0.18673E-05   -0.11045E-04   132   0.329E-02    0.149E-02
DAV:   5    -0.106125842996E+03    0.81223E-06   -0.41923E-06   132   0.840E-03
 138 F= -.10612584E+03 E0= -.10612584E+03  d E =-.463967E-11
 Finite differences progress:
  Degree of freedom:  69/ 78
  Displacement:        1/  2
  Total:             137/156
 bond charge predicted
       N       E                     dE             d eps       ncg     rms          rms(c)
DAV:   1    -0.106126286428E+03   -0.44262E-03   -0.54822E-01    96   0.252E+00    0.227E-01
DAV:   2    -0.106125982299E+03    0.30413E-03   -0.34260E-03   132   0.192E-01    0.120E-01
DAV:   3    -0.106125781478E+03    0.20082E-03   -0.47196E-04   144   0.664E-02    0.370E-02
DAV:   4    -0.106125781611E+03   -0.13284E-06   -0.10591E-04   132   0.320E-02    0.130E-02
DAV:   5    -0.106125781886E+03   -0.27492E-06   -0.58666E-06   132   0.965E-03
 139 F= -.10612578E+03 E0= -.10612578E+03  d E =-.839295E-10
 Finite differences progress:
  Degree of freedom:  69/ 78
  Displacement:        2/  2
  Total:             138/156
 bond charge predicted
       N       E                     dE             d eps       ncg     rms          rms(c)
DAV:   1    -0.106125629612E+03    0.15200E-03   -0.27723E-01    96   0.187E+00    0.167E-01
DAV:   2    -0.106125511521E+03    0.11809E-03   -0.18142E-03   120   0.142E-01    0.875E-02
DAV:   3    -0.106125421980E+03    0.89541E-04   -0.26577E-04   132   0.444E-02    0.270E-02
DAV:   4    -0.106125419189E+03    0.27911E-05   -0.43245E-05   144   0.188E-02    0.106E-02
DAV:   5    -0.106125417554E+03    0.16357E-05   -0.26140E-06   132   0.706E-03    0.530E-03
DAV:   6    -0.106125417503E+03    0.50097E-07   -0.22859E-06   132   0.560E-03
 140 F= -.10612542E+03 E0= -.10612542E+03  d E =-.465010E-11
 Finite differences progress:
  Degree of freedom:  70/ 78
  Displacement:        1/  2
  Total:             139/156
 bond charge predicted
       N       E                     dE             d eps       ncg     rms          rms(c)
DAV:   1    -0.106126028445E+03   -0.61089E-03   -0.55834E-01    96   0.228E+00    0.245E-01
DAV:   2    -0.106125668099E+03    0.36035E-03   -0.35429E-03   132   0.191E-01    0.125E-01
DAV:   3    -0.106125445008E+03    0.22309E-03   -0.52626E-04   120   0.636E-02    0.406E-02
DAV:   4    -0.106125436442E+03    0.85653E-05   -0.11657E-04   132   0.313E-02    0.134E-02
DAV:   5    -0.106125436433E+03    0.93437E-08   -0.66808E-06   132   0.105E-02
 141 F= -.10612544E+03 E0= -.10612544E+03  d E =-.721623E-10
 Finite differences progress:
  Degree of freedom:  70/ 78
  Displacement:        2/  2
  Total:             140/156
 bond charge predicted
       N       E                     dE             d eps       ncg     rms          rms(c)
DAV:   1    -0.106124604567E+03    0.83188E-03   -0.27352E-01    96   0.167E+00    0.139E-01
DAV:   2    -0.106124463347E+03    0.14122E-03   -0.14247E-03   132   0.120E-01    0.783E-02
DAV:   3    -0.106124380442E+03    0.82905E-04   -0.26847E-04   132   0.489E-02    0.163E-02
DAV:   4    -0.106124385523E+03   -0.50811E-05   -0.47477E-05   132   0.217E-02    0.828E-03
DAV:   5    -0.106124386175E+03   -0.65213E-06   -0.12858E-06   120   0.429E-03
 142 F= -.10612439E+03 E0= -.10612439E+03  d E =-.815010E-10
 Finite differences progress:
  Degree of freedom:  71/ 78
  Displacement:        1/  2
  Total:             141/156
 bond charge predicted
       N       E                     dE             d eps       ncg     rms          rms(c)
DAV:   1    -0.106125229688E+03   -0.84417E-03   -0.58183E-01    96   0.222E+00    0.285E-01
DAV:   2    -0.106124678265E+03    0.55142E-03   -0.48049E-03   132   0.217E-01    0.142E-01
DAV:   3    -0.106124371020E+03    0.30724E-03   -0.87949E-04   132   0.872E-02    0.465E-02
DAV:   4    -0.106124373834E+03   -0.28144E-05   -0.23294E-04   132   0.439E-02    0.197E-02
DAV:   5    -0.106124371645E+03    0.21890E-05   -0.93708E-06   120   0.118E-02    0.865E-03
DAV:   6    -0.106124371962E+03   -0.31639E-06   -0.56191E-06   132   0.812E-03
 143 F= -.10612437E+03 E0= -.10612437E+03  d E =-.458636E-11
 Finite differences progress:
  Degree of freedom:  71/ 78
  Displacement:        2/  2
  Total:             142/156
 bond charge predicted
       N       E                     dE             d eps       ncg     rms          rms(c)
DAV:   1    -0.106126677576E+03   -0.23059E-02   -0.28178E-01    96   0.158E+00    0.168E-01
DAV:   2    -0.106126456719E+03    0.22086E-03   -0.18649E-03   132   0.141E-01    0.895E-02
DAV:   3    -0.106126343925E+03    0.11279E-03   -0.34548E-04   132   0.576E-02    0.250E-02
DAV:   4    -0.106126349553E+03   -0.56288E-05   -0.80393E-05   132   0.283E-02    0.119E-02
DAV:   5    -0.106126349566E+03   -0.12691E-07   -0.27126E-06   132   0.631E-03
 144 F= -.10612635E+03 E0= -.10612635E+03  d E =-.443394E-11
 Finite differences progress:
  Degree of freedom:  72/ 78
  Displacement:        1/  2
  Total:             143/156
 bond charge predicted
       N       E                     dE             d eps       ncg     rms          rms(c)
DAV:   1    -0.106126796738E+03   -0.44719E-03   -0.54253E-01    96   0.241E+00    0.199E-01
DAV:   2    -0.106126525895E+03    0.27084E-03   -0.27824E-03   132   0.186E-01    0.112E-01
DAV:   3    -0.106126357777E+03    0.16812E-03   -0.44756E-04   144   0.669E-02    0.230E-02
DAV:   4    -0.106126363575E+03   -0.57974E-05   -0.72223E-05   120   0.279E-02    0.102E-02
DAV:   5    -0.106126364038E+03   -0.46302E-06   -0.30998E-06   132   0.646E-03
 145 F= -.10612636E+03 E0= -.10612636E+03  d E =-.846244E-10
 Finite differences progress:
  Degree of freedom:  72/ 78
  Displacement:        2/  2
  Total:             144/156
 bond charge predicted
       N       E                     dE             d eps       ncg     rms          rms(c)
DAV:   1    -0.106125728937E+03    0.63464E-03   -0.27737E-01    96   0.202E+00    0.157E-01
DAV:   2    -0.106125593376E+03    0.13556E-03   -0.20122E-03   132   0.170E-01    0.857E-02
DAV:   3    -0.106125495424E+03    0.97953E-04   -0.27375E-04   132   0.577E-02    0.260E-02
DAV:   4    -0.106125499852E+03   -0.44278E-05   -0.76201E-05   132   0.286E-02    0.100E-02
DAV:   5    -0.106125499520E+03    0.33196E-06   -0.26851E-06   132   0.692E-03
 146 F= -.10612550E+03 E0= -.10612550E+03  d E =-.452787E-11
 Finite differences progress:
  Degree of freedom:  73/ 78
  Displacement:        1/  2
  Total:             145/156
 bond charge predicted
       N       E                     dE             d eps       ncg     rms          rms(c)
DAV:   1    -0.106126079282E+03   -0.57943E-03   -0.56237E-01    96   0.266E+00    0.239E-01
DAV:   2    -0.106125669806E+03    0.40948E-03   -0.39277E-03   132   0.212E-01    0.127E-01
DAV:   3    -0.106125418315E+03    0.25149E-03   -0.69599E-04   132   0.811E-02    0.364E-02
DAV:   4    -0.106125423383E+03   -0.50681E-05   -0.16303E-04   132   0.405E-02    0.162E-02
DAV:   5    -0.106125422621E+03    0.76269E-06   -0.61912E-06   120   0.920E-03
 147 F= -.10612542E+03 E0= -.10612542E+03  d E =-.865203E-10
 Finite differences progress:
  Degree of freedom:  73/ 78
  Displacement:        2/  2
  Total:             146/156
 bond charge predicted
       N       E                     dE             d eps       ncg     rms          rms(c)
DAV:   1    -0.106124642692E+03    0.78069E-03   -0.27304E-01    96   0.181E+00    0.142E-01
DAV:   2    -0.106124506152E+03    0.13654E-03   -0.13851E-03   120   0.119E-01    0.783E-02
DAV:   3    -0.106124416827E+03    0.89325E-04   -0.20620E-04   132   0.417E-02    0.204E-02
DAV:   4    -0.106124418494E+03   -0.16674E-05   -0.38704E-05   132   0.190E-02    0.668E-03
DAV:   5    -0.106124419849E+03   -0.13549E-05   -0.21939E-06   132   0.537E-03    0.429E-03
DAV:   6    -0.106124422093E+03   -0.22439E-05   -0.73401E-07    96   0.303E-03    0.108E-03
DAV:   7    -0.106124423824E+03   -0.17306E-05   -0.25699E-07   108   0.178E-03    0.605E-04
DAV:   8    -0.106124426189E+03   -0.23653E-05   -0.10623E-07   108   0.130E-03    0.274E-04
DAV:   9    -0.106124428477E+03   -0.22878E-05   -0.14594E-07   108   0.118E-03    0.235E-04
DAV:  10    -0.106124430298E+03   -0.18211E-05   -0.89691E-08   108   0.820E-04    0.143E-04
DAV:  11    -0.106124431023E+03   -0.72551E-06   -0.21023E-08   108   0.415E-04
 148 F= -.10612443E+03 E0= -.10612443E+03  d E =-.886027E-10
 Finite differences progress:
  Degree of freedom:  74/ 78
  Displacement:        1/  2
  Total:             147/156
 bond charge predicted
       N       E                     dE             d eps       ncg     rms          rms(c)
DAV:   1    -0.106124987377E+03   -0.55708E-03   -0.57816E-01    96   0.247E+00    0.300E-01
DAV:   2    -0.106124510531E+03    0.47685E-03   -0.44671E-03   132   0.215E-01    0.140E-01
DAV:   3    -0.106124222702E+03    0.28783E-03   -0.71014E-04   132   0.762E-02    0.529E-02
DAV:   4    -0.106124204443E+03    0.18259E-04   -0.19944E-04   120   0.410E-02    0.186E-02
DAV:   5    -0.106124201820E+03    0.26228E-05   -0.10885E-05   132   0.130E-02    0.847E-03
DAV:   6    -0.106124203155E+03   -0.13357E-05   -0.45825E-06   132   0.775E-03    0.310E-03
DAV:   7    -0.106124206181E+03   -0.30251E-05   -0.13519E-06   132   0.393E-03    0.125E-03
DAV:   8    -0.106124210340E+03   -0.41597E-05   -0.25800E-07   108   0.185E-03    0.662E-04
DAV:   9    -0.106124214004E+03   -0.36639E-05   -0.20195E-07   108   0.131E-03    0.445E-04
DAV:  10    -0.106124219280E+03   -0.52761E-05   -0.26809E-07    96   0.126E-03    0.215E-04
DAV:  11    -0.106124221628E+03   -0.23473E-05   -0.88100E-08   108   0.767E-04    0.173E-04
DAV:  12    -0.106124223265E+03   -0.16374E-05   -0.17968E-08   108   0.404E-04    0.120E-04
DAV:  13    -0.106124224702E+03   -0.14367E-05   -0.16733E-08    96   0.349E-04    0.883E-05
DAV:  14    -0.106124225640E+03   -0.93856E-06   -0.99281E-09   108   0.254E-04
 149 F= -.10612423E+03 E0= -.10612423E+03  d E =-.896947E-10
 Finite differences progress:
  Degree of freedom:  74/ 78
  Displacement:        2/  2
  Total:             148/156
 bond charge predicted
       N       E                     dE             d eps       ncg     rms          rms(c)
DAV:   1    -0.106126582556E+03   -0.23579E-02   -0.27867E-01    96   0.176E+00    0.171E-01
DAV:   2    -0.106126373980E+03    0.20858E-03   -0.17873E-03   132   0.149E-01    0.891E-02
DAV:   3    -0.106126261254E+03    0.11273E-03   -0.28569E-04   144   0.521E-02    0.279E-02
DAV:   4    -0.106126262959E+03   -0.17046E-05   -0.69368E-05   144   0.254E-02    0.108E-02
DAV:   5    -0.106126263832E+03   -0.87255E-06   -0.37711E-06   132   0.769E-03
 150 F= -.10612626E+03 E0= -.10612626E+03  d E =-.487411E-11
 Finite differences progress:
  Degree of freedom:  75/ 78
  Displacement:        1/  2
  Total:             149/156
 bond charge predicted
       N       E                     dE             d eps       ncg     rms          rms(c)
DAV:   1    -0.106126897529E+03   -0.63457E-03   -0.54367E-01    96   0.257E+00    0.201E-01
DAV:   2    -0.106126605156E+03    0.29237E-03   -0.27003E-03   132   0.179E-01    0.112E-01
DAV:   3    -0.106126428761E+03    0.17640E-03   -0.47503E-04   132   0.652E-02    0.238E-02
DAV:   4    -0.106126435829E+03   -0.70684E-05   -0.73989E-05   132   0.272E-02    0.889E-03
DAV:   5    -0.106126437130E+03   -0.13002E-05   -0.33831E-06   132   0.646E-03    0.631E-03
DAV:   6    -0.106126440677E+03   -0.35473E-05   -0.16680E-06   120   0.406E-03    0.116E-03
DAV:   7    -0.106126442860E+03   -0.21835E-05   -0.32016E-07   120   0.199E-03    0.904E-04
DAV:   8    -0.106126446150E+03   -0.32895E-05   -0.16462E-07   108   0.167E-03    0.385E-04
DAV:   9    -0.106126449661E+03   -0.35106E-05   -0.22224E-07   108   0.171E-03    0.435E-04
DAV:  10    -0.106126451682E+03   -0.20211E-05   -0.10101E-07   108   0.976E-04    0.215E-04
DAV:  11    -0.106126452862E+03   -0.11803E-05   -0.32928E-08   108   0.477E-04    0.158E-04
DAV:  12    -0.106126453646E+03   -0.78438E-06   -0.14373E-08   108   0.336E-04
 151 F= -.10612645E+03 E0= -.10612645E+03  d E =-.727634E-10
 Finite differences progress:
  Degree of freedom:  75/ 78
  Displacement:        2/  2
  Total:             150/156
 bond charge predicted
       N       E                     dE             d eps       ncg     rms          rms(c)
DAV:   1    -0.106124366295E+03    0.20866E-02   -0.28102E-01    96   0.189E+00    0.180E-01
DAV:   2    -0.106124146707E+03    0.21959E-03   -0.22383E-03   144   0.161E-01    0.910E-02
DAV:   3    -0.106124009823E+03    0.13688E-03   -0.35203E-04   132   0.592E-02    0.308E-02
DAV:   4    -0.106124014124E+03   -0.43017E-05   -0.11125E-04   144   0.321E-02    0.109E-02
DAV:   5    -0.106124014994E+03   -0.87006E-06   -0.53544E-06   132   0.833E-03
 152 F= -.10612401E+03 E0= -.10612401E+03  d E =-.908563E-10
 Finite differences progress:
  Degree of freedom:  76/ 78
  Displacement:        1/  2
  Total:             151/156
 bond charge predicted
       N       E                     dE             d eps       ncg     rms          rms(c)
DAV:   1    -0.106124940682E+03   -0.92656E-03   -0.58459E-01    96   0.246E+00    0.304E-01
DAV:   2    -0.106124361991E+03    0.57869E-03   -0.48647E-03   132   0.236E-01    0.146E-01
DAV:   3    -0.106124043314E+03    0.31868E-03   -0.90647E-04   132   0.912E-02    0.515E-02
DAV:   4    -0.106124040522E+03    0.27922E-05   -0.24846E-04   132   0.476E-02    0.205E-02
DAV:   5    -0.106124038341E+03    0.21804E-05   -0.10758E-05   132   0.128E-02    0.894E-03
DAV:   6    -0.106124038851E+03   -0.50961E-06   -0.59605E-06   120   0.879E-03
 153 F= -.10612404E+03 E0= -.10612404E+03  d E =-.945373E-10
 Finite differences progress:
  Degree of freedom:  76/ 78
  Displacement:        2/  2
  Total:             152/156
 bond charge predicted
       N       E                     dE             d eps       ncg     rms          rms(c)
DAV:   1    -0.106126707075E+03   -0.26687E-02   -0.28512E-01    96   0.177E+00    0.197E-01
DAV:   2    -0.106126468884E+03    0.23819E-03   -0.21243E-03   132   0.155E-01    0.960E-02
DAV:   3    -0.106126343915E+03    0.12497E-03   -0.32224E-04   132   0.511E-02    0.346E-02
DAV:   4    -0.106126342895E+03    0.10191E-05   -0.85168E-05   120   0.274E-02    0.119E-02
DAV:   5    -0.106126342684E+03    0.21160E-06   -0.50692E-06   144   0.919E-03
 154 F= -.10612634E+03 E0= -.10612634E+03  d E =-.827317E-10
 Finite differences progress:
  Degree of freedom:  77/ 78
  Displacement:        1/  2
  Total:             153/156
 bond charge predicted
       N       E                     dE             d eps       ncg     rms          rms(c)
DAV:   1    -0.106126657776E+03   -0.31488E-03   -0.55100E-01    96   0.252E+00    0.205E-01
DAV:   2    -0.106126400188E+03    0.25759E-03   -0.28132E-03   120   0.173E-01    0.113E-01
DAV:   3    -0.106126215809E+03    0.18438E-03   -0.43980E-04   132   0.596E-02    0.298E-02
DAV:   4    -0.106126217534E+03   -0.17255E-05   -0.81661E-05   132   0.273E-02    0.880E-03
DAV:   5    -0.106126216578E+03    0.95617E-06   -0.43294E-06   132   0.746E-03
 155 F= -.10612622E+03 E0= -.10612622E+03  d E =-.457629E-11
 Finite differences progress:
  Degree of freedom:  77/ 78
  Displacement:        2/  2
  Total:             154/156
 bond charge predicted
       N       E                     dE             d eps       ncg     rms          rms(c)
DAV:   1    -0.106126028925E+03    0.18861E-03   -0.27398E-01    96   0.176E+00    0.146E-01
DAV:   2    -0.106125873621E+03    0.15530E-03   -0.14718E-03   132   0.128E-01    0.818E-02
DAV:   3    -0.106125787577E+03    0.86044E-04   -0.26125E-04   132   0.504E-02    0.170E-02
DAV:   4    -0.106125792899E+03   -0.53222E-05   -0.45742E-05   132   0.215E-02    0.773E-03
DAV:   5    -0.106125793359E+03   -0.45929E-06   -0.16648E-06   132   0.486E-03
 156 F= -.10612579E+03 E0= -.10612579E+03  d E =-.573753E-11
 Finite differences progress:
  Degree of freedom:  78/ 78
  Displacement:        1/  2
  Total:             155/156
 bond charge predicted
       N       E                     dE             d eps       ncg     rms          rms(c)
DAV:   1    -0.106126423725E+03   -0.63083E-03   -0.54876E-01    96   0.259E+00    0.230E-01
DAV:   2    -0.106126091374E+03    0.33235E-03   -0.31777E-03   132   0.188E-01    0.120E-01
DAV:   3    -0.106125882821E+03    0.20855E-03   -0.47144E-04   132   0.636E-02    0.368E-02
DAV:   4    -0.106125882996E+03   -0.17434E-06   -0.10186E-04   144   0.304E-02    0.112E-02
DAV:   5    -0.106125883908E+03   -0.91229E-06   -0.69682E-06   132   0.975E-03
 157 F= -.10612588E+03 E0= -.10612588E+03  d E =-.657026E-10
 Finite differences progress:
  Degree of freedom:  78/ 78
  Displacement:        2/  2
  Total:             156/156
 Finite differences POTIM=  2.000000000000000E-002
