<?xml version="1.0" encoding="ISO-8859-1"?>
<modeling>
 <generator>
  <i name="program" type="string">vasp </i>
  <i name="version" type="string">5.4.4.18Apr17-6-g9f103f2a35  </i>
  <i name="subversion" type="string">(build Nov 06 2017 19:16:10) complex            parallel </i>
  <i name="platform" type="string">IFC91_ompi </i>
  <i name="date" type="string">2018 07 22 </i>
  <i name="time" type="string">21:39:28 </i>
 </generator>
 <incar>
  <i type="string" name="SYSTEM">SiGe</i>
  <i type="string" name="PREC">normal</i>
  <i type="int" name="IBRION">     5</i>
  <i type="int" name="NFREE">     2</i>
  <i name="EDIFF">      0.00000100</i>
  <i name="EDIFFG">     -0.01000000</i>
  <i type="int" name="NSW">   300</i>
  <i type="int" name="ISIF">     2</i>
  <i name="ENCUT">    400.00000000</i>
  <i name="POTIM">      0.02000000</i>
  <i type="logical" name="LREAL"> F  </i>
  <i type="int" name="ISMEAR">     0</i>
  <i type="logical" name="LWAVE"> F  </i>
  <i type="logical" name="LCHARG"> F  </i>
  <v type="int" name="KPOINT_BSE">    -1     0     0     0</v>
 </incar>
 <structure name="primitive_cell" >
  <crystal>
   <varray name="basis" >
    <v>      20.00000000       0.00000000       0.00000000 </v>
    <v>       0.00000000      20.00000000       0.00000000 </v>
    <v>       0.00000000       0.00000000      20.00000000 </v>
   </varray>
   <i name="volume">   8000.00000000 </i>
   <varray name="rec_basis" >
    <v>       0.05000000       0.00000000       0.00000000 </v>
    <v>       0.00000000       0.05000000       0.00000000 </v>
    <v>       0.00000000       0.00000000       0.05000000 </v>
   </varray>
  </crystal>
  <varray name="positions" >
   <v>       0.47564420      -0.44399753       0.38593201 </v>
   <v>       0.46529008      -0.42985874       0.31286466 </v>
   <v>      -0.46962726      -0.35313515       0.43649735 </v>
   <v>       0.37132078      -0.46085944       0.43764986 </v>
   <v>      -0.45897246       0.45894316       0.39807236 </v>
   <v>       0.33573897       0.48220588       0.40429727 </v>
   <v>      -0.49311973       0.40133535       0.36438931 </v>
   <v>      -0.39250443       0.46876085       0.36483915 </v>
   <v>       0.32885819      -0.39958987       0.42981566 </v>
   <v>       0.48955590      -0.29078738       0.42887349 </v>
   <v>      -0.40319801      -0.34147081       0.40387639 </v>
   <v>       0.38579448      -0.48506304      -0.44812291 </v>
   <v>      -0.44334813       0.43420518      -0.48796781 </v>
   <v>      -0.45367823      -0.37695367      -0.44682774 </v>
   <v>       0.45178073       0.41815015      -0.43710668 </v>
   <v>      -0.38750719      -0.47660934      -0.43565779 </v>
   <v>       0.43927462      -0.39476014      -0.39526447 </v>
   <v>       0.41687750       0.36020556      -0.46940831 </v>
   <v>       0.39771192      -0.33275087      -0.40150582 </v>
   <v>      -0.32041352      -0.46595013      -0.46723668 </v>
   <v>       0.31870029      -0.49686602      -0.41642223 </v>
   <v>      -0.40256481       0.37144132      -0.48140412 </v>
   <v>      -0.41734212      -0.31705985      -0.41233248 </v>
   <v>       0.46096069       0.40176573      -0.36453710 </v>
   <v>      -0.37681793      -0.49171104      -0.36306268 </v>
   <v>       0.44855549      -0.40919016      -0.32233371 </v>
  </varray>
 </structure>
 <varray name="primitive_index" >
  <v type="int" >        1 </v>
  <v type="int" >       18 </v>
  <v type="int" >        4 </v>
  <v type="int" >        2 </v>
  <v type="int" >        3 </v>
  <v type="int" >       23 </v>
  <v type="int" >       17 </v>
  <v type="int" >       16 </v>
  <v type="int" >       24 </v>
  <v type="int" >       25 </v>
  <v type="int" >       26 </v>
  <v type="int" >        5 </v>
  <v type="int" >        6 </v>
  <v type="int" >       10 </v>
  <v type="int" >        8 </v>
  <v type="int" >        7 </v>
  <v type="int" >        9 </v>
  <v type="int" >       11 </v>
  <v type="int" >       21 </v>
  <v type="int" >       14 </v>
  <v type="int" >       22 </v>
  <v type="int" >       13 </v>
  <v type="int" >       19 </v>
  <v type="int" >       12 </v>
  <v type="int" >       15 </v>
  <v type="int" >       20 </v>
 </varray>
 <kpoints>
  <generation param="Gamma">
   <v type="int" name="divisions">       1        1        1 </v>
   <v name="usershift">      0.00000000       0.00000000       0.00000000 </v>
   <v name="genvec1">      1.00000000       0.00000000       0.00000000 </v>
   <v name="genvec2">      0.00000000       1.00000000       0.00000000 </v>
   <v name="genvec3">      0.00000000       0.00000000       1.00000000 </v>
   <v name="shift">      0.00000000       0.00000000       0.00000000 </v>
  </generation>
  <varray name="kpointlist" >
   <v>       0.00000000       0.00000000       0.00000000 </v>
  </varray>
  <varray name="weights" >
   <v>       1.00000000 </v>
  </varray>
 </kpoints>
 <parameters>
  <separator name="general" >
   <i type="string" name="SYSTEM">SiGe</i>
   <i type="logical" name="LCOMPAT"> F  </i>
  </separator>
  <separator name="electronic" >
   <i type="string" name="PREC">normal</i>
   <i name="ENMAX">    400.00000000</i>
   <i name="ENAUG">    400.00000000</i>
   <i name="EDIFF">      0.00000100</i>
   <i type="int" name="IALGO">    38</i>
   <i type="int" name="IWAVPR">    11</i>
   <i type="int" name="NBANDS">    48</i>
   <i name="NELECT">     56.00000000</i>
   <i type="int" name="TURBO">     0</i>
   <i type="int" name="IRESTART">     0</i>
   <i type="int" name="NREBOOT">     0</i>
   <i type="int" name="NMIN">     0</i>
   <i name="EREF">      0.00000000</i>
   <separator name="electronic smearing" >
    <i type="int" name="ISMEAR">     0</i>
    <i name="SIGMA">      0.20000000</i>
    <i name="KSPACING">      0.50000000</i>
    <i type="logical" name="KGAMMA"> T  </i>
   </separator>
   <separator name="electronic projectors" >
    <i type="logical" name="LREAL"> F  </i>
    <v name="ROPT">      0.00000000      0.00000000      0.00000000</v>
    <i type="int" name="LMAXPAW">  -100</i>
    <i type="int" name="LMAXMIX">     2</i>
    <i type="logical" name="NLSPLINE"> F  </i>
   </separator>
   <separator name="electronic startup" >
    <i type="int" name="ISTART">     0</i>
    <i type="int" name="ICHARG">     2</i>
    <i type="int" name="INIWAV">     1</i>
   </separator>
   <separator name="electronic spin" >
    <i type="int" name="ISPIN">     1</i>
    <i type="logical" name="LNONCOLLINEAR"> F  </i>
    <v name="MAGMOM">      1.00000000      1.00000000      1.00000000      1.00000000      1.00000000      1.00000000      1.00000000      1.00000000      1.00000000      1.00000000      1.00000000      1.00000000      1.00000000      1.00000000      1.00000000      1.00000000      1.00000000      1.00000000      1.00000000      1.00000000
      1.00000000      1.00000000      1.00000000      1.00000000      1.00000000      1.00000000</v>
    <i name="NUPDOWN">     -1.00000000</i>
    <i type="logical" name="LSORBIT"> F  </i>
    <v name="SAXIS">      0.00000000      0.00000000      1.00000000</v>
    <i type="logical" name="LSPIRAL"> F  </i>
    <v name="QSPIRAL">      0.00000000      0.00000000      0.00000000</v>
    <i type="logical" name="LZEROZ"> F  </i>
   </separator>
   <separator name="electronic exchange-correlation" >
    <i type="logical" name="LASPH"> F  </i>
    <i type="logical" name="LMETAGGA"> F  </i>
   </separator>
   <separator name="electronic convergence" >
    <i type="int" name="NELM">    60</i>
    <i type="int" name="NELMDL">    -5</i>
    <i type="int" name="NELMIN">     2</i>
    <i name="ENINI">    400.00000000</i>
    <separator name="electronic convergence detail" >
     <i type="logical" name="LDIAG"> T  </i>
     <i type="logical" name="LSUBROT"> F  </i>
     <i name="WEIMIN">      0.00100000</i>
     <i name="EBREAK">      0.00000001</i>
     <i name="DEPER">      0.30000000</i>
     <i type="int" name="NRMM">     4</i>
     <i name="TIME">      0.40000000</i>
    </separator>
   </separator>
   <separator name="electronic mixer" >
    <i name="AMIX">      0.40000000</i>
    <i name="BMIX">      1.00000000</i>
    <i name="AMIN">      0.10000000</i>
    <i name="AMIX_MAG">      1.60000000</i>
    <i name="BMIX_MAG">      1.00000000</i>
    <separator name="electronic mixer details" >
     <i type="int" name="IMIX">     4</i>
     <i type="logical" name="MIXFIRST"> F  </i>
     <i type="int" name="MAXMIX">   -45</i>
     <i name="WC">    100.00000000</i>
     <i type="int" name="INIMIX">     1</i>
     <i type="int" name="MIXPRE">     1</i>
     <i type="int" name="MREMOVE">     5</i>
    </separator>
   </separator>
   <separator name="electronic dipolcorrection" >
    <i type="logical" name="LDIPOL"> F  </i>
    <i type="logical" name="LMONO"> F  </i>
    <i type="int" name="IDIPOL">     0</i>
    <i name="EPSILON">      1.00000000</i>
    <v name="DIPOL">   -100.00000000   -100.00000000   -100.00000000</v>
    <i name="EFIELD">      0.00000000</i>
   </separator>
  </separator>
  <separator name="grids" >
   <i type="int" name="NGX">    98</i>
   <i type="int" name="NGY">    98</i>
   <i type="int" name="NGZ">    98</i>
   <i type="int" name="NGXF">   196</i>
   <i type="int" name="NGYF">   196</i>
   <i type="int" name="NGZF">   196</i>
   <i type="logical" name="ADDGRID"> F  </i>
  </separator>
  <separator name="ionic" >
   <i type="int" name="NSW">   349</i>
   <i type="int" name="IBRION">     5</i>
   <i type="int" name="MDALGO">     0</i>
   <i type="int" name="ISIF">     2</i>
   <i name="PSTRESS">      0.00000000</i>
   <i name="EDIFFG">     -0.01000000</i>
   <i type="int" name="NFREE">     2</i>
   <i name="POTIM">      0.02000000</i>
   <i name="SMASS">     -3.00000000</i>
   <i name="SCALEE">      1.00000000</i>
  </separator>
  <separator name="ionic md" >
   <i name="TEBEG">      0.00010000</i>
   <i name="TEEND">      0.00010000</i>
   <i type="int" name="NBLOCK">     1</i>
   <i type="int" name="KBLOCK">   349</i>
   <i type="int" name="NPACO">   256</i>
   <i name="APACO">     16.00000000</i>
  </separator>
  <separator name="symmetry" >
   <i type="int" name="ISYM">     2</i>
   <i name="SYMPREC">      0.00001000</i>
  </separator>
  <separator name="dos" >
   <i type="int" name="LORBIT">     0</i>
   <v name="RWIGS">     -1.00000000     -1.00000000     -1.00000000</v>
   <i type="int" name="NEDOS">   301</i>
   <i name="EMIN">     10.00000000</i>
   <i name="EMAX">    -10.00000000</i>
   <i name="EFERMI">      0.00000000</i>
  </separator>
  <separator name="writing" >
   <i type="int" name="NWRITE">     2</i>
   <i type="logical" name="LWAVE"> F  </i>
   <i type="logical" name="LDOWNSAMPLE"> F  </i>
   <i type="logical" name="LCHARG"> F  </i>
   <i type="logical" name="LPARD"> F  </i>
   <i type="logical" name="LVTOT"> F  </i>
   <i type="logical" name="LVHAR"> F  </i>
   <i type="logical" name="LELF"> F  </i>
   <i type="logical" name="LOPTICS"> F  </i>
   <v name="STM">      0.00000000      0.00000000      0.00000000      0.00000000      0.00000000      0.00000000      0.00000000</v>
  </separator>
  <separator name="performance" >
   <i type="int" name="NPAR">    12</i>
   <i type="int" name="NSIM">     4</i>
   <i type="int" name="NBLK">    -1</i>
   <i type="logical" name="LPLANE"> T  </i>
   <i type="logical" name="LSCALAPACK"> T  </i>
   <i type="logical" name="LSCAAWARE"> F  </i>
   <i type="logical" name="LSCALU"> F  </i>
   <i type="logical" name="LASYNC"> F  </i>
   <i type="logical" name="LORBITALREAL"> F  </i>
  </separator>
  <separator name="miscellaneous" >
   <i type="int" name="IDIOT">     3</i>
   <i type="int" name="ISPECIAL">     0</i>
   <i type="logical" name="LMUSIC"> F  </i>
   <v name="POMASS">     28.08500000     72.61000000      1.00000000</v>
   <v name="DARWINR">      0.00000000      0.00000000      0.00000000</v>
   <v name="DARWINV">      1.00000000      1.00000000      1.00000000</v>
   <i type="logical" name="LCORR"> T  </i>
  </separator>
  <i type="logical" name="GGA_COMPAT"> T  </i>
  <i type="logical" name="LBERRY"> F  </i>
  <i type="int" name="ICORELEVEL">     0</i>
  <i type="logical" name="LDAU"> F  </i>
  <i type="int" name="I_CONSTRAINED_M">     0</i>
  <separator name="electronic exchange-correlation" >
   <i type="string" name="GGA">--</i>
   <i type="int" name="VOSKOWN">     0</i>
   <i type="logical" name="LHFCALC"> F  </i>
   <i type="string" name="PRECFOCK"></i>
   <i type="logical" name="LSYMGRAD"> F  </i>
   <i type="logical" name="LHFONE"> F  </i>
   <i type="logical" name="LRHFCALC"> F  </i>
   <i type="logical" name="LTHOMAS"> F  </i>
   <i type="logical" name="LMODELHF"> F  </i>
   <i name="ENCUT4O">     -1.00000000</i>
   <i type="int" name="EXXOEP">     0</i>
   <i type="int" name="FOURORBIT">     0</i>
   <i name="AEXX">      0.00000000</i>
   <i name="HFALPHA">      0.00000000</i>
   <i name="MCALPHA">      0.00000000</i>
   <i name="ALDAX">      1.00000000</i>
   <i name="AGGAX">      1.00000000</i>
   <i name="ALDAC">      1.00000000</i>
   <i name="AGGAC">      1.00000000</i>
   <i type="int" name="NKREDX">     1</i>
   <i type="int" name="NKREDY">     1</i>
   <i type="int" name="NKREDZ">     1</i>
   <i type="logical" name="SHIFTRED"> F  </i>
   <i type="logical" name="ODDONLY"> F  </i>
   <i type="logical" name="EVENONLY"> F  </i>
   <i type="int" name="LMAXFOCK">     0</i>
   <i type="int" name="NMAXFOCKAE">     0</i>
   <i type="logical" name="LFOCKAEDFT"> F  </i>
   <i name="HFSCREEN">      0.00000000</i>
   <i name="HFSCREENC">      0.00000000</i>
   <i type="int" name="NBANDSGWLOW">     0</i>
  </separator>
  <separator name="vdW DFT" >
   <i type="logical" name="LUSE_VDW"> F  </i>
   <i name="Zab_VDW">     -0.84910000</i>
   <i name="PARAM1">      0.12340000</i>
   <i name="PARAM2">      1.00000000</i>
   <i name="PARAM3">      0.00000000</i>
  </separator>
  <separator name="model GW" >
   <i type="int" name="MODEL_GW">     0</i>
   <i name="MODEL_EPS0">    184.61538462</i>
   <i name="MODEL_ALPHA">      1.00000000</i>
  </separator>
  <separator name="linear response parameters" >
   <i type="logical" name="LEPSILON"> F  </i>
   <i type="logical" name="LRPA"> F  </i>
   <i type="logical" name="LNABLA"> F  </i>
   <i type="logical" name="LVEL"> F  </i>
   <i type="int" name="KINTER">     0</i>
   <i name="CSHIFT">      0.10000000</i>
   <i name="OMEGAMAX">     -1.00000000</i>
   <i name="DEG_THRESHOLD">      0.00200000</i>
   <i name="RTIME">     -0.10000000</i>
   <i name="WPLASMAI">      0.00000000</i>
   <v name="DFIELD">      0.00000000      0.00000000      0.00000000</v>
   <v name="WPLASMA">      0.00000000      0.00000000      0.00000000      0.00000000      0.00000000      0.00000000      0.00000000      0.00000000      0.00000000</v>
  </separator>
  <separator name="orbital magnetization" >
   <i type="logical" name="NUCIND"> F  </i>
   <v name="MAGPOS">      0.00000000      0.00000000      0.00000000</v>
   <i type="logical" name="LNICSALL"> T  </i>
   <i type="logical" name="ORBITALMAG"> F  </i>
   <i type="logical" name="LMAGBLOCH"> F  </i>
   <i type="logical" name="LCHIMAG"> F  </i>
   <i type="logical" name="LGAUGE"> T  </i>
   <i type="int" name="MAGATOM">     0</i>
   <v name="MAGDIPOL">      0.00000000      0.00000000      0.00000000</v>
   <v name="AVECCONST">      0.00000000      0.00000000      0.00000000</v>
  </separator>
  <separator name="response functions" >
   <i type="logical" name="LADDER"> F  </i>
   <i type="logical" name="LRPAFORCE"> F  </i>
   <i type="logical" name="LFXC"> F  </i>
   <i type="logical" name="LHARTREE"> T  </i>
   <i type="int" name="IBSE">     0</i>
   <v type="int" name="KPOINT">    -1     0     0     0</v>
   <i type="logical" name="LTCTE"> F  </i>
   <i type="logical" name="LTETE"> F  </i>
   <i type="logical" name="LTRIPLET"> F  </i>
   <i type="logical" name="LFXCEPS"> F  </i>
   <i type="logical" name="LFXHEG"> F  </i>
   <i type="int" name="NATURALO">     2</i>
   <i type="logical" name="L2ORDER"> F  </i>
   <i type="logical" name="LMP2LT"> F  </i>
   <i type="logical" name="LUSEW"> F  </i>
   <i name="ENCUTGW">     -2.00000000</i>
   <i name="ENCUTGWSOFT">     -2.00000000</i>
   <i name="ENCUTLF">     -1.00000000</i>
   <i type="int" name="LMAXMP2">    -1</i>
   <i name="SCISSOR">      0.00000000</i>
   <i type="int" name="NOMEGA">     0</i>
   <i type="int" name="NOMEGAR">     0</i>
   <i type="int" name="NBANDSGW">    -1</i>
   <i type="int" name="NBANDSO">    -1</i>
   <i type="int" name="NBANDSV">    -1</i>
   <i type="int" name="NELM">     1</i>
   <i type="int" name="NELMHF">     1</i>
   <i type="int" name="DIM">     3</i>
   <i type="int" name="ANTIRES">     0</i>
   <i name="OMEGAMAX">    -30.00000000</i>
   <i name="OMEGAMIN">    -30.00000000</i>
   <i name="OMEGATL">   -200.00000000</i>
   <i type="int" name="OMEGAGRID">   140</i>
   <i name="CSHIFT">     -0.10000000</i>
   <i type="logical" name="SELFENERGY"> F  </i>
   <i type="logical" name="LSPECTRAL"> F  </i>
   <i type="logical" name="LSPECTRALGW"> F  </i>
   <i type="logical" name="LSINGLES"> F  </i>
   <i type="logical" name="LFERMIGW"> F  </i>
   <i type="logical" name="ODDONLYGW"> F  </i>
   <i type="logical" name="EVENONLYGW"> F  </i>
   <i type="int" name="NKREDLFX">     1</i>
   <i type="int" name="NKREDLFY">     1</i>
   <i type="int" name="NKREDLFZ">     1</i>
   <i type="int" name="MAXMEM">  2800</i>
   <i type="int" name="TELESCOPE">     0</i>
   <i type="int" name="TAUPAR">     1</i>
   <i type="int" name="OMEGAPAR">    -1</i>
   <i name="LAMBDA">      1.00000000</i>
  </separator>
  <separator name="External order field" >
   <i name="OFIELD_KAPPA">      0.00000000</i>
   <v name="OFIELD_K">      0.00000000      0.00000000      0.00000000</v>
   <i name="OFIELD_Q6_NEAR">      0.00000000</i>
   <i name="OFIELD_Q6_FAR">      0.00000000</i>
   <i name="OFIELD_A">      0.00000000</i>
  </separator>
 </parameters>
 <atominfo>
  <atoms>      26 </atoms>
  <types>       3 </types>
  <array name="atoms" >
   <dimension dim="1">ion</dimension>
   <field type="string">element</field>
   <field type="int">atomtype</field>
   <set>
    <rc><c>Si</c><c>   1</c></rc>
    <rc><c>Si</c><c>   1</c></rc>
    <rc><c>Si</c><c>   1</c></rc>
    <rc><c>Si</c><c>   1</c></rc>
    <rc><c>Si</c><c>   1</c></rc>
    <rc><c>Si</c><c>   1</c></rc>
    <rc><c>Si</c><c>   1</c></rc>
    <rc><c>Si</c><c>   1</c></rc>
    <rc><c>Si</c><c>   1</c></rc>
    <rc><c>Ge</c><c>   2</c></rc>
    <rc><c>H </c><c>   3</c></rc>
    <rc><c>H </c><c>   3</c></rc>
    <rc><c>H </c><c>   3</c></rc>
    <rc><c>H </c><c>   3</c></rc>
    <rc><c>H </c><c>   3</c></rc>
    <rc><c>H </c><c>   3</c></rc>
    <rc><c>H </c><c>   3</c></rc>
    <rc><c>H </c><c>   3</c></rc>
    <rc><c>H </c><c>   3</c></rc>
    <rc><c>H </c><c>   3</c></rc>
    <rc><c>H </c><c>   3</c></rc>
    <rc><c>H </c><c>   3</c></rc>
    <rc><c>H </c><c>   3</c></rc>
    <rc><c>H </c><c>   3</c></rc>
    <rc><c>H </c><c>   3</c></rc>
    <rc><c>H </c><c>   3</c></rc>
   </set>
  </array>
  <array name="atomtypes" >
   <dimension dim="1">type</dimension>
   <field type="int">atomspertype</field>
   <field type="string">element</field>
   <field>mass</field>
   <field>valence</field>
   <field type="string">pseudopotential</field>
   <set>
    <rc><c>   9</c><c>Si</c><c>     28.08500000</c><c>      4.00000000</c><c>  PAW_PBE Si 05Jan2001                  </c></rc>
    <rc><c>   1</c><c>Ge</c><c>     72.61000000</c><c>      4.00000000</c><c>  PAW_PBE Ge 05Jan2001                  </c></rc>
    <rc><c>  16</c><c>H </c><c>      1.00000000</c><c>      1.00000000</c><c>  PAW_PBE H 15Jun2001                   </c></rc>
   </set>
  </array>
 </atominfo>
 <structure name="initialpos" >
  <crystal>
   <varray name="basis" >
    <v>      20.00000000       0.00000000       0.00000000 </v>
    <v>       0.00000000      20.00000000       0.00000000 </v>
    <v>       0.00000000       0.00000000      20.00000000 </v>
   </varray>
   <i name="volume">   8000.00000000 </i>
   <varray name="rec_basis" >
    <v>       0.05000000       0.00000000       0.00000000 </v>
    <v>       0.00000000       0.05000000       0.00000000 </v>
    <v>       0.00000000       0.00000000       0.05000000 </v>
   </varray>
  </crystal>
  <varray name="positions" >
   <v>       0.47564420       0.55600247       0.38593201 </v>
   <v>       0.37132078       0.53914056       0.43764986 </v>
   <v>       0.54102754       0.45894316       0.39807236 </v>
   <v>       0.53037274       0.64686485       0.43649735 </v>
   <v>       0.38579448       0.51493696       0.55187709 </v>
   <v>       0.55665187       0.43420518       0.51203219 </v>
   <v>       0.61249281       0.52339066       0.56434221 </v>
   <v>       0.45178073       0.41815015       0.56289332 </v>
   <v>       0.43927462       0.60523986       0.60473553 </v>
   <v>       0.54632177       0.62304633       0.55317226 </v>
   <v>       0.41687750       0.36020556       0.53059169 </v>
   <v>       0.46096069       0.40176573       0.63546290 </v>
   <v>       0.59743519       0.37144132       0.51859588 </v>
   <v>       0.67958648       0.53404987       0.53276332 </v>
   <v>       0.62318207       0.50828896       0.63693732 </v>
   <v>       0.60749557       0.46876085       0.36483915 </v>
   <v>       0.50688027       0.40133535       0.36438931 </v>
   <v>       0.46529008       0.57014126       0.31286466 </v>
   <v>       0.58265788       0.68294015       0.58766752 </v>
   <v>       0.44855549       0.59080984       0.67766629 </v>
   <v>       0.39771192       0.66724913       0.59849418 </v>
   <v>       0.31870029       0.50313398       0.58357777 </v>
   <v>       0.33573897       0.48220588       0.40429727 </v>
   <v>       0.32885819       0.60041013       0.42981566 </v>
   <v>       0.48955590       0.70921262       0.42887349 </v>
   <v>       0.59680199       0.65852919       0.40387639 </v>
  </varray>
 </structure>
 <calculation>
  <scstep>
   <time name="dav">   18.51   18.54</time>
   <time name="total">   20.35   20.39</time>
   <energy>
    <i name="alphaZ">      1.13752662 </i>
    <i name="ewald">   2709.40818830 </i>
    <i name="hartreedc">  -3512.17867011 </i>
    <i name="XCdc">    -58.13289235 </i>
    <i name="pawpsdc">    915.40383071 </i>
    <i name="pawaedc">   -742.71876868 </i>
    <i name="eentropy">     -0.40484328 </i>
    <i name="bandstr">   -304.23517865 </i>
    <i name="atom">   1232.24550866 </i>
    <i name="e_fr_energy">    240.52470123 </i>
    <i name="e_wo_entrp">    240.92954451 </i>
    <i name="e_0_energy">    240.72712287 </i>
   </energy>
  </scstep>
  <scstep>
   <time name="dav">   23.28   23.34</time>
   <time name="total">   23.28   23.34</time>
   <energy>
    <i name="e_fr_energy">    -27.51300357 </i>
    <i name="e_wo_entrp">    -27.51300357 </i>
    <i name="e_0_energy">    -27.51300357 </i>
   </energy>
  </scstep>
  <scstep>
   <time name="dav">   18.99   19.00</time>
   <time name="total">   18.99   19.00</time>
   <energy>
    <i name="e_fr_energy">   -107.97449478 </i>
    <i name="e_wo_entrp">   -107.97449478 </i>
    <i name="e_0_energy">   -107.97449478 </i>
   </energy>
  </scstep>
  <scstep>
   <time name="dav">   18.80   18.79</time>
   <time name="total">   18.80   18.79</time>
   <energy>
    <i name="e_fr_energy">   -111.97802855 </i>
    <i name="e_wo_entrp">   -111.97802855 </i>
    <i name="e_0_energy">   -111.97802855 </i>
   </energy>
  </scstep>
  <scstep>
   <time name="dav">   23.23   23.22</time>
   <time name="total">   23.80   23.80</time>
   <energy>
    <i name="e_fr_energy">   -112.08268118 </i>
    <i name="e_wo_entrp">   -112.08268118 </i>
    <i name="e_0_energy">   -112.08268118 </i>
   </energy>
  </scstep>
  <scstep>
   <time name="dav">   18.74   18.79</time>
   <time name="total">   21.08   21.20</time>
   <energy>
    <i name="e_fr_energy">   -108.21496517 </i>
    <i name="e_wo_entrp">   -108.21496517 </i>
    <i name="e_0_energy">   -108.21496517 </i>
   </energy>
  </scstep>
  <scstep>
   <time name="dav">   18.73   18.76</time>
   <time name="total">   21.06   21.11</time>
   <energy>
    <i name="e_fr_energy">   -106.19378009 </i>
    <i name="e_wo_entrp">   -106.19378009 </i>
    <i name="e_0_energy">   -106.19378009 </i>
   </energy>
  </scstep>
  <scstep>
   <time name="dav">   20.25   20.25</time>
   <time name="total">   22.59   22.59</time>
   <energy>
    <i name="e_fr_energy">   -106.14315757 </i>
    <i name="e_wo_entrp">   -106.14315757 </i>
    <i name="e_0_energy">   -106.14315757 </i>
   </energy>
  </scstep>
  <scstep>
   <time name="dav">   23.24   23.25</time>
   <time name="total">   25.77   25.79</time>
   <energy>
    <i name="e_fr_energy">   -106.10799541 </i>
    <i name="e_wo_entrp">   -106.10799541 </i>
    <i name="e_0_energy">   -106.10799541 </i>
   </energy>
  </scstep>
  <scstep>
   <time name="dav">   20.25   20.24</time>
   <time name="total">   22.60   22.60</time>
   <energy>
    <i name="e_fr_energy">   -106.10774053 </i>
    <i name="e_wo_entrp">   -106.10774053 </i>
    <i name="e_0_energy">   -106.10774053 </i>
   </energy>
  </scstep>
  <scstep>
   <time name="dav">   20.26   20.25</time>
   <time name="total">   22.64   22.63</time>
   <energy>
    <i name="e_fr_energy">   -106.10484777 </i>
    <i name="e_wo_entrp">   -106.10484777 </i>
    <i name="e_0_energy">   -106.10484777 </i>
   </energy>
  </scstep>
  <scstep>
   <time name="dav">   15.79   15.81</time>
   <time name="total">   18.20   18.32</time>
   <energy>
    <i name="e_fr_energy">   -106.10985296 </i>
    <i name="e_wo_entrp">   -106.10985296 </i>
    <i name="e_0_energy">   -106.10985296 </i>
   </energy>
  </scstep>
  <scstep>
   <time name="dav">   18.75   18.74</time>
   <time name="total">   21.12   21.12</time>
   <energy>
    <i name="e_fr_energy">   -106.11414759 </i>
    <i name="e_wo_entrp">   -106.11414759 </i>
    <i name="e_0_energy">   -106.11414759 </i>
   </energy>
  </scstep>
  <scstep>
   <time name="dav">   21.72   21.72</time>
   <time name="total">   24.11   24.10</time>
   <energy>
    <i name="e_fr_energy">   -106.11725309 </i>
    <i name="e_wo_entrp">   -106.11725309 </i>
    <i name="e_0_energy">   -106.11725309 </i>
   </energy>
  </scstep>
  <scstep>
   <time name="dav">   17.29   17.29</time>
   <time name="total">   19.69   19.83</time>
   <energy>
    <i name="e_fr_energy">   -106.12338435 </i>
    <i name="e_wo_entrp">   -106.12338435 </i>
    <i name="e_0_energy">   -106.12338435 </i>
   </energy>
  </scstep>
  <scstep>
   <time name="dav">   20.23   20.26</time>
   <time name="total">   22.61   22.64</time>
   <energy>
    <i name="e_fr_energy">   -106.12460079 </i>
    <i name="e_wo_entrp">   -106.12460079 </i>
    <i name="e_0_energy">   -106.12460079 </i>
   </energy>
  </scstep>
  <scstep>
   <time name="dav">   20.20   20.25</time>
   <time name="total">   22.58   22.64</time>
   <energy>
    <i name="e_fr_energy">   -106.12601379 </i>
    <i name="e_wo_entrp">   -106.12601379 </i>
    <i name="e_0_energy">   -106.12601379 </i>
   </energy>
  </scstep>
  <scstep>
   <time name="dav">   20.20   20.24</time>
   <time name="total">   22.65   22.71</time>
   <energy>
    <i name="e_fr_energy">   -106.12625146 </i>
    <i name="e_wo_entrp">   -106.12625146 </i>
    <i name="e_0_energy">   -106.12625146 </i>
   </energy>
  </scstep>
  <scstep>
   <time name="dav">   18.75   18.78</time>
   <time name="total">   21.16   21.20</time>
   <energy>
    <i name="e_fr_energy">   -106.12656622 </i>
    <i name="e_wo_entrp">   -106.12656622 </i>
    <i name="e_0_energy">   -106.12656622 </i>
   </energy>
  </scstep>
  <scstep>
   <time name="dav">   18.74   18.78</time>
   <time name="total">   21.17   21.22</time>
   <energy>
    <i name="e_fr_energy">   -106.12663200 </i>
    <i name="e_wo_entrp">   -106.12663200 </i>
    <i name="e_0_energy">   -106.12663200 </i>
   </energy>
  </scstep>
  <scstep>
   <time name="dav">   15.83   15.83</time>
   <time name="total">   18.31   18.32</time>
   <energy>
    <i name="e_fr_energy">   -106.12666671 </i>
    <i name="e_wo_entrp">   -106.12666671 </i>
    <i name="e_0_energy">   -106.12666671 </i>
   </energy>
  </scstep>
  <scstep>
   <time name="dav">   17.32   17.31</time>
   <time name="total">   19.86   19.86</time>
   <energy>
    <i name="e_fr_energy">   -106.12667546 </i>
    <i name="e_wo_entrp">   -106.12667546 </i>
    <i name="e_0_energy">   -106.12667546 </i>
   </energy>
  </scstep>
  <scstep>
   <time name="dav">   14.35   14.34</time>
   <time name="total">   16.81   16.80</time>
   <energy>
    <i name="e_fr_energy">   -106.12668110 </i>
    <i name="e_wo_entrp">   -106.12668110 </i>
    <i name="e_0_energy">   -106.12668110 </i>
   </energy>
  </scstep>
  <scstep>
   <time name="dav">   17.31   17.31</time>
   <time name="total">   19.79   19.78</time>
   <energy>
    <i name="e_fr_energy">   -106.12668275 </i>
    <i name="e_wo_entrp">   -106.12668275 </i>
    <i name="e_0_energy">   -106.12668275 </i>
   </energy>
  </scstep>
  <scstep>
   <time name="dav">   14.35   14.35</time>
   <time name="total">   17.03   17.04</time>
   <energy>
    <i name="e_fr_energy">   -106.12668421 </i>
    <i name="e_wo_entrp">   -106.12668421 </i>
    <i name="e_0_energy">   -106.12668421 </i>
   </energy>
  </scstep>
  <scstep>
   <time name="dav">   17.34   17.33</time>
   <time name="total">   19.13   19.13</time>
   <energy>
    <i name="alphaZ">      1.13752662 </i>
    <i name="ewald">   2709.40818830 </i>
    <i name="hartreedc">  -3646.59503924 </i>
    <i name="XCdc">    -47.12999129 </i>
    <i name="pawpsdc">   4961.07223852 </i>
    <i name="pawaedc">  -4789.92010505 </i>
    <i name="eentropy">     -0.00000000 </i>
    <i name="bandstr">   -526.34501098 </i>
    <i name="atom">   1232.24550866 </i>
    <i name="e_fr_energy">   -106.12668446 </i>
    <i name="e_wo_entrp">   -106.12668446 </i>
    <i name="e_0_energy">   -106.12668446 </i>
   </energy>
  </scstep>
  <structure>
   <crystal>
    <varray name="basis" >
     <v>      20.00000000       0.00000000       0.00000000 </v>
     <v>       0.00000000      20.00000000       0.00000000 </v>
     <v>       0.00000000       0.00000000      20.00000000 </v>
    </varray>
    <i name="volume">   8000.00000000 </i>
    <varray name="rec_basis" >
     <v>       0.05000000       0.00000000       0.00000000 </v>
     <v>       0.00000000       0.05000000       0.00000000 </v>
     <v>       0.00000000       0.00000000       0.05000000 </v>
    </varray>
   </crystal>
   <varray name="positions" >
    <v>       0.47564420       0.55600247       0.38593201 </v>
    <v>       0.37132078       0.53914056       0.43764986 </v>
    <v>       0.54102754       0.45894316       0.39807236 </v>
    <v>       0.53037274       0.64686485       0.43649735 </v>
    <v>       0.38579448       0.51493696       0.55187709 </v>
    <v>       0.55665187       0.43420518       0.51203219 </v>
    <v>       0.61249281       0.52339066       0.56434221 </v>
    <v>       0.45178073       0.41815015       0.56289332 </v>
    <v>       0.43927462       0.60523986       0.60473553 </v>
    <v>       0.54632177       0.62304633       0.55317226 </v>
    <v>       0.41687750       0.36020556       0.53059169 </v>
    <v>       0.46096069       0.40176573       0.63546290 </v>
    <v>       0.59743519       0.37144132       0.51859588 </v>
    <v>       0.67958648       0.53404987       0.53276332 </v>
    <v>       0.62318207       0.50828896       0.63693732 </v>
    <v>       0.60749557       0.46876085       0.36483915 </v>
    <v>       0.50688027       0.40133535       0.36438931 </v>
    <v>       0.46529008       0.57014126       0.31286466 </v>
    <v>       0.58265788       0.68294015       0.58766752 </v>
    <v>       0.44855549       0.59080984       0.67766629 </v>
    <v>       0.39771192       0.66724913       0.59849418 </v>
    <v>       0.31870029       0.50313398       0.58357777 </v>
    <v>       0.33573897       0.48220588       0.40429727 </v>
    <v>       0.32885819       0.60041013       0.42981566 </v>
    <v>       0.48955590       0.70921262       0.42887349 </v>
    <v>       0.59680199       0.65852919       0.40387639 </v>
   </varray>
  </structure>
  <varray name="forces" >
   <v>      -0.00109697       0.00044354      -0.00397624 </v>
   <v>      -0.00080142       0.00039135      -0.00016276 </v>
   <v>       0.00292213       0.00118560      -0.00053997 </v>
   <v>       0.00611042       0.00230200       0.00657756 </v>
   <v>      -0.00386511      -0.00086970       0.00138174 </v>
   <v>       0.00180002      -0.00344255       0.00031696 </v>
   <v>       0.00009002       0.00846219       0.00202733 </v>
   <v>       0.00107326       0.00034399       0.00323356 </v>
   <v>       0.00833277       0.00344896       0.00241109 </v>
   <v>      -0.00486438      -0.00732404      -0.00435543 </v>
   <v>       0.00107702       0.00079090       0.00272964 </v>
   <v>      -0.00122694      -0.00129060      -0.00251007 </v>
   <v>      -0.00162066      -0.00143130      -0.00127032 </v>
   <v>       0.00250962      -0.00318706       0.00384512 </v>
   <v>       0.00502944      -0.00199858      -0.00101386 </v>
   <v>      -0.00235720      -0.00160683      -0.00011378 </v>
   <v>       0.00285262       0.00137211      -0.00042653 </v>
   <v>      -0.00125060      -0.00238224      -0.00034397 </v>
   <v>      -0.00346709      -0.00520039      -0.00311267 </v>
   <v>      -0.00492738       0.00323132      -0.00026247 </v>
   <v>      -0.00339027       0.00044158       0.00461721 </v>
   <v>      -0.00051657      -0.00226601      -0.00158760 </v>
   <v>      -0.00005400       0.00413831       0.00106352 </v>
   <v>      -0.00077945      -0.00179279      -0.00069473 </v>
   <v>       0.00192329       0.00289608      -0.00483893 </v>
   <v>      -0.00350256       0.00334416      -0.00299441 </v>
  </varray>
  <varray name="stress" >
   <v>      -0.17492208      -0.00442063      -0.00207569 </v>
   <v>      -0.00442064      -0.17918032      -0.00341715 </v>
   <v>      -0.00207569      -0.00341715      -0.17577585 </v>
  </varray>
  <energy>
   <i name="e_fr_energy">   -106.12668446 </i>
   <i name="e_wo_entrp">   -106.12668446 </i>
   <i name="e_0_energy">     -0.00000000 </i>
  </energy>
  <kpoints>
   <generation param="Gamma">
    <v type="int" name="divisions">       1        1        1 </v>
    <v name="usershift">      0.00000000       0.00000000       0.00000000 </v>
    <v name="genvec1">      1.00000000       0.00000000       0.00000000 </v>
    <v name="genvec2">      0.00000000       1.00000000       0.00000000 </v>
    <v name="genvec3">      0.00000000       0.00000000       1.00000000 </v>
    <v name="shift">      0.00000000       0.00000000       0.00000000 </v>
   </generation>
   <varray name="kpointlist" >
    <v>       0.00000000       0.00000000       0.00000000 </v>
   </varray>
   <varray name="weights" >
    <v>       1.00000000 </v>
   </varray>
  </kpoints>
  <time name="totalsc">  578.67  579.42</time>
 </calculation>
 <calculation>
  <scstep>
   <time name="dav">   15.83   15.83</time>
   <time name="total">   18.19   18.19</time>
   <energy>
    <i name="alphaZ">      1.13752662 </i>
    <i name="ewald">   2709.65590083 </i>
    <i name="hartreedc">  -3646.84175311 </i>
    <i name="XCdc">    -47.12891337 </i>
    <i name="pawpsdc">   4961.07034945 </i>
    <i name="pawaedc">  -4789.91822111 </i>
    <i name="eentropy">     -0.00000000 </i>
    <i name="bandstr">   -526.34370033 </i>
    <i name="atom">   1232.24550866 </i>
    <i name="e_fr_energy">   -106.12330235 </i>
    <i name="e_wo_entrp">   -106.12330235 </i>
    <i name="e_0_energy">   -106.12330235 </i>
   </energy>
  </scstep>
  <scstep>
   <time name="dav">   20.25   20.25</time>
   <time name="total">   22.75   22.75</time>
   <energy>
    <i name="e_fr_energy">   -106.12362634 </i>
    <i name="e_wo_entrp">   -106.12362634 </i>
    <i name="e_0_energy">   -106.12362634 </i>
   </energy>
  </scstep>
  <scstep>
   <time name="dav">   20.28   20.39</time>
   <time name="total">   22.66   22.77</time>
   <energy>
    <i name="e_fr_energy">   -106.12360902 </i>
    <i name="e_wo_entrp">   -106.12360902 </i>
    <i name="e_0_energy">   -106.12360902 </i>
   </energy>
  </scstep>
  <scstep>
   <time name="dav">   20.23   20.27</time>
   <time name="total">   22.58   22.63</time>
   <energy>
    <i name="e_fr_energy">   -106.12361234 </i>
    <i name="e_wo_entrp">   -106.12361234 </i>
    <i name="e_0_energy">   -106.12361234 </i>
   </energy>
  </scstep>
  <scstep>
   <time name="dav">   21.70   21.71</time>
   <time name="total">   23.61   23.61</time>
   <energy>
    <i name="alphaZ">      1.13752662 </i>
    <i name="ewald">   2709.65590083 </i>
    <i name="hartreedc">  -3646.83442534 </i>
    <i name="XCdc">    -47.13053602 </i>
    <i name="pawpsdc">   4961.50593660 </i>
    <i name="pawaedc">  -4790.35399653 </i>
    <i name="eentropy">     -0.00000000 </i>
    <i name="bandstr">   -526.34952639 </i>
    <i name="atom">   1232.24550866 </i>
    <i name="e_fr_energy">   -106.12361156 </i>
    <i name="e_wo_entrp">   -106.12361156 </i>
    <i name="e_0_energy">   -106.12361156 </i>
   </energy>
  </scstep>
  <structure>
   <crystal>
    <varray name="basis" >
     <v>      20.00000000       0.00000000       0.00000000 </v>
     <v>       0.00000000      20.00000000       0.00000000 </v>
     <v>       0.00000000       0.00000000      20.00000000 </v>
    </varray>
    <i name="volume">   8000.00000000 </i>
    <varray name="rec_basis" >
     <v>       0.05000000       0.00000000       0.00000000 </v>
     <v>       0.00000000       0.05000000       0.00000000 </v>
     <v>       0.00000000       0.00000000       0.05000000 </v>
    </varray>
   </crystal>
   <varray name="positions" >
    <v>       0.47664420       0.55600247       0.38593201 </v>
    <v>       0.37132078       0.53914056       0.43764986 </v>
    <v>       0.54102754       0.45894316       0.39807236 </v>
    <v>       0.53037274       0.64686485       0.43649735 </v>
    <v>       0.38579448       0.51493696       0.55187709 </v>
    <v>       0.55665187       0.43420518       0.51203219 </v>
    <v>       0.61249281       0.52339066       0.56434221 </v>
    <v>       0.45178073       0.41815015       0.56289332 </v>
    <v>       0.43927462       0.60523986       0.60473553 </v>
    <v>       0.54632177       0.62304633       0.55317226 </v>
    <v>       0.41687750       0.36020556       0.53059169 </v>
    <v>       0.46096069       0.40176573       0.63546290 </v>
    <v>       0.59743519       0.37144132       0.51859588 </v>
    <v>       0.67958648       0.53404987       0.53276332 </v>
    <v>       0.62318207       0.50828896       0.63693732 </v>
    <v>       0.60749557       0.46876085       0.36483915 </v>
    <v>       0.50688027       0.40133535       0.36438931 </v>
    <v>       0.46529008       0.57014126       0.31286466 </v>
    <v>       0.58265788       0.68294015       0.58766752 </v>
    <v>       0.44855549       0.59080984       0.67766629 </v>
    <v>       0.39771192       0.66724913       0.59849418 </v>
    <v>       0.31870029       0.50313398       0.58357777 </v>
    <v>       0.33573897       0.48220588       0.40429727 </v>
    <v>       0.32885819       0.60041013       0.42981566 </v>
    <v>       0.48955590       0.70921262       0.42887349 </v>
    <v>       0.59680199       0.65852919       0.40387639 </v>
   </varray>
  </structure>
  <varray name="forces" >
   <v>      -0.30483677       0.00496158      -0.02859929 </v>
   <v>       0.13379816       0.01556448      -0.04395240 </v>
   <v>       0.07606137      -0.06417684       0.00389206 </v>
   <v>       0.06705571       0.05534415       0.03267806 </v>
   <v>      -0.01196960       0.00011549      -0.00513943 </v>
   <v>       0.00117155      -0.00346033       0.00504089 </v>
   <v>       0.00116501       0.00903634       0.00099522 </v>
   <v>      -0.00199564       0.00240298       0.00432795 </v>
   <v>       0.00576437       0.00079235       0.00251428 </v>
   <v>      -0.00545144      -0.00839509      -0.00078400 </v>
   <v>       0.00174620       0.00040459       0.00254398 </v>
   <v>       0.00017244      -0.00213084      -0.00279965 </v>
   <v>      -0.00166542      -0.00097882      -0.00350001 </v>
   <v>       0.00243538      -0.00327378       0.00387978 </v>
   <v>       0.00455377      -0.00209448      -0.00112451 </v>
   <v>       0.00527451      -0.01339437       0.00161178 </v>
   <v>      -0.00351434       0.00927749      -0.00187001 </v>
   <v>       0.03071230      -0.00996986       0.03876680 </v>
   <v>      -0.00345513      -0.00504634      -0.00485086 </v>
   <v>      -0.00370061       0.00427373      -0.00010161 </v>
   <v>      -0.00279830       0.00093043       0.00464073 </v>
   <v>       0.00038166      -0.00342776       0.00400411 </v>
   <v>       0.00508708       0.00558184      -0.00154449 </v>
   <v>       0.00574791      -0.00113078      -0.00415052 </v>
   <v>      -0.00439187      -0.00553451      -0.01004228 </v>
   <v>       0.00265170       0.01432835       0.00356342 </v>
  </varray>
  <varray name="stress" >
   <v>      -0.20020338      -0.01691284       0.02719885 </v>
   <v>      -0.01691285      -0.13826681       0.00887278 </v>
   <v>       0.02719885       0.00887278      -0.19024197 </v>
  </varray>
  <energy>
   <i name="e_fr_energy">   -106.12361156 </i>
   <i name="e_wo_entrp">   -106.12361156 </i>
   <i name="e_0_energy">     -0.00000000 </i>
  </energy>
  <kpoints>
   <generation param="Gamma">
    <v type="int" name="divisions">       1        1        1 </v>
    <v name="usershift">      0.00000000       0.00000000       0.00000000 </v>
    <v name="genvec1">      1.00000000       0.00000000       0.00000000 </v>
    <v name="genvec2">      0.00000000       1.00000000       0.00000000 </v>
    <v name="genvec3">      0.00000000       0.00000000       1.00000000 </v>
    <v name="shift">      0.00000000       0.00000000       0.00000000 </v>
   </generation>
   <varray name="kpointlist" >
    <v>       0.00000000       0.00000000       0.00000000 </v>
   </varray>
   <varray name="weights" >
    <v>       1.00000000 </v>
   </varray>
  </kpoints>
  <time name="totalsc">  143.21  143.59</time>
 </calculation>
 <calculation>
  <scstep>
   <time name="dav">   15.78   15.78</time>
   <time name="total">   18.10   18.11</time>
   <energy>
    <i name="alphaZ">      1.13752662 </i>
    <i name="ewald">   2709.15870626 </i>
    <i name="hartreedc">  -3646.32928089 </i>
    <i name="XCdc">    -47.13294671 </i>
    <i name="pawpsdc">   4961.54619971 </i>
    <i name="pawaedc">  -4790.39425380 </i>
    <i name="eentropy">     -0.00000000 </i>
    <i name="bandstr">   -526.35375953 </i>
    <i name="atom">   1232.24550866 </i>
    <i name="e_fr_energy">   -106.12229967 </i>
    <i name="e_wo_entrp">   -106.12229967 </i>
    <i name="e_0_energy">   -106.12229967 </i>
   </energy>
  </scstep>
  <scstep>
   <time name="dav">   20.15   20.23</time>
   <time name="total">   22.50   22.60</time>
   <energy>
    <i name="e_fr_energy">   -106.12364480 </i>
    <i name="e_wo_entrp">   -106.12364480 </i>
    <i name="e_0_energy">   -106.12364480 </i>
   </energy>
  </scstep>
  <scstep>
   <time name="dav">   21.66   21.74</time>
   <time name="total">   24.02   24.10</time>
   <energy>
    <i name="e_fr_energy">   -106.12358327 </i>
    <i name="e_wo_entrp">   -106.12358327 </i>
    <i name="e_0_energy">   -106.12358327 </i>
   </energy>
  </scstep>
  <scstep>
   <time name="dav">   20.21   20.24</time>
   <time name="total">   22.57   22.62</time>
   <energy>
    <i name="e_fr_energy">   -106.12360054 </i>
    <i name="e_wo_entrp">   -106.12360054 </i>
    <i name="e_0_energy">   -106.12360054 </i>
   </energy>
  </scstep>
  <scstep>
   <time name="dav">   21.69   21.72</time>
   <time name="total">   24.08   24.12</time>
   <energy>
    <i name="e_fr_energy">   -106.12359801 </i>
    <i name="e_wo_entrp">   -106.12359801 </i>
    <i name="e_0_energy">   -106.12359801 </i>
   </energy>
  </scstep>
  <scstep>
   <time name="dav">   20.24   20.24</time>
   <time name="total">   22.03   22.03</time>
   <energy>
    <i name="alphaZ">      1.13752662 </i>
    <i name="ewald">   2709.15870626 </i>
    <i name="hartreedc">  -3646.34642407 </i>
    <i name="XCdc">    -47.12972994 </i>
    <i name="pawpsdc">   4961.07425738 </i>
    <i name="pawaedc">  -4789.92217988 </i>
    <i name="eentropy">     -0.00000000 </i>
    <i name="bandstr">   -526.34126264 </i>
    <i name="atom">   1232.24550866 </i>
    <i name="e_fr_energy">   -106.12359760 </i>
    <i name="e_wo_entrp">   -106.12359760 </i>
    <i name="e_0_energy">   -106.12359760 </i>
   </energy>
  </scstep>
  <structure>
   <crystal>
    <varray name="basis" >
     <v>      20.00000000       0.00000000       0.00000000 </v>
     <v>       0.00000000      20.00000000       0.00000000 </v>
     <v>       0.00000000       0.00000000      20.00000000 </v>
    </varray>
    <i name="volume">   8000.00000000 </i>
    <varray name="rec_basis" >
     <v>       0.05000000       0.00000000       0.00000000 </v>
     <v>       0.00000000       0.05000000       0.00000000 </v>
     <v>       0.00000000       0.00000000       0.05000000 </v>
    </varray>
   </crystal>
   <varray name="positions" >
    <v>       0.47464420       0.55600247       0.38593201 </v>
    <v>       0.37132078       0.53914056       0.43764986 </v>
    <v>       0.54102754       0.45894316       0.39807236 </v>
    <v>       0.53037274       0.64686485       0.43649735 </v>
    <v>       0.38579448       0.51493696       0.55187709 </v>
    <v>       0.55665187       0.43420518       0.51203219 </v>
    <v>       0.61249281       0.52339066       0.56434221 </v>
    <v>       0.45178073       0.41815015       0.56289332 </v>
    <v>       0.43927462       0.60523986       0.60473553 </v>
    <v>       0.54632177       0.62304633       0.55317226 </v>
    <v>       0.41687750       0.36020556       0.53059169 </v>
    <v>       0.46096069       0.40176573       0.63546290 </v>
    <v>       0.59743519       0.37144132       0.51859588 </v>
    <v>       0.67958648       0.53404987       0.53276332 </v>
    <v>       0.62318207       0.50828896       0.63693732 </v>
    <v>       0.60749557       0.46876085       0.36483915 </v>
    <v>       0.50688027       0.40133535       0.36438931 </v>
    <v>       0.46529008       0.57014126       0.31286466 </v>
    <v>       0.58265788       0.68294015       0.58766752 </v>
    <v>       0.44855549       0.59080984       0.67766629 </v>
    <v>       0.39771192       0.66724913       0.59849418 </v>
    <v>       0.31870029       0.50313398       0.58357777 </v>
    <v>       0.33573897       0.48220588       0.40429727 </v>
    <v>       0.32885819       0.60041013       0.42981566 </v>
    <v>       0.48955590       0.70921262       0.42887349 </v>
    <v>       0.59680199       0.65852919       0.40387639 </v>
   </varray>
  </structure>
  <varray name="forces" >
   <v>       0.30945945      -0.00017813       0.01068270 </v>
   <v>      -0.14396262      -0.01643302       0.04858117 </v>
   <v>      -0.06964695       0.06301991      -0.00413504 </v>
   <v>      -0.05515874      -0.04889181      -0.01797642 </v>
   <v>       0.00434183      -0.00186174       0.00793861 </v>
   <v>       0.00242756      -0.00343587      -0.00442261 </v>
   <v>      -0.00107135       0.00789643       0.00304583 </v>
   <v>       0.00406408      -0.00172064       0.00208464 </v>
   <v>       0.01082946       0.00613345       0.00229864 </v>
   <v>      -0.00426061      -0.00622190      -0.00796018 </v>
   <v>       0.00039618       0.00121422       0.00294123 </v>
   <v>      -0.00267143      -0.00041389      -0.00227790 </v>
   <v>      -0.00155402      -0.00191755       0.00100894 </v>
   <v>       0.00260759      -0.00309731       0.00378975 </v>
   <v>       0.00549922      -0.00193433      -0.00077790 </v>
   <v>      -0.00938585       0.00981233      -0.00204932 </v>
   <v>       0.00916547      -0.00646615       0.00095314 </v>
   <v>      -0.03250890       0.00457747      -0.03658823 </v>
   <v>      -0.00347083      -0.00535028      -0.00131535 </v>
   <v>      -0.00618582       0.00219104      -0.00047752 </v>
   <v>      -0.00397776      -0.00009047       0.00460825 </v>
   <v>      -0.00144207      -0.00109341      -0.00719302 </v>
   <v>      -0.00521614       0.00289924       0.00379128 </v>
   <v>      -0.00730621      -0.00270316       0.00282417 </v>
   <v>       0.00819512       0.01128022       0.00027090 </v>
   <v>      -0.00916666      -0.00721465      -0.00964577 </v>
  </varray>
  <varray name="stress" >
   <v>      -0.14779004       0.00843199      -0.03345657 </v>
   <v>       0.00843200      -0.21814084      -0.01568564 </v>
   <v>      -0.03345656      -0.01568564      -0.16083863 </v>
  </varray>
  <energy>
   <i name="e_fr_energy">   -106.12359760 </i>
   <i name="e_wo_entrp">   -106.12359760 </i>
   <i name="e_0_energy">     -0.00000000 </i>
  </energy>
  <kpoints>
   <generation param="Gamma">
    <v type="int" name="divisions">       1        1        1 </v>
    <v name="usershift">      0.00000000       0.00000000       0.00000000 </v>
    <v name="genvec1">      1.00000000       0.00000000       0.00000000 </v>
    <v name="genvec2">      0.00000000       1.00000000       0.00000000 </v>
    <v name="genvec3">      0.00000000       0.00000000       1.00000000 </v>
    <v name="shift">      0.00000000       0.00000000       0.00000000 </v>
   </generation>
   <varray name="kpointlist" >
    <v>       0.00000000       0.00000000       0.00000000 </v>
   </varray>
   <varray name="weights" >
    <v>       1.00000000 </v>
   </varray>
  </kpoints>
  <time name="totalsc">  166.50  166.84</time>
 </calculation>
 <calculation>
  <scstep>
   <time name="dav">   15.75   15.81</time>
   <time name="total">   18.08   18.15</time>
   <energy>
    <i name="alphaZ">      1.13752662 </i>
    <i name="ewald">   2709.01139322 </i>
    <i name="hartreedc">  -3646.19884276 </i>
    <i name="XCdc">    -47.13040970 </i>
    <i name="pawpsdc">   4960.94299429 </i>
    <i name="pawaedc">  -4789.79090499 </i>
    <i name="eentropy">     -0.00000000 </i>
    <i name="bandstr">   -526.34022192 </i>
    <i name="atom">   1232.24550866 </i>
    <i name="e_fr_energy">   -106.12295656 </i>
    <i name="e_wo_entrp">   -106.12295656 </i>
    <i name="e_0_energy">   -106.12295656 </i>
   </energy>
  </scstep>
  <scstep>
   <time name="dav">   20.19   20.23</time>
   <time name="total">   22.53   22.58</time>
   <energy>
    <i name="e_fr_energy">   -106.12360714 </i>
    <i name="e_wo_entrp">   -106.12360714 </i>
    <i name="e_0_energy">   -106.12360714 </i>
   </energy>
  </scstep>
  <scstep>
   <time name="dav">   18.76   18.75</time>
   <time name="total">   21.39   21.38</time>
   <energy>
    <i name="e_fr_energy">   -106.12357830 </i>
    <i name="e_wo_entrp">   -106.12357830 </i>
    <i name="e_0_energy">   -106.12357830 </i>
   </energy>
  </scstep>
  <scstep>
   <time name="dav">   20.25   20.24</time>
   <time name="total">   22.61   22.60</time>
   <energy>
    <i name="e_fr_energy">   -106.12358883 </i>
    <i name="e_wo_entrp">   -106.12358883 </i>
    <i name="e_0_energy">   -106.12358883 </i>
   </energy>
  </scstep>
  <scstep>
   <time name="dav">   20.22   20.21</time>
   <time name="total">   22.58   22.57</time>
   <energy>
    <i name="e_fr_energy">   -106.12358886 </i>
    <i name="e_wo_entrp">   -106.12358886 </i>
    <i name="e_0_energy">   -106.12358886 </i>
   </energy>
  </scstep>
  <scstep>
   <time name="dav">   20.23   20.22</time>
   <time name="total">   22.02   22.01</time>
   <energy>
    <i name="alphaZ">      1.13752662 </i>
    <i name="ewald">   2709.01139322 </i>
    <i name="hartreedc">  -3646.20872729 </i>
    <i name="XCdc">    -47.12958258 </i>
    <i name="pawpsdc">   4960.55779338 </i>
    <i name="pawaedc">  -4789.40560984 </i>
    <i name="eentropy">     -0.00000000 </i>
    <i name="bandstr">   -526.33189136 </i>
    <i name="atom">   1232.24550866 </i>
    <i name="e_fr_energy">   -106.12358919 </i>
    <i name="e_wo_entrp">   -106.12358919 </i>
    <i name="e_0_energy">   -106.12358919 </i>
   </energy>
  </scstep>
  <structure>
   <crystal>
    <varray name="basis" >
     <v>      20.00000000       0.00000000       0.00000000 </v>
     <v>       0.00000000      20.00000000       0.00000000 </v>
     <v>       0.00000000       0.00000000      20.00000000 </v>
    </varray>
    <i name="volume">   8000.00000000 </i>
    <varray name="rec_basis" >
     <v>       0.05000000       0.00000000       0.00000000 </v>
     <v>       0.00000000       0.05000000       0.00000000 </v>
     <v>       0.00000000       0.00000000       0.05000000 </v>
    </varray>
   </crystal>
   <varray name="positions" >
    <v>       0.47564420       0.55700247       0.38593201 </v>
    <v>       0.37132078       0.53914056       0.43764986 </v>
    <v>       0.54102754       0.45894316       0.39807236 </v>
    <v>       0.53037274       0.64686485       0.43649735 </v>
    <v>       0.38579448       0.51493696       0.55187709 </v>
    <v>       0.55665187       0.43420518       0.51203219 </v>
    <v>       0.61249281       0.52339066       0.56434221 </v>
    <v>       0.45178073       0.41815015       0.56289332 </v>
    <v>       0.43927462       0.60523986       0.60473553 </v>
    <v>       0.54632177       0.62304633       0.55317226 </v>
    <v>       0.41687750       0.36020556       0.53059169 </v>
    <v>       0.46096069       0.40176573       0.63546290 </v>
    <v>       0.59743519       0.37144132       0.51859588 </v>
    <v>       0.67958648       0.53404987       0.53276332 </v>
    <v>       0.62318207       0.50828896       0.63693732 </v>
    <v>       0.60749557       0.46876085       0.36483915 </v>
    <v>       0.50688027       0.40133535       0.36438931 </v>
    <v>       0.46529008       0.57014126       0.31286466 </v>
    <v>       0.58265788       0.68294015       0.58766752 </v>
    <v>       0.44855549       0.59080984       0.67766629 </v>
    <v>       0.39771192       0.66724913       0.59849418 </v>
    <v>       0.31870029       0.50313398       0.58357777 </v>
    <v>       0.33573897       0.48220588       0.40429727 </v>
    <v>       0.32885819       0.60041013       0.42981566 </v>
    <v>       0.48955590       0.70921262       0.42887349 </v>
    <v>       0.59680199       0.65852919       0.40387639 </v>
   </varray>
  </structure>
  <varray name="forces" >
   <v>      -0.00442107      -0.30875311       0.01747240 </v>
   <v>       0.01884176       0.03371232      -0.00875287 </v>
   <v>      -0.05748780       0.12211296      -0.00572404 </v>
   <v>       0.05721326       0.11942402       0.04853695 </v>
   <v>      -0.00183765      -0.00113159       0.00003875 </v>
   <v>       0.00171409      -0.00390341      -0.00671913 </v>
   <v>       0.00055829       0.00429156       0.00086869 </v>
   <v>       0.00336078       0.00032144       0.00374640 </v>
   <v>       0.00561746       0.00325982       0.00187561 </v>
   <v>      -0.00693123      -0.01535139       0.00096912 </v>
   <v>       0.00064285       0.00088229       0.00276664 </v>
   <v>      -0.00212229      -0.00134049      -0.00212617 </v>
   <v>      -0.00112978      -0.00190655       0.00211771 </v>
   <v>       0.00241116      -0.00228063       0.00410094 </v>
   <v>       0.00489709      -0.00005249      -0.00057173 </v>
   <v>       0.00001503      -0.00638534       0.00068837 </v>
   <v>      -0.00319014       0.01002275      -0.00193179 </v>
   <v>      -0.00825310       0.03318819      -0.05043883 </v>
   <v>      -0.00440081      -0.00413575      -0.00838686 </v>
   <v>      -0.00384295       0.00365339      -0.00048358 </v>
   <v>      -0.00291801       0.00062750       0.00471104 </v>
   <v>      -0.00066845      -0.00190685      -0.00189728 </v>
   <v>       0.01103243       0.00541311      -0.00518804 </v>
   <v>      -0.01405361      -0.00502221       0.00631803 </v>
   <v>       0.00790371       0.01205444       0.00097179 </v>
   <v>      -0.00295102       0.00320602      -0.00296213 </v>
  </varray>
  <varray name="stress" >
   <v>      -0.18635268       0.03512709       0.01062011 </v>
   <v>       0.03512708      -0.18466065       0.01837732 </v>
   <v>       0.01062012       0.01837731      -0.15642174 </v>
  </varray>
  <energy>
   <i name="e_fr_energy">   -106.12358919 </i>
   <i name="e_wo_entrp">   -106.12358919 </i>
   <i name="e_0_energy">     -0.00000000 </i>
  </energy>
  <kpoints>
   <generation param="Gamma">
    <v type="int" name="divisions">       1        1        1 </v>
    <v name="usershift">      0.00000000       0.00000000       0.00000000 </v>
    <v name="genvec1">      1.00000000       0.00000000       0.00000000 </v>
    <v name="genvec2">      0.00000000       1.00000000       0.00000000 </v>
    <v name="genvec3">      0.00000000       0.00000000       1.00000000 </v>
    <v name="shift">      0.00000000       0.00000000       0.00000000 </v>
   </generation>
   <varray name="kpointlist" >
    <v>       0.00000000       0.00000000       0.00000000 </v>
   </varray>
   <varray name="weights" >
    <v>       1.00000000 </v>
   </varray>
  </kpoints>
  <time name="totalsc">  162.57  162.68</time>
 </calculation>
 <calculation>
  <scstep>
   <time name="dav">   15.81   15.81</time>
   <time name="total">   18.15   18.15</time>
   <energy>
    <i name="alphaZ">      1.13752662 </i>
    <i name="ewald">   2709.80355026 </i>
    <i name="hartreedc">  -3647.00668393 </i>
    <i name="XCdc">    -47.12586174 </i>
    <i name="pawpsdc">   4960.56329312 </i>
    <i name="pawaedc">  -4789.41110517 </i>
    <i name="eentropy">     -0.00000000 </i>
    <i name="bandstr">   -526.32844870 </i>
    <i name="atom">   1232.24550866 </i>
    <i name="e_fr_energy">   -106.12222086 </i>
    <i name="e_wo_entrp">   -106.12222086 </i>
    <i name="e_0_energy">   -106.12222086 </i>
   </energy>
  </scstep>
  <scstep>
   <time name="dav">   20.24   20.28</time>
   <time name="total">   22.59   22.65</time>
   <energy>
    <i name="e_fr_energy">   -106.12359841 </i>
    <i name="e_wo_entrp">   -106.12359841 </i>
    <i name="e_0_energy">   -106.12359841 </i>
   </energy>
  </scstep>
  <scstep>
   <time name="dav">   21.76   21.77</time>
   <time name="total">   24.10   24.11</time>
   <energy>
    <i name="e_fr_energy">   -106.12352999 </i>
    <i name="e_wo_entrp">   -106.12352999 </i>
    <i name="e_0_energy">   -106.12352999 </i>
   </energy>
  </scstep>
  <scstep>
   <time name="dav">   21.74   21.75</time>
   <time name="total">   24.10   24.11</time>
   <energy>
    <i name="e_fr_energy">   -106.12354463 </i>
    <i name="e_wo_entrp">   -106.12354463 </i>
    <i name="e_0_energy">   -106.12354463 </i>
   </energy>
  </scstep>
  <scstep>
   <time name="dav">   21.71   21.75</time>
   <time name="total">   24.06   24.10</time>
   <energy>
    <i name="e_fr_energy">   -106.12354102 </i>
    <i name="e_wo_entrp">   -106.12354102 </i>
    <i name="e_0_energy">   -106.12354102 </i>
   </energy>
  </scstep>
  <scstep>
   <time name="dav">   20.24   20.28</time>
   <time name="total">   22.02   22.07</time>
   <energy>
    <i name="alphaZ">      1.13752662 </i>
    <i name="ewald">   2709.80355026 </i>
    <i name="hartreedc">  -3646.97811997 </i>
    <i name="XCdc">    -47.13060426 </i>
    <i name="pawpsdc">   4961.98608873 </i>
    <i name="pawaedc">  -4790.83422741 </i>
    <i name="eentropy">     -0.00000000 </i>
    <i name="bandstr">   -526.35326325 </i>
    <i name="atom">   1232.24550866 </i>
    <i name="e_fr_energy">   -106.12354061 </i>
    <i name="e_wo_entrp">   -106.12354061 </i>
    <i name="e_0_energy">   -106.12354061 </i>
   </energy>
  </scstep>
  <structure>
   <crystal>
    <varray name="basis" >
     <v>      20.00000000       0.00000000       0.00000000 </v>
     <v>       0.00000000      20.00000000       0.00000000 </v>
     <v>       0.00000000       0.00000000      20.00000000 </v>
    </varray>
    <i name="volume">   8000.00000000 </i>
    <varray name="rec_basis" >
     <v>       0.05000000       0.00000000       0.00000000 </v>
     <v>       0.00000000       0.05000000       0.00000000 </v>
     <v>       0.00000000       0.00000000       0.05000000 </v>
    </varray>
   </crystal>
   <varray name="positions" >
    <v>       0.47564420       0.55500247       0.38593201 </v>
    <v>       0.37132078       0.53914056       0.43764986 </v>
    <v>       0.54102754       0.45894316       0.39807236 </v>
    <v>       0.53037274       0.64686485       0.43649735 </v>
    <v>       0.38579448       0.51493696       0.55187709 </v>
    <v>       0.55665187       0.43420518       0.51203219 </v>
    <v>       0.61249281       0.52339066       0.56434221 </v>
    <v>       0.45178073       0.41815015       0.56289332 </v>
    <v>       0.43927462       0.60523986       0.60473553 </v>
    <v>       0.54632177       0.62304633       0.55317226 </v>
    <v>       0.41687750       0.36020556       0.53059169 </v>
    <v>       0.46096069       0.40176573       0.63546290 </v>
    <v>       0.59743519       0.37144132       0.51859588 </v>
    <v>       0.67958648       0.53404987       0.53276332 </v>
    <v>       0.62318207       0.50828896       0.63693732 </v>
    <v>       0.60749557       0.46876085       0.36483915 </v>
    <v>       0.50688027       0.40133535       0.36438931 </v>
    <v>       0.46529008       0.57014126       0.31286466 </v>
    <v>       0.58265788       0.68294015       0.58766752 </v>
    <v>       0.44855549       0.59080984       0.67766629 </v>
    <v>       0.39771192       0.66724913       0.59849418 </v>
    <v>       0.31870029       0.50313398       0.58357777 </v>
    <v>       0.33573897       0.48220588       0.40429727 </v>
    <v>       0.32885819       0.60041013       0.42981566 </v>
    <v>       0.48955590       0.70921262       0.42887349 </v>
    <v>       0.59680199       0.65852919       0.40387639 </v>
   </varray>
  </structure>
  <varray name="forces" >
   <v>      -0.00963929       0.31236239      -0.03257106 </v>
   <v>      -0.01928388      -0.03246874       0.00837463 </v>
   <v>       0.06925584      -0.12630385       0.00579392 </v>
   <v>      -0.04075176      -0.10986097      -0.03163478 </v>
   <v>      -0.00586200      -0.00067607       0.00267587 </v>
   <v>       0.00185311      -0.00304146       0.00735016 </v>
   <v>      -0.00034500       0.01247273       0.00302046 </v>
   <v>      -0.00106063       0.00030584       0.00266872 </v>
   <v>       0.01103226       0.00365701       0.00283533 </v>
   <v>      -0.00282696       0.00054694      -0.00959494 </v>
   <v>       0.00146039       0.00072053       0.00268910 </v>
   <v>      -0.00037937      -0.00121312      -0.00285888 </v>
   <v>      -0.00214222      -0.00094007      -0.00460772 </v>
   <v>       0.00258715      -0.00404435       0.00359154 </v>
   <v>       0.00513186      -0.00388851      -0.00139373 </v>
   <v>      -0.00472659       0.00324373      -0.00093254 </v>
   <v>       0.00897504      -0.00757505       0.00109777 </v>
   <v>       0.00637504      -0.03954634       0.05218910 </v>
   <v>      -0.00253653      -0.00615156       0.00215080 </v>
   <v>      -0.00599791       0.00280979       0.00001241 </v>
   <v>      -0.00388427       0.00029951       0.00455815 </v>
   <v>      -0.00048399      -0.00260914      -0.00121588 </v>
   <v>      -0.01133789       0.00288064       0.00724120 </v>
   <v>       0.01252821       0.00132950      -0.00782925 </v>
   <v>      -0.00391726      -0.00589902      -0.01050737 </v>
   <v>      -0.00402333       0.00358963      -0.00310304 </v>
  </varray>
  <varray name="stress" >
   <v>      -0.16154736      -0.04492894      -0.01380624 </v>
   <v>      -0.04492893      -0.17122604      -0.02372696 </v>
   <v>      -0.01380623      -0.02372696      -0.19521899 </v>
  </varray>
  <energy>
   <i name="e_fr_energy">   -106.12354061 </i>
   <i name="e_wo_entrp">   -106.12354061 </i>
   <i name="e_0_energy">     -0.00000000 </i>
  </energy>
  <kpoints>
   <generation param="Gamma">
    <v type="int" name="divisions">       1        1        1 </v>
    <v name="usershift">      0.00000000       0.00000000       0.00000000 </v>
    <v name="genvec1">      1.00000000       0.00000000       0.00000000 </v>
    <v name="genvec2">      0.00000000       1.00000000       0.00000000 </v>
    <v name="genvec3">      0.00000000       0.00000000       1.00000000 </v>
    <v name="shift">      0.00000000       0.00000000       0.00000000 </v>
   </generation>
   <varray name="kpointlist" >
    <v>       0.00000000       0.00000000       0.00000000 </v>
   </varray>
   <varray name="weights" >
    <v>       1.00000000 </v>
   </varray>
  </kpoints>
  <time name="totalsc">  168.28  168.58</time>
 </calculation>
 <calculation>
  <scstep>
   <time name="dav">   15.82   15.83</time>
   <time name="total">   18.15   18.16</time>
   <energy>
    <i name="alphaZ">      1.13752662 </i>
    <i name="ewald">   2711.27133715 </i>
    <i name="hartreedc">  -3648.45700284 </i>
    <i name="XCdc">    -47.12368331 </i>
    <i name="pawpsdc">   4961.92631900 </i>
    <i name="pawaedc">  -4790.77447031 </i>
    <i name="eentropy">     -0.00000000 </i>
    <i name="bandstr">   -526.34701458 </i>
    <i name="atom">   1232.24550866 </i>
    <i name="e_fr_energy">   -106.12147961 </i>
    <i name="e_wo_entrp">   -106.12147961 </i>
    <i name="e_0_energy">   -106.12147961 </i>
   </energy>
  </scstep>
  <scstep>
   <time name="dav">   20.24   20.23</time>
   <time name="total">   22.58   22.57</time>
   <energy>
    <i name="e_fr_energy">   -106.12234030 </i>
    <i name="e_wo_entrp">   -106.12234030 </i>
    <i name="e_0_energy">   -106.12234030 </i>
   </energy>
  </scstep>
  <scstep>
   <time name="dav">   21.75   21.75</time>
   <time name="total">   24.10   24.09</time>
   <energy>
    <i name="e_fr_energy">   -106.12228949 </i>
    <i name="e_wo_entrp">   -106.12228949 </i>
    <i name="e_0_energy">   -106.12228949 </i>
   </energy>
  </scstep>
  <scstep>
   <time name="dav">   20.23   20.27</time>
   <time name="total">   22.70   22.75</time>
   <energy>
    <i name="e_fr_energy">   -106.12229604 </i>
    <i name="e_wo_entrp">   -106.12229604 </i>
    <i name="e_0_energy">   -106.12229604 </i>
   </energy>
  </scstep>
  <scstep>
   <time name="dav">   20.25   20.24</time>
   <time name="total">   22.60   22.61</time>
   <energy>
    <i name="e_fr_energy">   -106.12229432 </i>
    <i name="e_wo_entrp">   -106.12229432 </i>
    <i name="e_0_energy">   -106.12229432 </i>
   </energy>
  </scstep>
  <scstep>
   <time name="dav">   21.74   21.73</time>
   <time name="total">   24.10   24.09</time>
   <energy>
    <i name="e_fr_energy">   -106.12229597 </i>
    <i name="e_wo_entrp">   -106.12229597 </i>
    <i name="e_0_energy">   -106.12229597 </i>
   </energy>
  </scstep>
  <scstep>
   <time name="dav">   17.30   17.29</time>
   <time name="total">   19.78   19.78</time>
   <energy>
    <i name="e_fr_energy">   -106.12230188 </i>
    <i name="e_wo_entrp">   -106.12230188 </i>
    <i name="e_0_energy">   -106.12230188 </i>
   </energy>
  </scstep>
  <scstep>
   <time name="dav">   17.28   17.28</time>
   <time name="total">   19.65   19.65</time>
   <energy>
    <i name="e_fr_energy">   -106.12230639 </i>
    <i name="e_wo_entrp">   -106.12230639 </i>
    <i name="e_0_energy">   -106.12230639 </i>
   </energy>
  </scstep>
  <scstep>
   <time name="dav">   17.31   17.32</time>
   <time name="total">   19.65   19.69</time>
   <energy>
    <i name="e_fr_energy">   -106.12231266 </i>
    <i name="e_wo_entrp">   -106.12231266 </i>
    <i name="e_0_energy">   -106.12231266 </i>
   </energy>
  </scstep>
  <scstep>
   <time name="dav">   18.71   18.76</time>
   <time name="total">   21.08   21.14</time>
   <energy>
    <i name="e_fr_energy">   -106.12231908 </i>
    <i name="e_wo_entrp">   -106.12231908 </i>
    <i name="e_0_energy">   -106.12231908 </i>
   </energy>
  </scstep>
  <scstep>
   <time name="dav">   18.80   18.79</time>
   <time name="total">   21.19   21.20</time>
   <energy>
    <i name="e_fr_energy">   -106.12232028 </i>
    <i name="e_wo_entrp">   -106.12232028 </i>
    <i name="e_0_energy">   -106.12232028 </i>
   </energy>
  </scstep>
  <scstep>
   <time name="dav">   17.33   17.32</time>
   <time name="total">   19.74   19.73</time>
   <energy>
    <i name="e_fr_energy">   -106.12232222 </i>
    <i name="e_wo_entrp">   -106.12232222 </i>
    <i name="e_0_energy">   -106.12232222 </i>
   </energy>
  </scstep>
  <scstep>
   <time name="dav">   17.31   17.30</time>
   <time name="total">   19.72   19.71</time>
   <energy>
    <i name="e_fr_energy">   -106.12232329 </i>
    <i name="e_wo_entrp">   -106.12232329 </i>
    <i name="e_0_energy">   -106.12232329 </i>
   </energy>
  </scstep>
  <scstep>
   <time name="dav">   17.33   17.32</time>
   <time name="total">   19.37   19.38</time>
   <energy>
    <i name="alphaZ">      1.13752662 </i>
    <i name="ewald">   2711.27133715 </i>
    <i name="hartreedc">  -3648.38394535 </i>
    <i name="XCdc">    -47.13317645 </i>
    <i name="pawpsdc">   4964.11209335 </i>
    <i name="pawaedc">  -4792.96078098 </i>
    <i name="eentropy">     -0.00000000 </i>
    <i name="bandstr">   -526.41088724 </i>
    <i name="atom">   1232.24550866 </i>
    <i name="e_fr_energy">   -106.12232422 </i>
    <i name="e_wo_entrp">   -106.12232422 </i>
    <i name="e_0_energy">   -106.12232422 </i>
   </energy>
  </scstep>
  <structure>
   <crystal>
    <varray name="basis" >
     <v>      20.00000000       0.00000000       0.00000000 </v>
     <v>       0.00000000      20.00000000       0.00000000 </v>
     <v>       0.00000000       0.00000000      20.00000000 </v>
    </varray>
    <i name="volume">   8000.00000000 </i>
    <varray name="rec_basis" >
     <v>       0.05000000       0.00000000       0.00000000 </v>
     <v>       0.00000000       0.05000000       0.00000000 </v>
     <v>       0.00000000       0.00000000       0.05000000 </v>
    </varray>
   </crystal>
   <varray name="positions" >
    <v>       0.47564420       0.55600247       0.38693201 </v>
    <v>       0.37132078       0.53914056       0.43764986 </v>
    <v>       0.54102754       0.45894316       0.39807236 </v>
    <v>       0.53037274       0.64686485       0.43649735 </v>
    <v>       0.38579448       0.51493696       0.55187709 </v>
    <v>       0.55665187       0.43420518       0.51203219 </v>
    <v>       0.61249281       0.52339066       0.56434221 </v>
    <v>       0.45178073       0.41815015       0.56289332 </v>
    <v>       0.43927462       0.60523986       0.60473553 </v>
    <v>       0.54632177       0.62304633       0.55317226 </v>
    <v>       0.41687750       0.36020556       0.53059169 </v>
    <v>       0.46096069       0.40176573       0.63546290 </v>
    <v>       0.59743519       0.37144132       0.51859588 </v>
    <v>       0.67958648       0.53404987       0.53276332 </v>
    <v>       0.62318207       0.50828896       0.63693732 </v>
    <v>       0.60749557       0.46876085       0.36483915 </v>
    <v>       0.50688027       0.40133535       0.36438931 </v>
    <v>       0.46529008       0.57014126       0.31286466 </v>
    <v>       0.58265788       0.68294015       0.58766752 </v>
    <v>       0.44855549       0.59080984       0.67766629 </v>
    <v>       0.39771192       0.66724913       0.59849418 </v>
    <v>       0.31870029       0.50313398       0.58357777 </v>
    <v>       0.33573897       0.48220588       0.40429727 </v>
    <v>       0.32885819       0.60041013       0.42981566 </v>
    <v>       0.48955590       0.70921262       0.42887349 </v>
    <v>       0.59680199       0.65852919       0.40387639 </v>
   </varray>
  </structure>
  <varray name="forces" >
   <v>      -0.01762120       0.02118334      -0.42778626 </v>
   <v>      -0.06286810      -0.00915813       0.05847451 </v>
   <v>       0.01521495      -0.01698640       0.03262096 </v>
   <v>       0.03772419       0.05596710       0.06397710 </v>
   <v>      -0.01520069      -0.00246945       0.00518063 </v>
   <v>       0.00925416      -0.01446132      -0.00334873 </v>
   <v>      -0.00042181       0.00753545       0.00173636 </v>
   <v>       0.00208123       0.00047155       0.00276663 </v>
   <v>       0.00833110       0.00348819       0.00194783 </v>
   <v>       0.00089307       0.00244673      -0.00056402 </v>
   <v>       0.00084823       0.00079014       0.00268478 </v>
   <v>      -0.00153029      -0.00096163      -0.00254182 </v>
   <v>      -0.00108552      -0.00229714       0.00403255 </v>
   <v>       0.00259454      -0.00295518       0.00379659 </v>
   <v>       0.00491301      -0.00160144      -0.00103514 </v>
   <v>      -0.00762116       0.00649540      -0.00143684 </v>
   <v>      -0.00267916       0.00943041      -0.00173534 </v>
   <v>       0.03392440      -0.05023030       0.27714561 </v>
   <v>      -0.00307361      -0.00592439       0.00038503 </v>
   <v>      -0.00483218       0.00306400      -0.00052757 </v>
   <v>      -0.00342250       0.00050637       0.00456727 </v>
   <v>       0.00015004      -0.00292972       0.00180920 </v>
   <v>       0.00946234       0.00538666      -0.00410355 </v>
   <v>       0.00341607      -0.00101885      -0.00294601 </v>
   <v>      -0.00029513      -0.00078222      -0.00704238 </v>
   <v>      -0.00815596      -0.00498920      -0.00805738 </v>
  </varray>
  <varray name="stress" >
   <v>      -0.14599086       0.00777798      -0.01564453 </v>
   <v>       0.00777798      -0.15981620       0.01487728 </v>
   <v>      -0.01564453       0.01487728      -0.22457019 </v>
  </varray>
  <energy>
   <i name="e_fr_energy">   -106.12232422 </i>
   <i name="e_wo_entrp">   -106.12232422 </i>
   <i name="e_0_energy">     -0.00000000 </i>
  </energy>
  <kpoints>
   <generation param="Gamma">
    <v type="int" name="divisions">       1        1        1 </v>
    <v name="usershift">      0.00000000       0.00000000       0.00000000 </v>
    <v name="genvec1">      1.00000000       0.00000000       0.00000000 </v>
    <v name="genvec2">      0.00000000       1.00000000       0.00000000 </v>
    <v name="genvec3">      0.00000000       0.00000000       1.00000000 </v>
    <v name="shift">      0.00000000       0.00000000       0.00000000 </v>
   </generation>
   <varray name="kpointlist" >
    <v>       0.00000000       0.00000000       0.00000000 </v>
   </varray>
   <varray name="weights" >
    <v>       1.00000000 </v>
   </varray>
  </kpoints>
  <time name="totalsc">  327.84  327.98</time>
 </calculation>
 <calculation>
  <scstep>
   <time name="dav">   15.79   15.79</time>
   <time name="total">   18.14   18.14</time>
   <energy>
    <i name="alphaZ">      1.13752662 </i>
    <i name="ewald">   2707.55012664 </i>
    <i name="hartreedc">  -3644.62366548 </i>
    <i name="XCdc">    -47.15102334 </i>
    <i name="pawpsdc">   4964.11547316 </i>
    <i name="pawaedc">  -4792.96415987 </i>
    <i name="eentropy">     -0.00000000 </i>
    <i name="bandstr">   -526.42991017 </i>
    <i name="atom">   1232.24550866 </i>
    <i name="e_fr_energy">   -106.12012376 </i>
    <i name="e_wo_entrp">   -106.12012376 </i>
    <i name="e_0_energy">   -106.12012376 </i>
   </energy>
  </scstep>
  <scstep>
   <time name="dav">   20.44   20.44</time>
   <time name="total">   23.03   23.03</time>
   <energy>
    <i name="e_fr_energy">   -106.12239565 </i>
    <i name="e_wo_entrp">   -106.12239565 </i>
    <i name="e_0_energy">   -106.12239565 </i>
   </energy>
  </scstep>
  <scstep>
   <time name="dav">   20.25   20.25</time>
   <time name="total">   22.61   22.60</time>
   <energy>
    <i name="e_fr_energy">   -106.12221642 </i>
    <i name="e_wo_entrp">   -106.12221642 </i>
    <i name="e_0_energy">   -106.12221642 </i>
   </energy>
  </scstep>
  <scstep>
   <time name="dav">   20.27   20.27</time>
   <time name="total">   22.65   22.64</time>
   <energy>
    <i name="e_fr_energy">   -106.12222197 </i>
    <i name="e_wo_entrp">   -106.12222197 </i>
    <i name="e_0_energy">   -106.12222197 </i>
   </energy>
  </scstep>
  <scstep>
   <time name="dav">   20.28   20.28</time>
   <time name="total">   22.63   22.63</time>
   <energy>
    <i name="e_fr_energy">   -106.12221170 </i>
    <i name="e_wo_entrp">   -106.12221170 </i>
    <i name="e_0_energy">   -106.12221170 </i>
   </energy>
  </scstep>
  <scstep>
   <time name="dav">   20.27   20.26</time>
   <time name="total">   22.63   22.62</time>
   <energy>
    <i name="e_fr_energy">   -106.12221251 </i>
    <i name="e_wo_entrp">   -106.12221251 </i>
    <i name="e_0_energy">   -106.12221251 </i>
   </energy>
  </scstep>
  <scstep>
   <time name="dav">   20.26   20.25</time>
   <time name="total">   22.62   22.61</time>
   <energy>
    <i name="e_fr_energy">   -106.12222487 </i>
    <i name="e_wo_entrp">   -106.12222487 </i>
    <i name="e_0_energy">   -106.12222487 </i>
   </energy>
  </scstep>
  <scstep>
   <time name="dav">   20.28   20.27</time>
   <time name="total">   22.68   22.68</time>
   <energy>
    <i name="e_fr_energy">   -106.12224116 </i>
    <i name="e_wo_entrp">   -106.12224116 </i>
    <i name="e_0_energy">   -106.12224116 </i>
   </energy>
  </scstep>
  <scstep>
   <time name="dav">   18.79   18.78</time>
   <time name="total">   21.15   21.15</time>
   <energy>
    <i name="e_fr_energy">   -106.12225394 </i>
    <i name="e_wo_entrp">   -106.12225394 </i>
    <i name="e_0_energy">   -106.12225394 </i>
   </energy>
  </scstep>
  <scstep>
   <time name="dav">   20.24   20.23</time>
   <time name="total">   22.61   22.60</time>
   <energy>
    <i name="e_fr_energy">   -106.12227749 </i>
    <i name="e_wo_entrp">   -106.12227749 </i>
    <i name="e_0_energy">   -106.12227749 </i>
   </energy>
  </scstep>
  <scstep>
   <time name="dav">   18.80   18.79</time>
   <time name="total">   21.20   21.19</time>
   <energy>
    <i name="e_fr_energy">   -106.12228134 </i>
    <i name="e_wo_entrp">   -106.12228134 </i>
    <i name="e_0_energy">   -106.12228134 </i>
   </energy>
  </scstep>
  <scstep>
   <time name="dav">   17.29   17.29</time>
   <time name="total">   19.68   19.67</time>
   <energy>
    <i name="e_fr_energy">   -106.12228946 </i>
    <i name="e_wo_entrp">   -106.12228946 </i>
    <i name="e_0_energy">   -106.12228946 </i>
   </energy>
  </scstep>
  <scstep>
   <time name="dav">   17.30   17.30</time>
   <time name="total">   19.70   19.69</time>
   <energy>
    <i name="e_fr_energy">   -106.12229302 </i>
    <i name="e_wo_entrp">   -106.12229302 </i>
    <i name="e_0_energy">   -106.12229302 </i>
   </energy>
  </scstep>
  <scstep>
   <time name="dav">   17.29   17.29</time>
   <time name="total">   19.87   19.88</time>
   <energy>
    <i name="e_fr_energy">   -106.12229531 </i>
    <i name="e_wo_entrp">   -106.12229531 </i>
    <i name="e_0_energy">   -106.12229531 </i>
   </energy>
  </scstep>
  <scstep>
   <time name="dav">   17.26   17.32</time>
   <time name="total">   19.69   19.75</time>
   <energy>
    <i name="e_fr_energy">   -106.12229647 </i>
    <i name="e_wo_entrp">   -106.12229647 </i>
    <i name="e_0_energy">   -106.12229647 </i>
   </energy>
  </scstep>
  <scstep>
   <time name="dav">   18.79   18.79</time>
   <time name="total">   20.58   20.58</time>
   <energy>
    <i name="alphaZ">      1.13752662 </i>
    <i name="ewald">   2707.55012664 </i>
[...]
    <v name="genvec3">      0.00000000       0.00000000       1.00000000 </v>
    <v name="shift">      0.00000000       0.00000000       0.00000000 </v>
   </generation>
   <varray name="kpointlist" >
    <v>       0.00000000       0.00000000       0.00000000 </v>
   </varray>
   <varray name="weights" >
    <v>       1.00000000 </v>
   </varray>
  </kpoints>
  <time name="totalsc">  140.19  140.30</time>
  <eigenvalues>
   <array>
    <dimension dim="1">band</dimension>
    <dimension dim="2">kpoint</dimension>
    <dimension dim="3">spin</dimension>
    <field>eigene</field>
    <field>occ</field>
    <set>
     <set comment="spin 1">
      <set comment="kpoint 1">
       <r>  -14.9687    1.0000 </r>
       <r>  -14.0184    1.0000 </r>
       <r>  -13.8200    1.0000 </r>
       <r>  -13.8172    1.0000 </r>
       <r>  -12.6874    1.0000 </r>
       <r>  -12.6824    1.0000 </r>
       <r>  -11.6054    1.0000 </r>
       <r>  -11.3586    1.0000 </r>
       <r>  -11.3538    1.0000 </r>
       <r>  -10.4277    1.0000 </r>
       <r>   -9.0796    1.0000 </r>
       <r>   -8.7115    1.0000 </r>
       <r>   -8.6975    1.0000 </r>
       <r>   -8.6889    1.0000 </r>
       <r>   -8.2832    1.0000 </r>
       <r>   -8.2526    1.0000 </r>
       <r>   -8.2467    1.0000 </r>
       <r>   -7.9750    1.0000 </r>
       <r>   -7.9742    1.0000 </r>
       <r>   -7.8727    1.0000 </r>
       <r>   -6.8647    1.0000 </r>
       <r>   -6.8629    1.0000 </r>
       <r>   -6.5597    1.0000 </r>
       <r>   -6.5230    1.0000 </r>
       <r>   -6.5208    1.0000 </r>
       <r>   -6.4610    1.0000 </r>
       <r>   -6.4250    1.0000 </r>
       <r>   -6.4171    1.0000 </r>
       <r>   -1.7434    0.0000 </r>
       <r>   -1.4810    0.0000 </r>
       <r>   -1.3722    0.0000 </r>
       <r>   -1.3650    0.0000 </r>
       <r>   -1.0718    0.0000 </r>
       <r>   -1.0710    0.0000 </r>
       <r>   -1.0250    0.0000 </r>
       <r>   -0.7577    0.0000 </r>
       <r>   -0.7553    0.0000 </r>
       <r>   -0.4420    0.0000 </r>
       <r>   -0.4395    0.0000 </r>
       <r>   -0.3436    0.0000 </r>
       <r>   -0.2499    0.0000 </r>
       <r>   -0.1657    0.0000 </r>
       <r>   -0.1342    0.0000 </r>
       <r>   -0.0221    0.0000 </r>
       <r>   -0.0159    0.0000 </r>
       <r>    0.1611    0.0000 </r>
       <r>    0.1702    0.0000 </r>
       <r>    0.1759    0.0000 </r>
      </set>
     </set>
    </set>
   </array>
  </eigenvalues>
  <separator name="orbital magnetization" >
   <v name="MAGDIPOLOUT">      0.00000000      0.00000000      0.00000000</v>
  </separator>
  <dos>
   <i name="efermi">     -5.48189633 </i>
   <total>
    <array>
     <dimension dim="1">gridpoints</dimension>
     <dimension dim="2">spin</dimension>
     <field>energy</field>
     <field>total</field>
     <field>integrated</field>
     <set>
      <set comment="spin 1">
       <r>   -16.9687     0.0000     0.0000 </r>
       <r>   -16.9049     0.0000     0.0000 </r>
       <r>   -16.8411     0.0000     0.0000 </r>
       <r>   -16.7773     0.0000     0.0000 </r>
       <r>   -16.7135     0.0000     0.0000 </r>
       <r>   -16.6496     0.0000     0.0000 </r>
       <r>   -16.5858     0.0000     0.0000 </r>
       <r>   -16.5220     0.0000     0.0000 </r>
       <r>   -16.4582     0.0000     0.0000 </r>
       <r>   -16.3944     0.0000     0.0000 </r>
       <r>   -16.3306     0.0000     0.0000 </r>
       <r>   -16.2668     0.0000     0.0000 </r>
       <r>   -16.2029     0.0000     0.0000 </r>
       <r>   -16.1391     0.0000     0.0000 </r>
       <r>   -16.0753     0.0000     0.0000 </r>
       <r>   -16.0115     0.0000     0.0000 </r>
       <r>   -15.9477     0.0000     0.0000 </r>
       <r>   -15.8839     0.0000     0.0000 </r>
       <r>   -15.8200     0.0000     0.0000 </r>
       <r>   -15.7562     0.0000     0.0000 </r>
       <r>   -15.6924     0.0000     0.0000 </r>
       <r>   -15.6286     0.0000     0.0000 </r>
       <r>   -15.5648     0.0003     0.0000 </r>
       <r>   -15.5010     0.0022     0.0002 </r>
       <r>   -15.4372     0.0119     0.0009 </r>
       <r>   -15.3733     0.0517     0.0042 </r>
       <r>   -15.3095     0.1839     0.0160 </r>
       <r>   -15.2457     0.5359     0.0502 </r>
       <r>   -15.1819     1.2781     0.1317 </r>
       <r>   -15.1181     2.4947     0.2909 </r>
       <r>   -15.0543     3.9858     0.5453 </r>
       <r>   -14.9904     5.2125     0.8779 </r>
       <r>   -14.9266     5.5801     1.2340 </r>
       <r>   -14.8628     4.8899     1.5461 </r>
       <r>   -14.7990     3.5076     1.7699 </r>
       <r>   -14.7352     2.0595     1.9013 </r>
       <r>   -14.6714     0.9899     1.9645 </r>
       <r>   -14.6076     0.3898     1.9894 </r>
       <r>   -14.5437     0.1281     1.9975 </r>
       <r>   -14.4799     0.0472     2.0006 </r>
       <r>   -14.4161     0.0677     2.0049 </r>
       <r>   -14.3523     0.2142     2.0186 </r>
       <r>   -14.2885     0.6180     2.0580 </r>
       <r>   -14.2247     1.4884     2.1530 </r>
       <r>   -14.1608     3.0094     2.3450 </r>
       <r>   -14.0970     5.1931     2.6764 </r>
       <r>   -14.0332     7.8153     3.1752 </r>
       <r>   -13.9694    10.4803     3.8440 </r>
       <r>   -13.9056    12.6676     4.6523 </r>
       <r>   -13.8418    13.7271     5.5283 </r>
       <r>   -13.7780    13.0873     6.3635 </r>
       <r>   -13.7141    10.7329     7.0484 </r>
       <r>   -13.6503     7.4306     7.5226 </r>
       <r>   -13.5865     4.2873     7.7962 </r>
       <r>   -13.5227     2.0453     7.9267 </r>
       <r>   -13.4589     0.8030     7.9780 </r>
       <r>   -13.3951     0.2588     7.9945 </r>
       <r>   -13.3312     0.0685     7.9989 </r>
       <r>   -13.2674     0.0158     7.9999 </r>
       <r>   -13.2036     0.0091     8.0005 </r>
       <r>   -13.1398     0.0335     8.0026 </r>
       <r>   -13.0760     0.1379     8.0114 </r>
       <r>   -13.0122     0.4700     8.0414 </r>
       <r>   -12.9484     1.3120     8.1251 </r>
       <r>   -12.8845     2.9974     8.3164 </r>
       <r>   -12.8207     5.6057     8.6741 </r>
       <r>   -12.7569     8.5817     9.2218 </r>
       <r>   -12.6931    10.7545     9.9081 </r>
       <r>   -12.6293    11.0330    10.6121 </r>
       <r>   -12.5655     9.2658    11.2034 </r>
       <r>   -12.5016     6.3702    11.6100 </r>
       <r>   -12.4378     3.5850    11.8387 </r>
       <r>   -12.3740     1.6515    11.9441 </r>
       <r>   -12.3102     0.6227    11.9839 </r>
       <r>   -12.2464     0.1923    11.9961 </r>
       <r>   -12.1826     0.0492    11.9993 </r>
       <r>   -12.1188     0.0138    12.0002 </r>
       <r>   -12.0549     0.0204    12.0015 </r>
       <r>   -11.9911     0.0772    12.0064 </r>
       <r>   -11.9273     0.2592    12.0229 </r>
       <r>   -11.8635     0.7164    12.0686 </r>
       <r>   -11.7997     1.6336    12.1729 </r>
       <r>   -11.7359     3.0998    12.3707 </r>
       <r>   -11.6720     4.9787    12.6884 </r>
       <r>   -11.6082     6.9738    13.1335 </r>
       <r>   -11.5444     8.8813    13.7002 </r>
       <r>   -11.4806    10.6642    14.3808 </r>
       <r>   -11.4168    12.1269    15.1546 </r>
       <r>   -11.3530    12.6570    15.9624 </r>
       <r>   -11.2892    11.6196    16.7039 </r>
       <r>   -11.2253     9.0784    17.2832 </r>
       <r>   -11.1615     5.9197    17.6610 </r>
       <r>   -11.0977     3.1890    17.8645 </r>
       <r>   -11.0339     1.4125    17.9546 </r>
       <r>   -10.9701     0.5146    17.9875 </r>
       <r>   -10.9063     0.1618    17.9978 </r>
       <r>   -10.8424     0.0786    18.0028 </r>
       <r>   -10.7786     0.1597    18.0130 </r>
       <r>   -10.7148     0.4593    18.0423 </r>
       <r>   -10.6510     1.1279    18.1143 </r>
       <r>   -10.5872     2.2727    18.2593 </r>
       <r>   -10.5234     3.7488    18.4985 </r>
       <r>   -10.4596     5.0617    18.8215 </r>
       <r>   -10.3957     5.5944    19.1786 </r>
       <r>   -10.3319     5.0614    19.5016 </r>
       <r>   -10.2681     3.7484    19.7408 </r>
       <r>   -10.2043     2.2723    19.8858 </r>
       <r>   -10.1405     1.1275    19.9577 </r>
       <r>   -10.0767     0.4579    19.9869 </r>
       <r>   -10.0129     0.1522    19.9966 </r>
       <r>    -9.9490     0.0414    19.9993 </r>
       <r>    -9.8852     0.0092    19.9999 </r>
       <r>    -9.8214     0.0017    20.0000 </r>
       <r>    -9.7576     0.0003    20.0000 </r>
       <r>    -9.6938     0.0002    20.0000 </r>
       <r>    -9.6300     0.0013    20.0001 </r>
       <r>    -9.5661     0.0075    20.0006 </r>
       <r>    -9.5023     0.0347    20.0028 </r>
       <r>    -9.4385     0.1309    20.0111 </r>
       <r>    -9.3747     0.4037    20.0369 </r>
       <r>    -9.3109     1.0196    20.1020 </r>
       <r>    -9.2471     2.1098    20.2366 </r>
       <r>    -9.1833     3.5854    20.4654 </r>
       <r>    -9.1194     5.0418    20.7872 </r>
       <r>    -9.0556     6.0042    21.1703 </r>
       <r>    -8.9918     6.4555    21.5823 </r>
       <r>    -8.9280     7.1119    22.0361 </r>
       <r>    -8.8642     8.9379    22.6065 </r>
       <r>    -8.8004    12.1151    23.3796 </r>
       <r>    -8.7365    15.4481    24.3655 </r>
       <r>    -8.6727    17.0525    25.4537 </r>
       <r>    -8.6089    15.9537    26.4718 </r>
       <r>    -8.5451    13.1000    27.3077 </r>
       <r>    -8.4813    10.7391    27.9931 </r>
       <r>    -8.4175    10.7107    28.6766 </r>
       <r>    -8.3537    13.1183    29.5137 </r>
       <r>    -8.2898    16.3671    30.5582 </r>
       <r>    -8.2260    18.5178    31.7399 </r>
       <r>    -8.1622    18.8701    32.9441 </r>
       <r>    -8.0984    18.2997    34.1119 </r>
       <r>    -8.0346    17.9853    35.2597 </r>
       <r>    -7.9708    17.9753    36.4068 </r>
       <r>    -7.9069    17.2122    37.5052 </r>
       <r>    -7.8431    14.8122    38.4504 </r>
       <r>    -7.7793    11.0270    39.1541 </r>
       <r>    -7.7155     6.9776    39.5994 </r>
       <r>    -7.6517     3.7236    39.8370 </r>
       <r>    -7.5879     1.6686    39.9435 </r>
       <r>    -7.5241     0.6258    39.9834 </r>
       <r>    -7.4602     0.1964    39.9960 </r>
       <r>    -7.3964     0.0553    39.9995 </r>
       <r>    -7.3326     0.0345    40.0017 </r>
       <r>    -7.2688     0.1045    40.0084 </r>
       <r>    -7.2050     0.3658    40.0317 </r>
       <r>    -7.1412     1.0667    40.0998 </r>
       <r>    -7.0773     2.5505    40.2625 </r>
       <r>    -7.0135     5.0047    40.5819 </r>
       <r>    -6.9497     8.0983    41.0987 </r>
       <r>    -6.8859    10.9500    41.7975 </r>
       <r>    -6.8221    12.8091    42.6149 </r>
       <r>    -6.7583    14.0006    43.5083 </r>
       <r>    -6.6945    15.9888    44.5287 </r>
       <r>    -6.6306    20.0610    45.8089 </r>
       <r>    -6.5668    25.7168    47.4500 </r>
       <r>    -6.5030    30.4621    49.3940 </r>
       <r>    -6.4392    31.4633    51.4018 </r>
       <r>    -6.3754    27.6717    53.1677 </r>
       <r>    -6.3116    20.5337    54.4780 </r>
       <r>    -6.2477    12.7980    55.2947 </r>
       <r>    -6.1839     6.6772    55.7209 </r>
       <r>    -6.1201     2.9071    55.9064 </r>
       <r>    -6.0563     1.0529    55.9736 </r>
       <r>    -5.9925     0.3163    55.9938 </r>
       <r>    -5.9287     0.0786    55.9988 </r>
       <r>    -5.8649     0.0161    55.9998 </r>
       <r>    -5.8010     0.0027    56.0000 </r>
       <r>    -5.7372     0.0004    56.0000 </r>
       <r>    -5.6734     0.0000    56.0000 </r>
       <r>    -5.6096     0.0000    56.0000 </r>
       <r>    -5.5458     0.0000    56.0000 </r>
       <r>    -5.4820     0.0000    56.0000 </r>
       <r>    -5.4181     0.0000    56.0000 </r>
       <r>    -5.3543     0.0000    56.0000 </r>
       <r>    -5.2905     0.0000    56.0000 </r>
       <r>    -5.2267     0.0000    56.0000 </r>
       <r>    -5.1629     0.0000    56.0000 </r>
       <r>    -5.0991     0.0000    56.0000 </r>
       <r>    -5.0353     0.0000    56.0000 </r>
       <r>    -4.9714     0.0000    56.0000 </r>
       <r>    -4.9076     0.0000    56.0000 </r>
       <r>    -4.8438     0.0000    56.0000 </r>
       <r>    -4.7800     0.0000    56.0000 </r>
       <r>    -4.7162     0.0000    56.0000 </r>
       <r>    -4.6524     0.0000    56.0000 </r>
       <r>    -4.5885     0.0000    56.0000 </r>
       <r>    -4.5247     0.0000    56.0000 </r>
       <r>    -4.4609     0.0000    56.0000 </r>
       <r>    -4.3971     0.0000    56.0000 </r>
       <r>    -4.3333     0.0000    56.0000 </r>
       <r>    -4.2695     0.0000    56.0000 </r>
       <r>    -4.2057     0.0000    56.0000 </r>
       <r>    -4.1418     0.0000    56.0000 </r>
       <r>    -4.0780     0.0000    56.0000 </r>
       <r>    -4.0142     0.0000    56.0000 </r>
       <r>    -3.9504     0.0000    56.0000 </r>
       <r>    -3.8866     0.0000    56.0000 </r>
       <r>    -3.8228     0.0000    56.0000 </r>
       <r>    -3.7589     0.0000    56.0000 </r>
       <r>    -3.6951     0.0000    56.0000 </r>
       <r>    -3.6313     0.0000    56.0000 </r>
       <r>    -3.5675     0.0000    56.0000 </r>
       <r>    -3.5037     0.0000    56.0000 </r>
       <r>    -3.4399     0.0000    56.0000 </r>
       <r>    -3.3761     0.0000    56.0000 </r>
       <r>    -3.3122     0.0000    56.0000 </r>
       <r>    -3.2484     0.0000    56.0000 </r>
       <r>    -3.1846     0.0000    56.0000 </r>
       <r>    -3.1208     0.0000    56.0000 </r>
       <r>    -3.0570     0.0000    56.0000 </r>
       <r>    -2.9932     0.0000    56.0000 </r>
       <r>    -2.9293     0.0000    56.0000 </r>
       <r>    -2.8655     0.0000    56.0000 </r>
       <r>    -2.8017     0.0000    56.0000 </r>
       <r>    -2.7379     0.0000    56.0000 </r>
       <r>    -2.6741     0.0000    56.0000 </r>
       <r>    -2.6103     0.0000    56.0000 </r>
       <r>    -2.5465     0.0000    56.0000 </r>
       <r>    -2.4826     0.0000    56.0000 </r>
       <r>    -2.4188     0.0000    56.0000 </r>
       <r>    -2.3550     0.0002    56.0000 </r>
       <r>    -2.2912     0.0014    56.0001 </r>
       <r>    -2.2274     0.0081    56.0006 </r>
       <r>    -2.1636     0.0368    56.0030 </r>
       <r>    -2.0997     0.1378    56.0118 </r>
       <r>    -2.0359     0.4223    56.0387 </r>
       <r>    -1.9721     1.0614    56.1065 </r>
       <r>    -1.9083     2.1952    56.2465 </r>
       <r>    -1.8445     3.7628    56.4867 </r>
       <r>    -1.7807     5.4373    56.8336 </r>
       <r>    -1.7169     6.8713    57.2721 </r>
       <r>    -1.6530     8.1125    57.7898 </r>
       <r>    -1.5892     9.6663    58.4067 </r>
       <r>    -1.5254    11.9363    59.1684 </r>
       <r>    -1.4616    14.5666    60.0980 </r>
       <r>    -1.3978    16.5236    61.1525 </r>
       <r>    -1.3340    17.0418    62.2400 </r>
       <r>    -1.2701    16.5084    63.2935 </r>
       <r>    -1.2063    16.2064    64.3277 </r>
       <r>    -1.1425    16.9927    65.4121 </r>
       <r>    -1.0787    18.3330    66.5820 </r>
       <r>    -1.0149    18.8975    67.7880 </r>
       <r>    -0.9511    18.0714    68.9412 </r>
       <r>    -0.8873    16.5391    69.9967 </r>
       <r>    -0.8234    15.3002    70.9731 </r>
       <r>    -0.7596    14.5445    71.9012 </r>
       <r>    -0.6958    13.8652    72.7860 </r>
       <r>    -0.6320    13.3200    73.6360 </r>
       <r>    -0.5682    13.7113    74.5110 </r>
       <r>    -0.5044    15.6687    75.5109 </r>
       <r>    -0.4405    18.7988    76.7106 </r>
       <r>    -0.3767    21.9971    78.1143 </r>
       <r>    -0.3129    24.4466    79.6744 </r>
       <r>    -0.2491    26.0784    81.3386 </r>
       <r>    -0.1853    27.1679    83.0723 </r>
       <r>    -0.1215    27.8224    84.8478 </r>
       <r>    -0.0577    27.9830    86.6336 </r>
       <r>     0.0062    27.6825    88.4002 </r>
       <r>     0.0700    26.9679    90.1211 </r>
       <r>     0.1338    25.5224    91.7498 </r>
       <r>     0.1976    22.6807    93.1972 </r>
       <r>     0.2614    18.1408    94.3549 </r>
       <r>     0.3252    12.5960    95.1587 </r>
       <r>     0.3891     7.4074    95.6314 </r>
       <r>     0.4529     3.6347    95.8634 </r>
       <r>     0.5167     1.4755    95.9575 </r>
       <r>     0.5805     0.4932    95.9890 </r>
       <r>     0.6443     0.1354    95.9976 </r>
       <r>     0.7081     0.0305    95.9996 </r>
       <r>     0.7719     0.0056    95.9999 </r>
       <r>     0.8358     0.0008    96.0000 </r>
       <r>     0.8996     0.0001    96.0000 </r>
       <r>     0.9634     0.0000    96.0000 </r>
       <r>     1.0272     0.0000    96.0000 </r>
       <r>     1.0910     0.0000    96.0000 </r>
       <r>     1.1548     0.0000    96.0000 </r>
       <r>     1.2187     0.0000    96.0000 </r>
       <r>     1.2825     0.0000    96.0000 </r>
       <r>     1.3463     0.0000    96.0000 </r>
       <r>     1.4101     0.0000    96.0000 </r>
       <r>     1.4739     0.0000    96.0000 </r>
       <r>     1.5377     0.0000    96.0000 </r>
       <r>     1.6015     0.0000    96.0000 </r>
       <r>     1.6654     0.0000    96.0000 </r>
       <r>     1.7292     0.0000    96.0000 </r>
       <r>     1.7930     0.0000    96.0000 </r>
       <r>     1.8568     0.0000    96.0000 </r>
       <r>     1.9206     0.0000    96.0000 </r>
       <r>     1.9844     0.0000    96.0000 </r>
       <r>     2.0483     0.0000    96.0000 </r>
       <r>     2.1121     0.0000    96.0000 </r>
       <r>     2.1759     0.0000    96.0000 </r>
      </set>
     </set>
    </array>
   </total>
  </dos>
 </calculation>
 <structure name="finalpos" >
  <crystal>
   <varray name="basis" >
    <v>      20.00000000       0.00000000       0.00000000 </v>
    <v>       0.00000000      20.00000000       0.00000000 </v>
    <v>       0.00000000       0.00000000      20.00000000 </v>
   </varray>
   <i name="volume">   8000.00000000 </i>
   <varray name="rec_basis" >
    <v>       0.05000000       0.00000000       0.00000000 </v>
    <v>       0.00000000       0.05000000       0.00000000 </v>
    <v>       0.00000000       0.00000000       0.05000000 </v>
   </varray>
  </crystal>
  <varray name="positions" >
   <v>       0.47564420       0.55600247       0.38593201 </v>
   <v>       0.37132078       0.53914056       0.43764986 </v>
   <v>       0.54102754       0.45894316       0.39807236 </v>
   <v>       0.53037274       0.64686485       0.43649735 </v>
   <v>       0.38579448       0.51493696       0.55187709 </v>
   <v>       0.55665187       0.43420518       0.51203219 </v>
   <v>       0.61249281       0.52339066       0.56434221 </v>
   <v>       0.45178073       0.41815015       0.56289332 </v>
   <v>       0.43927462       0.60523986       0.60473553 </v>
   <v>       0.54632177       0.62304633       0.55317226 </v>
   <v>       0.41687750       0.36020556       0.53059169 </v>
   <v>       0.46096069       0.40176573       0.63546290 </v>
   <v>       0.59743519       0.37144132       0.51859588 </v>
   <v>       0.67958648       0.53404987       0.53276332 </v>
   <v>       0.62318207       0.50828896       0.63693732 </v>
   <v>       0.60749557       0.46876085       0.36483915 </v>
   <v>       0.50688027       0.40133535       0.36438931 </v>
   <v>       0.46529008       0.57014126       0.31286466 </v>
   <v>       0.58265788       0.68294015       0.58766752 </v>
   <v>       0.44855549       0.59080984       0.67766629 </v>
   <v>       0.39771192       0.66724913       0.59849418 </v>
   <v>       0.31870029       0.50313398       0.58357777 </v>
   <v>       0.33573897       0.48220588       0.40429727 </v>
   <v>       0.32885819       0.60041013       0.42981566 </v>
   <v>       0.48955590       0.70921262       0.42887349 </v>
   <v>       0.59680199       0.65852919       0.40287639 </v>
  </varray>
 </structure>
</modeling>
