  26  26   0   0
  0.3076923E+03  0.2000000E-08  0.2000000E-08  0.2000000E-08  0.2000000E-16
  1.000000000000000E-004
  CAR 
 SiGe                                    
      2.16969093    -17.14241328  301     -5.42634053      1.00000000
    -17.142  0.0000E+00  0.0000E+00
    -17.078  0.0000E+00  0.0000E+00
    -17.014  0.0000E+00  0.0000E+00
    -16.949  0.0000E+00  0.0000E+00
    -16.885  0.0000E+00  0.0000E+00
    -16.821  0.0000E+00  0.0000E+00
    -16.756  0.0000E+00  0.0000E+00
    -16.692  0.0000E+00  0.0000E+00
    -16.627  0.0000E+00  0.0000E+00
    -16.563  0.0000E+00  0.0000E+00
    -16.499  0.0000E+00  0.0000E+00
    -16.434  0.0000E+00  0.0000E+00
    -16.370  0.0000E+00  0.0000E+00
    -16.306  0.9883E-17  0.6362E-18
    -16.241  0.3410E-15  0.2259E-16
    -16.177  0.1117E-13  0.7415E-15
    -16.112  0.2970E-12  0.1986E-13
    -16.048  0.6433E-11  0.4340E-12
    -15.984  0.1136E-09  0.7744E-11
    -15.919  0.1633E-08  0.1129E-09
    -15.855  0.1915E-07  0.1346E-08
    -15.791  0.1830E-06  0.1313E-07
    -15.726  0.1425E-05  0.1049E-06
    -15.662  0.9051E-05  0.6875E-06
    -15.597  0.4687E-04  0.3704E-05
    -15.533  0.1979E-03  0.1644E-04
    -15.469  0.6813E-03  0.6030E-04
    -15.404  0.1913E-02  0.1835E-03
    -15.340  0.4382E-02  0.4655E-03
    -15.276  0.8186E-02  0.9925E-03
    -15.211  0.1248E-01  0.1796E-02
    -15.147  0.1551E-01  0.2794E-02
    -15.082  0.1573E-01  0.3806E-02
    -15.018  0.1301E-01  0.4644E-02
    -14.954  0.8779E-02  0.5209E-02
    -14.889  0.4832E-02  0.5520E-02
    -14.825  0.2170E-02  0.5660E-02
    -14.761  0.7953E-03  0.5711E-02
    -14.696  0.2431E-03  0.5726E-02
    -14.632  0.9320E-04  0.5732E-02
    -14.567  0.1891E-03  0.5745E-02
    -14.503  0.7287E-03  0.5792E-02
    -14.439  0.2426E-02  0.5948E-02
    -14.374  0.6601E-02  0.6373E-02
    -14.310  0.1466E-01  0.7316E-02
    -14.246  0.2654E-01  0.9024E-02
    -14.181  0.3920E-01  0.1155E-01
    -14.117  0.4724E-01  0.1459E-01
    -14.052  0.4644E-01  0.1758E-01
    -13.988  0.3724E-01  0.1998E-01
    -13.924  0.2436E-01  0.2154E-01
    -13.859  0.1300E-01  0.2238E-01
    -13.795  0.5659E-02  0.2274E-01
    -13.731  0.2009E-02  0.2287E-01
    -13.666  0.5818E-03  0.2291E-01
    -13.602  0.1374E-03  0.2292E-01
    -13.537  0.2646E-04  0.2292E-01
    -13.473  0.4157E-05  0.2292E-01
    -13.409  0.5580E-06  0.2292E-01
    -13.344  0.3139E-06  0.2292E-01
    -13.280  0.2084E-05  0.2292E-01
    -13.216  0.1364E-04  0.2292E-01
    -13.151  0.7295E-04  0.2293E-01
    -13.087  0.3182E-03  0.2295E-01
    -13.022  0.1132E-02  0.2302E-01
    -12.958  0.3284E-02  0.2323E-01
    -12.894  0.7773E-02  0.2373E-01
    -12.829  0.1500E-01  0.2470E-01
    -12.765  0.2363E-01  0.2622E-01
    -12.701  0.3036E-01  0.2817E-01
    -12.636  0.3181E-01  0.3022E-01
    -12.572  0.2720E-01  0.3197E-01
    -12.508  0.1897E-01  0.3319E-01
    -12.443  0.1080E-01  0.3389E-01
    -12.379  0.5011E-02  0.3421E-01
    -12.314  0.1898E-02  0.3433E-01
    -12.250  0.5898E-03  0.3437E-01
    -12.186  0.1729E-03  0.3438E-01
    -12.121  0.1628E-03  0.3439E-01
    -12.057  0.5689E-03  0.3443E-01
    -11.993  0.1957E-02  0.3456E-01
    -11.928  0.5535E-02  0.3491E-01
    -11.864  0.1278E-01  0.3574E-01
    -11.799  0.2405E-01  0.3728E-01
    -11.735  0.3695E-01  0.3966E-01
    -11.671  0.4630E-01  0.4264E-01
    -11.606  0.4733E-01  0.4569E-01
    -11.542  0.3947E-01  0.4823E-01
    -11.478  0.2685E-01  0.4996E-01
    -11.413  0.1491E-01  0.5092E-01
    -11.349  0.6749E-02  0.5135E-01
    -11.284  0.2493E-02  0.5151E-01
    -11.220  0.7536E-03  0.5156E-01
    -11.156  0.2007E-03  0.5157E-01
    -11.091  0.1154E-03  0.5158E-01
    -11.027  0.3151E-03  0.5160E-01
    -10.963  0.9931E-03  0.5167E-01
    -10.898  0.2599E-02  0.5183E-01
    -10.834  0.5552E-02  0.5219E-01
    -10.769  0.9674E-02  0.5281E-01
    -10.705  0.1375E-01  0.5370E-01
    -10.641  0.1594E-01  0.5473E-01
    -10.576  0.1508E-01  0.5570E-01
    -10.512  0.1164E-01  0.5644E-01
    -10.448  0.7323E-02  0.5692E-01
    -10.383  0.3760E-02  0.5716E-01
    -10.319  0.1574E-02  0.5726E-01
    -10.254  0.5378E-03  0.5729E-01
    -10.190  0.1498E-03  0.5730E-01
    -10.126  0.3403E-04  0.5731E-01
    -10.061  0.6303E-05  0.5731E-01
     -9.997  0.9519E-06  0.5731E-01
     -9.933  0.1172E-06  0.5731E-01
     -9.868  0.1176E-07  0.5731E-01
     -9.804  0.1010E-08  0.5731E-01
     -9.739  0.7988E-09  0.5731E-01
     -9.675  0.9176E-08  0.5731E-01
     -9.611  0.9334E-07  0.5731E-01
     -9.546  0.7743E-06  0.5731E-01
     -9.482  0.5237E-05  0.5731E-01
     -9.418  0.2889E-04  0.5731E-01
     -9.353  0.1300E-03  0.5732E-01
     -9.289  0.4779E-03  0.5735E-01
     -9.224  0.1437E-02  0.5744E-01
     -9.160  0.3547E-02  0.5767E-01
     -9.096  0.7256E-02  0.5814E-01
     -9.031  0.1251E-01  0.5894E-01
     -8.967  0.1881E-01  0.6015E-01
     -8.903  0.2586E-01  0.6182E-01
     -8.838  0.3399E-01  0.6401E-01
     -8.774  0.4290E-01  0.6677E-01
     -8.709  0.5014E-01  0.6999E-01
     -8.645  0.5210E-01  0.7335E-01
     -8.581  0.4775E-01  0.7642E-01
     -8.516  0.4097E-01  0.7906E-01
     -8.452  0.3777E-01  0.8149E-01
     -8.388  0.4088E-01  0.8412E-01
     -8.323  0.4696E-01  0.8715E-01
     -8.259  0.4963E-01  0.9034E-01
     -8.194  0.4537E-01  0.9326E-01
     -8.130  0.3679E-01  0.9563E-01
     -8.066  0.3036E-01  0.9758E-01
     -8.001  0.3104E-01  0.9958E-01
     -7.937  0.3825E-01  0.1020E+00
     -7.873  0.4621E-01  0.1050E+00
     -7.808  0.4824E-01  0.1081E+00
     -7.744  0.4172E-01  0.1108E+00
     -7.679  0.2954E-01  0.1127E+00
     -7.615  0.1708E-01  0.1138E+00
     -7.551  0.8059E-02  0.1143E+00
     -7.486  0.3102E-02  0.1145E+00
     -7.422  0.9745E-03  0.1146E+00
     -7.358  0.2561E-03  0.1146E+00
     -7.293  0.9210E-04  0.1146E+00
     -7.229  0.1975E-03  0.1146E+00
     -7.164  0.7250E-03  0.1147E+00
     -7.100  0.2266E-02  0.1148E+00
     -7.036  0.5785E-02  0.1152E+00
     -6.971  0.1206E-01  0.1160E+00
     -6.907  0.2055E-01  0.1173E+00
     -6.843  0.2880E-01  0.1191E+00
     -6.778  0.3382E-01  0.1213E+00
     -6.714  0.3518E-01  0.1236E+00
     -6.650  0.3681E-01  0.1260E+00
     -6.585  0.4465E-01  0.1288E+00
     -6.521  0.6105E-01  0.1328E+00
     -6.456  0.8084E-01  0.1380E+00
     -6.392  0.9347E-01  0.1440E+00
     -6.328  0.9065E-01  0.1498E+00
     -6.263  0.7281E-01  0.1545E+00
     -6.199  0.4824E-01  0.1576E+00
     -6.135  0.2632E-01  0.1593E+00
     -6.070  0.1182E-01  0.1601E+00
     -6.006  0.4365E-02  0.1603E+00
     -5.941  0.1324E-02  0.1604E+00
     -5.877  0.3299E-03  0.1605E+00
     -5.813  0.6740E-04  0.1605E+00
     -5.748  0.1129E-04  0.1605E+00
     -5.684  0.1548E-05  0.1605E+00
     -5.620  0.1738E-06  0.1605E+00
     -5.555  0.1595E-07  0.1605E+00
     -5.491  0.1197E-08  0.1605E+00
     -5.426  0.7333E-10  0.1605E+00
     -5.362  0.3669E-11  0.1605E+00
     -5.298  0.1499E-12  0.1605E+00
     -5.233  0.4991E-14  0.1605E+00
     -5.169  0.1384E-15  0.1605E+00
     -5.105  0.0000E+00  0.1605E+00
     -5.040  0.0000E+00  0.1605E+00
     -4.976  0.0000E+00  0.1605E+00
     -4.911  0.0000E+00  0.1605E+00
     -4.847  0.0000E+00  0.1605E+00
     -4.783  0.0000E+00  0.1605E+00
     -4.718  0.0000E+00  0.1605E+00
     -4.654  0.0000E+00  0.1605E+00
     -4.590  0.0000E+00  0.1605E+00
     -4.525  0.0000E+00  0.1605E+00
     -4.461  0.0000E+00  0.1605E+00
     -4.396  0.0000E+00  0.1605E+00
     -4.332  0.0000E+00  0.1605E+00
     -4.268  0.0000E+00  0.1605E+00
     -4.203  0.0000E+00  0.1605E+00
     -4.139  0.0000E+00  0.1605E+00
     -4.075  0.0000E+00  0.1605E+00
     -4.010  0.0000E+00  0.1605E+00
     -3.946  0.0000E+00  0.1605E+00
     -3.881  0.0000E+00  0.1605E+00
     -3.817  0.0000E+00  0.1605E+00
     -3.753  0.0000E+00  0.1605E+00
     -3.688  0.0000E+00  0.1605E+00
     -3.624  0.0000E+00  0.1605E+00
     -3.560  0.0000E+00  0.1605E+00
     -3.495  0.0000E+00  0.1605E+00
     -3.431  0.0000E+00  0.1605E+00
     -3.366  0.0000E+00  0.1605E+00
     -3.302  0.0000E+00  0.1605E+00
     -3.238  0.0000E+00  0.1605E+00
     -3.173  0.0000E+00  0.1605E+00
     -3.109  0.0000E+00  0.1605E+00
     -3.045  0.0000E+00  0.1605E+00
     -2.980  0.0000E+00  0.1605E+00
     -2.916  0.0000E+00  0.1605E+00
     -2.851  0.0000E+00  0.1605E+00
     -2.787  0.0000E+00  0.1605E+00
     -2.723  0.1977E-16  0.1605E+00
     -2.658  0.7067E-15  0.1605E+00
     -2.594  0.2222E-13  0.1605E+00
     -2.530  0.5666E-12  0.1605E+00
     -2.465  0.1177E-10  0.1605E+00
     -2.401  0.1992E-09  0.1605E+00
     -2.336  0.2749E-08  0.1605E+00
     -2.272  0.3090E-07  0.1605E+00
     -2.208  0.2833E-06  0.1605E+00
     -2.143  0.2117E-05  0.1605E+00
     -2.079  0.1290E-04  0.1605E+00
     -2.015  0.6418E-04  0.1605E+00
     -1.950  0.2608E-03  0.1605E+00
     -1.886  0.8676E-03  0.1605E+00
     -1.821  0.2373E-02  0.1607E+00
     -1.757  0.5377E-02  0.1610E+00
     -1.693  0.1026E-01  0.1617E+00
     -1.628  0.1692E-01  0.1628E+00
     -1.564  0.2503E-01  0.1644E+00
     -1.500  0.3430E-01  0.1666E+00
     -1.435  0.4399E-01  0.1694E+00
     -1.371  0.5180E-01  0.1728E+00
     -1.306  0.5486E-01  0.1763E+00
     -1.242  0.5300E-01  0.1797E+00
     -1.178  0.5076E-01  0.1830E+00
     -1.113  0.5417E-01  0.1865E+00
     -1.049  0.6460E-01  0.1906E+00
     -0.985  0.7607E-01  0.1955E+00
     -0.920  0.7972E-01  0.2007E+00
     -0.856  0.7132E-01  0.2052E+00
     -0.791  0.5471E-01  0.2088E+00
     -0.727  0.3799E-01  0.2112E+00
     -0.663  0.2704E-01  0.2130E+00
     -0.598  0.2263E-01  0.2144E+00
     -0.534  0.2266E-01  0.2159E+00
     -0.470  0.2599E-01  0.2175E+00
     -0.405  0.3352E-01  0.2197E+00
     -0.341  0.4548E-01  0.2226E+00
     -0.277  0.5850E-01  0.2264E+00
     -0.212  0.6693E-01  0.2307E+00
     -0.148  0.6821E-01  0.2351E+00
     -0.083  0.6654E-01  0.2394E+00
     -0.019  0.6962E-01  0.2439E+00
      0.045  0.8050E-01  0.2490E+00
      0.110  0.9309E-01  0.2550E+00
      0.174  0.9661E-01  0.2613E+00
      0.238  0.8510E-01  0.2667E+00
      0.303  0.6228E-01  0.2707E+00
      0.367  0.3758E-01  0.2732E+00
      0.432  0.1865E-01  0.2744E+00
      0.496  0.7600E-02  0.2749E+00
      0.560  0.2543E-02  0.2750E+00
      0.625  0.6978E-03  0.2751E+00
      0.689  0.1570E-03  0.2751E+00
      0.753  0.2895E-04  0.2751E+00
      0.818  0.4371E-05  0.2751E+00
      0.882  0.5402E-06  0.2751E+00
      0.947  0.5461E-07  0.2751E+00
      1.011  0.4513E-08  0.2751E+00
      1.075  0.3048E-09  0.2751E+00
      1.140  0.1681E-10  0.2751E+00
      1.204  0.7573E-12  0.2751E+00
      1.268  0.2783E-13  0.2751E+00
      1.333  0.8500E-15  0.2751E+00
      1.397  0.9883E-17  0.2751E+00
      1.462  0.0000E+00  0.2751E+00
      1.526  0.0000E+00  0.2751E+00
      1.590  0.0000E+00  0.2751E+00
      1.655  0.0000E+00  0.2751E+00
      1.719  0.0000E+00  0.2751E+00
      1.783  0.0000E+00  0.2751E+00
      1.848  0.0000E+00  0.2751E+00
      1.912  0.0000E+00  0.2751E+00
      1.977  0.0000E+00  0.2751E+00
      2.041  0.0000E+00  0.2751E+00
      2.105  0.0000E+00  0.2751E+00
      2.170  0.0000E+00  0.2751E+00
