       N       E                     dE             d eps       ncg     rms          rms(c)
DAV:   1     0.201674467797E+03    0.20167E+03   -0.10486E+04   116   0.546E+02
DAV:   2    -0.298101697897E+02   -0.23148E+03   -0.21593E+03   144   0.103E+02
DAV:   3    -0.103164208372E+03   -0.73354E+02   -0.73187E+02   112   0.543E+01
DAV:   4    -0.107253380751E+03   -0.40892E+01   -0.40745E+01   104   0.179E+01
DAV:   5    -0.107333956238E+03   -0.80575E-01   -0.80531E-01   136   0.275E+00    0.151E+01
DAV:   6    -0.104077712311E+03    0.32562E+01   -0.16345E+00   104   0.462E+00    0.878E+00
DAV:   7    -0.102374205512E+03    0.17035E+01   -0.41847E+00   112   0.681E+00    0.122E+00
DAV:   8    -0.102324353531E+03    0.49852E-01   -0.27972E-01   104   0.223E+00    0.627E-01
DAV:   9    -0.102288426524E+03    0.35927E-01   -0.81120E-02   112   0.814E-01    0.336E-01
DAV:  10    -0.102288300813E+03    0.12571E-03   -0.32271E-03   112   0.233E-01    0.167E-01
DAV:  11    -0.102288297659E+03    0.31535E-05   -0.60273E-03   104   0.230E-01    0.786E-02
DAV:  12    -0.102292394986E+03   -0.40973E-02   -0.11791E-03   112   0.101E-01    0.565E-02
DAV:  13    -0.102296978534E+03   -0.45835E-02   -0.20341E-03   112   0.113E-01    0.351E-02
DAV:  14    -0.102301725064E+03   -0.47465E-02   -0.45191E-04   112   0.611E-02    0.152E-02
DAV:  15    -0.102305825634E+03   -0.41006E-02   -0.48659E-04   112   0.585E-02    0.157E-02
DAV:  16    -0.102306832614E+03   -0.10070E-02   -0.55826E-05   112   0.222E-02    0.624E-03
DAV:  17    -0.102307881139E+03   -0.10485E-02   -0.89986E-05   104   0.230E-02    0.324E-03
DAV:  18    -0.102308116452E+03   -0.23531E-03   -0.74979E-06   104   0.807E-03    0.185E-03
DAV:  19    -0.102308267572E+03   -0.15112E-03   -0.52133E-06   104   0.573E-03    0.151E-03
DAV:  20    -0.102308326459E+03   -0.58887E-04   -0.13518E-06    88   0.378E-03    0.655E-04
DAV:  21    -0.102308345148E+03   -0.18689E-04   -0.54542E-07    88   0.199E-03    0.566E-04
DAV:  22    -0.102308352982E+03   -0.78336E-05   -0.19250E-07    88   0.144E-03    0.225E-04
DAV:  23    -0.102308355836E+03   -0.28545E-05   -0.62334E-08    88   0.768E-04    0.194E-04
DAV:  24    -0.102308358232E+03   -0.23954E-05   -0.27849E-08    80   0.479E-04    0.124E-04
DAV:  25    -0.102308359174E+03   -0.94179E-06   -0.16461E-08    80   0.343E-04
   1 F= -.10230836E+03 E0= -.10230836E+03  d E =-.102308E+03
       N       E                     dE             d eps       ncg     rms          rms(c)
DAV:   1    -0.102497323609E+03   -0.18897E+00   -0.86770E+00    84   0.124E+01    0.128E+00
DAV:   2    -0.102526393512E+03   -0.29070E-01   -0.38526E-01   120   0.249E+00    0.658E-01
DAV:   3    -0.102520624088E+03    0.57694E-02   -0.15681E-02   120   0.490E-01    0.321E-01
DAV:   4    -0.102519308917E+03    0.13152E-02   -0.71043E-03   112   0.284E-01    0.698E-02
DAV:   5    -0.102519147641E+03    0.16128E-03   -0.58872E-04   112   0.104E-01    0.422E-02
DAV:   6    -0.102519232454E+03   -0.84813E-04   -0.20340E-04   120   0.517E-02    0.211E-02
DAV:   7    -0.102519474587E+03   -0.24213E-03   -0.67173E-05   112   0.332E-02    0.102E-02
DAV:   8    -0.102519608347E+03   -0.13376E-03   -0.21958E-05   112   0.176E-02    0.898E-03
DAV:   9    -0.102519750070E+03   -0.14172E-03   -0.66318E-06   112   0.860E-03    0.462E-03
DAV:  10    -0.102519932630E+03   -0.18256E-03   -0.16321E-05   112   0.939E-03    0.317E-03
DAV:  11    -0.102519973671E+03   -0.41041E-04   -0.86106E-07    96   0.366E-03    0.153E-03
DAV:  12    -0.102520062985E+03   -0.89314E-04   -0.59011E-06   104   0.547E-03    0.828E-04
DAV:  13    -0.102520083806E+03   -0.20821E-04   -0.37568E-07    96   0.259E-03    0.799E-04
DAV:  14    -0.102520110940E+03   -0.27134E-04   -0.82940E-07    88   0.204E-03    0.583E-04
DAV:  15    -0.102520116305E+03   -0.53653E-05   -0.11234E-07    96   0.888E-04    0.472E-04
DAV:  16    -0.102520123928E+03   -0.76229E-05   -0.14263E-07    88   0.102E-03    0.332E-04
DAV:  17    -0.102520124721E+03   -0.79250E-06   -0.19771E-08    96   0.425E-04
   2 F= -.10252012E+03 E0= -.10252012E+03  d E =-.211766E+00
       N       E                     dE             d eps       ncg     rms          rms(c)
DAV:   1    -0.102525234052E+03   -0.51101E-02   -0.15676E-01    84   0.167E+00    0.163E-01
DAV:   2    -0.102525701774E+03   -0.46772E-03   -0.68167E-03   120   0.330E-01    0.915E-02
DAV:   3    -0.102525580147E+03    0.12163E-03   -0.30518E-04   120   0.677E-02    0.433E-02
DAV:   4    -0.102525547146E+03    0.33001E-04   -0.12055E-04   112   0.373E-02    0.111E-02
DAV:   5    -0.102525547093E+03    0.52594E-07   -0.94918E-06   112   0.134E-02
   3 F= -.10252555E+03 E0= -.10252555E+03  d E =-.217188E+00
       N       E                     dE             d eps       ncg     rms          rms(c)
DAV:   1    -0.102566196009E+03   -0.40649E-01   -0.80462E-01    88   0.396E+00    0.370E-01
DAV:   2    -0.102569115948E+03   -0.29199E-02   -0.40093E-02   120   0.742E-01    0.172E-01
DAV:   3    -0.102568821926E+03    0.29402E-03   -0.18179E-03   120   0.167E-01    0.915E-02
DAV:   4    -0.102568782718E+03    0.39209E-04   -0.46685E-04   112   0.786E-02    0.306E-02
DAV:   5    -0.102568779773E+03    0.29444E-05   -0.43457E-05   120   0.302E-02    0.163E-02
DAV:   6    -0.102568789873E+03   -0.10100E-04   -0.16127E-05   120   0.175E-02    0.663E-03
DAV:   7    -0.102568816209E+03   -0.26335E-04   -0.78360E-06   112   0.110E-02    0.300E-03
DAV:   8    -0.102568830034E+03   -0.13826E-04   -0.10761E-06    88   0.436E-03    0.214E-03
DAV:   9    -0.102568848671E+03   -0.18637E-04   -0.95823E-07    88   0.287E-03    0.841E-04
DAV:  10    -0.102568865572E+03   -0.16901E-04   -0.11436E-06    96   0.288E-03    0.727E-04
DAV:  11    -0.102568880062E+03   -0.14489E-04   -0.10214E-06    88   0.265E-03    0.268E-04
DAV:  12    -0.102568883084E+03   -0.30227E-05   -0.21684E-07    96   0.130E-03    0.289E-04
DAV:  13    -0.102568884643E+03   -0.15588E-05   -0.39469E-08    86   0.634E-04    0.160E-04
DAV:  14    -0.102568888443E+03   -0.37993E-05   -0.19911E-07    80   0.108E-03    0.115E-04
DAV:  15    -0.102568888823E+03   -0.38007E-06   -0.20232E-08    96   0.407E-04
   4 F= -.10256889E+03 E0= -.10256889E+03  d E =-.433417E-01
       N       E                     dE             d eps       ncg     rms          rms(c)
DAV:   1    -0.102577080506E+03   -0.81921E-02   -0.45387E-01    88   0.298E+00    0.277E-01
DAV:   2    -0.102578747281E+03   -0.16668E-02   -0.22842E-02   120   0.561E-01    0.130E-01
DAV:   3    -0.102578574445E+03    0.17284E-03   -0.10370E-03   120   0.126E-01    0.691E-02
DAV:   4    -0.102578546830E+03    0.27614E-04   -0.26501E-04   112   0.592E-02    0.235E-02
DAV:   5    -0.102578537643E+03    0.91872E-05   -0.24472E-05   120   0.229E-02    0.123E-02
DAV:   6    -0.102578538452E+03   -0.80848E-06   -0.93360E-06   120   0.133E-02
   5 F= -.10257854E+03 E0= -.10257854E+03  d E =-.529914E-01
       N       E                     dE             d eps       ncg     rms          rms(c)
DAV:   1    -0.102589314431E+03   -0.10777E-01   -0.38770E-01    86   0.284E+00    0.222E-01
DAV:   2    -0.102590108620E+03   -0.79419E-03   -0.15360E-02   112   0.462E-01    0.116E-01
DAV:   3    -0.102589951491E+03    0.15713E-03   -0.68636E-04   128   0.978E-02    0.645E-02
DAV:   4    -0.102589897123E+03    0.54368E-04   -0.17702E-04   112   0.473E-02    0.162E-02
DAV:   5    -0.102589894782E+03    0.23411E-05   -0.22830E-05   120   0.187E-02    0.107E-02
DAV:   6    -0.102589906934E+03   -0.12152E-04   -0.49019E-06   120   0.855E-03    0.449E-03
DAV:   7    -0.102589929775E+03   -0.22841E-04   -0.21281E-06    96   0.480E-03    0.180E-03
DAV:   8    -0.102589957470E+03   -0.27695E-04   -0.10290E-06    80   0.281E-03    0.100E-03
DAV:   9    -0.102589983779E+03   -0.26309E-04   -0.17014E-06    88   0.278E-03    0.687E-04
DAV:  10    -0.102590003746E+03   -0.19967E-04   -0.10473E-06    88   0.229E-03    0.276E-04
DAV:  11    -0.102590011085E+03   -0.73387E-05   -0.32601E-07    88   0.126E-03    0.239E-04
DAV:  12    -0.102590015172E+03   -0.40877E-05   -0.78995E-08    88   0.744E-04    0.131E-04
DAV:  13    -0.102590018684E+03   -0.35119E-05   -0.11111E-07    80   0.717E-04    0.712E-05
DAV:  14    -0.102590019911E+03   -0.12265E-05   -0.25768E-08    88   0.371E-04    0.388E-05
DAV:  15    -0.102590020377E+03   -0.46621E-06   -0.42849E-09    88   0.195E-04
   6 F= -.10259002E+03 E0= -.10259002E+03  d E =-.114819E-01
       N       E                     dE             d eps       ncg     rms          rms(c)
DAV:   1    -0.102590210579E+03   -0.19067E-03   -0.84378E-03    86   0.419E-01    0.327E-02
DAV:   2    -0.102590229481E+03   -0.18902E-04   -0.33806E-04   112   0.687E-02    0.172E-02
DAV:   3    -0.102590226804E+03    0.26766E-05   -0.14840E-05   128   0.144E-02    0.961E-03
DAV:   4    -0.102590225802E+03    0.10026E-05   -0.38732E-06   104   0.700E-03    0.239E-03
DAV:   5    -0.102590225267E+03    0.53495E-06   -0.44090E-07    88   0.276E-03
   7 F= -.10259023E+03 E0= -.10259023E+03  d E =-.116868E-01
       N       E                     dE             d eps       ncg     rms          rms(c)
DAV:   1    -0.102597231039E+03   -0.70052E-02   -0.27588E-01    86   0.247E+00    0.159E-01
DAV:   2    -0.102597438052E+03   -0.20701E-03   -0.62535E-03   120   0.313E-01    0.849E-02
DAV:   3    -0.102597323797E+03    0.11426E-03   -0.48953E-04   128   0.862E-02    0.402E-02
DAV:   4    -0.102597314244E+03    0.95525E-05   -0.13468E-04   120   0.466E-02    0.126E-02
DAV:   5    -0.102597311280E+03    0.29646E-05   -0.16097E-05   120   0.169E-02    0.753E-03
DAV:   6    -0.102597312051E+03   -0.77166E-06   -0.25601E-06   112   0.646E-03
   8 F= -.10259731E+03 E0= -.10259731E+03  d E =-.708678E-02
       N       E                     dE             d eps       ncg     rms          rms(c)
DAV:   1    -0.102598366114E+03   -0.10548E-02   -0.89933E-02    86   0.141E+00    0.909E-02
DAV:   2    -0.102598432693E+03   -0.66579E-04   -0.20546E-03   120   0.180E-01    0.486E-02
DAV:   3    -0.102598394834E+03    0.37859E-04   -0.16103E-04   128   0.495E-02    0.232E-02
DAV:   4    -0.102598392337E+03    0.24974E-05   -0.44068E-05   120   0.270E-02    0.720E-03
DAV:   5    -0.102598394170E+03   -0.18333E-05   -0.57157E-06   112   0.102E-02    0.439E-03
DAV:   6    -0.102598397996E+03   -0.38256E-05   -0.85040E-07    88   0.401E-03    0.183E-03
DAV:   7    -0.102598403828E+03   -0.58320E-05   -0.50223E-07    88   0.287E-03    0.763E-04
DAV:   8    -0.102598410317E+03   -0.64890E-05   -0.29304E-07    88   0.216E-03    0.470E-04
DAV:   9    -0.102598417369E+03   -0.70517E-05   -0.42506E-07    88   0.200E-03    0.285E-04
DAV:  10    -0.102598420568E+03   -0.31989E-05   -0.17555E-07    88   0.127E-03    0.183E-04
DAV:  11    -0.102598422078E+03   -0.15104E-05   -0.45570E-08    96   0.657E-04    0.132E-04
DAV:  12    -0.102598423717E+03   -0.16390E-05   -0.47146E-08    88   0.528E-04    0.774E-05
DAV:  13    -0.102598424840E+03   -0.11230E-05   -0.35095E-08    88   0.428E-04    0.408E-05
DAV:  14    -0.102598425257E+03   -0.41752E-06   -0.93296E-09    88   0.242E-04
   9 F= -.10259843E+03 E0= -.10259843E+03  d E =-.819999E-02
       N       E                     dE             d eps       ncg     rms          rms(c)
DAV:   1    -0.102602204033E+03   -0.37792E-02   -0.17355E-01    84   0.192E+00    0.124E-01
DAV:   2    -0.102602355095E+03   -0.15106E-03   -0.37763E-03   120   0.243E-01    0.647E-02
DAV:   3    -0.102602281691E+03    0.73404E-04   -0.25835E-04   128   0.634E-02    0.311E-02
DAV:   4    -0.102602275190E+03    0.65011E-05   -0.82312E-05   120   0.340E-02    0.956E-03
DAV:   5    -0.102602273285E+03    0.19056E-05   -0.75672E-06   120   0.120E-02    0.591E-03
DAV:   6    -0.102602273308E+03   -0.23215E-07   -0.12221E-06    96   0.553E-03
  10 F= -.10260227E+03 E0= -.10260227E+03  d E =-.384805E-02
       N       E                     dE             d eps       ncg     rms          rms(c)
DAV:   1    -0.102603525345E+03   -0.12521E-02   -0.24880E-01    84   0.229E+00    0.148E-01
DAV:   2    -0.102603743029E+03   -0.21768E-03   -0.54490E-03   120   0.292E-01    0.776E-02
DAV:   3    -0.102603635115E+03    0.10791E-03   -0.37414E-04   128   0.764E-02    0.375E-02
DAV:   4    -0.102603624796E+03    0.10320E-04   -0.11845E-04   120   0.412E-02    0.115E-02
DAV:   5    -0.102603623760E+03    0.10352E-05   -0.11544E-05   120   0.149E-02    0.715E-03
DAV:   6    -0.102603626619E+03   -0.28591E-05   -0.18354E-06    88   0.686E-03    0.288E-03
DAV:   7    -0.102603632912E+03   -0.62925E-05   -0.89198E-07    88   0.503E-03    0.112E-03
DAV:   8    -0.102603642378E+03   -0.94660E-05   -0.69113E-07    88   0.399E-03    0.662E-04
DAV:   9    -0.102603652160E+03   -0.97818E-05   -0.76871E-07    80   0.324E-03    0.466E-04
DAV:  10    -0.102603656754E+03   -0.45942E-05   -0.33441E-07    88   0.201E-03    0.322E-04
DAV:  11    -0.102603658203E+03   -0.14493E-05   -0.71778E-08    88   0.924E-04    0.287E-04
DAV:  12    -0.102603660878E+03   -0.26745E-05   -0.87374E-08    80   0.793E-04    0.111E-04
DAV:  13    -0.102603662713E+03   -0.18355E-05   -0.77713E-08    88   0.651E-04    0.112E-04
DAV:  14    -0.102603663277E+03   -0.56345E-06   -0.12155E-08    88   0.321E-04
  11 F= -.10260366E+03 E0= -.10260366E+03  d E =-.523802E-02
       N       E                     dE             d eps       ncg     rms          rms(c)
DAV:   1    -0.102606184126E+03   -0.25214E-02   -0.19138E-01    84   0.197E+00    0.126E-01
DAV:   2    -0.102606496997E+03   -0.31287E-03   -0.49982E-03   104   0.284E-01    0.753E-02
DAV:   3    -0.102606421350E+03    0.75647E-04   -0.22707E-04   128   0.629E-02    0.363E-02
DAV:   4    -0.102606419152E+03    0.21979E-05   -0.10077E-04   120   0.352E-02    0.958E-03
DAV:   5    -0.102606418544E+03    0.60780E-06   -0.98239E-06   112   0.127E-02
  12 F= -.10260642E+03 E0= -.10260642E+03  d E =-.275527E-02
       N       E                     dE             d eps       ncg     rms          rms(c)
DAV:   1    -0.102606924893E+03   -0.50574E-03   -0.15040E-01    84   0.174E+00    0.112E-01
DAV:   2    -0.102607172632E+03   -0.24774E-03   -0.39519E-03   112   0.252E-01    0.667E-02
DAV:   3    -0.102607111745E+03    0.60887E-04   -0.17885E-04   128   0.555E-02    0.321E-02
DAV:   4    -0.102607109874E+03    0.18707E-05   -0.78218E-05   120   0.310E-02    0.849E-03
DAV:   5    -0.102607111739E+03   -0.18649E-05   -0.75610E-06   112   0.111E-02    0.445E-03
DAV:   6    -0.102607114304E+03   -0.25652E-05   -0.11917E-06    88   0.416E-03    0.197E-03
DAV:   7    -0.102607118628E+03   -0.43238E-05   -0.44860E-07    88   0.263E-03    0.534E-04
DAV:   8    -0.102607122937E+03   -0.43091E-05   -0.30185E-07    88   0.191E-03    0.635E-04
DAV:   9    -0.102607127384E+03   -0.44469E-05   -0.21098E-07    88   0.142E-03    0.199E-04
DAV:  10    -0.102607130298E+03   -0.29139E-05   -0.17677E-07    88   0.106E-03    0.210E-04
DAV:  11    -0.102607131562E+03   -0.12644E-05   -0.43705E-08    88   0.650E-04    0.867E-05
DAV:  12    -0.102607132268E+03   -0.70615E-06   -0.21696E-08    88   0.408E-04
  13 F= -.10260713E+03 E0= -.10260713E+03  d E =-.346899E-02
       N       E                     dE             d eps       ncg     rms          rms(c)
DAV:   1    -0.102608269487E+03   -0.11379E-02   -0.23144E-01    84   0.217E+00    0.158E-01
DAV:   2    -0.102608667907E+03   -0.39842E-03   -0.65951E-03   120   0.315E-01    0.844E-02
DAV:   3    -0.102608570091E+03    0.97816E-04   -0.31643E-04   128   0.726E-02    0.429E-02
DAV:   4    -0.102608559611E+03    0.10480E-04   -0.12256E-04   112   0.415E-02    0.122E-02
DAV:   5    -0.102608560152E+03   -0.54084E-06   -0.11277E-05   112   0.148E-02    0.710E-03
DAV:   6    -0.102608561546E+03   -0.13936E-05   -0.24243E-06    96   0.616E-03    0.263E-03
DAV:   7    -0.102608564399E+03   -0.28534E-05   -0.75012E-07    88   0.354E-03    0.787E-04
DAV:   8    -0.102608567504E+03   -0.31048E-05   -0.22219E-07    88   0.181E-03    0.526E-04
DAV:   9    -0.102608570977E+03   -0.34734E-05   -0.15613E-07    88   0.125E-03    0.253E-04
DAV:  10    -0.102608575432E+03   -0.44549E-05   -0.30214E-07    80   0.132E-03    0.297E-04
DAV:  11    -0.102608576507E+03   -0.10754E-05   -0.50052E-08    88   0.712E-04    0.102E-04
DAV:  12    -0.102608577452E+03   -0.94432E-06   -0.32610E-08    88   0.511E-04
  14 F= -.10260858E+03 E0= -.10260858E+03  d E =-.144518E-02
       N       E                     dE             d eps       ncg     rms          rms(c)
DAV:   1    -0.102608671076E+03   -0.94568E-04   -0.10256E-02    84   0.455E-01    0.334E-02
DAV:   2    -0.102608691090E+03   -0.20015E-04   -0.29318E-04   120   0.664E-02    0.178E-02
DAV:   3    -0.102608688142E+03    0.29481E-05   -0.13972E-05   128   0.153E-02    0.903E-03
DAV:   4    -0.102608688524E+03   -0.38138E-06   -0.54314E-06   112   0.874E-03
  15 F= -.10260869E+03 E0= -.10260869E+03  d E =-.155626E-02
       N       E                     dE             d eps       ncg     rms          rms(c)
DAV:   1    -0.102608944494E+03   -0.25635E-03   -0.14900E-02    84   0.534E-01    0.524E-02
DAV:   2    -0.102608989503E+03   -0.45009E-04   -0.62569E-04   112   0.968E-02    0.246E-02
DAV:   3    -0.102608982228E+03    0.72747E-05   -0.27927E-05   128   0.219E-02    0.133E-02
DAV:   4    -0.102608980747E+03    0.14807E-05   -0.10665E-05   112   0.128E-02    0.372E-03
DAV:   5    -0.102608980313E+03    0.43474E-06   -0.11786E-06    96   0.543E-03
  16 F= -.10260898E+03 E0= -.10260898E+03  d E =-.291789E-03
       N       E                     dE             d eps       ncg     rms          rms(c)
DAV:   1    -0.102608980303E+03    0.44404E-06   -0.30127E-06    96   0.785E-03    0.112E-03
DAV:   2    -0.102608980472E+03   -0.16838E-06   -0.12996E-07    72   0.169E-03
  17 F= -.10260898E+03 E0= -.10260898E+03  d E =-.291948E-03
       N       E                     dE             d eps       ncg     rms          rms(c)
DAV:   1    -0.102609068992E+03   -0.88689E-04   -0.46041E-03    84   0.297E-01    0.248E-02
DAV:   2    -0.102609088684E+03   -0.19691E-04   -0.26515E-04   120   0.646E-02    0.155E-02
DAV:   3    -0.102609087228E+03    0.14559E-05   -0.86730E-06   120   0.125E-02    0.892E-03
DAV:   4    -0.102609086746E+03    0.48174E-06   -0.29781E-06   104   0.806E-03
  18 F= -.10260909E+03 E0= -.10260909E+03  d E =-.106274E-03
