       N       E                     dE             d eps       ncg     rms          rms(c)
DAV:   1     0.245217767516E+03    0.24522E+03   -0.10198E+04   120   0.484E+02
DAV:   2    -0.236683505772E+02   -0.26889E+03   -0.25490E+03   156   0.920E+01
DAV:   3    -0.103951136097E+03   -0.80283E+02   -0.80089E+02   120   0.553E+01
DAV:   4    -0.107891824805E+03   -0.39407E+01   -0.39276E+01   120   0.177E+01
DAV:   5    -0.107976426025E+03   -0.84601E-01   -0.84518E-01   168   0.290E+00    0.158E+01
DAV:   6    -0.104396706906E+03    0.35797E+01   -0.16432E+00   108   0.443E+00    0.912E+00
DAV:   7    -0.102565224441E+03    0.18315E+01   -0.44213E+00   120   0.648E+00    0.133E+00
DAV:   8    -0.102511127115E+03    0.54097E-01   -0.35348E-01   132   0.226E+00    0.705E-01
DAV:   9    -0.102477459303E+03    0.33668E-01   -0.63282E-02   132   0.690E-01    0.368E-01
DAV:  10    -0.102475705380E+03    0.17539E-02   -0.39185E-03   132   0.218E-01    0.147E-01
DAV:  11    -0.102474417649E+03    0.12877E-02   -0.61503E-03   120   0.211E-01    0.105E-01
DAV:  12    -0.102480156802E+03   -0.57392E-02   -0.17093E-03   120   0.112E-01    0.487E-02
DAV:  13    -0.102483325505E+03   -0.31687E-02   -0.17958E-03   132   0.104E-01    0.429E-02
DAV:  14    -0.102486568787E+03   -0.32433E-02   -0.18251E-04   132   0.454E-02    0.209E-02
DAV:  15    -0.102491551865E+03   -0.49831E-02   -0.53987E-04   132   0.556E-02    0.132E-02
DAV:  16    -0.102493129500E+03   -0.15776E-02   -0.97299E-05   132   0.274E-02    0.807E-03
DAV:  17    -0.102494512476E+03   -0.13830E-02   -0.12508E-04   120   0.244E-02    0.722E-03
DAV:  18    -0.102494883010E+03   -0.37053E-03   -0.13786E-05   132   0.956E-03    0.241E-03
DAV:  19    -0.102495074496E+03   -0.19149E-03   -0.75973E-06   108   0.631E-03    0.200E-03
DAV:  20    -0.102495138877E+03   -0.64381E-04   -0.12212E-06   108   0.340E-03    0.632E-04
DAV:  21    -0.102495164661E+03   -0.25783E-04   -0.65185E-07   108   0.209E-03    0.585E-04
DAV:  22    -0.102495176662E+03   -0.12002E-04   -0.23459E-07   108   0.129E-03    0.219E-04
DAV:  23    -0.102495180944E+03   -0.42818E-05   -0.75897E-08   108   0.679E-04    0.142E-04
DAV:  24    -0.102495185128E+03   -0.41842E-05   -0.68195E-08   108   0.553E-04    0.747E-05
DAV:  25    -0.102495185740E+03   -0.61160E-06   -0.43269E-09   108   0.251E-04
   1 F= -.10249519E+03 E0= -.10249519E+03  d E =-.520978E-10
       N       E                     dE             d eps       ncg     rms          rms(c)
DAV:   1    -0.102491801495E+03    0.33836E-02   -0.81003E-02   120   0.813E-01    0.131E-01
DAV:   2    -0.102492135751E+03   -0.33426E-03   -0.38964E-03   132   0.211E-01    0.578E-02
DAV:   3    -0.102492119879E+03    0.15871E-04   -0.15240E-04   132   0.459E-02    0.302E-02
DAV:   4    -0.102492123102E+03   -0.32230E-05   -0.38156E-05   132   0.226E-02    0.897E-03
DAV:   5    -0.102492122163E+03    0.93918E-06   -0.65525E-06   132   0.101E-02
   2 F= -.10249212E+03 E0= -.10249212E+03  d E =-.580589E-10
       N       E                     dE             d eps       ncg     rms          rms(c)
DAV:   1    -0.102490791038E+03    0.13321E-02   -0.32401E-01    96   0.165E+00    0.267E-01
DAV:   2    -0.102492133183E+03   -0.13421E-02   -0.15648E-02   132   0.417E-01    0.116E-01
DAV:   3    -0.102492072826E+03    0.60357E-04   -0.60923E-04   132   0.913E-02    0.617E-02
DAV:   4    -0.102492090400E+03   -0.17574E-04   -0.15104E-04   132   0.448E-02    0.181E-02
DAV:   5    -0.102492088073E+03    0.23263E-05   -0.25633E-05   132   0.198E-02    0.106E-02
DAV:   6    -0.102492087653E+03    0.42059E-06   -0.49749E-06   132   0.778E-03
   3 F= -.10249209E+03 E0= -.10249209E+03  d E =-.784954E-10
       N       E                     dE             d eps       ncg     rms          rms(c)
DAV:   1    -0.102491754888E+03    0.33318E-03   -0.16331E-01    96   0.116E+00    0.191E-01
DAV:   2    -0.102492413456E+03   -0.65857E-03   -0.77220E-03   132   0.290E-01    0.810E-02
DAV:   3    -0.102492384579E+03    0.28877E-04   -0.30104E-04   144   0.632E-02    0.434E-02
DAV:   4    -0.102492395119E+03   -0.10540E-04   -0.72733E-05   144   0.301E-02    0.138E-02
DAV:   5    -0.102492394891E+03    0.22758E-06   -0.11515E-05   132   0.131E-02    0.702E-03
DAV:   6    -0.102492395141E+03   -0.24986E-06   -0.25932E-06   132   0.547E-03
   4 F= -.10249240E+03 E0= -.10249240E+03  d E =-.696297E-10
       N       E                     dE             d eps       ncg     rms          rms(c)
DAV:   1    -0.102490384784E+03    0.20101E-02   -0.32607E-01    96   0.165E+00    0.267E-01
DAV:   2    -0.102491746261E+03   -0.13615E-02   -0.15771E-02   132   0.426E-01    0.118E-01
DAV:   3    -0.102491680610E+03    0.65651E-04   -0.60006E-04   144   0.921E-02    0.616E-02
DAV:   4    -0.102491695423E+03   -0.14813E-04   -0.15837E-04   132   0.461E-02    0.182E-02
DAV:   5    -0.102491691716E+03    0.37070E-05   -0.28292E-05   132   0.206E-02    0.105E-02
DAV:   6    -0.102491691367E+03    0.34899E-06   -0.57321E-06   132   0.821E-03
   5 F= -.10249169E+03 E0= -.10249169E+03  d E =-.744144E-10
       N       E                     dE             d eps       ncg     rms          rms(c)
DAV:   1    -0.102490043648E+03    0.16481E-02   -0.16297E-01    96   0.119E+00    0.192E-01
DAV:   2    -0.102490876263E+03   -0.83262E-03   -0.93387E-03   132   0.331E-01    0.944E-02
DAV:   3    -0.102490828788E+03    0.47475E-04   -0.32263E-04   132   0.701E-02    0.507E-02
DAV:   4    -0.102490835408E+03   -0.66203E-05   -0.11533E-04   132   0.396E-02    0.127E-02
DAV:   5    -0.102490834016E+03    0.13921E-05   -0.19951E-05   132   0.167E-02    0.811E-03
DAV:   6    -0.102490835598E+03   -0.15813E-05   -0.33323E-06   132   0.611E-03    0.520E-03
DAV:   7    -0.102490840969E+03   -0.53713E-05   -0.49512E-07   108   0.260E-03    0.172E-03
DAV:   8    -0.102490845721E+03   -0.47519E-05   -0.41491E-07   108   0.231E-03    0.686E-04
DAV:   9    -0.102490850839E+03   -0.51178E-05   -0.32462E-07   108   0.176E-03    0.568E-04
DAV:  10    -0.102490857928E+03   -0.70894E-05   -0.56374E-07   108   0.171E-03    0.555E-04
DAV:  11    -0.102490858910E+03   -0.98206E-06   -0.60889E-08   120   0.779E-04
   6 F= -.10249086E+03 E0= -.10249086E+03  d E =-.812660E-10
       N       E                     dE             d eps       ncg     rms          rms(c)
DAV:   1    -0.102488721631E+03    0.21363E-02   -0.33137E-01    96   0.170E+00    0.270E-01
DAV:   2    -0.102490988642E+03   -0.22670E-02   -0.24733E-02   120   0.516E-01    0.171E-01
DAV:   3    -0.102490808740E+03    0.17990E-03   -0.70033E-04   132   0.110E-01    0.884E-02
DAV:   4    -0.102490812766E+03   -0.40264E-05   -0.46240E-04   132   0.741E-02    0.173E-02
DAV:   5    -0.102490802122E+03    0.10644E-04   -0.62479E-05   132   0.288E-02    0.124E-02
DAV:   6    -0.102490801930E+03    0.19213E-06   -0.11472E-05   132   0.933E-03    0.813E-03
DAV:   7    -0.102490811902E+03   -0.99721E-05   -0.85530E-07   108   0.338E-03    0.352E-03
DAV:   8    -0.102490828942E+03   -0.17041E-04   -0.23084E-06   132   0.538E-03    0.166E-03
DAV:   9    -0.102490840200E+03   -0.11257E-04   -0.10733E-06   132   0.272E-03    0.163E-03
DAV:  10    -0.102490857326E+03   -0.17126E-04   -0.65403E-07   108   0.183E-03    0.918E-04
DAV:  11    -0.102490865132E+03   -0.78061E-05   -0.43151E-07   108   0.130E-03    0.681E-04
DAV:  12    -0.102490872297E+03   -0.71655E-05   -0.19319E-07   108   0.101E-03    0.230E-04
DAV:  13    -0.102490876036E+03   -0.37387E-05   -0.10110E-07   108   0.648E-04    0.256E-04
DAV:  14    -0.102490878319E+03   -0.22831E-05   -0.23517E-08   108   0.385E-04    0.124E-04
DAV:  15    -0.102490879674E+03   -0.13552E-05   -0.17588E-08   108   0.321E-04    0.776E-05
DAV:  16    -0.102490880233E+03   -0.55853E-06    0.17333E-09   108   0.167E-04
   7 F= -.10249088E+03 E0= -.10249088E+03  d E =-.650835E-10
       N       E                     dE             d eps       ncg     rms          rms(c)
DAV:   1    -0.102490081450E+03    0.79822E-03   -0.18908E-01    96   0.133E+00    0.192E-01
DAV:   2    -0.102491461500E+03   -0.13801E-02   -0.14447E-02   132   0.423E-01    0.120E-01
DAV:   3    -0.102491376458E+03    0.85042E-04   -0.38837E-04   132   0.842E-02    0.653E-02
DAV:   4    -0.102491377753E+03   -0.12951E-05   -0.23030E-04   132   0.578E-02    0.125E-02
DAV:   5    -0.102491372492E+03    0.52606E-05   -0.42754E-05   132   0.236E-02    0.992E-03
DAV:   6    -0.102491373148E+03   -0.65614E-06   -0.44009E-06   132   0.664E-03
   8 F= -.10249137E+03 E0= -.10249137E+03  d E =-.686264E-10
       N       E                     dE             d eps       ncg     rms          rms(c)
DAV:   1    -0.102489057088E+03    0.23154E-02   -0.33446E-01    96   0.175E+00    0.263E-01
DAV:   2    -0.102491106661E+03   -0.20496E-02   -0.21125E-02   120   0.494E-01    0.154E-01
DAV:   3    -0.102491034394E+03    0.72267E-04   -0.56935E-04   132   0.924E-02    0.832E-02
DAV:   4    -0.102491031444E+03    0.29503E-05   -0.22342E-04   132   0.565E-02    0.161E-02
DAV:   5    -0.102491021811E+03    0.96327E-05   -0.41328E-05   144   0.242E-02    0.109E-02
DAV:   6    -0.102491020723E+03    0.10879E-05   -0.70180E-06   132   0.998E-03    0.651E-03
DAV:   7    -0.102491032383E+03   -0.11660E-04   -0.36130E-06   144   0.807E-03    0.208E-03
DAV:   8    -0.102491047248E+03   -0.14865E-04   -0.16519E-06   120   0.524E-03    0.176E-03
DAV:   9    -0.102491056695E+03   -0.94465E-05   -0.48813E-07   108   0.239E-03    0.158E-03
DAV:  10    -0.102491074997E+03   -0.18302E-04   -0.93157E-07   120   0.207E-03    0.558E-04
DAV:  11    -0.102491082498E+03   -0.75012E-05   -0.38539E-07   108   0.156E-03    0.656E-04
DAV:  12    -0.102491089036E+03   -0.65378E-05   -0.19068E-07   108   0.144E-03    0.582E-04
DAV:  13    -0.102491093571E+03   -0.45352E-05   -0.17853E-07   108   0.104E-03    0.389E-04
DAV:  14    -0.102491095465E+03   -0.18941E-05   -0.32234E-08   120   0.505E-04    0.199E-04
DAV:  15    -0.102491097464E+03   -0.19994E-05   -0.42752E-08   108   0.531E-04    0.117E-04
DAV:  16    -0.102491098042E+03   -0.57774E-06   -0.23510E-09   120   0.275E-04
   9 F= -.10249110E+03 E0= -.10249110E+03  d E =-.671951E-10
       N       E                     dE             d eps       ncg     rms          rms(c)
DAV:   1    -0.102489218373E+03    0.18791E-02   -0.16908E-01    96   0.125E+00    0.184E-01
DAV:   2    -0.102490261846E+03   -0.10435E-02   -0.10899E-02   120   0.363E-01    0.114E-01
DAV:   3    -0.102490214333E+03    0.47513E-04   -0.29845E-04   144   0.711E-02    0.593E-02
DAV:   4    -0.102490212402E+03    0.19307E-05   -0.14554E-04   132   0.455E-02    0.123E-02
DAV:   5    -0.102490207320E+03    0.50828E-05   -0.26184E-05   132   0.193E-02    0.803E-03
DAV:   6    -0.102490210538E+03   -0.32181E-05   -0.69689E-06   132   0.809E-03    0.479E-03
DAV:   7    -0.102490222155E+03   -0.11618E-04   -0.10418E-06   108   0.389E-03    0.195E-03
DAV:   8    -0.102490236282E+03   -0.14127E-04   -0.13924E-06   120   0.344E-03    0.838E-04
DAV:   9    -0.102490248465E+03   -0.12182E-04   -0.10778E-06   120   0.273E-03    0.102E-03
DAV:  10    -0.102490260407E+03   -0.11942E-04   -0.10086E-06   120   0.222E-03    0.349E-04
DAV:  11    -0.102490263458E+03   -0.30516E-05   -0.10604E-07   108   0.881E-04    0.255E-04
DAV:  12    -0.102490267160E+03   -0.37018E-05   -0.13292E-07   108   0.790E-04    0.108E-04
DAV:  13    -0.102490268964E+03   -0.18043E-05   -0.69819E-08   108   0.531E-04    0.165E-04
DAV:  14    -0.102490270100E+03   -0.11358E-05   -0.15973E-08   108   0.335E-04    0.627E-05
DAV:  15    -0.102490270454E+03   -0.35346E-06   -0.25807E-10   108   0.183E-04
  10 F= -.10249027E+03 E0= -.10249027E+03  d E =-.731699E-10
       N       E                     dE             d eps       ncg     rms          rms(c)
DAV:   1    -0.102487812598E+03    0.24575E-02   -0.34101E-01    96   0.178E+00    0.261E-01
DAV:   2    -0.102490541450E+03   -0.27289E-02   -0.27867E-02   132   0.573E-01    0.186E-01
DAV:   3    -0.102490374230E+03    0.16722E-03   -0.64155E-04   132   0.111E-01    0.968E-02
DAV:   4    -0.102490390606E+03   -0.16376E-04   -0.49835E-04   132   0.841E-02    0.192E-02
DAV:   5    -0.102490376687E+03    0.13919E-04   -0.10304E-04   132   0.368E-02    0.129E-02
DAV:   6    -0.102490377806E+03   -0.11185E-05   -0.20063E-05   132   0.121E-02    0.777E-03
DAV:   7    -0.102490395241E+03   -0.17435E-04   -0.17091E-06   132   0.439E-03    0.351E-03
DAV:   8    -0.102490423559E+03   -0.28318E-04   -0.39882E-06   132   0.573E-03    0.143E-03
DAV:   9    -0.102490440987E+03   -0.17429E-04   -0.15636E-06   132   0.312E-03    0.177E-03
DAV:  10    -0.102490464346E+03   -0.23359E-04   -0.19390E-06   120   0.302E-03    0.469E-04
DAV:  11    -0.102490469314E+03   -0.49673E-05   -0.14686E-07   108   0.111E-03    0.341E-04
DAV:  12    -0.102490478078E+03   -0.87644E-05   -0.34136E-07    96   0.118E-03    0.157E-04
DAV:  13    -0.102490480606E+03   -0.25280E-05   -0.75197E-08   108   0.542E-04    0.186E-04
DAV:  14    -0.102490483197E+03   -0.25915E-05   -0.38425E-08    96   0.472E-04    0.980E-05
DAV:  15    -0.102490483948E+03   -0.75035E-06   -0.85605E-09   108   0.257E-04
  11 F= -.10249048E+03 E0= -.10249048E+03  d E =-.696565E-10
       N       E                     dE             d eps       ncg     rms          rms(c)
DAV:   1    -0.102490445692E+03    0.37505E-04   -0.16899E-01    96   0.127E+00    0.190E-01
DAV:   2    -0.102491676727E+03   -0.12310E-02   -0.12753E-02   132   0.394E-01    0.124E-01
DAV:   3    -0.102491606424E+03    0.70303E-04   -0.31291E-04   132   0.760E-02    0.654E-02
DAV:   4    -0.102491610285E+03   -0.38609E-05   -0.20564E-04   132   0.554E-02    0.129E-02
DAV:   5    -0.102491604187E+03    0.60977E-05   -0.42485E-05   132   0.243E-02    0.906E-03
DAV:   6    -0.102491605523E+03   -0.13362E-05   -0.80881E-06   132   0.827E-03    0.580E-03
DAV:   7    -0.102491614896E+03   -0.93722E-05   -0.78712E-07   108   0.332E-03    0.261E-03
DAV:   8    -0.102491628945E+03   -0.14050E-04   -0.16309E-06   120   0.369E-03    0.885E-04
DAV:   9    -0.102491639516E+03   -0.10570E-04   -0.78391E-07   108   0.250E-03    0.107E-03
DAV:  10    -0.102491652311E+03   -0.12795E-04   -0.13308E-06   132   0.234E-03    0.537E-04
DAV:  11    -0.102491655700E+03   -0.33892E-05   -0.98965E-08   108   0.942E-04    0.257E-04
DAV:  12    -0.102491658986E+03   -0.32864E-05   -0.11059E-07   108   0.744E-04    0.153E-04
DAV:  13    -0.102491660931E+03   -0.19443E-05   -0.53008E-08   108   0.479E-04    0.207E-04
DAV:  14    -0.102491662169E+03   -0.12385E-05   -0.17128E-08   108   0.325E-04    0.736E-05
DAV:  15    -0.102491662640E+03   -0.47132E-06   -0.27344E-09   108   0.201E-04
  12 F= -.10249166E+03 E0= -.10249166E+03  d E =-.708147E-10
       N       E                     dE             d eps       ncg     rms          rms(c)
DAV:   1    -0.102490189070E+03    0.14731E-02   -0.32967E-01    96   0.170E+00    0.268E-01
DAV:   2    -0.102491863106E+03   -0.16740E-02   -0.17838E-02   132   0.447E-01    0.133E-01
DAV:   3    -0.102491812576E+03    0.50530E-04   -0.56514E-04   132   0.906E-02    0.709E-02
DAV:   4    -0.102491824021E+03   -0.11445E-04   -0.18695E-04   132   0.546E-02    0.162E-02
DAV:   5    -0.102491817533E+03    0.64883E-05   -0.43083E-05   132   0.251E-02    0.116E-02
DAV:   6    -0.102491817137E+03    0.39550E-06   -0.73564E-06   132   0.939E-03
  13 F= -.10249182E+03 E0= -.10249182E+03  d E =-.752043E-10
       N       E                     dE             d eps       ncg     rms          rms(c)
DAV:   1    -0.102489227779E+03    0.25898E-02   -0.16705E-01    96   0.129E+00    0.192E-01
DAV:   2    -0.102490505055E+03   -0.12773E-02   -0.13235E-02   132   0.403E-01    0.115E-01
DAV:   3    -0.102490453438E+03    0.51617E-04   -0.36066E-04   144   0.778E-02    0.660E-02
DAV:   4    -0.102490474109E+03   -0.20671E-04   -0.18769E-04   132   0.557E-02    0.132E-02
DAV:   5    -0.102490473236E+03    0.87309E-06   -0.49707E-05   132   0.263E-02    0.106E-02
DAV:   6    -0.102490471758E+03    0.14778E-05   -0.56681E-06   132   0.826E-03    0.727E-03
DAV:   7    -0.102490475332E+03   -0.35741E-05   -0.18282E-06   132   0.508E-03    0.275E-03
DAV:   8    -0.102490480682E+03   -0.53499E-05   -0.50790E-07   108   0.328E-03    0.757E-04
DAV:   9    -0.102490486932E+03   -0.62504E-05   -0.52910E-07   108   0.232E-03    0.101E-03
DAV:  10    -0.102490495984E+03   -0.90513E-05   -0.48202E-07   108   0.182E-03    0.324E-04
DAV:  11    -0.102490498059E+03   -0.20749E-05   -0.95310E-08   108   0.869E-04    0.288E-04
DAV:  12    -0.102490500958E+03   -0.28997E-05   -0.62787E-08   108   0.649E-04    0.170E-04
DAV:  13    -0.102490503704E+03   -0.27460E-05   -0.89154E-08   108   0.619E-04    0.115E-04
DAV:  14    -0.102490504990E+03   -0.12856E-05   -0.21808E-08   108   0.334E-04    0.906E-05
DAV:  15    -0.102490505774E+03   -0.78421E-06   -0.60776E-09   108   0.235E-04
  14 F= -.10249051E+03 E0= -.10249051E+03  d E =-.921476E-10
       N       E                     dE             d eps       ncg     rms          rms(c)
DAV:   1    -0.102488318729E+03    0.21863E-02   -0.34487E-01    96   0.183E+00    0.260E-01
DAV:   2    -0.102490800506E+03   -0.24818E-02   -0.25349E-02   132   0.582E-01    0.175E-01
DAV:   3    -0.102490675182E+03    0.12532E-03   -0.57898E-04   144   0.105E-01    0.957E-02
DAV:   4    -0.102490675970E+03   -0.78740E-06   -0.39479E-04   132   0.794E-02    0.172E-02
DAV:   5    -0.102490667602E+03    0.83677E-05   -0.89800E-05   132   0.357E-02    0.128E-02
DAV:   6    -0.102490671976E+03   -0.43735E-05   -0.16062E-05   132   0.118E-02    0.848E-03
DAV:   7    -0.102490692996E+03   -0.21020E-04   -0.21483E-06   132   0.516E-03    0.355E-03
DAV:   8    -0.102490719717E+03   -0.26721E-04   -0.27536E-06   132   0.483E-03    0.113E-03
DAV:   9    -0.102490742140E+03   -0.22424E-04   -0.24599E-06   120   0.393E-03    0.180E-03
DAV:  10    -0.102490762851E+03   -0.20711E-04   -0.17320E-06   120   0.311E-03    0.662E-04
DAV:  11    -0.102490768631E+03   -0.57798E-05   -0.24917E-07   108   0.132E-03    0.384E-04
DAV:  12    -0.102490775163E+03   -0.65321E-05   -0.27795E-07   108   0.110E-03    0.169E-04
DAV:  13    -0.102490777562E+03   -0.23995E-05   -0.87818E-08   108   0.609E-04    0.279E-04
DAV:  14    -0.102490779673E+03   -0.21108E-05   -0.45505E-08   108   0.500E-04    0.956E-05
DAV:  15    -0.102490780133E+03   -0.45990E-06   -0.36056E-09   120   0.233E-04
  15 F= -.10249078E+03 E0= -.10249078E+03  d E =-.528059E-10
       N       E                     dE             d eps       ncg     rms          rms(c)
DAV:   1    -0.102490005032E+03    0.77464E-03   -0.17505E-01    96   0.131E+00    0.189E-01
DAV:   2    -0.102491277191E+03   -0.12722E-02   -0.13023E-02   132   0.414E-01    0.129E-01
DAV:   3    -0.102491202295E+03    0.74897E-04   -0.29448E-04   144   0.766E-02    0.686E-02
DAV:   4    -0.102491207083E+03   -0.47889E-05   -0.22797E-04   132   0.593E-02    0.133E-02
DAV:   5    -0.102491199773E+03    0.73102E-05   -0.51871E-05   132   0.271E-02    0.938E-03
DAV:   6    -0.102491201282E+03   -0.15085E-05   -0.90268E-06   132   0.831E-03    0.535E-03
DAV:   7    -0.102491211100E+03   -0.98185E-05   -0.49529E-07   108   0.266E-03    0.278E-03
DAV:   8    -0.102491230779E+03   -0.19679E-04   -0.25383E-06   132   0.438E-03    0.128E-03
DAV:   9    -0.102491238859E+03   -0.80797E-05   -0.75668E-07   120   0.238E-03    0.130E-03
DAV:  10    -0.102491251692E+03   -0.12833E-04   -0.66217E-07    96   0.194E-03    0.482E-04
DAV:  11    -0.102491256988E+03   -0.52963E-05   -0.34983E-07   108   0.124E-03    0.289E-04
DAV:  12    -0.102491260730E+03   -0.37414E-05   -0.92823E-08   108   0.703E-04    0.118E-04
DAV:  13    -0.102491263164E+03   -0.24343E-05   -0.72990E-08   108   0.560E-04    0.120E-04
DAV:  14    -0.102491264284E+03   -0.11195E-05   -0.15460E-08   108   0.322E-04    0.892E-05
DAV:  15    -0.102491264949E+03   -0.66583E-06   -0.35762E-09   108   0.228E-04
  16 F= -.10249126E+03 E0= -.10249126E+03  d E =-.902636E-10
       N       E                     dE             d eps       ncg     rms          rms(c)
DAV:   1    -0.102489239723E+03    0.20246E-02   -0.34431E-01    96   0.183E+00    0.253E-01
DAV:   2    -0.102491209420E+03   -0.19697E-02   -0.20403E-02   132   0.502E-01    0.152E-01
DAV:   3    -0.102491128012E+03    0.81408E-04   -0.53191E-04   144   0.953E-02    0.796E-02
DAV:   4    -0.102491133021E+03   -0.50091E-05   -0.27625E-04   132   0.648E-02    0.163E-02
DAV:   5    -0.102491122871E+03    0.10151E-04   -0.56330E-05   132   0.286E-02    0.116E-02
DAV:   6    -0.102491122124E+03    0.74661E-06   -0.11675E-05   132   0.108E-02    0.697E-03
DAV:   7    -0.102491131903E+03   -0.97786E-05   -0.18555E-06   132   0.544E-03    0.271E-03
DAV:   8    -0.102491145813E+03   -0.13911E-04   -0.13524E-06   132   0.425E-03    0.115E-03
DAV:   9    -0.102491161556E+03   -0.15743E-04   -0.92933E-07   108   0.293E-03    0.114E-03
DAV:  10    -0.102491179030E+03   -0.17474E-04   -0.12310E-06   120   0.252E-03    0.577E-04
DAV:  11    -0.102491186677E+03   -0.76476E-05   -0.22523E-07   108   0.131E-03    0.267E-04
DAV:  12    -0.102491192687E+03   -0.60100E-05   -0.17250E-07   108   0.884E-04    0.269E-04
DAV:  13    -0.102491195639E+03   -0.29513E-05   -0.46054E-08   108   0.477E-04    0.198E-04
DAV:  14    -0.102491197819E+03   -0.21808E-05   -0.27857E-08   108   0.392E-04    0.568E-05
DAV:  15    -0.102491198702E+03   -0.88305E-06   -0.48873E-09   108   0.232E-04
  17 F= -.10249120E+03 E0= -.10249120E+03  d E =-.550253E-10
       N       E                     dE             d eps       ncg     rms          rms(c)
DAV:   1    -0.102490614937E+03    0.58288E-03   -0.17231E-01    96   0.131E+00    0.169E-01
DAV:   2    -0.102491662508E+03   -0.10476E-02   -0.10840E-02   132   0.376E-01    0.115E-01
DAV:   3    -0.102491615626E+03    0.46881E-04   -0.25053E-04   132   0.662E-02    0.613E-02
DAV:   4    -0.102491601074E+03    0.14553E-04   -0.12435E-04   132   0.426E-02    0.104E-02
DAV:   5    -0.102491598005E+03    0.30685E-05   -0.18862E-05   132   0.169E-02    0.738E-03
DAV:   6    -0.102491603517E+03   -0.55118E-05   -0.61850E-06   132   0.873E-03    0.429E-03
DAV:   7    -0.102491620988E+03   -0.17471E-04   -0.22316E-06   120   0.573E-03    0.159E-03
DAV:   8    -0.102491639748E+03   -0.18760E-04   -0.14891E-06   108   0.417E-03    0.102E-03
DAV:   9    -0.102491657177E+03   -0.17429E-04   -0.15775E-06   120   0.329E-03    0.101E-03
DAV:  10    -0.102491670557E+03   -0.13379E-04   -0.11194E-06   120   0.234E-03    0.352E-04
DAV:  11    -0.102491674223E+03   -0.36665E-05   -0.11381E-07   108   0.904E-04    0.214E-04
DAV:  12    -0.102491678701E+03   -0.44780E-05   -0.25680E-07   108   0.104E-03    0.133E-04
DAV:  13    -0.102491679797E+03   -0.10960E-05   -0.36656E-08   108   0.455E-04    0.110E-04
DAV:  14    -0.102491680733E+03   -0.93545E-06   -0.14294E-08   108   0.328E-04
  18 F= -.10249168E+03 E0= -.10249168E+03  d E =-.676506E-10
       N       E                     dE             d eps       ncg     rms          rms(c)
DAV:   1    -0.102489480913E+03    0.21989E-02   -0.33003E-01    96   0.180E+00    0.216E-01
DAV:   2    -0.102491404904E+03   -0.19240E-02   -0.19669E-02   120   0.487E-01    0.140E-01
DAV:   3    -0.102491364613E+03    0.40291E-04   -0.51175E-04   144   0.912E-02    0.709E-02
DAV:   4    -0.102491359122E+03    0.54917E-05   -0.17515E-04   132   0.533E-02    0.136E-02
DAV:   5    -0.102491349541E+03    0.95808E-05   -0.36296E-05   132   0.238E-02    0.918E-03
DAV:   6    -0.102491350956E+03   -0.14153E-05   -0.81463E-06   132   0.952E-03    0.572E-03
DAV:   7    -0.102491363287E+03   -0.12330E-04   -0.14812E-06   108   0.612E-03    0.222E-03
DAV:   8    -0.102491380623E+03   -0.17336E-04   -0.26658E-06   132   0.667E-03    0.186E-03
DAV:   9    -0.102491397565E+03   -0.16943E-04   -0.13348E-06   120   0.397E-03    0.137E-03
DAV:  10    -0.102491408853E+03   -0.11287E-04   -0.43897E-07   108   0.169E-03    0.789E-04
DAV:  11    -0.102491419259E+03   -0.10406E-04   -0.43078E-07   108   0.145E-03    0.354E-04
DAV:  12    -0.102491426616E+03   -0.73573E-05   -0.22589E-07   108   0.972E-04    0.234E-04
DAV:  13    -0.102491432173E+03   -0.55568E-05   -0.15460E-07   108   0.769E-04    0.160E-04
DAV:  14    -0.102491434202E+03   -0.20295E-05   -0.29910E-08   108   0.406E-04    0.933E-05
DAV:  15    -0.102491435722E+03   -0.15199E-05   -0.16874E-08   108   0.315E-04    0.651E-05
DAV:  16    -0.102491436148E+03   -0.42633E-06    0.13922E-09   120   0.165E-04
  19 F= -.10249144E+03 E0= -.10249144E+03  d E =-.695308E-10
       N       E                     dE             d eps       ncg     rms          rms(c)
DAV:   1    -0.102489195396E+03    0.22403E-02   -0.16813E-01    96   0.130E+00    0.163E-01
DAV:   2    -0.102490596741E+03   -0.14013E-02   -0.14235E-02   132   0.415E-01    0.117E-01
DAV:   3    -0.102490544741E+03    0.52000E-04   -0.29365E-04   156   0.692E-02    0.702E-02
DAV:   4    -0.102490533985E+03    0.10756E-04   -0.18102E-04   132   0.532E-02    0.110E-02
DAV:   5    -0.102490530703E+03    0.32826E-05   -0.55839E-05   132   0.266E-02    0.876E-03
DAV:   6    -0.102490530709E+03   -0.58417E-08   -0.59731E-06   132   0.815E-03
  20 F= -.10249053E+03 E0= -.10249053E+03  d E =-.848224E-10
       N       E                     dE             d eps       ncg     rms          rms(c)
DAV:   1    -0.102488158707E+03    0.23720E-02   -0.34963E-01    96   0.173E+00    0.274E-01
DAV:   2    -0.102490528739E+03   -0.23700E-02   -0.24039E-02   132   0.540E-01    0.173E-01
DAV:   3    -0.102490438352E+03    0.90386E-04   -0.58342E-04   144   0.101E-01    0.912E-02
DAV:   4    -0.102490463983E+03   -0.25630E-04   -0.38730E-04   132   0.711E-02    0.177E-02
DAV:   5    -0.102490451640E+03    0.12343E-04   -0.73200E-05   132   0.306E-02    0.114E-02
DAV:   6    -0.102490454765E+03   -0.31250E-05   -0.13432E-05   132   0.994E-03    0.689E-03
DAV:   7    -0.102490470682E+03   -0.15917E-04   -0.11573E-06   120   0.363E-03    0.296E-03
DAV:   8    -0.102490491193E+03   -0.20512E-04   -0.25559E-06   120   0.454E-03    0.122E-03
DAV:   9    -0.102490505436E+03   -0.14242E-04   -0.14986E-06   120   0.308E-03    0.143E-03
DAV:  10    -0.102490522097E+03   -0.16662E-04   -0.13492E-06   108   0.262E-03    0.525E-04
DAV:  11    -0.102490526112E+03   -0.40145E-05   -0.16918E-07   108   0.112E-03    0.345E-04
DAV:  12    -0.102490531012E+03   -0.49003E-05   -0.15847E-07    96   0.902E-04    0.156E-04
DAV:  13    -0.102490533998E+03   -0.29860E-05   -0.13337E-07   108   0.725E-04    0.190E-04
DAV:  14    -0.102490535781E+03   -0.17832E-05   -0.42015E-08   108   0.476E-04    0.106E-04
DAV:  15    -0.102490536266E+03   -0.48514E-06   -0.52819E-09   108   0.243E-04
  21 F= -.10249054E+03 E0= -.10249054E+03  d E =-.583157E-10
       N       E                     dE             d eps       ncg     rms          rms(c)
DAV:   1    -0.102489826497E+03    0.70928E-03   -0.17085E-01    96   0.123E+00    0.181E-01
DAV:   2    -0.102490799445E+03   -0.97295E-03   -0.10117E-02   132   0.342E-01    0.107E-01
DAV:   3    -0.102490762314E+03    0.37131E-04   -0.24478E-04   132   0.605E-02    0.602E-02
DAV:   4    -0.102490758465E+03    0.38490E-05   -0.11083E-04   132   0.395E-02    0.113E-02
DAV:   5    -0.102490752927E+03    0.55384E-05   -0.23108E-05   132   0.176E-02    0.780E-03
DAV:   6    -0.102490751943E+03    0.98425E-06   -0.44146E-06   132   0.713E-03
  22 F= -.10249075E+03 E0= -.10249075E+03  d E =-.593467E-10
       N       E                     dE             d eps       ncg     rms          rms(c)
DAV:   1    -0.102489133827E+03    0.16191E-02   -0.34642E-01    96   0.173E+00    0.255E-01
DAV:   2    -0.102491180798E+03   -0.20470E-02   -0.20765E-02   132   0.500E-01    0.161E-01
DAV:   3    -0.102491129190E+03    0.51608E-04   -0.47801E-04   144   0.862E-02    0.946E-02
DAV:   4    -0.102491117416E+03    0.11774E-04   -0.24851E-04   132   0.585E-02    0.150E-02
DAV:   5    -0.102491110611E+03    0.68052E-05   -0.50074E-05   144   0.252E-02    0.111E-02
DAV:   6    -0.102491113896E+03   -0.32852E-05   -0.10121E-05   132   0.106E-02    0.636E-03
DAV:   7    -0.102491134038E+03   -0.20142E-04   -0.43973E-06   132   0.704E-03    0.248E-03
DAV:   8    -0.102491157429E+03   -0.23391E-04   -0.18923E-06   120   0.438E-03    0.117E-03
DAV:   9    -0.102491178879E+03   -0.21450E-04   -0.19411E-06   120   0.350E-03    0.119E-03
DAV:  10    -0.102491196070E+03   -0.17191E-04   -0.15292E-06   120   0.264E-03    0.573E-04
DAV:  11    -0.102491202641E+03   -0.65706E-05   -0.29128E-07   108   0.126E-03    0.250E-04
DAV:  12    -0.102491207989E+03   -0.53478E-05   -0.31161E-07   108   0.112E-03    0.161E-04
DAV:  13    -0.102491209610E+03   -0.16211E-05   -0.57452E-08   108   0.557E-04    0.142E-04
DAV:  14    -0.102491210475E+03   -0.86529E-06   -0.10222E-08   108   0.314E-04
  23 F= -.10249121E+03 E0= -.10249121E+03  d E =-.918158E-10
       N       E                     dE             d eps       ncg     rms          rms(c)
DAV:   1    -0.102490972726E+03    0.23688E-03   -0.16951E-01    96   0.121E+00    0.170E-01
DAV:   2    -0.102491851997E+03   -0.87927E-03   -0.91389E-03   132   0.325E-01    0.947E-02
DAV:   3    -0.102491829087E+03    0.22910E-04   -0.25635E-04   132   0.632E-02    0.497E-02
DAV:   4    -0.102491837992E+03   -0.89042E-05   -0.10824E-04   132   0.415E-02    0.109E-02
DAV:   5    -0.102491834666E+03    0.33254E-05   -0.26377E-05   132   0.192E-02    0.812E-03
DAV:   6    -0.102491834287E+03    0.37864E-06   -0.42867E-06   132   0.650E-03
  24 F= -.10249183E+03 E0= -.10249183E+03  d E =-.577958E-10
       N       E                     dE             d eps       ncg     rms          rms(c)
DAV:   1    -0.102490126401E+03    0.17083E-02   -0.33042E-01    96   0.171E+00    0.215E-01
DAV:   2    -0.102491883278E+03   -0.17569E-02   -0.17951E-02   132   0.457E-01    0.128E-01
DAV:   3    -0.102491867212E+03    0.16066E-04   -0.47622E-04   144   0.854E-02    0.655E-02
DAV:   4    -0.102491887207E+03   -0.19995E-04   -0.17078E-04   132   0.521E-02    0.142E-02
DAV:   5    -0.102491882329E+03    0.48783E-05   -0.38181E-05   132   0.237E-02    0.956E-03
DAV:   6    -0.102491884330E+03   -0.20011E-05   -0.68834E-06   132   0.833E-03    0.598E-03
DAV:   7    -0.102491891916E+03   -0.75868E-05   -0.86256E-07   108   0.426E-03    0.233E-03
DAV:   8    -0.102491901816E+03   -0.98996E-05   -0.16050E-06   120   0.490E-03    0.145E-03
DAV:   9    -0.102491914242E+03   -0.12426E-04   -0.86578E-07   108   0.335E-03    0.837E-04
DAV:  10    -0.102491923321E+03   -0.90791E-05   -0.57932E-07   108   0.216E-03    0.727E-04
DAV:  11    -0.102491927607E+03   -0.42863E-05   -0.14997E-07   108   0.120E-03    0.527E-04
DAV:  12    -0.102491932818E+03   -0.52112E-05   -0.12981E-07   108   0.913E-04    0.198E-04
DAV:  13    -0.102491935624E+03   -0.28061E-05   -0.71069E-08   108   0.587E-04    0.226E-04
DAV:  14    -0.102491937767E+03   -0.21430E-05   -0.31052E-08   108   0.413E-04    0.716E-05
DAV:  15    -0.102491938749E+03   -0.98140E-06   -0.14357E-08   108   0.292E-04
  25 F= -.10249194E+03 E0= -.10249194E+03  d E =-.869047E-10
       N       E                     dE             d eps       ncg     rms          rms(c)
DAV:   1    -0.102489771776E+03    0.21660E-02   -0.16519E-01    96   0.127E+00    0.162E-01
DAV:   2    -0.102491004737E+03   -0.12330E-02   -0.12864E-02   132   0.384E-01    0.107E-01
DAV:   3    -0.102490949290E+03    0.55447E-04   -0.32166E-04   144   0.713E-02    0.606E-02
DAV:   4    -0.102490937540E+03    0.11750E-04   -0.15053E-04   132   0.483E-02    0.113E-02
DAV:   5    -0.102490931734E+03    0.58065E-05   -0.37488E-05   132   0.226E-02    0.886E-03
DAV:   6    -0.102490931769E+03   -0.35705E-07   -0.47795E-06   144   0.722E-03
  26 F= -.10249093E+03 E0= -.10249093E+03  d E =-.726478E-10
       N       E                     dE             d eps       ncg     rms          rms(c)
DAV:   1    -0.102488909328E+03    0.20224E-02   -0.33452E-01    96   0.171E+00    0.259E-01
DAV:   2    -0.102491164579E+03   -0.22553E-02   -0.24153E-02   132   0.500E-01    0.163E-01
DAV:   3    -0.102491020408E+03    0.14417E-03   -0.68176E-04   132   0.103E-01    0.857E-02
DAV:   4    -0.102491038565E+03   -0.18157E-04   -0.41038E-04   132   0.702E-02    0.170E-02
DAV:   5    -0.102491029763E+03    0.88020E-05   -0.64761E-05   132   0.287E-02    0.124E-02
DAV:   6    -0.102491028218E+03    0.15446E-05   -0.10681E-05   132   0.920E-03    0.824E-03
DAV:   7    -0.102491033867E+03   -0.56486E-05   -0.91009E-07   108   0.358E-03    0.335E-03
DAV:   8    -0.102491043889E+03   -0.10022E-04   -0.16633E-06   132   0.455E-03    0.125E-03
DAV:   9    -0.102491052031E+03   -0.81426E-05   -0.79142E-07   120   0.248E-03    0.138E-03
DAV:  10    -0.102491065425E+03   -0.13394E-04   -0.66418E-07   108   0.186E-03    0.702E-04
DAV:  11    -0.102491069686E+03   -0.42610E-05   -0.14604E-07   108   0.979E-04    0.508E-04
DAV:  12    -0.102491075692E+03   -0.60058E-05   -0.18715E-07   108   0.968E-04    0.241E-04
DAV:  13    -0.102491078220E+03   -0.25280E-05   -0.65459E-08   108   0.547E-04    0.185E-04
DAV:  14    -0.102491080184E+03   -0.19638E-05   -0.21675E-08   108   0.380E-04    0.105E-04
DAV:  15    -0.102491081171E+03   -0.98691E-06   -0.12498E-08   108   0.277E-04
  27 F= -.10249108E+03 E0= -.10249108E+03  d E =-.662630E-10
       N       E                     dE             d eps       ncg     rms          rms(c)
DAV:   1    -0.102490998444E+03    0.81740E-04   -0.16843E-01    96   0.120E+00    0.161E-01
DAV:   2    -0.102492063810E+03   -0.10654E-02   -0.11325E-02   132   0.348E-01    0.106E-01
DAV:   3    -0.102492000932E+03    0.62878E-04   -0.31218E-04   132   0.706E-02    0.565E-02
DAV:   4    -0.102491999876E+03    0.10560E-05   -0.15616E-04   132   0.448E-02    0.127E-02
DAV:   5    -0.102491995370E+03    0.45060E-05   -0.25680E-05   132   0.184E-02    0.824E-03
DAV:   6    -0.102491996709E+03   -0.13388E-05   -0.44384E-06   132   0.648E-03    0.510E-03
DAV:   7    -0.102492004183E+03   -0.74747E-05   -0.61441E-07   108   0.281E-03    0.175E-03
DAV:   8    -0.102492012109E+03   -0.79258E-05   -0.72911E-07   120   0.262E-03    0.759E-04
DAV:   9    -0.102492019767E+03   -0.76574E-05   -0.52001E-07   120   0.194E-03    0.784E-04
DAV:  10    -0.102492029025E+03   -0.92588E-05   -0.71870E-07   120   0.181E-03    0.402E-04
DAV:  11    -0.102492030704E+03   -0.16787E-05   -0.49430E-08   108   0.734E-04    0.277E-04
DAV:  12    -0.102492033054E+03   -0.23504E-05   -0.61743E-08   108   0.599E-04    0.159E-04
DAV:  13    -0.102492034849E+03   -0.17942E-05   -0.57650E-08   108   0.497E-04    0.105E-04
DAV:  14    -0.102492035925E+03   -0.10767E-05   -0.20909E-08   108   0.324E-04    0.762E-05
DAV:  15    -0.102492036308E+03   -0.38312E-06   -0.12063E-10   108   0.171E-04
  28 F= -.10249204E+03 E0= -.10249204E+03  d E =-.722622E-10
       N       E                     dE             d eps       ncg     rms          rms(c)
DAV:   1    -0.102490846154E+03    0.11898E-02   -0.33571E-01    96   0.167E+00    0.243E-01
DAV:   2    -0.102492310464E+03   -0.14643E-02   -0.16104E-02   132   0.424E-01    0.111E-01
DAV:   3    -0.102492257659E+03    0.52805E-04   -0.52468E-04   132   0.862E-02    0.578E-02
DAV:   4    -0.102492268699E+03   -0.11040E-04   -0.14516E-04   132   0.445E-02    0.163E-02
DAV:   5    -0.102492265542E+03    0.31572E-05   -0.27102E-05   132   0.204E-02    0.913E-03
DAV:   6    -0.102492266488E+03   -0.94655E-06   -0.56633E-06   132   0.802E-03
  29 F= -.10249227E+03 E0= -.10249227E+03  d E =-.782427E-10
       N       E                     dE             d eps       ncg     rms          rms(c)
DAV:   1    -0.102491419059E+03    0.84648E-03   -0.16807E-01    96   0.120E+00    0.158E-01
DAV:   2    -0.102492141232E+03   -0.72217E-03   -0.78103E-03   132   0.295E-01    0.784E-02
DAV:   3    -0.102492125015E+03    0.16217E-04   -0.25740E-04   132   0.613E-02    0.403E-02
DAV:   4    -0.102492141525E+03   -0.16509E-04   -0.75989E-05   132   0.317E-02    0.115E-02
DAV:   5    -0.102492142510E+03   -0.98580E-06   -0.11677E-05   132   0.133E-02    0.624E-03
DAV:   6    -0.102492143875E+03   -0.13648E-05   -0.28881E-06   132   0.584E-03    0.340E-03
DAV:   7    -0.102492146349E+03   -0.24736E-05   -0.34249E-07   108   0.225E-03    0.106E-03
DAV:   8    -0.102492148726E+03   -0.23777E-05   -0.18447E-07   108   0.180E-03    0.526E-04
DAV:   9    -0.102492151454E+03   -0.27276E-05   -0.13501E-07   108   0.138E-03    0.348E-04
DAV:  10    -0.102492154393E+03   -0.29394E-05   -0.16077E-07   108   0.121E-03    0.244E-04
DAV:  11    -0.102492155161E+03   -0.76793E-06   -0.34136E-08   120   0.669E-04
  30 F= -.10249216E+03 E0= -.10249216E+03  d E =-.598502E-10
       N       E                     dE             d eps       ncg     rms          rms(c)
DAV:   1    -0.102490134817E+03    0.20196E-02   -0.33664E-01    96   0.169E+00    0.268E-01
DAV:   2    -0.102491684259E+03   -0.15494E-02   -0.17182E-02   132   0.447E-01    0.124E-01
DAV:   3    -0.102491613751E+03    0.70508E-04   -0.55969E-04   132   0.901E-02    0.706E-02
DAV:   4    -0.102491621556E+03   -0.78055E-05   -0.18810E-04   132   0.511E-02    0.188E-02
DAV:   5    -0.102491617619E+03    0.39373E-05   -0.35789E-05   132   0.226E-02    0.101E-02
DAV:   6    -0.102491618567E+03   -0.94825E-06   -0.56385E-06   132   0.813E-03
  31 F= -.10249162E+03 E0= -.10249162E+03  d E =-.832509E-10
       N       E                     dE             d eps       ncg     rms          rms(c)
DAV:   1    -0.102490979767E+03    0.63785E-03   -0.16370E-01    96   0.122E+00    0.168E-01
DAV:   2    -0.102492013957E+03   -0.10342E-02   -0.10778E-02   120   0.349E-01    0.914E-02
DAV:   3    -0.102491993345E+03    0.20612E-04   -0.35161E-04   144   0.748E-02    0.490E-02
DAV:   4    -0.102492011949E+03   -0.18604E-04   -0.11731E-04   132   0.435E-02    0.113E-02
DAV:   5    -0.102492013416E+03   -0.14672E-05   -0.29232E-05   132   0.202E-02    0.828E-03
DAV:   6    -0.102492014396E+03   -0.97983E-06   -0.35389E-06   132   0.611E-03
  32 F= -.10249201E+03 E0= -.10249201E+03  d E =-.746962E-10
       N       E                     dE             d eps       ncg     rms          rms(c)
DAV:   1    -0.102489909051E+03    0.21044E-02   -0.34056E-01    96   0.165E+00    0.227E-01
DAV:   2    -0.102491715486E+03   -0.18064E-02   -0.18325E-02   120   0.444E-01    0.129E-01
DAV:   3    -0.102491702469E+03    0.13017E-04   -0.53973E-04   144   0.903E-02    0.686E-02
DAV:   4    -0.102491723785E+03   -0.21315E-04   -0.19641E-04   132   0.568E-02    0.140E-02
DAV:   5    -0.102491717969E+03    0.58157E-05   -0.50769E-05   144   0.265E-02    0.108E-02
DAV:   6    -0.102491716268E+03    0.17015E-05   -0.77125E-06   132   0.881E-03    0.683E-03
DAV:   7    -0.102491718699E+03   -0.24310E-05   -0.13221E-06   132   0.440E-03    0.273E-03
DAV:   8    -0.102491723137E+03   -0.44382E-05   -0.90886E-07   108   0.384E-03    0.932E-04
DAV:   9    -0.102491729039E+03   -0.59024E-05   -0.60774E-07   108   0.261E-03    0.106E-03
DAV:  10    -0.102491736991E+03   -0.79513E-05   -0.42560E-07   108   0.217E-03    0.424E-04
DAV:  11    -0.102491740145E+03   -0.31541E-05   -0.17434E-07   108   0.127E-03    0.367E-04
DAV:  12    -0.102491742081E+03   -0.19368E-05   -0.23404E-08   108   0.537E-04    0.260E-04
DAV:  13    -0.102491746099E+03   -0.40180E-05   -0.14756E-07   108   0.798E-04    0.136E-04
DAV:  14    -0.102491747117E+03   -0.10171E-05   -0.24458E-08   108   0.362E-04    0.145E-04
DAV:  15    -0.102491747993E+03   -0.87685E-06   -0.77222E-09   108   0.259E-04
  33 F= -.10249175E+03 E0= -.10249175E+03  d E =-.591420E-10
       N       E                     dE             d eps       ncg     rms          rms(c)
DAV:   1    -0.102489966174E+03    0.17809E-02   -0.17290E-01    96   0.122E+00    0.161E-01
DAV:   2    -0.102491056979E+03   -0.10908E-02   -0.11184E-02   120   0.357E-01    0.112E-01
DAV:   3    -0.102491015604E+03    0.41375E-04   -0.26547E-04   144   0.652E-02    0.587E-02
DAV:   4    -0.102491004384E+03    0.11221E-04   -0.13429E-04   132   0.422E-02    0.107E-02
DAV:   5    -0.102491001412E+03    0.29713E-05   -0.24979E-05   132   0.179E-02    0.771E-03
DAV:   6    -0.102491006231E+03   -0.48186E-05   -0.70834E-06   132   0.780E-03    0.469E-03
DAV:   7    -0.102491020759E+03   -0.14529E-04   -0.14175E-06   108   0.425E-03    0.188E-03
DAV:   8    -0.102491038882E+03   -0.18123E-04   -0.17623E-06   120   0.405E-03    0.949E-04
DAV:   9    -0.102491054527E+03   -0.15645E-04   -0.16215E-06   120   0.316E-03    0.116E-03
DAV:  10    -0.102491066215E+03   -0.11688E-04   -0.85310E-07   120   0.218E-03    0.434E-04
DAV:  11    -0.102491070389E+03   -0.41742E-05   -0.17447E-07   108   0.102E-03    0.219E-04
DAV:  12    -0.102491074512E+03   -0.41230E-05   -0.20976E-07   108   0.926E-04    0.182E-04
DAV:  13    -0.102491075593E+03   -0.10802E-05   -0.28248E-08   108   0.405E-04    0.150E-04
DAV:  14    -0.102491076674E+03   -0.10809E-05   -0.21848E-08   108   0.371E-04    0.480E-05
DAV:  15    -0.102491077029E+03   -0.35578E-06   -0.20722E-09   108   0.205E-04
  34 F= -.10249108E+03 E0= -.10249108E+03  d E =-.839260E-10
       N       E                     dE             d eps       ncg     rms          rms(c)
DAV:   1    -0.102489008841E+03    0.20678E-02   -0.34547E-01    96   0.174E+00    0.260E-01
DAV:   2    -0.102491123121E+03   -0.21143E-02   -0.21754E-02   132   0.495E-01    0.156E-01
DAV:   3    -0.102491030505E+03    0.92616E-04   -0.51080E-04   132   0.878E-02    0.843E-02
DAV:   4    -0.102491015985E+03    0.14520E-04   -0.27014E-04   132   0.599E-02    0.154E-02
DAV:   5    -0.102491004664E+03    0.11322E-04   -0.52810E-05   132   0.264E-02    0.110E-02
DAV:   6    -0.102491004326E+03    0.33752E-06   -0.10463E-05   132   0.103E-02    0.669E-03
DAV:   7    -0.102491018368E+03   -0.14042E-04   -0.25716E-06   132   0.652E-03    0.240E-03
DAV:   8    -0.102491037269E+03   -0.18901E-04   -0.19899E-06   132   0.543E-03    0.150E-03
DAV:   9    -0.102491058363E+03   -0.21094E-04   -0.15403E-06   120   0.352E-03    0.150E-03
DAV:  10    -0.102491077566E+03   -0.19203E-04   -0.92284E-07   120   0.225E-03    0.518E-04
DAV:  11    -0.102491085309E+03   -0.77429E-05   -0.18274E-07   108   0.110E-03    0.325E-04
DAV:  12    -0.102491095981E+03   -0.10672E-04   -0.36571E-07   108   0.121E-03    0.199E-04
DAV:  13    -0.102491098266E+03   -0.22851E-05   -0.40822E-08   108   0.503E-04    0.197E-04
DAV:  14    -0.102491100625E+03   -0.23586E-05   -0.23807E-08   108   0.395E-04    0.102E-04
DAV:  15    -0.102491101903E+03   -0.12781E-05   -0.13507E-08   108   0.285E-04    0.504E-05
DAV:  16    -0.102491102665E+03   -0.76160E-06   -0.80670E-10   108   0.194E-04
  35 F= -.10249110E+03 E0= -.10249110E+03  d E =-.597227E-10
       N       E                     dE             d eps       ncg     rms          rms(c)
DAV:   1    -0.102488932921E+03    0.21690E-02   -0.17580E-01    96   0.121E+00    0.188E-01
DAV:   2    -0.102490234016E+03   -0.13011E-02   -0.13320E-02   132   0.386E-01    0.124E-01
DAV:   3    -0.102490167076E+03    0.66940E-04   -0.28873E-04   156   0.703E-02    0.683E-02
DAV:   4    -0.102490166026E+03    0.10499E-05   -0.21368E-04   132   0.542E-02    0.127E-02
DAV:   5    -0.102490159948E+03    0.60776E-05   -0.52451E-05   132   0.257E-02    0.909E-03
DAV:   6    -0.102490161268E+03   -0.13200E-05   -0.88097E-06   132   0.802E-03    0.612E-03
DAV:   7    -0.102490170515E+03   -0.92467E-05   -0.74084E-07   108   0.318E-03    0.294E-03
DAV:   8    -0.102490186123E+03   -0.15608E-04   -0.16730E-06   132   0.359E-03    0.941E-04
DAV:   9    -0.102490196429E+03   -0.10305E-04   -0.96248E-07   120   0.257E-03    0.118E-03
DAV:  10    -0.102490209122E+03   -0.12694E-04   -0.81925E-07   108   0.211E-03    0.578E-04
DAV:  11    -0.102490212876E+03   -0.37539E-05   -0.21608E-07   108   0.104E-03    0.388E-04
DAV:  12    -0.102490216197E+03   -0.33205E-05   -0.78559E-08   108   0.689E-04    0.149E-04
DAV:  13    -0.102490218819E+03   -0.26223E-05   -0.10654E-07   108   0.675E-04    0.195E-04
DAV:  14    -0.102490219960E+03   -0.11411E-05   -0.21181E-08   108   0.361E-04    0.145E-04
DAV:  15    -0.102490220471E+03   -0.51117E-06   -0.91619E-10   108   0.216E-04
  36 F= -.10249022E+03 E0= -.10249022E+03  d E =-.894870E-10
       N       E                     dE             d eps       ncg     rms          rms(c)
DAV:   1    -0.102488131021E+03    0.20889E-02   -0.34795E-01    96   0.173E+00    0.246E-01
DAV:   2    -0.102490773963E+03   -0.26429E-02   -0.26958E-02   132   0.549E-01    0.179E-01
DAV:   3    -0.102490643033E+03    0.13093E-03   -0.57474E-04   132   0.101E-01    0.940E-02
DAV:   4    -0.102490645104E+03   -0.20707E-05   -0.42670E-04   120   0.759E-02    0.171E-02
DAV:   5    -0.102490635079E+03    0.10024E-04   -0.92678E-05   132   0.343E-02    0.121E-02
DAV:   6    -0.102490642494E+03   -0.74146E-05   -0.16481E-05   132   0.107E-02    0.728E-03
DAV:   7    -0.102490668826E+03   -0.26332E-04   -0.19432E-06   132   0.429E-03    0.331E-03
DAV:   8    -0.102490702986E+03   -0.34160E-04   -0.45522E-06   132   0.584E-03    0.151E-03
DAV:   9    -0.102490724889E+03   -0.21903E-04   -0.23496E-06   120   0.369E-03    0.180E-03
DAV:  10    -0.102490744732E+03   -0.19843E-04   -0.15179E-06   120   0.278E-03    0.625E-04
DAV:  11    -0.102490750780E+03   -0.60470E-05   -0.27239E-07   108   0.128E-03    0.409E-04
DAV:  12    -0.102490758728E+03   -0.79486E-05   -0.42631E-07   108   0.130E-03    0.177E-04
DAV:  13    -0.102490760484E+03   -0.17563E-05   -0.71715E-08   108   0.566E-04    0.260E-04
DAV:  14    -0.102490762607E+03   -0.21225E-05   -0.47733E-08   108   0.516E-04    0.114E-04
DAV:  15    -0.102490763155E+03   -0.54799E-06   -0.93252E-09   108   0.274E-04
  37 F= -.10249076E+03 E0= -.10249076E+03  d E =-.554724E-10
       N       E                     dE             d eps       ncg     rms          rms(c)
DAV:   1    -0.102490389606E+03    0.37300E-03   -0.20536E-01    96   0.134E+00    0.164E-01
DAV:   2    -0.102491803238E+03   -0.14136E-02   -0.14876E-02   120   0.396E-01    0.106E-01
DAV:   3    -0.102491752173E+03    0.51065E-04   -0.29421E-04   144   0.705E-02    0.586E-02
DAV:   4    -0.102491755877E+03   -0.37043E-05   -0.18153E-04   132   0.513E-02    0.111E-02
DAV:   5    -0.102491752814E+03    0.30630E-05   -0.44123E-05   132   0.234E-02    0.857E-03
DAV:   6    -0.102491752184E+03    0.63026E-06   -0.49413E-06   132   0.648E-03
  38 F= -.10249175E+03 E0= -.10249175E+03  d E =-.240424E-10
       N       E                     dE             d eps       ncg     rms          rms(c)
DAV:   1    -0.102490914215E+03    0.83860E-03   -0.40422E-01    96   0.175E+00    0.216E-01
DAV:   2    -0.102492334616E+03   -0.14204E-02   -0.16926E-02   120   0.382E-01    0.999E-02
DAV:   3    -0.102492263433E+03    0.71183E-04   -0.34734E-04   132   0.668E-02    0.531E-02
DAV:   4    -0.102492237062E+03    0.26372E-04   -0.10730E-04   132   0.409E-02    0.118E-02
DAV:   5    -0.102492232376E+03    0.46857E-05   -0.24962E-05   132   0.189E-02    0.741E-03
DAV:   6    -0.102492235410E+03   -0.30335E-05   -0.46847E-06   132   0.728E-03    0.414E-03
DAV:   7    -0.102492245028E+03   -0.96188E-05   -0.96856E-07   120   0.351E-03    0.154E-03
DAV:   8    -0.102492256222E+03   -0.11193E-04   -0.69667E-07   120   0.272E-03    0.899E-04
DAV:   9    -0.102492269747E+03   -0.13526E-04   -0.85478E-07   120   0.249E-03    0.555E-04
DAV:  10    -0.102492280947E+03   -0.11199E-04   -0.84835E-07   120   0.209E-03    0.348E-04
DAV:  11    -0.102492283729E+03   -0.27820E-05   -0.68729E-08   108   0.903E-04    0.242E-04
DAV:  12    -0.102492287624E+03   -0.38955E-05   -0.13187E-07    96   0.802E-04    0.130E-04
DAV:  13    -0.102492289246E+03   -0.16220E-05   -0.43259E-08   108   0.445E-04    0.114E-04
DAV:  14    -0.102492290369E+03   -0.11233E-05   -0.11918E-08   108   0.298E-04    0.380E-05
DAV:  15    -0.102492290893E+03   -0.52399E-06   -0.20740E-09   108   0.197E-04
  39 F= -.10249229E+03 E0= -.10249229E+03  d E =-.114891E-10
       N       E                     dE             d eps       ncg     rms          rms(c)
DAV:   1    -0.102491021037E+03    0.12693E-02   -0.20477E-01    96   0.124E+00    0.137E-01
DAV:   2    -0.102491677334E+03   -0.65630E-03   -0.78573E-03   132   0.256E-01    0.610E-02
DAV:   3    -0.102491647185E+03    0.30149E-04   -0.16663E-04   132   0.448E-02    0.314E-02
DAV:   4    -0.102491638226E+03    0.89582E-05   -0.40896E-05   132   0.261E-02    0.869E-03
DAV:   5    -0.102491635943E+03    0.22833E-05   -0.95754E-06   132   0.123E-02    0.515E-03
DAV:   6    -0.102491636437E+03   -0.49378E-06   -0.22144E-06   132   0.519E-03
  40 F= -.10249164E+03 E0= -.10249164E+03  d E =-.523232E-10
       N       E                     dE             d eps       ncg     rms          rms(c)
DAV:   1    -0.102489897422E+03    0.17385E-02   -0.39921E-01    96   0.172E+00    0.195E-01
DAV:   2    -0.102491501731E+03   -0.16043E-02   -0.19312E-02   120   0.408E-01    0.116E-01
DAV:   3    -0.102491399547E+03    0.10218E-03   -0.35515E-04   132   0.689E-02    0.594E-02
DAV:   4    -0.102491363222E+03    0.36325E-04   -0.13290E-04   132   0.436E-02    0.115E-02
DAV:   5    -0.102491351138E+03    0.12084E-04   -0.24767E-05   132   0.187E-02    0.734E-03
DAV:   6    -0.102491351719E+03   -0.58093E-06   -0.63528E-06   132   0.757E-03
  41 F= -.10249135E+03 E0= -.10249135E+03  d E =-.551756E-11
       N       E                     dE             d eps       ncg     rms          rms(c)
DAV:   1    -0.102491891300E+03   -0.54016E-03   -0.20307E-01    96   0.122E+00    0.138E-01
DAV:   2    -0.102492639686E+03   -0.74839E-03   -0.86795E-03   120   0.272E-01    0.698E-02
DAV:   3    -0.102492623946E+03    0.15740E-04   -0.17691E-04   144   0.472E-02    0.368E-02
DAV:   4    -0.102492632754E+03   -0.88087E-05   -0.51285E-05   132   0.283E-02    0.821E-03
DAV:   5    -0.102492634597E+03   -0.18426E-05   -0.11035E-05   132   0.128E-02    0.529E-03
DAV:   6    -0.102492636022E+03   -0.14251E-05   -0.23497E-06   132   0.524E-03    0.289E-03
DAV:   7    -0.102492638336E+03   -0.23143E-05   -0.38000E-07   108   0.247E-03    0.102E-03
DAV:   8    -0.102492640350E+03   -0.20137E-05   -0.22707E-07   108   0.184E-03    0.543E-04
DAV:   9    -0.102492643486E+03   -0.31365E-05   -0.19519E-07   108   0.150E-03    0.307E-04
DAV:  10    -0.102492646034E+03   -0.25474E-05   -0.16898E-07   108   0.114E-03    0.213E-04
DAV:  11    -0.102492647011E+03   -0.97761E-06   -0.28239E-08   108   0.591E-04
  42 F= -.10249265E+03 E0= -.10249265E+03  d E =-.377676E-10
       N       E                     dE             d eps       ncg     rms          rms(c)
DAV:   1    -0.102491070459E+03    0.15756E-02   -0.41184E-01    96   0.174E+00    0.214E-01
DAV:   2    -0.102492216887E+03   -0.11464E-02   -0.14095E-02   132   0.360E-01    0.852E-02
DAV:   3    -0.102492159300E+03    0.57587E-04   -0.32290E-04   132   0.634E-02    0.437E-02
DAV:   4    -0.102492144123E+03    0.15177E-04   -0.75967E-05   132   0.365E-02    0.126E-02
DAV:   5    -0.102492141259E+03    0.28638E-05   -0.19285E-05   132   0.175E-02    0.757E-03
DAV:   6    -0.102492142311E+03   -0.10517E-05   -0.35390E-06   132   0.670E-03    0.428E-03
DAV:   7    -0.102492146079E+03   -0.37681E-05   -0.34390E-07   108   0.270E-03    0.141E-03
DAV:   8    -0.102492150573E+03   -0.44942E-05   -0.32898E-07   108   0.243E-03    0.795E-04
DAV:   9    -0.102492159843E+03   -0.92702E-05   -0.70772E-07   108   0.310E-03    0.421E-04
DAV:  10    -0.102492163289E+03   -0.34459E-05   -0.35601E-07   108   0.180E-03    0.512E-04
DAV:  11    -0.102492164504E+03   -0.12152E-05   -0.30165E-08   108   0.704E-04    0.381E-04
DAV:  12    -0.102492166953E+03   -0.24482E-05   -0.55910E-08   108   0.674E-04    0.116E-04
DAV:  13    -0.102492168572E+03   -0.16195E-05   -0.48320E-08   108   0.513E-04    0.210E-04
DAV:  14    -0.102492169481E+03   -0.90902E-06   -0.10191E-08   108   0.322E-04
  43 F= -.10249217E+03 E0= -.10249217E+03  d E =-.672093E-11
       N       E                     dE             d eps       ncg     rms          rms(c)
DAV:   1    -0.102491291685E+03    0.87689E-03   -0.19917E-01    96   0.127E+00    0.148E-01
DAV:   2    -0.102492245963E+03   -0.95428E-03   -0.11216E-02   132   0.289E-01    0.648E-02
DAV:   3    -0.102492220482E+03    0.25481E-04   -0.22228E-04   144   0.475E-02    0.354E-02
DAV:   4    -0.102492209357E+03    0.11124E-04   -0.43402E-05   132   0.243E-02    0.953E-03
DAV:   5    -0.102492206058E+03    0.32993E-05   -0.73001E-06   132   0.111E-02    0.519E-03
DAV:   6    -0.102492206450E+03   -0.39206E-06   -0.22731E-06   132   0.591E-03
  44 F= -.10249221E+03 E0= -.10249221E+03  d E =-.459992E-10
       N       E                     dE             d eps       ncg     rms          rms(c)
DAV:   1    -0.102490870852E+03    0.13352E-02   -0.40412E-01    96   0.170E+00    0.180E-01
DAV:   2    -0.102492305484E+03   -0.14346E-02   -0.16844E-02   132   0.375E-01    0.905E-02
DAV:   3    -0.102492258374E+03    0.47110E-04   -0.28946E-04   132   0.610E-02    0.475E-02
DAV:   4    -0.102492235687E+03    0.22687E-04   -0.87791E-05   144   0.399E-02    0.103E-02
DAV:   5    -0.102492229567E+03    0.61203E-05   -0.25127E-05   132   0.191E-02    0.683E-03
DAV:   6    -0.102492230365E+03   -0.79810E-06   -0.43692E-06   132   0.707E-03
  45 F= -.10249223E+03 E0= -.10249223E+03  d E =-.132405E-10
       N       E                     dE             d eps       ncg     rms          rms(c)
DAV:   1    -0.102490739174E+03    0.14904E-02   -0.19847E-01    96   0.121E+00    0.138E-01
DAV:   2    -0.102491534875E+03   -0.79570E-03   -0.95659E-03   120   0.275E-01    0.824E-02
DAV:   3    -0.102491492832E+03    0.42043E-04   -0.16173E-04   132   0.465E-02    0.420E-02
DAV:   4    -0.102491480490E+03    0.12343E-04   -0.66775E-05   132   0.307E-02    0.772E-03
DAV:   5    -0.102491474958E+03    0.55319E-05   -0.13006E-05   132   0.133E-02    0.507E-03
DAV:   6    -0.102491474287E+03    0.67024E-06   -0.31370E-06   132   0.499E-03
  46 F= -.10249147E+03 E0= -.10249147E+03  d E =-.991136E-11
       N       E                     dE             d eps       ncg     rms          rms(c)
DAV:   1    -0.102490298360E+03    0.11766E-02   -0.39985E-01    96   0.170E+00    0.191E-01
DAV:   2    -0.102491849213E+03   -0.15509E-02   -0.18537E-02   120   0.396E-01    0.111E-01
DAV:   3    -0.102491777521E+03    0.71692E-04   -0.34272E-04   156   0.656E-02    0.578E-02
DAV:   4    -0.102491733904E+03    0.43617E-04   -0.10734E-04   132   0.405E-02    0.110E-02
DAV:   5    -0.102491721489E+03    0.12414E-04   -0.23131E-05   132   0.182E-02    0.673E-03
DAV:   6    -0.102491723790E+03   -0.23011E-05   -0.57021E-06   132   0.748E-03    0.384E-03
DAV:   7    -0.102491734730E+03   -0.10939E-04   -0.14536E-06   132   0.382E-03    0.165E-03
DAV:   8    -0.102491747264E+03   -0.12535E-04   -0.89893E-07   120   0.253E-03    0.915E-04
DAV:   9    -0.102491761788E+03   -0.14524E-04   -0.11784E-06   120   0.239E-03    0.653E-04
DAV:  10    -0.102491775530E+03   -0.13742E-04   -0.14087E-06   120   0.228E-03    0.319E-04
DAV:  11    -0.102491779042E+03   -0.35113E-05   -0.97388E-08   108   0.892E-04    0.208E-04
DAV:  12    -0.102491782983E+03   -0.39409E-05   -0.17702E-07   108   0.855E-04    0.118E-04
DAV:  13    -0.102491784464E+03   -0.14811E-05   -0.47013E-08   108   0.454E-04    0.814E-05
DAV:  14    -0.102491785381E+03   -0.91764E-06   -0.77857E-09   108   0.270E-04
  47 F= -.10249179E+03 E0= -.10249179E+03  d E =-.331190E-10
       N       E                     dE             d eps       ncg     rms          rms(c)
DAV:   1    -0.102491261730E+03    0.52273E-03   -0.19927E-01    96   0.125E+00    0.143E-01
DAV:   2    -0.102492014110E+03   -0.75238E-03   -0.92256E-03   132   0.283E-01    0.819E-02
DAV:   3    -0.102491954302E+03    0.59809E-04   -0.15359E-04   132   0.447E-02    0.419E-02
DAV:   4    -0.102491928648E+03    0.25653E-04   -0.62173E-05   132   0.301E-02    0.821E-03
DAV:   5    -0.102491922423E+03    0.62250E-05   -0.12416E-05   132   0.134E-02    0.505E-03
DAV:   6    -0.102491923761E+03   -0.13371E-05   -0.31774E-06   132   0.533E-03    0.295E-03
DAV:   7    -0.102491931022E+03   -0.72615E-05   -0.62998E-07   108   0.273E-03    0.126E-03
DAV:   8    -0.102491942463E+03   -0.11441E-04   -0.82103E-07   120   0.233E-03    0.827E-04
DAV:   9    -0.102491954615E+03   -0.12153E-04   -0.65286E-07   120   0.185E-03    0.551E-04
DAV:  10    -0.102491963672E+03   -0.90561E-05   -0.39728E-07   108   0.133E-03    0.264E-04
DAV:  11    -0.102491967358E+03   -0.36860E-05   -0.93856E-08   108   0.701E-04    0.176E-04
DAV:  12    -0.102491971880E+03   -0.45221E-05   -0.13768E-07   108   0.735E-04    0.102E-04
DAV:  13    -0.102491973009E+03   -0.11297E-05   -0.16682E-08   108   0.330E-04    0.681E-05
DAV:  14    -0.102491974184E+03   -0.11749E-05   -0.11394E-08   108   0.266E-04    0.315E-05
DAV:  15    -0.102491974606E+03   -0.42129E-06    0.19417E-09   108   0.149E-04
  48 F= -.10249197E+03 E0= -.10249197E+03  d E =-.459807E-10
       N       E                     dE             d eps       ncg     rms          rms(c)
DAV:   1    -0.102491049546E+03    0.92464E-03   -0.40696E-01    96   0.175E+00    0.216E-01
DAV:   2    -0.102492351999E+03   -0.13025E-02   -0.15855E-02   132   0.393E-01    0.918E-02
DAV:   3    -0.102492285450E+03    0.66549E-04   -0.31856E-04   144   0.632E-02    0.480E-02
DAV:   4    -0.102492257961E+03    0.27489E-04   -0.77640E-05   144   0.369E-02    0.116E-02
DAV:   5    -0.102492252599E+03    0.53614E-05   -0.19207E-05   132   0.170E-02    0.672E-03
DAV:   6    -0.102492255299E+03   -0.26997E-05   -0.42121E-06   132   0.713E-03    0.376E-03
DAV:   7    -0.102492263587E+03   -0.82877E-05   -0.67513E-07   108   0.307E-03    0.161E-03
DAV:   8    -0.102492274550E+03   -0.10963E-04   -0.82915E-07   120   0.285E-03    0.921E-04
DAV:   9    -0.102492287506E+03   -0.12956E-04   -0.89227E-07   120   0.266E-03    0.577E-04
DAV:  10    -0.102492297242E+03   -0.97357E-05   -0.71995E-07   120   0.205E-03    0.474E-04
DAV:  11    -0.102492299801E+03   -0.25586E-05   -0.61489E-08   108   0.876E-04    0.262E-04
DAV:  12    -0.102492303158E+03   -0.33574E-05   -0.92684E-08   108   0.713E-04    0.164E-04
DAV:  13    -0.102492305262E+03   -0.21037E-05   -0.60767E-08   108   0.506E-04    0.147E-04
DAV:  14    -0.102492306353E+03   -0.10913E-05   -0.13876E-08   108   0.296E-04    0.477E-05
DAV:  15    -0.102492306980E+03   -0.62661E-06   -0.33977E-09   108   0.211E-04
  49 F= -.10249231E+03 E0= -.10249231E+03  d E =-.577665E-11
       N       E                     dE             d eps       ncg     rms          rms(c)
DAV:   1    -0.102490021840E+03    0.22845E-02   -0.19476E-01    96   0.133E+00    0.153E-01
DAV:   2    -0.102491117240E+03   -0.10954E-02   -0.13416E-02   120   0.337E-01    0.786E-02
DAV:   3    -0.102491083560E+03    0.33680E-04   -0.26379E-04   156   0.526E-02    0.443E-02
DAV:   4    -0.102491057573E+03    0.25987E-04   -0.56074E-05   132   0.299E-02    0.935E-03
DAV:   5    -0.102491050514E+03    0.70586E-05   -0.13881E-05   132   0.142E-02    0.554E-03
DAV:   6    -0.102491050955E+03   -0.44058E-06   -0.27037E-06   120   0.619E-03
  50 F= -.10249105E+03 E0= -.10249105E+03  d E =-.779169E-11
       N       E                     dE             d eps       ncg     rms          rms(c)
DAV:   1    -0.102489709789E+03    0.13407E-02   -0.40085E-01    96   0.178E+00    0.193E-01
DAV:   2    -0.102491360955E+03   -0.16512E-02   -0.19914E-02   132   0.430E-01    0.119E-01
DAV:   3    -0.102491286333E+03    0.74622E-04   -0.26314E-04   132   0.524E-02    0.650E-02
DAV:   4    -0.102491204009E+03    0.82325E-04   -0.11071E-04   132   0.361E-02    0.104E-02
DAV:   5    -0.102491194075E+03    0.99335E-05   -0.16640E-05   132   0.159E-02    0.620E-03
DAV:   6    -0.102491206703E+03   -0.12628E-04   -0.11071E-05   132   0.108E-02    0.315E-03
DAV:   7    -0.102491230368E+03   -0.23665E-04   -0.42446E-06   132   0.633E-03    0.223E-03
DAV:   8    -0.102491258915E+03   -0.28547E-04   -0.21017E-06   108   0.348E-03    0.107E-03
DAV:   9    -0.102491286940E+03   -0.28025E-04   -0.29350E-06   120   0.364E-03    0.845E-04
DAV:  10    -0.102491308356E+03   -0.21417E-04   -0.22196E-06   120   0.294E-03    0.312E-04
DAV:  11    -0.102491313322E+03   -0.49660E-05   -0.17861E-07   108   0.108E-03    0.316E-04
DAV:  12    -0.102491317587E+03   -0.42642E-05   -0.16106E-07   108   0.836E-04    0.130E-04
DAV:  13    -0.102491319493E+03   -0.19060E-05   -0.50582E-08   108   0.478E-04    0.851E-05
DAV:  14    -0.102491320533E+03   -0.10402E-05   -0.84471E-09   108   0.290E-04    0.442E-05
DAV:  15    -0.102491321042E+03   -0.50886E-06   -0.20453E-10   108   0.183E-04
  51 F= -.10249132E+03 E0= -.10249132E+03  d E =-.341454E-10
       N       E                     dE             d eps       ncg     rms          rms(c)
DAV:   1    -0.102491670141E+03   -0.34961E-03   -0.20105E-01    96   0.126E+00    0.129E-01
DAV:   2    -0.102492499965E+03   -0.82982E-03   -0.10073E-02   120   0.291E-01    0.740E-02
DAV:   3    -0.102492473222E+03    0.26744E-04   -0.18105E-04   144   0.439E-02    0.402E-02
DAV:   4    -0.102492449047E+03    0.24174E-04   -0.38284E-05   132   0.275E-02    0.706E-03
DAV:   5    -0.102492443620E+03    0.54272E-05   -0.13583E-05   132   0.139E-02    0.509E-03
DAV:   6    -0.102492444388E+03   -0.76812E-06   -0.29584E-06   132   0.551E-03
  52 F= -.10249244E+03 E0= -.10249244E+03  d E =-.687429E-10
       N       E                     dE             d eps       ncg     rms          rms(c)
DAV:   1    -0.102491062017E+03    0.13816E-02   -0.40836E-01   120   0.164E+00    0.167E-01
DAV:   2    -0.102492449190E+03   -0.13872E-02   -0.16378E-02   132   0.351E-01    0.820E-02
DAV:   3    -0.102492445424E+03    0.37659E-05   -0.31273E-04   132   0.619E-02    0.434E-02
DAV:   4    -0.102492444801E+03    0.62304E-06   -0.62538E-05   144   0.417E-02    0.889E-03
DAV:   5    -0.102492447185E+03   -0.23843E-05   -0.32588E-05   132   0.213E-02    0.769E-03
DAV:   6    -0.102492448758E+03   -0.15723E-05   -0.29296E-06   132   0.549E-03    0.610E-03
DAV:   7    -0.102492452910E+03   -0.41525E-05   -0.63291E-07   108   0.312E-03    0.254E-03
DAV:   8    -0.102492458212E+03   -0.53015E-05   -0.10015E-06   108   0.372E-03    0.149E-03
DAV:   9    -0.102492468764E+03   -0.10553E-04   -0.92042E-07   108   0.389E-03    0.101E-03
DAV:  10    -0.102492472507E+03   -0.37421E-05   -0.44231E-07   108   0.212E-03    0.107E-03
DAV:  11    -0.102492473858E+03   -0.13513E-05   -0.38419E-08   108   0.802E-04    0.756E-04
DAV:  12    -0.102492477388E+03   -0.35301E-05   -0.98933E-08   108   0.844E-04    0.210E-04
DAV:  13    -0.102492479588E+03   -0.21998E-05   -0.62226E-08   108   0.603E-04    0.211E-04
DAV:  14    -0.102492481240E+03   -0.16519E-05   -0.35346E-08   108   0.416E-04    0.183E-04
DAV:  15    -0.102492481689E+03   -0.44931E-06   -0.19390E-09   108   0.206E-04
  53 F= -.10249248E+03 E0= -.10249248E+03  d E =-.839742E-11
       N       E                     dE             d eps       ncg     rms          rms(c)
DAV:   1    -0.102490036779E+03    0.24445E-02   -0.20261E-01   120   0.122E+00    0.127E-01
DAV:   2    -0.102490821850E+03   -0.78507E-03   -0.94994E-03   120   0.283E-01    0.690E-02
DAV:   3    -0.102490803194E+03    0.18656E-04   -0.19241E-04   156   0.468E-02    0.365E-02
DAV:   4    -0.102490789729E+03    0.13465E-04   -0.35981E-05   132   0.289E-02    0.706E-03
DAV:   5    -0.102490786192E+03    0.35365E-05   -0.14977E-05   132   0.146E-02    0.565E-03
DAV:   6    -0.102490786630E+03   -0.43745E-06   -0.21299E-06   132   0.466E-03
  54 F= -.10249079E+03 E0= -.10249079E+03  d E =-.576544E-11
       N       E                     dE             d eps       ncg     rms          rms(c)
DAV:   1    -0.102489363022E+03    0.14232E-02   -0.40215E-01   120   0.175E+00    0.204E-01
DAV:   2    -0.102491010534E+03   -0.16475E-02   -0.20113E-02   120   0.433E-01    0.127E-01
DAV:   3    -0.102490918542E+03    0.91992E-04   -0.30355E-04   132   0.598E-02    0.676E-02
DAV:   4    -0.102490861435E+03    0.57107E-04   -0.13703E-04   132   0.432E-02    0.111E-02
DAV:   5    -0.102490851811E+03    0.96237E-05   -0.25331E-05   132   0.187E-02    0.728E-03
DAV:   6    -0.102490861244E+03   -0.94326E-05   -0.11684E-05   132   0.925E-03    0.395E-03
DAV:   7    -0.102490881530E+03   -0.20286E-04   -0.17707E-06   120   0.430E-03    0.216E-03
DAV:   8    -0.102490916516E+03   -0.34986E-04   -0.42465E-06   108   0.442E-03    0.114E-03
DAV:   9    -0.102490934449E+03   -0.17934E-04   -0.13418E-06   120   0.258E-03    0.897E-04
DAV:  10    -0.102490954622E+03   -0.20173E-04   -0.18524E-06   120   0.259E-03    0.312E-04
DAV:  11    -0.102490961092E+03   -0.64695E-05   -0.27587E-07   108   0.115E-03    0.316E-04
DAV:  12    -0.102490966730E+03   -0.56381E-05   -0.32005E-07    96   0.107E-03    0.111E-04
DAV:  13    -0.102490967827E+03   -0.10969E-05   -0.33309E-08   108   0.419E-04    0.811E-05
DAV:  14    -0.102490969017E+03   -0.11907E-05   -0.15970E-08   108   0.333E-04    0.464E-05
DAV:  15    -0.102490969444E+03   -0.42669E-06   -0.12812E-09   108   0.190E-04
  55 F= -.10249097E+03 E0= -.10249097E+03  d E =-.467385E-10
       N       E                     dE             d eps       ncg     rms          rms(c)
DAV:   1    -0.102490984880E+03   -0.15863E-04   -0.19881E-01    96   0.130E+00    0.147E-01
DAV:   2    -0.102492120425E+03   -0.11355E-02   -0.13903E-02   132   0.347E-01    0.823E-02
DAV:   3    -0.102492078581E+03    0.41844E-04   -0.26396E-04   144   0.536E-02    0.473E-02
DAV:   4    -0.102492041696E+03    0.36884E-04   -0.56835E-05   144   0.333E-02    0.934E-03
DAV:   5    -0.102492031453E+03    0.10243E-04   -0.19764E-05   132   0.170E-02    0.667E-03
DAV:   6    -0.102492032637E+03   -0.11831E-05   -0.37875E-06   132   0.640E-03    0.459E-03
DAV:   7    -0.102492042501E+03   -0.98642E-05   -0.14057E-06   120   0.448E-03    0.176E-03
DAV:   8    -0.102492057927E+03   -0.15427E-04   -0.15442E-06   120   0.415E-03    0.135E-03
DAV:   9    -0.102492079332E+03   -0.21404E-04   -0.16511E-06   120   0.353E-03    0.873E-04
DAV:  10    -0.102492088401E+03   -0.90696E-05   -0.40055E-07   108   0.183E-03    0.605E-04
DAV:  11    -0.102492095535E+03   -0.71332E-05   -0.23627E-07   108   0.118E-03    0.230E-04
DAV:  12    -0.102492099868E+03   -0.43336E-05   -0.15360E-07   108   0.810E-04    0.294E-04
DAV:  13    -0.102492102086E+03   -0.22178E-05   -0.34812E-08   108   0.475E-04    0.113E-04
DAV:  14    -0.102492103482E+03   -0.13964E-05   -0.26279E-08   108   0.363E-04    0.501E-05
DAV:  15    -0.102492104357E+03   -0.87465E-06   -0.51955E-09   108   0.241E-04
  56 F= -.10249210E+03 E0= -.10249210E+03  d E =-.677290E-10
       N       E                     dE             d eps       ncg     rms          rms(c)
DAV:   1    -0.102490421980E+03    0.16815E-02   -0.40572E-01    96   0.180E+00    0.192E-01
DAV:   2    -0.102492010974E+03   -0.15890E-02   -0.19010E-02   132   0.418E-01    0.998E-02
DAV:   3    -0.102491964964E+03    0.46010E-04   -0.36939E-04   144   0.649E-02    0.537E-02
DAV:   4    -0.102491936018E+03    0.28946E-04   -0.74680E-05   132   0.398E-02    0.108E-02
DAV:   5    -0.102491928067E+03    0.79504E-05   -0.27586E-05   132   0.203E-02    0.781E-03
DAV:   6    -0.102491929197E+03   -0.11292E-05   -0.47999E-06   132   0.729E-03    0.529E-03
DAV:   7    -0.102491936930E+03   -0.77338E-05   -0.95901E-07   108   0.412E-03    0.218E-03
DAV:   8    -0.102491949482E+03   -0.12552E-04   -0.16429E-06   120   0.435E-03    0.149E-03
DAV:   9    -0.102491967491E+03   -0.18009E-04   -0.11771E-06   108   0.347E-03    0.696E-04
DAV:  10    -0.102491975579E+03   -0.80883E-05   -0.57640E-07   108   0.208E-03    0.728E-04
DAV:  11    -0.102491980536E+03   -0.49568E-05   -0.10348E-07   108   0.103E-03    0.403E-04
DAV:  12    -0.102491986690E+03   -0.61539E-05   -0.23155E-07   108   0.102E-03    0.282E-04
DAV:  13    -0.102491988586E+03   -0.18955E-05   -0.35274E-08   108   0.464E-04    0.229E-04
DAV:  14    -0.102491990810E+03   -0.22246E-05   -0.45487E-08   108   0.475E-04    0.633E-05
DAV:  15    -0.102491991521E+03   -0.71070E-06   -0.60933E-09   108   0.249E-04
  57 F= -.10249199E+03 E0= -.10249199E+03  d E =-.853740E-10
       N       E                     dE             d eps       ncg     rms          rms(c)
DAV:   1    -0.102490735196E+03    0.12556E-02   -0.20538E-01   108   0.131E+00    0.138E-01
DAV:   2    -0.102491409045E+03   -0.67385E-03   -0.80319E-03   132   0.255E-01    0.612E-02
DAV:   3    -0.102491394302E+03    0.14743E-04   -0.17644E-04   144   0.460E-02    0.323E-02
DAV:   4    -0.102491387821E+03    0.64805E-05   -0.34613E-05   132   0.289E-02    0.775E-03
DAV:   5    -0.102491386838E+03    0.98338E-06   -0.15573E-05   132   0.150E-02    0.578E-03
DAV:   6    -0.102491387135E+03   -0.29674E-06   -0.15651E-06   120   0.422E-03
  58 F= -.10249139E+03 E0= -.10249139E+03  d E =-.461345E-10
       N       E                     dE             d eps       ncg     rms          rms(c)
DAV:   1    -0.102489916045E+03    0.14708E-02   -0.40421E-01   108   0.184E+00    0.217E-01
DAV:   2    -0.102491518974E+03   -0.16029E-02   -0.19217E-02   132   0.440E-01    0.116E-01
DAV:   3    -0.102491436034E+03    0.82940E-04   -0.33542E-04   132   0.634E-02    0.629E-02
DAV:   4    -0.102491385522E+03    0.50512E-04   -0.12047E-04   132   0.422E-02    0.115E-02
DAV:   5    -0.102491379493E+03    0.60289E-05   -0.25314E-05   132   0.189E-02    0.761E-03
DAV:   6    -0.102491388127E+03   -0.86337E-05   -0.84637E-06   132   0.889E-03    0.399E-03
DAV:   7    -0.102491406265E+03   -0.18138E-04   -0.23846E-06   132   0.503E-03    0.209E-03
DAV:   8    -0.102491433019E+03   -0.26754E-04   -0.25791E-06   120   0.402E-03    0.105E-03
DAV:   9    -0.102491449536E+03   -0.16517E-04   -0.13144E-06   120   0.272E-03    0.898E-04
DAV:  10    -0.102491468090E+03   -0.18554E-04   -0.17881E-06   120   0.267E-03    0.350E-04
DAV:  11    -0.102491473406E+03   -0.53161E-05   -0.22694E-07   108   0.114E-03    0.298E-04
DAV:  12    -0.102491478895E+03   -0.54887E-05   -0.29836E-07    96   0.110E-03    0.139E-04
DAV:  13    -0.102491480368E+03   -0.14725E-05   -0.59413E-08   108   0.522E-04    0.107E-04
DAV:  14    -0.102491481401E+03   -0.10335E-05   -0.11448E-08   108   0.312E-04    0.435E-05
DAV:  15    -0.102491481915E+03   -0.51430E-06   -0.39575E-09   108   0.210E-04
  59 F= -.10249148E+03 E0= -.10249148E+03  d E =-.636034E-11
       N       E                     dE             d eps       ncg     rms          rms(c)
DAV:   1    -0.102490288470E+03    0.11929E-02   -0.20118E-01    96   0.135E+00    0.152E-01
DAV:   2    -0.102491077903E+03   -0.78943E-03   -0.97125E-03   132   0.317E-01    0.790E-02
DAV:   3    -0.102491033806E+03    0.44097E-04   -0.16438E-04   132   0.435E-02    0.416E-02
DAV:   4    -0.102491001254E+03    0.32552E-04   -0.43635E-05   132   0.247E-02    0.843E-03
DAV:   5    -0.102490993483E+03    0.77708E-05   -0.75452E-06   132   0.115E-02    0.465E-03
DAV:   6    -0.102490995277E+03   -0.17941E-05   -0.35369E-06   132   0.723E-03    0.238E-03
DAV:   7    -0.102491004535E+03   -0.92575E-05   -0.16902E-06   120   0.490E-03    0.140E-03
DAV:   8    -0.102491017539E+03   -0.13004E-04   -0.70599E-07   108   0.281E-03    0.797E-04
DAV:   9    -0.102491031097E+03   -0.13558E-04   -0.89643E-07   120   0.224E-03    0.521E-04
DAV:  10    -0.102491042010E+03   -0.10913E-04   -0.45404E-07   108   0.155E-03    0.273E-04
DAV:  11    -0.102491047423E+03   -0.54126E-05   -0.17419E-07   108   0.896E-04    0.189E-04
DAV:  12    -0.102491052057E+03   -0.46349E-05   -0.99937E-08   108   0.682E-04    0.101E-04
DAV:  13    -0.102491053496E+03   -0.14384E-05   -0.20825E-08   108   0.371E-04    0.602E-05
DAV:  14    -0.102491054587E+03   -0.10912E-05   -0.88163E-09   108   0.264E-04    0.349E-05
DAV:  15    -0.102491054994E+03   -0.40744E-06    0.20651E-09   108   0.152E-04
  60 F= -.10249105E+03 E0= -.10249105E+03  d E =-.887750E-10
       N       E                     dE             d eps       ncg     rms          rms(c)
DAV:   1    -0.102489669688E+03    0.13849E-02   -0.40181E-01   108   0.190E+00    0.207E-01
DAV:   2    -0.102491092534E+03   -0.14228E-02   -0.17993E-02   132   0.427E-01    0.122E-01
DAV:   3    -0.102490980082E+03    0.11245E-03   -0.31317E-04   144   0.608E-02    0.604E-02
DAV:   4    -0.102490909879E+03    0.70203E-04   -0.87586E-05   132   0.357E-02    0.113E-02
DAV:   5    -0.102490907660E+03    0.22194E-05   -0.14773E-05   132   0.157E-02    0.662E-03
DAV:   6    -0.102490933024E+03   -0.25364E-04   -0.11545E-05   132   0.107E-02    0.336E-03
DAV:   7    -0.102490964567E+03   -0.31543E-04   -0.39386E-06   132   0.639E-03    0.223E-03
DAV:   8    -0.102491004522E+03   -0.39955E-04   -0.37212E-06   120   0.440E-03    0.104E-03
DAV:   9    -0.102491031647E+03   -0.27124E-04   -0.26222E-06   120   0.350E-03    0.864E-04
DAV:  10    -0.102491054231E+03   -0.22585E-04   -0.23141E-06   120   0.296E-03    0.309E-04
DAV:  11    -0.102491060679E+03   -0.64474E-05   -0.27497E-07   108   0.122E-03    0.272E-04
DAV:  12    -0.102491065696E+03   -0.50171E-05   -0.23652E-07   108   0.970E-04    0.108E-04
DAV:  13    -0.102491066803E+03   -0.11072E-05   -0.33956E-08   108   0.416E-04    0.694E-05
DAV:  14    -0.102491067954E+03   -0.11512E-05   -0.14888E-08   108   0.341E-04    0.420E-05
DAV:  15    -0.102491068252E+03   -0.29769E-06    0.14405E-09   108   0.166E-04
  61 F= -.10249107E+03 E0= -.10249107E+03  d E =-.576080E-10
       N       E                     dE             d eps       ncg     rms          rms(c)
DAV:   1    -0.102494134236E+03   -0.30663E-02   -0.23727E-01   108   0.168E+00    0.154E-01
DAV:   2    -0.102494498473E+03   -0.36424E-03   -0.63552E-03   132   0.261E-01    0.869E-02
DAV:   3    -0.102494418627E+03    0.79846E-04   -0.20942E-04   132   0.507E-02    0.371E-02
DAV:   4    -0.102494401607E+03    0.17021E-04   -0.74519E-05   132   0.295E-02    0.942E-03
DAV:   5    -0.102494397813E+03    0.37937E-05   -0.86998E-06   132   0.112E-02    0.640E-03
DAV:   6    -0.102494398978E+03   -0.11654E-05   -0.34027E-06   132   0.637E-03    0.223E-03
DAV:   7    -0.102494403518E+03   -0.45398E-05   -0.72095E-07   108   0.348E-03    0.132E-03
DAV:   8    -0.102494411803E+03   -0.82851E-05   -0.49854E-07   108   0.223E-03    0.735E-04
DAV:   9    -0.102494420862E+03   -0.90585E-05   -0.53465E-07   108   0.196E-03    0.404E-04
DAV:  10    -0.102494428950E+03   -0.80885E-05   -0.46669E-07   108   0.152E-03    0.321E-04
DAV:  11    -0.102494432695E+03   -0.37446E-05   -0.10029E-07   108   0.854E-04    0.195E-04
DAV:  12    -0.102494435165E+03   -0.24700E-05   -0.48339E-08   108   0.531E-04    0.109E-04
DAV:  13    -0.102494436152E+03   -0.98725E-06   -0.12981E-08   108   0.291E-04
  62 F= -.10249444E+03 E0= -.10249444E+03  d E =-.796071E-10
       N       E                     dE             d eps       ncg     rms          rms(c)
DAV:   1    -0.102494649548E+03   -0.21438E-03   -0.54909E-01    96   0.251E+00    0.227E-01
DAV:   2    -0.102494303211E+03    0.34634E-03   -0.34629E-03   132   0.196E-01    0.122E-01
DAV:   3    -0.102494089169E+03    0.21404E-03   -0.53712E-04   132   0.694E-02    0.339E-02
DAV:   4    -0.102494092554E+03   -0.33853E-05   -0.10872E-04   120   0.320E-02    0.132E-02
DAV:   5    -0.102494093873E+03   -0.13184E-05   -0.64508E-06   132   0.960E-03    0.724E-03
DAV:   6    -0.102494097474E+03   -0.36014E-05   -0.33063E-06   132   0.595E-03    0.160E-03
DAV:   7    -0.102494100032E+03   -0.25579E-05   -0.46432E-07   108   0.264E-03    0.950E-04
DAV:   8    -0.102494103379E+03   -0.33464E-05   -0.15368E-07   108   0.140E-03    0.406E-04
DAV:   9    -0.102494106390E+03   -0.30115E-05   -0.13235E-07   108   0.116E-03    0.262E-04
DAV:  10    -0.102494109559E+03   -0.31688E-05   -0.17692E-07   108   0.104E-03    0.149E-04
DAV:  11    -0.102494110657E+03   -0.10981E-05   -0.45217E-08   108   0.589E-04    0.122E-04
DAV:  12    -0.102494111263E+03   -0.60606E-06   -0.53687E-09   108   0.295E-04
  63 F= -.10249411E+03 E0= -.10249411E+03  d E =-.631159E-10
       N       E                     dE             d eps       ncg     rms          rms(c)
DAV:   1    -0.102493864613E+03    0.24604E-03   -0.29082E-01    96   0.179E+00    0.211E-01
DAV:   2    -0.102493577091E+03    0.28752E-03   -0.21897E-03   132   0.163E-01    0.103E-01
DAV:   3    -0.102493429618E+03    0.14747E-03   -0.42395E-04   132   0.604E-02    0.339E-02
DAV:   4    -0.102493424373E+03    0.52446E-05   -0.10354E-04   132   0.301E-02    0.137E-02
DAV:   5    -0.102493422516E+03    0.18568E-05   -0.47106E-06   132   0.896E-03    0.482E-03
DAV:   6    -0.102493423600E+03   -0.10841E-05   -0.29564E-06   132   0.584E-03    0.189E-03
DAV:   7    -0.102493425338E+03   -0.17381E-05   -0.54274E-07   108   0.271E-03    0.863E-04
DAV:   8    -0.102493428155E+03   -0.28163E-05   -0.21022E-07   108   0.161E-03    0.503E-04
DAV:   9    -0.102493430071E+03   -0.19160E-05   -0.13019E-07   108   0.119E-03    0.501E-04
DAV:  10    -0.102493433296E+03   -0.32252E-05   -0.16063E-07   108   0.103E-03    0.185E-04
DAV:  11    -0.102493434248E+03   -0.95246E-06   -0.32176E-08   108   0.526E-04
  64 F= -.10249343E+03 E0= -.10249343E+03  d E =-.718278E-10
       N       E                     dE             d eps       ncg     rms          rms(c)
DAV:   1    -0.102493544275E+03   -0.11098E-03   -0.56814E-01    96   0.254E+00    0.277E-01
DAV:   2    -0.102493046029E+03    0.49825E-03   -0.40860E-03   132   0.222E-01    0.137E-01
DAV:   3    -0.102492761683E+03    0.28435E-03   -0.70680E-04   132   0.750E-02    0.465E-02
DAV:   4    -0.102492748099E+03    0.13585E-04   -0.15633E-04   132   0.370E-02    0.175E-02
DAV:   5    -0.102492750395E+03   -0.22969E-05   -0.94716E-06   132   0.125E-02    0.650E-03
DAV:   6    -0.102492756838E+03   -0.64429E-05   -0.52984E-06   132   0.738E-03    0.250E-03
DAV:   7    -0.102492762032E+03   -0.51941E-05   -0.79174E-07   120   0.319E-03    0.113E-03
DAV:   8    -0.102492769960E+03   -0.79273E-05   -0.46942E-07   108   0.216E-03    0.599E-04
DAV:   9    -0.102492774596E+03   -0.46360E-05   -0.29926E-07   108   0.155E-03    0.568E-04
DAV:  10    -0.102492781777E+03   -0.71807E-05   -0.55517E-07   108   0.172E-03    0.263E-04
DAV:  11    -0.102492783266E+03   -0.14896E-05   -0.10768E-07   108   0.868E-04    0.195E-04
DAV:  12    -0.102492784338E+03   -0.10717E-05   -0.23120E-08   108   0.467E-04    0.113E-04
DAV:  13    -0.102492785841E+03   -0.15034E-05   -0.59587E-08   108   0.536E-04    0.115E-04
DAV:  14    -0.102492786319E+03   -0.47789E-06   -0.10060E-08   108   0.274E-04
  65 F= -.10249279E+03 E0= -.10249279E+03  d E =-.722533E-10
       N       E                     dE             d eps       ncg     rms          rms(c)
DAV:   1    -0.102494862723E+03   -0.20769E-02   -0.28934E-01    96   0.179E+00    0.204E-01
DAV:   2    -0.102494588892E+03    0.27383E-03   -0.24004E-03   132   0.171E-01    0.101E-01
DAV:   3    -0.102494437008E+03    0.15188E-03   -0.43651E-04   132   0.631E-02    0.331E-02
DAV:   4    -0.102494436074E+03    0.93359E-06   -0.10891E-04   132   0.315E-02    0.134E-02
DAV:   5    -0.102494435044E+03    0.10304E-05   -0.50145E-06   132   0.859E-03    0.559E-03
DAV:   6    -0.102494435883E+03   -0.83941E-06   -0.27156E-06   132   0.566E-03
  66 F= -.10249444E+03 E0= -.10249444E+03  d E =-.698765E-10
[...]
DAV:   5    -0.102494878030E+03   -0.65662E-06   -0.31357E-06   132   0.638E-03
 131 F= -.10249488E+03 E0= -.10249488E+03  d E =-.750757E-10
       N       E                     dE             d eps       ncg     rms          rms(c)
DAV:   1    -0.102494646499E+03    0.23087E-03   -0.27108E-01    96   0.159E+00    0.139E-01
DAV:   2    -0.102494523277E+03    0.12322E-03   -0.14121E-03   132   0.123E-01    0.779E-02
DAV:   3    -0.102494446734E+03    0.76543E-04   -0.21943E-04   132   0.442E-02    0.173E-02
DAV:   4    -0.102494449721E+03   -0.29878E-05   -0.33453E-05   132   0.184E-02    0.637E-03
DAV:   5    -0.102494450358E+03   -0.63698E-06   -0.16383E-06   120   0.472E-03
 132 F= -.10249445E+03 E0= -.10249445E+03  d E =-.730913E-10
       N       E                     dE             d eps       ncg     rms          rms(c)
DAV:   1    -0.102494844131E+03   -0.39441E-03   -0.55098E-01    96   0.228E+00    0.223E-01
DAV:   2    -0.102494541006E+03    0.30313E-03   -0.31630E-03   132   0.183E-01    0.117E-01
DAV:   3    -0.102494362160E+03    0.17885E-03   -0.47162E-04   132   0.635E-02    0.357E-02
DAV:   4    -0.102494363714E+03   -0.15541E-05   -0.10253E-04   132   0.301E-02    0.116E-02
DAV:   5    -0.102494362730E+03    0.98383E-06   -0.55528E-06   132   0.905E-03
 133 F= -.10249436E+03 E0= -.10249436E+03  d E =-.701842E-10
       N       E                     dE             d eps       ncg     rms          rms(c)
DAV:   1    -0.102494575700E+03   -0.21199E-03   -0.27652E-01    96   0.202E+00    0.161E-01
DAV:   2    -0.102494469577E+03    0.10612E-03   -0.20033E-03   132   0.163E-01    0.852E-02
DAV:   3    -0.102494380139E+03    0.89437E-04   -0.21380E-04   132   0.465E-02    0.281E-02
DAV:   4    -0.102494379631E+03    0.50807E-06   -0.56765E-05   132   0.233E-02    0.822E-03
DAV:   5    -0.102494378990E+03    0.64120E-06   -0.33853E-06   132   0.708E-03
 134 F= -.10249438E+03 E0= -.10249438E+03  d E =-.726355E-10
       N       E                     dE             d eps       ncg     rms          rms(c)
DAV:   1    -0.102494599462E+03   -0.21983E-03   -0.55336E-01    96   0.261E+00    0.231E-01
DAV:   2    -0.102494258484E+03    0.34098E-03   -0.31646E-03   132   0.197E-01    0.120E-01
DAV:   3    -0.102494049922E+03    0.20856E-03   -0.46989E-04   132   0.633E-02    0.374E-02
DAV:   4    -0.102494043648E+03    0.62743E-05   -0.98056E-05   132   0.300E-02    0.121E-02
DAV:   5    -0.102494044088E+03   -0.43966E-06   -0.57218E-06   132   0.973E-03
 135 F= -.10249404E+03 E0= -.10249404E+03  d E =-.707302E-10
       N       E                     dE             d eps       ncg     rms          rms(c)
DAV:   1    -0.102493609793E+03    0.43386E-03   -0.28976E-01   108   0.192E+00    0.207E-01
DAV:   2    -0.102493364859E+03    0.24493E-03   -0.23990E-03   120   0.176E-01    0.102E-01
DAV:   3    -0.102493221525E+03    0.14333E-03   -0.38651E-04   132   0.628E-02    0.353E-02
DAV:   4    -0.102493221798E+03   -0.27290E-06   -0.11300E-04   132   0.329E-02    0.143E-02
DAV:   5    -0.102493220415E+03    0.13828E-05   -0.49409E-06   132   0.915E-03    0.635E-03
DAV:   6    -0.102493220488E+03   -0.73071E-07   -0.25613E-06   132   0.598E-03
 136 F= -.10249322E+03 E0= -.10249322E+03  d E =-.717144E-10
       N       E                     dE             d eps       ncg     rms          rms(c)
DAV:   1    -0.102494022251E+03   -0.80184E-03   -0.57183E-01   108   0.267E+00    0.267E-01
DAV:   2    -0.102493464513E+03    0.55774E-03   -0.43595E-03   132   0.240E-01    0.137E-01
DAV:   3    -0.102493171157E+03    0.29336E-03   -0.81475E-04   120   0.907E-02    0.440E-02
DAV:   4    -0.102493173687E+03   -0.25303E-05   -0.19069E-04   132   0.445E-02    0.203E-02
DAV:   5    -0.102493173023E+03    0.66412E-06   -0.73223E-06   132   0.110E-02
 137 F= -.10249317E+03 E0= -.10249317E+03  d E =-.729725E-10
       N       E                     dE             d eps       ncg     rms          rms(c)
DAV:   1    -0.102494775724E+03   -0.16020E-02   -0.28828E-01    96   0.189E+00    0.202E-01
DAV:   2    -0.102494516098E+03    0.25963E-03   -0.23441E-03   132   0.174E-01    0.102E-01
DAV:   3    -0.102494370949E+03    0.14515E-03   -0.41744E-04   132   0.653E-02    0.334E-02
DAV:   4    -0.102494373925E+03   -0.29760E-05   -0.11511E-04   132   0.338E-02    0.147E-02
DAV:   5    -0.102494373007E+03    0.91740E-06   -0.41554E-06   132   0.861E-03
 138 F= -.10249437E+03 E0= -.10249437E+03  d E =-.736798E-10
       N       E                     dE             d eps       ncg     rms          rms(c)
DAV:   1    -0.102494681780E+03   -0.30786E-03   -0.54686E-01    96   0.263E+00    0.227E-01
DAV:   2    -0.102494378288E+03    0.30349E-03   -0.34946E-03   132   0.207E-01    0.121E-01
DAV:   3    -0.102494177104E+03    0.20118E-03   -0.48903E-04   132   0.683E-02    0.360E-02
DAV:   4    -0.102494179507E+03   -0.24027E-05   -0.10469E-04   132   0.321E-02    0.135E-02
DAV:   5    -0.102494179582E+03   -0.75612E-07   -0.53763E-06   132   0.924E-03
 139 F= -.10249418E+03 E0= -.10249418E+03  d E =-.697538E-10
       N       E                     dE             d eps       ncg     rms          rms(c)
DAV:   1    -0.102494111795E+03    0.67712E-04   -0.27633E-01    96   0.190E+00    0.167E-01
DAV:   2    -0.102494003672E+03    0.10812E-03   -0.19201E-03   132   0.148E-01    0.877E-02
DAV:   3    -0.102493911740E+03    0.91932E-04   -0.26479E-04   132   0.454E-02    0.270E-02
DAV:   4    -0.102493909217E+03    0.25226E-05   -0.42119E-05   132   0.191E-02    0.104E-02
DAV:   5    -0.102493907611E+03    0.16057E-05   -0.24774E-06   132   0.708E-03    0.507E-03
DAV:   6    -0.102493907595E+03    0.16661E-07   -0.22039E-06   132   0.558E-03
 140 F= -.10249391E+03 E0= -.10249391E+03  d E =-.736709E-10
       N       E                     dE             d eps       ncg     rms          rms(c)
DAV:   1    -0.102494568130E+03   -0.66052E-03   -0.55678E-01    96   0.249E+00    0.245E-01
DAV:   2    -0.102494202527E+03    0.36560E-03   -0.35134E-03   132   0.207E-01    0.124E-01
DAV:   3    -0.102493981131E+03    0.22140E-03   -0.51096E-04   132   0.659E-02    0.398E-02
DAV:   4    -0.102493972862E+03    0.82689E-05   -0.10696E-04   132   0.312E-02    0.129E-02
DAV:   5    -0.102493973069E+03   -0.20696E-06   -0.60764E-06   132   0.104E-02
 141 F= -.10249397E+03 E0= -.10249397E+03  d E =-.691458E-10
       N       E                     dE             d eps       ncg     rms          rms(c)
DAV:   1    -0.102493263365E+03    0.70950E-03   -0.27239E-01    96   0.179E+00    0.139E-01
DAV:   2    -0.102493133356E+03    0.13001E-03   -0.15204E-03   132   0.132E-01    0.784E-02
DAV:   3    -0.102493050219E+03    0.83137E-04   -0.25036E-04   132   0.497E-02    0.171E-02
DAV:   4    -0.102493055205E+03   -0.49863E-05   -0.47635E-05   132   0.225E-02    0.812E-03
DAV:   5    -0.102493055780E+03   -0.57529E-06   -0.11033E-06   108   0.435E-03
 142 F= -.10249306E+03 E0= -.10249306E+03  d E =-.677710E-10
       N       E                     dE             d eps       ncg     rms          rms(c)
DAV:   1    -0.102493513762E+03   -0.45856E-03   -0.58014E-01   108   0.255E+00    0.287E-01
DAV:   2    -0.102492977113E+03    0.53665E-03   -0.49087E-03   132   0.248E-01    0.143E-01
DAV:   3    -0.102492667009E+03    0.31010E-03   -0.83621E-04   132   0.922E-02    0.469E-02
DAV:   4    -0.102492670301E+03   -0.32915E-05   -0.22949E-04   132   0.470E-02    0.183E-02
DAV:   5    -0.102492668142E+03    0.21587E-05   -0.82107E-06   132   0.120E-02    0.821E-03
DAV:   6    -0.102492668399E+03   -0.25703E-06   -0.52523E-06   132   0.818E-03
 143 F= -.10249267E+03 E0= -.10249267E+03  d E =-.778862E-10
       N       E                     dE             d eps       ncg     rms          rms(c)
DAV:   1    -0.102495200980E+03   -0.25328E-02   -0.28105E-01    96   0.180E+00    0.169E-01
DAV:   2    -0.102494985508E+03    0.21547E-03   -0.19279E-03   132   0.155E-01    0.896E-02
DAV:   3    -0.102494872358E+03    0.11315E-03   -0.31980E-04   132   0.570E-02    0.260E-02
DAV:   4    -0.102494876964E+03   -0.46052E-05   -0.73302E-05   132   0.271E-02    0.107E-02
DAV:   5    -0.102494877063E+03   -0.99025E-07   -0.27539E-06   132   0.658E-03
 144 F= -.10249488E+03 E0= -.10249488E+03  d E =-.733802E-10
       N       E                     dE             d eps       ncg     rms          rms(c)
DAV:   1    -0.102495285412E+03   -0.40845E-03   -0.54108E-01    96   0.248E+00    0.200E-01
DAV:   2    -0.102495003584E+03    0.28183E-03   -0.27654E-03   132   0.183E-01    0.112E-01
DAV:   3    -0.102494839565E+03    0.16402E-03   -0.42820E-04   132   0.649E-02    0.233E-02
DAV:   4    -0.102494844969E+03   -0.54044E-05   -0.67835E-05   132   0.264E-02    0.994E-03
DAV:   5    -0.102494845391E+03   -0.42186E-06   -0.27768E-06   144   0.609E-03
 145 F= -.10249485E+03 E0= -.10249485E+03  d E =-.676766E-10
       N       E                     dE             d eps       ncg     rms          rms(c)
DAV:   1    -0.102494169999E+03    0.67497E-03   -0.27666E-01    96   0.197E+00    0.158E-01
DAV:   2    -0.102494029355E+03    0.14064E-03   -0.19909E-03   132   0.164E-01    0.854E-02
DAV:   3    -0.102493932984E+03    0.96371E-04   -0.26673E-04   132   0.552E-02    0.259E-02
DAV:   4    -0.102493937181E+03   -0.41969E-05   -0.72723E-05   132   0.271E-02    0.101E-02
DAV:   5    -0.102493936864E+03    0.31709E-06   -0.25787E-06   132   0.646E-03
 146 F= -.10249394E+03 E0= -.10249394E+03  d E =-.727323E-10
       N       E                     dE             d eps       ncg     rms          rms(c)
DAV:   1    -0.102494653405E+03   -0.71622E-03   -0.56112E-01    96   0.243E+00    0.242E-01
DAV:   2    -0.102494212972E+03    0.44043E-03   -0.36504E-03   132   0.198E-01    0.126E-01
DAV:   3    -0.102493964280E+03    0.24869E-03   -0.66097E-04   132   0.778E-02    0.384E-02
DAV:   4    -0.102493966873E+03   -0.25930E-05   -0.14840E-04   132   0.375E-02    0.161E-02
DAV:   5    -0.102493966339E+03    0.53425E-06   -0.58940E-06   132   0.868E-03
 147 F= -.10249397E+03 E0= -.10249397E+03  d E =-.732525E-10
       N       E                     dE             d eps       ncg     rms          rms(c)
DAV:   1    -0.102493063130E+03    0.90374E-03   -0.27203E-01    96   0.167E+00    0.142E-01
DAV:   2    -0.102492925257E+03    0.13787E-03   -0.13405E-03   132   0.115E-01    0.777E-02
DAV:   3    -0.102492836567E+03    0.88690E-04   -0.20079E-04   132   0.413E-02    0.202E-02
DAV:   4    -0.102492838447E+03   -0.18800E-05   -0.38836E-05   132   0.189E-02    0.641E-03
DAV:   5    -0.102492839826E+03   -0.13785E-05   -0.21705E-06   132   0.535E-03    0.403E-03
DAV:   6    -0.102492842006E+03   -0.21802E-05   -0.72722E-07   108   0.297E-03    0.103E-03
DAV:   7    -0.102492843712E+03   -0.17058E-05   -0.24128E-07   108   0.173E-03    0.571E-04
DAV:   8    -0.102492846065E+03   -0.23534E-05   -0.11277E-07   108   0.129E-03    0.271E-04
DAV:   9    -0.102492848178E+03   -0.21127E-05   -0.13469E-07   108   0.111E-03    0.213E-04
DAV:  10    -0.102492850022E+03   -0.18438E-05   -0.92020E-08   108   0.774E-04    0.117E-04
DAV:  11    -0.102492850674E+03   -0.65267E-06   -0.17976E-08   108   0.373E-04
 148 F= -.10249285E+03 E0= -.10249285E+03  d E =-.746165E-10
       N       E                     dE             d eps       ncg     rms          rms(c)
DAV:   1    -0.102493623074E+03   -0.77305E-03   -0.57637E-01    96   0.246E+00    0.293E-01
DAV:   2    -0.102493166676E+03    0.45640E-03   -0.43794E-03   132   0.211E-01    0.141E-01
DAV:   3    -0.102492870846E+03    0.29583E-03   -0.70355E-04   132   0.761E-02    0.530E-02
DAV:   4    -0.102492856185E+03    0.14661E-04   -0.21769E-04   132   0.412E-02    0.171E-02
DAV:   5    -0.102492853288E+03    0.28965E-05   -0.11156E-05   132   0.137E-02    0.757E-03
DAV:   6    -0.102492855091E+03   -0.18027E-05   -0.55994E-06   132   0.802E-03    0.253E-03
DAV:   7    -0.102492857753E+03   -0.26618E-05   -0.11478E-06   132   0.368E-03    0.129E-03
DAV:   8    -0.102492861991E+03   -0.42384E-05   -0.24100E-07   108   0.161E-03    0.524E-04
DAV:   9    -0.102492865120E+03   -0.31284E-05   -0.19856E-07   108   0.145E-03    0.559E-04
DAV:  10    -0.102492871287E+03   -0.61673E-05   -0.38758E-07   108   0.162E-03    0.471E-04
DAV:  11    -0.102492872728E+03   -0.14407E-05   -0.75571E-08   120   0.853E-04    0.240E-04
DAV:  12    -0.102492873944E+03   -0.12164E-05   -0.17348E-08   108   0.497E-04    0.153E-04
DAV:  13    -0.102492875578E+03   -0.16339E-05   -0.25611E-08   108   0.415E-04    0.159E-04
DAV:  14    -0.102492876551E+03   -0.97298E-06   -0.11076E-08   108   0.280E-04
 149 F= -.10249288E+03 E0= -.10249288E+03  d E =-.669556E-10
       N       E                     dE             d eps       ncg     rms          rms(c)
DAV:   1    -0.102495168424E+03   -0.22928E-02   -0.27796E-01    96   0.170E+00    0.171E-01
DAV:   2    -0.102494968060E+03    0.20036E-03   -0.17338E-03   132   0.140E-01    0.888E-02
DAV:   3    -0.102494854345E+03    0.11371E-03   -0.27148E-04   132   0.495E-02    0.288E-02
DAV:   4    -0.102494855200E+03   -0.85425E-06   -0.65010E-05   132   0.245E-02    0.970E-03
DAV:   5    -0.102494856257E+03   -0.10571E-05   -0.36190E-06   132   0.744E-03    0.493E-03
DAV:   6    -0.102494858196E+03   -0.19391E-05   -0.16935E-06   120   0.428E-03    0.107E-03
DAV:   7    -0.102494859207E+03   -0.10113E-05   -0.23352E-07   108   0.185E-03    0.629E-04
DAV:   8    -0.102494861057E+03   -0.18495E-05   -0.77386E-08   108   0.958E-04    0.234E-04
DAV:   9    -0.102494862216E+03   -0.11590E-05   -0.38103E-08   108   0.676E-04    0.216E-04
DAV:  10    -0.102494863960E+03   -0.17445E-05   -0.65653E-08   108   0.691E-04    0.114E-04
DAV:  11    -0.102494864721E+03   -0.76095E-06   -0.27508E-08   108   0.466E-04
 150 F= -.10249486E+03 E0= -.10249486E+03  d E =-.872383E-10
       N       E                     dE             d eps       ncg     rms          rms(c)
DAV:   1    -0.102495324679E+03   -0.46072E-03   -0.54259E-01    96   0.237E+00    0.200E-01
DAV:   2    -0.102495024448E+03    0.30023E-03   -0.25767E-03   132   0.168E-01    0.112E-01
DAV:   3    -0.102494845710E+03    0.17874E-03   -0.46965E-04   132   0.657E-02    0.221E-02
DAV:   4    -0.102494852069E+03   -0.63589E-05   -0.74581E-05   132   0.277E-02    0.881E-03
DAV:   5    -0.102494852717E+03   -0.64779E-06   -0.33707E-06   132   0.659E-03
 151 F= -.10249485E+03 E0= -.10249485E+03  d E =-.566904E-10
       N       E                     dE             d eps       ncg     rms          rms(c)
DAV:   1    -0.102492880637E+03    0.19714E-02   -0.28029E-01    96   0.181E+00    0.178E-01
DAV:   2    -0.102492658702E+03    0.22193E-03   -0.22414E-03   132   0.163E-01    0.906E-02
DAV:   3    -0.102492527032E+03    0.13167E-03   -0.35402E-04   132   0.591E-02    0.300E-02
DAV:   4    -0.102492532809E+03   -0.57765E-05   -0.10283E-04   132   0.308E-02    0.108E-02
DAV:   5    -0.102492534794E+03   -0.19852E-05   -0.44459E-06   132   0.785E-03    0.619E-03
DAV:   6    -0.102492537741E+03   -0.29470E-05   -0.18796E-06   132   0.465E-03    0.129E-03
DAV:   7    -0.102492539296E+03   -0.15548E-05   -0.39127E-07   108   0.228E-03    0.669E-04
DAV:   8    -0.102492541411E+03   -0.21152E-05   -0.99046E-08   108   0.101E-03    0.245E-04
DAV:   9    -0.102492542784E+03   -0.13733E-05   -0.44830E-08   108   0.646E-04    0.187E-04
DAV:  10    -0.102492544636E+03   -0.18517E-05   -0.81319E-08   108   0.669E-04    0.852E-05
DAV:  11    -0.102492545412E+03   -0.77598E-06   -0.30993E-08   108   0.429E-04
 152 F= -.10249255E+03 E0= -.10249255E+03  d E =-.683332E-10
       N       E                     dE             d eps       ncg     rms          rms(c)
DAV:   1    -0.102493482590E+03   -0.93795E-03   -0.58393E-01   108   0.250E+00    0.292E-01
DAV:   2    -0.102492929422E+03    0.55317E-03   -0.47915E-03   132   0.238E-01    0.147E-01
DAV:   3    -0.102492590455E+03    0.33897E-03   -0.89840E-04   132   0.925E-02    0.482E-02
DAV:   4    -0.102492590299E+03    0.15624E-06   -0.24325E-04   132   0.469E-02    0.215E-02
DAV:   5    -0.102492588228E+03    0.20707E-05   -0.96977E-06   132   0.120E-02    0.891E-03
DAV:   6    -0.102492589480E+03   -0.12517E-05   -0.57345E-06   132   0.873E-03    0.203E-03
DAV:   7    -0.102492592099E+03   -0.26196E-05   -0.16729E-06   132   0.430E-03    0.150E-03
DAV:   8    -0.102492595495E+03   -0.33955E-05   -0.13443E-07   108   0.104E-03    0.509E-04
DAV:   9    -0.102492598882E+03   -0.33871E-05   -0.15500E-07   108   0.107E-03    0.468E-04
DAV:  10    -0.102492603317E+03   -0.44351E-05   -0.26674E-07   108   0.142E-03    0.800E-04
DAV:  11    -0.102492605141E+03   -0.18234E-05   -0.81908E-08   108   0.814E-04    0.206E-04
DAV:  12    -0.102492605845E+03   -0.70465E-06   -0.72657E-09   108   0.376E-04
 153 F= -.10249261E+03 E0= -.10249261E+03  d E =-.726063E-10
       N       E                     dE             d eps       ncg     rms          rms(c)
DAV:   1    -0.102495100633E+03   -0.24955E-02   -0.28464E-01    96   0.175E+00    0.195E-01
DAV:   2    -0.102494864327E+03    0.23631E-03   -0.21445E-03   132   0.154E-01    0.964E-02
DAV:   3    -0.102494725403E+03    0.13892E-03   -0.31962E-04   132   0.516E-02    0.349E-02
DAV:   4    -0.102494720942E+03    0.44605E-05   -0.90756E-05   132   0.275E-02    0.118E-02
DAV:   5    -0.102494722742E+03   -0.17993E-05   -0.54971E-06   132   0.952E-03    0.522E-03
DAV:   6    -0.102494726588E+03   -0.38462E-05   -0.26074E-06   132   0.526E-03    0.165E-03
DAV:   7    -0.102494729124E+03   -0.25363E-05   -0.38407E-07   108   0.232E-03    0.834E-04
DAV:   8    -0.102494733834E+03   -0.47095E-05   -0.25019E-07   108   0.146E-03    0.413E-04
DAV:   9    -0.102494735737E+03   -0.19032E-05   -0.95648E-08   108   0.100E-03    0.409E-04
DAV:  10    -0.102494739382E+03   -0.36454E-05   -0.19578E-07   108   0.112E-03    0.237E-04
DAV:  11    -0.102494740695E+03   -0.13127E-05   -0.86535E-08   108   0.692E-04    0.152E-04
DAV:  12    -0.102494741250E+03   -0.55455E-06   -0.89556E-09   108   0.356E-04
 154 F= -.10249474E+03 E0= -.10249474E+03  d E =-.717916E-10
       N       E                     dE             d eps       ncg     rms          rms(c)
DAV:   1    -0.102495302888E+03   -0.56219E-03   -0.55015E-01    96   0.243E+00    0.204E-01
DAV:   2    -0.102495028268E+03    0.27462E-03   -0.27079E-03   132   0.162E-01    0.113E-01
DAV:   3    -0.102494834269E+03    0.19400E-03   -0.44988E-04   132   0.605E-02    0.285E-02
DAV:   4    -0.102494836216E+03   -0.19466E-05   -0.83239E-05   132   0.275E-02    0.903E-03
DAV:   5    -0.102494835534E+03    0.68218E-06   -0.40367E-06   132   0.731E-03
 155 F= -.10249484E+03 E0= -.10249484E+03  d E =-.799301E-10
       N       E                     dE             d eps       ncg     rms          rms(c)
DAV:   1    -0.102494564625E+03    0.27159E-03   -0.27317E-01    96   0.172E+00    0.147E-01
DAV:   2    -0.102494415198E+03    0.14943E-03   -0.14901E-03   132   0.132E-01    0.817E-02
DAV:   3    -0.102494329908E+03    0.85290E-04   -0.25736E-04   132   0.506E-02    0.176E-02
DAV:   4    -0.102494336706E+03   -0.67986E-05   -0.47957E-05   132   0.220E-02    0.774E-03
DAV:   5    -0.102494337557E+03   -0.85077E-06   -0.16487E-06   132   0.484E-03
 156 F= -.10249434E+03 E0= -.10249434E+03  d E =-.694556E-10
       N       E                     dE             d eps       ncg     rms          rms(c)
DAV:   1    -0.102494797965E+03   -0.46126E-03   -0.54718E-01    96   0.245E+00    0.231E-01
DAV:   2    -0.102494486701E+03    0.31126E-03   -0.33792E-03   132   0.195E-01    0.121E-01
DAV:   3    -0.102494280658E+03    0.20604E-03   -0.45325E-04   132   0.640E-02    0.384E-02
DAV:   4    -0.102494281002E+03   -0.34439E-06   -0.10751E-04   144   0.314E-02    0.111E-02
DAV:   5    -0.102494281514E+03   -0.51233E-06   -0.72914E-06   132   0.102E-02
 157 F= -.10249428E+03 E0= -.10249428E+03  d E =-.653290E-10
