       N       E                     dE             d eps       ncg     rms          rms(c)
DAV:   1     0.245303945522E+03    0.24530E+03   -0.10200E+04   120   0.484E+02
DAV:   2    -0.240292246536E+02   -0.26933E+03   -0.25541E+03   156   0.919E+01
DAV:   3    -0.103986024180E+03   -0.79957E+02   -0.79749E+02   120   0.553E+01
DAV:   4    -0.107888433898E+03   -0.39024E+01   -0.38885E+01   132   0.176E+01
DAV:   5    -0.107956932648E+03   -0.68499E-01   -0.68412E-01   156   0.231E+00    0.158E+01
DAV:   6    -0.104379256985E+03    0.35777E+01   -0.16461E+00   132   0.442E+00    0.910E+00
DAV:   7    -0.102547761646E+03    0.18315E+01   -0.44037E+00   120   0.646E+00    0.132E+00
DAV:   8    -0.102494011583E+03    0.53750E-01   -0.34217E-01   132   0.224E+00    0.703E-01
DAV:   9    -0.102459959347E+03    0.34052E-01   -0.64456E-02   144   0.688E-01    0.366E-01
DAV:  10    -0.102458330407E+03    0.16289E-02   -0.33988E-03   120   0.204E-01    0.151E-01
DAV:  11    -0.102457091182E+03    0.12392E-02   -0.61996E-03   132   0.214E-01    0.106E-01
DAV:  12    -0.102462167930E+03   -0.50767E-02   -0.15172E-03   120   0.106E-01    0.536E-02
DAV:  13    -0.102466049042E+03   -0.38811E-02   -0.19930E-03   132   0.108E-01    0.447E-02
DAV:  14    -0.102469165967E+03   -0.31169E-02   -0.17441E-04   144   0.430E-02    0.221E-02
DAV:  15    -0.102474435858E+03   -0.52699E-02   -0.60616E-04    96   0.599E-02    0.142E-02
DAV:  16    -0.102475807018E+03   -0.13712E-02   -0.76589E-05   132   0.269E-02    0.866E-03
DAV:  17    -0.102477250861E+03   -0.14438E-02   -0.14045E-04   120   0.252E-02    0.775E-03
DAV:  18    -0.102477478193E+03   -0.22733E-03   -0.48187E-06   132   0.556E-03    0.224E-03
DAV:  19    -0.102477769710E+03   -0.29152E-03   -0.13867E-05   108   0.817E-03    0.215E-03
DAV:  20    -0.102477822005E+03   -0.52295E-04   -0.90238E-07    96   0.308E-03    0.112E-03
DAV:  21    -0.102477863077E+03   -0.41072E-04   -0.12606E-06    96   0.269E-03    0.566E-04
DAV:  22    -0.102477872103E+03   -0.90254E-05   -0.14451E-07   108   0.121E-03    0.323E-04
DAV:  23    -0.102477876497E+03   -0.43944E-05   -0.90957E-08    84   0.716E-04    0.197E-04
DAV:  24    -0.102477880188E+03   -0.36903E-05   -0.49328E-08   108   0.540E-04    0.872E-05
DAV:  25    -0.102477881213E+03   -0.10255E-05   -0.83472E-09    84   0.307E-04    0.948E-05
DAV:  26    -0.102477881700E+03   -0.48740E-06    0.27876E-09   108   0.200E-04
   1 F= -.10247788E+03 E0= -.10247788E+03  d E =-.843686E-10
       N       E                     dE             d eps       ncg     rms          rms(c)
DAV:   1    -0.102474232513E+03    0.36487E-02   -0.82738E-02    96   0.840E-01    0.126E-01
DAV:   2    -0.102474590946E+03   -0.35843E-03   -0.40226E-03   120   0.217E-01    0.564E-02
DAV:   3    -0.102474577485E+03    0.13461E-04   -0.14691E-04   144   0.452E-02    0.295E-02
DAV:   4    -0.102474580483E+03   -0.29975E-05   -0.36389E-05   120   0.224E-02    0.843E-03
DAV:   5    -0.102474579618E+03    0.86465E-06   -0.65501E-06   132   0.994E-03
   2 F= -.10247458E+03 E0= -.10247458E+03  d E =-.915046E-10
       N       E                     dE             d eps       ncg     rms          rms(c)
DAV:   1    -0.102473626347E+03    0.95414E-03   -0.33001E-01    96   0.169E+00    0.257E-01
DAV:   2    -0.102475044724E+03   -0.14184E-02   -0.15934E-02   120   0.429E-01    0.113E-01
DAV:   3    -0.102474994875E+03    0.49849E-04   -0.58685E-04   144   0.894E-02    0.598E-02
DAV:   4    -0.102475011578E+03   -0.16703E-04   -0.14654E-04   108   0.447E-02    0.171E-02
DAV:   5    -0.102475008465E+03    0.31133E-05   -0.26452E-05   132   0.198E-02    0.980E-03
DAV:   6    -0.102475008172E+03    0.29299E-06   -0.50236E-06   132   0.755E-03
   3 F= -.10247501E+03 E0= -.10247501E+03  d E =-.563413E-11
       N       E                     dE             d eps       ncg     rms          rms(c)
DAV:   1    -0.102474264874E+03    0.74359E-03   -0.16865E-01    96   0.120E+00    0.159E-01
DAV:   2    -0.102474969900E+03   -0.70503E-03   -0.76903E-03   132   0.294E-01    0.762E-02
DAV:   3    -0.102474955439E+03    0.14461E-04   -0.26445E-04   144   0.605E-02    0.396E-02
DAV:   4    -0.102474967740E+03   -0.12301E-04   -0.63351E-05   108   0.292E-02    0.120E-02
DAV:   5    -0.102474967422E+03    0.31817E-06   -0.10584E-05   132   0.128E-02    0.596E-03
DAV:   6    -0.102474967951E+03   -0.52909E-06   -0.28931E-06   132   0.570E-03
   4 F= -.10247497E+03 E0= -.10247497E+03  d E =-.707417E-10
       N       E                     dE             d eps       ncg     rms          rms(c)
DAV:   1    -0.102473266836E+03    0.17006E-02   -0.33736E-01    96   0.170E+00    0.245E-01
DAV:   2    -0.102474704608E+03   -0.14378E-02   -0.15708E-02   120   0.426E-01    0.111E-01
DAV:   3    -0.102474664333E+03    0.40275E-04   -0.51736E-04   120   0.874E-02    0.590E-02
DAV:   4    -0.102474680035E+03   -0.15702E-04   -0.15007E-04   120   0.456E-02    0.163E-02
DAV:   5    -0.102474675751E+03    0.42844E-05   -0.28592E-05   132   0.206E-02    0.937E-03
DAV:   6    -0.102474675291E+03    0.45929E-06   -0.60065E-06   132   0.832E-03
   5 F= -.10247468E+03 E0= -.10247468E+03  d E =-.906638E-11
       N       E                     dE             d eps       ncg     rms          rms(c)
DAV:   1    -0.102472487764E+03    0.21880E-02   -0.16470E-01    96   0.122E+00    0.162E-01
DAV:   2    -0.102473414860E+03   -0.92710E-03   -0.98539E-03   120   0.339E-01    0.927E-02
DAV:   3    -0.102473375158E+03    0.39702E-04   -0.28614E-04   132   0.672E-02    0.496E-02
DAV:   4    -0.102473382890E+03   -0.77318E-05   -0.11898E-04   120   0.404E-02    0.118E-02
DAV:   5    -0.102473381377E+03    0.15132E-05   -0.21103E-05   132   0.172E-02    0.750E-03
DAV:   6    -0.102473383280E+03   -0.19031E-05   -0.36422E-06   120   0.616E-03    0.477E-03
DAV:   7    -0.102473389113E+03   -0.58334E-05   -0.47244E-07   108   0.257E-03    0.155E-03
DAV:   8    -0.102473394368E+03   -0.52550E-05   -0.49373E-07    96   0.246E-03    0.720E-04
DAV:   9    -0.102473400672E+03   -0.63037E-05   -0.41021E-07   108   0.193E-03    0.547E-04
DAV:  10    -0.102473407213E+03   -0.65410E-05   -0.50350E-07    96   0.163E-03    0.512E-04
DAV:  11    -0.102473408333E+03   -0.11197E-05   -0.52969E-08   108   0.754E-04    0.342E-04
DAV:  12    -0.102473410173E+03   -0.18408E-05   -0.54570E-08    96   0.607E-04    0.146E-04
DAV:  13    -0.102473411597E+03   -0.14238E-05   -0.51013E-08   108   0.484E-04    0.120E-04
DAV:  14    -0.102473412563E+03   -0.96554E-06   -0.17467E-08   108   0.310E-04
   6 F= -.10247341E+03 E0= -.10247341E+03  d E =-.684670E-11
       N       E                     dE             d eps       ncg     rms          rms(c)
DAV:   1    -0.102471395155E+03    0.20164E-02   -0.33543E-01    96   0.173E+00    0.265E-01
DAV:   2    -0.102473790012E+03   -0.23949E-02   -0.25736E-02   120   0.530E-01    0.170E-01
DAV:   3    -0.102473613654E+03    0.17636E-03   -0.67812E-04   132   0.109E-01    0.910E-02
DAV:   4    -0.102473608458E+03    0.51963E-05   -0.44766E-04   120   0.767E-02    0.172E-02
DAV:   5    -0.102473599743E+03    0.87148E-05   -0.77776E-05   144   0.320E-02    0.127E-02
DAV:   6    -0.102473599998E+03   -0.25496E-06   -0.10947E-05   144   0.931E-03    0.873E-03
DAV:   7    -0.102473611570E+03   -0.11572E-04   -0.10203E-06   120   0.358E-03    0.373E-03
DAV:   8    -0.102473630136E+03   -0.18566E-04   -0.22333E-06   132   0.550E-03    0.162E-03
DAV:   9    -0.102473643307E+03   -0.13171E-04   -0.11866E-06   132   0.288E-03    0.165E-03
DAV:  10    -0.102473664367E+03   -0.21060E-04   -0.10001E-06   108   0.223E-03    0.118E-03
DAV:  11    -0.102473670755E+03   -0.63884E-05   -0.25518E-07   108   0.125E-03    0.702E-04
DAV:  12    -0.102473679308E+03   -0.85524E-05   -0.27234E-07   108   0.118E-03    0.365E-04
DAV:  13    -0.102473682650E+03   -0.33420E-05   -0.95014E-08   108   0.646E-04    0.282E-04
DAV:  14    -0.102473684653E+03   -0.20037E-05   -0.15674E-08   108   0.361E-04    0.163E-04
DAV:  15    -0.102473686406E+03   -0.17527E-05   -0.30555E-08   108   0.393E-04    0.113E-04
DAV:  16    -0.102473686877E+03   -0.47091E-06    0.23917E-09   120   0.184E-04
   7 F= -.10247369E+03 E0= -.10247369E+03  d E =-.799951E-10
       N       E                     dE             d eps       ncg     rms          rms(c)
DAV:   1    -0.102472641531E+03    0.10449E-02   -0.19122E-01    96   0.131E+00    0.189E-01
DAV:   2    -0.102474053651E+03   -0.14121E-02   -0.14655E-02   132   0.416E-01    0.120E-01
DAV:   3    -0.102473968924E+03    0.84728E-04   -0.39810E-04   144   0.836E-02    0.655E-02
DAV:   4    -0.102473968386E+03    0.53766E-06   -0.23079E-04   132   0.575E-02    0.122E-02
DAV:   5    -0.102473963531E+03    0.48552E-05   -0.43699E-05   132   0.236E-02    0.981E-03
DAV:   6    -0.102473964154E+03   -0.62308E-06   -0.42946E-06   132   0.647E-03
   8 F= -.10247396E+03 E0= -.10247396E+03  d E =-.544905E-11
       N       E                     dE             d eps       ncg     rms          rms(c)
DAV:   1    -0.102471913103E+03    0.20504E-02   -0.33604E-01    96   0.164E+00    0.256E-01
DAV:   2    -0.102473873239E+03   -0.19601E-02   -0.20265E-02   120   0.454E-01    0.153E-01
DAV:   3    -0.102473809945E+03    0.63293E-04   -0.58010E-04   132   0.901E-02    0.795E-02
DAV:   4    -0.102473810616E+03   -0.67107E-06   -0.21658E-04   132   0.529E-02    0.159E-02
DAV:   5    -0.102473799769E+03    0.10848E-04   -0.34749E-05   144   0.222E-02    0.997E-03
DAV:   6    -0.102473800580E+03   -0.81126E-06   -0.74818E-06   132   0.899E-03
   9 F= -.10247380E+03 E0= -.10247380E+03  d E =-.597105E-11
       N       E                     dE             d eps       ncg     rms          rms(c)
DAV:   1    -0.102471802063E+03    0.19977E-02   -0.16964E-01    96   0.116E+00    0.180E-01
DAV:   2    -0.102472904867E+03   -0.11028E-02   -0.11151E-02   132   0.337E-01    0.116E-01
DAV:   3    -0.102472883622E+03    0.21245E-04   -0.28456E-04   132   0.670E-02    0.610E-02
DAV:   4    -0.102472904076E+03   -0.20454E-04   -0.16848E-04   120   0.452E-02    0.121E-02
DAV:   5    -0.102472898487E+03    0.55888E-05   -0.31132E-05   144   0.198E-02    0.828E-03
DAV:   6    -0.102472899599E+03   -0.11125E-05   -0.72633E-06   132   0.726E-03    0.529E-03
DAV:   7    -0.102472907008E+03   -0.74087E-05   -0.68820E-07   108   0.308E-03    0.227E-03
DAV:   8    -0.102472916644E+03   -0.96359E-05   -0.87841E-07   120   0.289E-03    0.736E-04
DAV:   9    -0.102472924245E+03   -0.76008E-05   -0.62499E-07   108   0.220E-03    0.859E-04
DAV:  10    -0.102472934050E+03   -0.98053E-05   -0.86274E-07   120   0.198E-03    0.625E-04
DAV:  11    -0.102472936851E+03   -0.28012E-05   -0.93867E-08   108   0.918E-04    0.313E-04
DAV:  12    -0.102472939264E+03   -0.24127E-05   -0.76006E-08   108   0.655E-04    0.121E-04
DAV:  13    -0.102472941438E+03   -0.21742E-05   -0.76782E-08   108   0.577E-04    0.175E-04
DAV:  14    -0.102472942235E+03   -0.79683E-06   -0.99388E-09   108   0.281E-04
  10 F= -.10247294E+03 E0= -.10247294E+03  d E =-.574667E-11
       N       E                     dE             d eps       ncg     rms          rms(c)
DAV:   1    -0.102470522476E+03    0.24190E-02   -0.34331E-01    96   0.163E+00    0.265E-01
DAV:   2    -0.102473266964E+03   -0.27445E-02   -0.27908E-02   132   0.521E-01    0.186E-01
DAV:   3    -0.102473098484E+03    0.16848E-03   -0.63023E-04   144   0.102E-01    0.979E-02
DAV:   4    -0.102473112696E+03   -0.14212E-04   -0.49918E-04   132   0.776E-02    0.180E-02
DAV:   5    -0.102473099880E+03    0.12817E-04   -0.10680E-04   132   0.347E-02    0.127E-02
DAV:   6    -0.102473101026E+03   -0.11469E-05   -0.18323E-05   132   0.107E-02    0.781E-03
DAV:   7    -0.102473119165E+03   -0.18139E-04   -0.21649E-06   132   0.444E-03    0.325E-03
DAV:   8    -0.102473145501E+03   -0.26336E-04   -0.37867E-06   132   0.536E-03    0.168E-03
DAV:   9    -0.102473166245E+03   -0.20744E-04   -0.17731E-06   132   0.319E-03    0.165E-03
DAV:  10    -0.102473186385E+03   -0.20140E-04   -0.15871E-06   120   0.269E-03    0.471E-04
DAV:  11    -0.102473192858E+03   -0.64730E-05   -0.18877E-07   108   0.117E-03    0.295E-04
DAV:  12    -0.102473201602E+03   -0.87436E-05   -0.41623E-07    96   0.121E-03    0.243E-04
DAV:  13    -0.102473203313E+03   -0.17109E-05   -0.38499E-08   108   0.421E-04    0.212E-04
DAV:  14    -0.102473206045E+03   -0.27325E-05   -0.58173E-08   108   0.503E-04    0.563E-05
DAV:  15    -0.102473206706E+03   -0.66045E-06   -0.79196E-09   108   0.245E-04
  11 F= -.10247321E+03 E0= -.10247321E+03  d E =-.501080E-11
       N       E                     dE             d eps       ncg     rms          rms(c)
DAV:   1    -0.102473227829E+03   -0.21784E-04   -0.16971E-01    96   0.116E+00    0.187E-01
DAV:   2    -0.102474482000E+03   -0.12542E-02   -0.12916E-02   132   0.361E-01    0.123E-01
DAV:   3    -0.102474411824E+03    0.70176E-04   -0.31024E-04   144   0.708E-02    0.656E-02
DAV:   4    -0.102474414436E+03   -0.26116E-05   -0.21005E-04   132   0.513E-02    0.124E-02
DAV:   5    -0.102474407891E+03    0.65447E-05   -0.45864E-05   132   0.235E-02    0.894E-03
DAV:   6    -0.102474409385E+03   -0.14936E-05   -0.78402E-06   132   0.743E-03    0.579E-03
DAV:   7    -0.102474418750E+03   -0.93651E-05   -0.69801E-07   108   0.298E-03    0.258E-03
DAV:   8    -0.102474432665E+03   -0.13915E-04   -0.19544E-06   132   0.389E-03    0.107E-03
DAV:   9    -0.102474443486E+03   -0.10821E-04   -0.89190E-07   120   0.248E-03    0.109E-03
DAV:  10    -0.102474455053E+03   -0.11568E-04   -0.90151E-07   108   0.202E-03    0.505E-04
DAV:  11    -0.102474458166E+03   -0.31128E-05   -0.94060E-08   108   0.870E-04    0.335E-04
DAV:  12    -0.102474461960E+03   -0.37934E-05   -0.11560E-07   108   0.755E-04    0.137E-04
DAV:  13    -0.102474464402E+03   -0.24425E-05   -0.90943E-08   108   0.602E-04    0.177E-04
DAV:  14    -0.102474465826E+03   -0.14236E-05   -0.27804E-08   108   0.384E-04    0.955E-05
DAV:  15    -0.102474466297E+03   -0.47142E-06   -0.15524E-09   108   0.201E-04
  12 F= -.10247447E+03 E0= -.10247447E+03  d E =-.555876E-11
       N       E                     dE             d eps       ncg     rms          rms(c)
DAV:   1    -0.102472887139E+03    0.15787E-02   -0.33186E-01    96   0.159E+00    0.266E-01
DAV:   2    -0.102474511457E+03   -0.16243E-02   -0.17349E-02   132   0.418E-01    0.133E-01
DAV:   3    -0.102474469209E+03    0.42248E-04   -0.57094E-04   132   0.884E-02    0.712E-02
DAV:   4    -0.102474479878E+03   -0.10669E-04   -0.17956E-04   132   0.539E-02    0.156E-02
DAV:   5    -0.102474473567E+03    0.63109E-05   -0.45822E-05   132   0.257E-02    0.112E-02
DAV:   6    -0.102474473523E+03    0.44446E-07   -0.70398E-06   132   0.872E-03
  13 F= -.10247447E+03 E0= -.10247447E+03  d E =-.573359E-11
       N       E                     dE             d eps       ncg     rms          rms(c)
DAV:   1    -0.102471763084E+03    0.27105E-02   -0.16760E-01    96   0.130E+00    0.194E-01
DAV:   2    -0.102473057781E+03   -0.12947E-02   -0.13368E-02   132   0.407E-01    0.115E-01
DAV:   3    -0.102473004191E+03    0.53590E-04   -0.36234E-04   144   0.784E-02    0.664E-02
DAV:   4    -0.102473024419E+03   -0.20228E-04   -0.18792E-04   132   0.562E-02    0.137E-02
DAV:   5    -0.102473024007E+03    0.41190E-06   -0.51092E-05   144   0.266E-02    0.106E-02
DAV:   6    -0.102473022716E+03    0.12903E-05   -0.55265E-06   132   0.818E-03    0.718E-03
DAV:   7    -0.102473026133E+03   -0.34167E-05   -0.17419E-06   132   0.498E-03    0.277E-03
DAV:   8    -0.102473031477E+03   -0.53435E-05   -0.48350E-07   108   0.316E-03    0.737E-04
DAV:   9    -0.102473037929E+03   -0.64526E-05   -0.51724E-07   108   0.232E-03    0.103E-03
DAV:  10    -0.102473046663E+03   -0.87334E-05   -0.47631E-07   108   0.182E-03    0.360E-04
DAV:  11    -0.102473048934E+03   -0.22711E-05   -0.97649E-08   108   0.882E-04    0.278E-04
DAV:  12    -0.102473051922E+03   -0.29886E-05   -0.70019E-08   108   0.657E-04    0.146E-04
DAV:  13    -0.102473054289E+03   -0.23671E-05   -0.72009E-08   108   0.568E-04    0.120E-04
DAV:  14    -0.102473055657E+03   -0.13674E-05   -0.25141E-08   108   0.348E-04    0.900E-05
DAV:  15    -0.102473056320E+03   -0.66281E-06   -0.34230E-09   108   0.215E-04
  14 F= -.10247306E+03 E0= -.10247306E+03  d E =-.731396E-11
       N       E                     dE             d eps       ncg     rms          rms(c)
DAV:   1    -0.102471210319E+03    0.18453E-02   -0.34769E-01    96   0.182E+00    0.263E-01
DAV:   2    -0.102473662185E+03   -0.24519E-02   -0.25001E-02   132   0.571E-01    0.173E-01
DAV:   3    -0.102473539993E+03    0.12219E-03   -0.58083E-04   132   0.104E-01    0.934E-02
DAV:   4    -0.102473542322E+03   -0.23291E-05   -0.39160E-04   132   0.777E-02    0.174E-02
DAV:   5    -0.102473533766E+03    0.85561E-05   -0.90122E-05   132   0.353E-02    0.126E-02
DAV:   6    -0.102473538501E+03   -0.47354E-05   -0.16708E-05   132   0.119E-02    0.810E-03
DAV:   7    -0.102473558785E+03   -0.20284E-04   -0.20165E-06   132   0.502E-03    0.346E-03
DAV:   8    -0.102473586042E+03   -0.27257E-04   -0.27830E-06   132   0.480E-03    0.110E-03
DAV:   9    -0.102473607534E+03   -0.21493E-04   -0.22965E-06   132   0.382E-03    0.173E-03
DAV:  10    -0.102473628969E+03   -0.21434E-04   -0.18545E-06   132   0.315E-03    0.620E-04
DAV:  11    -0.102473634448E+03   -0.54796E-05   -0.20754E-07   108   0.122E-03    0.391E-04
DAV:  12    -0.102473641059E+03   -0.66105E-05   -0.28250E-07   108   0.111E-03    0.153E-04
DAV:  13    -0.102473643480E+03   -0.24216E-05   -0.90462E-08   108   0.616E-04    0.253E-04
DAV:  14    -0.102473645496E+03   -0.20153E-05   -0.40516E-08   108   0.479E-04    0.106E-04
DAV:  15    -0.102473646018E+03   -0.52278E-06   -0.48583E-09   108   0.245E-04
  15 F= -.10247365E+03 E0= -.10247365E+03  d E =-.906418E-10
       N       E                     dE             d eps       ncg     rms          rms(c)
DAV:   1    -0.102472478618E+03    0.11669E-02   -0.17519E-01    96   0.131E+00    0.189E-01
DAV:   2    -0.102473767241E+03   -0.12886E-02   -0.13166E-02   132   0.416E-01    0.129E-01
DAV:   3    -0.102473692600E+03    0.74641E-04   -0.29880E-04   144   0.773E-02    0.676E-02
DAV:   4    -0.102473696863E+03   -0.42634E-05   -0.22972E-04   132   0.584E-02    0.130E-02
DAV:   5    -0.102473689094E+03    0.77691E-05   -0.51072E-05   132   0.268E-02    0.910E-03
DAV:   6    -0.102473691302E+03   -0.22077E-05   -0.83126E-06   144   0.804E-03    0.489E-03
DAV:   7    -0.102473701589E+03   -0.10287E-04   -0.47958E-07   108   0.232E-03    0.260E-03
DAV:   8    -0.102473721196E+03   -0.19607E-04   -0.27333E-06   132   0.455E-03    0.131E-03
DAV:   9    -0.102473729658E+03   -0.84628E-05   -0.65910E-07   108   0.239E-03    0.117E-03
DAV:  10    -0.102473743540E+03   -0.13881E-04   -0.10731E-06   108   0.218E-03    0.508E-04
DAV:  11    -0.102473747460E+03   -0.39202E-05   -0.14174E-07   108   0.103E-03    0.253E-04
DAV:  12    -0.102473751233E+03   -0.37729E-05   -0.10966E-07   108   0.757E-04    0.131E-04
DAV:  13    -0.102473752982E+03   -0.17497E-05   -0.38178E-08   108   0.428E-04    0.143E-04
DAV:  14    -0.102473754280E+03   -0.12973E-05   -0.15025E-08   108   0.315E-04    0.859E-05
DAV:  15    -0.102473754739E+03   -0.45912E-06   -0.71115E-10   108   0.189E-04
  16 F= -.10247375E+03 E0= -.10247375E+03  d E =-.470282E-11
       N       E                     dE             d eps       ncg     rms          rms(c)
DAV:   1    -0.102471906380E+03    0.18479E-02   -0.34395E-01    96   0.185E+00    0.257E-01
DAV:   2    -0.102473995367E+03   -0.20890E-02   -0.21551E-02   132   0.521E-01    0.154E-01
DAV:   3    -0.102473903518E+03    0.91849E-04   -0.51923E-04   132   0.956E-02    0.819E-02
DAV:   4    -0.102473909147E+03   -0.56293E-05   -0.30579E-04   132   0.676E-02    0.163E-02
DAV:   5    -0.102473898353E+03    0.10794E-04   -0.62809E-05   132   0.306E-02    0.123E-02
DAV:   6    -0.102473897727E+03    0.62546E-06   -0.11693E-05   132   0.106E-02    0.768E-03
DAV:   7    -0.102473907216E+03   -0.94888E-05   -0.15503E-06   120   0.536E-03    0.303E-03
DAV:   8    -0.102473922812E+03   -0.15596E-04   -0.22982E-06   132   0.543E-03    0.149E-03
DAV:   9    -0.102473939198E+03   -0.16386E-04   -0.10412E-06   108   0.326E-03    0.135E-03
DAV:  10    -0.102473954819E+03   -0.15622E-04   -0.10013E-06   120   0.234E-03    0.640E-04
DAV:  11    -0.102473961896E+03   -0.70766E-05   -0.18326E-07   108   0.119E-03    0.315E-04
DAV:  12    -0.102473968918E+03   -0.70220E-05   -0.20995E-07   108   0.969E-04    0.249E-04
DAV:  13    -0.102473971550E+03   -0.26319E-05   -0.40190E-08   108   0.467E-04    0.246E-04
DAV:  14    -0.102473974056E+03   -0.25057E-05   -0.34714E-08   108   0.431E-04    0.715E-05
DAV:  15    -0.102473974818E+03   -0.76227E-06   -0.43827E-09   108   0.236E-04
  17 F= -.10247397E+03 E0= -.10247397E+03  d E =-.635552E-11
       N       E                     dE             d eps       ncg     rms          rms(c)
DAV:   1    -0.102473284971E+03    0.68909E-03   -0.17291E-01    96   0.131E+00    0.171E-01
DAV:   2    -0.102474374974E+03   -0.10900E-02   -0.11273E-02   132   0.382E-01    0.115E-01
DAV:   3    -0.102474328790E+03    0.46184E-04   -0.25770E-04   132   0.671E-02    0.624E-02
DAV:   4    -0.102474312873E+03    0.15917E-04   -0.13011E-04   132   0.434E-02    0.105E-02
DAV:   5    -0.102474309717E+03    0.31563E-05   -0.21182E-05   132   0.177E-02    0.744E-03
DAV:   6    -0.102474315061E+03   -0.53442E-05   -0.62360E-06   132   0.864E-03    0.439E-03
DAV:   7    -0.102474332949E+03   -0.17888E-04   -0.23449E-06   132   0.578E-03    0.158E-03
DAV:   8    -0.102474351313E+03   -0.18363E-04   -0.14251E-06   120   0.408E-03    0.104E-03
DAV:   9    -0.102474368358E+03   -0.17046E-04   -0.14780E-06   108   0.312E-03    0.992E-04
DAV:  10    -0.102474382530E+03   -0.14171E-04   -0.12687E-06   120   0.237E-03    0.360E-04
DAV:  11    -0.102474385198E+03   -0.26684E-05   -0.67877E-08   108   0.829E-04    0.247E-04
DAV:  12    -0.102474390417E+03   -0.52187E-05   -0.32660E-07   108   0.116E-03    0.136E-04
DAV:  13    -0.102474391272E+03   -0.85521E-06   -0.35726E-08   108   0.460E-04
  18 F= -.10247439E+03 E0= -.10247439E+03  d E =-.708267E-11
       N       E                     dE             d eps       ncg     rms          rms(c)
DAV:   1    -0.102472253022E+03    0.21374E-02   -0.32830E-01    96   0.175E+00    0.213E-01
DAV:   2    -0.102474169471E+03   -0.19164E-02   -0.19626E-02   120   0.488E-01    0.140E-01
DAV:   3    -0.102474132812E+03    0.36659E-04   -0.51009E-04   144   0.901E-02    0.738E-02
DAV:   4    -0.102474126450E+03    0.63626E-05   -0.16358E-04   132   0.518E-02    0.133E-02
DAV:   5    -0.102474117271E+03    0.91787E-05   -0.36327E-05   132   0.236E-02    0.896E-03
DAV:   6    -0.102474118300E+03   -0.10288E-05   -0.75463E-06   132   0.969E-03    0.559E-03
DAV:   7    -0.102474131006E+03   -0.12707E-04   -0.23061E-06   132   0.666E-03    0.209E-03
DAV:   8    -0.102474147543E+03   -0.16537E-04   -0.15163E-06   120   0.544E-03    0.146E-03
DAV:   9    -0.102474162896E+03   -0.15352E-04   -0.10596E-06   120   0.347E-03    0.151E-03
DAV:  10    -0.102474174097E+03   -0.11202E-04   -0.30672E-07   108   0.147E-03    0.707E-04
DAV:  11    -0.102474187256E+03   -0.13159E-04   -0.73056E-07   108   0.179E-03    0.381E-04
DAV:  12    -0.102474192389E+03   -0.51324E-05   -0.15935E-07   108   0.862E-04    0.298E-04
DAV:  13    -0.102474198191E+03   -0.58023E-05   -0.15263E-07   108   0.807E-04    0.155E-04
DAV:  14    -0.102474200439E+03   -0.22481E-05   -0.39855E-08   108   0.476E-04    0.151E-04
DAV:  15    -0.102474202137E+03   -0.16973E-05   -0.21643E-08   108   0.446E-04    0.121E-04
DAV:  16    -0.102474202578E+03   -0.44117E-06   -0.77108E-10   108   0.223E-04
  19 F= -.10247420E+03 E0= -.10247420E+03  d E =-.933125E-10
       N       E                     dE             d eps       ncg     rms          rms(c)
DAV:   1    -0.102472136917E+03    0.20652E-02   -0.16495E-01    96   0.130E+00    0.160E-01
DAV:   2    -0.102473448761E+03   -0.13118E-02   -0.13614E-02   132   0.411E-01    0.112E-01
DAV:   3    -0.102473390539E+03    0.58221E-04   -0.31978E-04   144   0.736E-02    0.650E-02
DAV:   4    -0.102473371320E+03    0.19220E-04   -0.15384E-04   132   0.503E-02    0.110E-02
DAV:   5    -0.102473365639E+03    0.56801E-05   -0.39875E-05   132   0.233E-02    0.886E-03
DAV:   6    -0.102473365749E+03   -0.10925E-06   -0.47210E-06   132   0.779E-03
  20 F= -.10247337E+03 E0= -.10247337E+03  d E =-.788679E-11
       N       E                     dE             d eps       ncg     rms          rms(c)
DAV:   1    -0.102471736485E+03    0.16292E-02   -0.33196E-01    96   0.176E+00    0.262E-01
DAV:   2    -0.102474076162E+03   -0.23397E-02   -0.24957E-02   132   0.523E-01    0.164E-01
DAV:   3    -0.102473926855E+03    0.14931E-03   -0.66513E-04   132   0.106E-01    0.874E-02
DAV:   4    -0.102473945131E+03   -0.18276E-04   -0.43010E-04   132   0.734E-02    0.172E-02
DAV:   5    -0.102473938105E+03    0.70265E-05   -0.70863E-05   144   0.307E-02    0.125E-02
DAV:   6    -0.102473937521E+03    0.58403E-06   -0.10002E-05   132   0.906E-03    0.851E-03
DAV:   7    -0.102473944340E+03   -0.68196E-05   -0.85862E-07   108   0.355E-03    0.342E-03
DAV:   8    -0.102473954586E+03   -0.10245E-04   -0.17290E-06   132   0.478E-03    0.132E-03
DAV:   9    -0.102473963318E+03   -0.87325E-05   -0.84986E-07   120   0.264E-03    0.135E-03
DAV:  10    -0.102473977658E+03   -0.14340E-04   -0.76112E-07   108   0.202E-03    0.923E-04
DAV:  11    -0.102473981818E+03   -0.41596E-05   -0.14979E-07   108   0.106E-03    0.589E-04
DAV:  12    -0.102473987310E+03   -0.54915E-05   -0.15988E-07   108   0.968E-04    0.327E-04
DAV:  13    -0.102473990539E+03   -0.32291E-05   -0.91910E-08   108   0.652E-04    0.193E-04
DAV:  14    -0.102473992722E+03   -0.21829E-05   -0.31280E-08   108   0.430E-04    0.131E-04
DAV:  15    -0.102473993634E+03   -0.91254E-06   -0.11691E-08   108   0.279E-04
  21 F= -.10247399E+03 E0= -.10247399E+03  d E =-.879803E-10
       N       E                     dE             d eps       ncg     rms          rms(c)
DAV:   1    -0.102473908025E+03    0.84696E-04   -0.16752E-01    96   0.123E+00    0.161E-01
DAV:   2    -0.102474976840E+03   -0.10688E-02   -0.11335E-02   132   0.358E-01    0.106E-01
DAV:   3    -0.102474913106E+03    0.63733E-04   -0.30892E-04   132   0.715E-02    0.564E-02
DAV:   4    -0.102474912462E+03    0.64436E-06   -0.16220E-04   132   0.461E-02    0.126E-02
DAV:   5    -0.102474907808E+03    0.46542E-05   -0.26480E-05   132   0.189E-02    0.827E-03
DAV:   6    -0.102474909204E+03   -0.13966E-05   -0.47407E-06   132   0.671E-03    0.524E-03
DAV:   7    -0.102474916586E+03   -0.73817E-05   -0.56623E-07   108   0.275E-03    0.184E-03
DAV:   8    -0.102474924334E+03   -0.77476E-05   -0.72734E-07   120   0.276E-03    0.773E-04
DAV:   9    -0.102474932102E+03   -0.77681E-05   -0.52313E-07   108   0.207E-03    0.742E-04
DAV:  10    -0.102474941396E+03   -0.92940E-05   -0.85435E-07   120   0.193E-03    0.478E-04
DAV:  11    -0.102474943327E+03   -0.19310E-05   -0.58585E-08   108   0.810E-04    0.311E-04
DAV:  12    -0.102474945569E+03   -0.22418E-05   -0.63336E-08   108   0.606E-04    0.152E-04
DAV:  13    -0.102474947168E+03   -0.15998E-05   -0.42185E-08   108   0.451E-04    0.106E-04
DAV:  14    -0.102474948323E+03   -0.11543E-05   -0.26258E-08   108   0.352E-04    0.101E-04
DAV:  15    -0.102474948692E+03   -0.36960E-06    0.59424E-10   108   0.182E-04
  22 F= -.10247495E+03 E0= -.10247495E+03  d E =-.862907E-10
       N       E                     dE             d eps       ncg     rms          rms(c)
DAV:   1    -0.102473369840E+03    0.15785E-02   -0.33564E-01    96   0.170E+00    0.244E-01
DAV:   2    -0.102474792561E+03   -0.14227E-02   -0.15720E-02   132   0.425E-01    0.110E-01
DAV:   3    -0.102474745894E+03    0.46666E-04   -0.50868E-04   132   0.859E-02    0.576E-02
DAV:   4    -0.102474756787E+03   -0.10893E-04   -0.13988E-04   132   0.442E-02    0.160E-02
DAV:   5    -0.102474753583E+03    0.32046E-05   -0.26347E-05   132   0.203E-02    0.940E-03
DAV:   6    -0.102474754429E+03   -0.84608E-06   -0.59528E-06   132   0.841E-03
  23 F= -.10247475E+03 E0= -.10247475E+03  d E =-.859935E-11
       N       E                     dE             d eps       ncg     rms          rms(c)
DAV:   1    -0.102473889769E+03    0.86381E-03   -0.16604E-01    96   0.121E+00    0.157E-01
DAV:   2    -0.102474614348E+03   -0.72458E-03   -0.78316E-03   132   0.301E-01    0.783E-02
DAV:   3    -0.102474599615E+03    0.14733E-04   -0.26086E-04   132   0.622E-02    0.402E-02
DAV:   4    -0.102474616119E+03   -0.16504E-04   -0.74319E-05   132   0.319E-02    0.116E-02
DAV:   5    -0.102474617170E+03   -0.10507E-05   -0.11845E-05   132   0.134E-02    0.639E-03
DAV:   6    -0.102474618543E+03   -0.13732E-05   -0.29224E-06   132   0.589E-03    0.343E-03
DAV:   7    -0.102474620958E+03   -0.24153E-05   -0.34230E-07   108   0.228E-03    0.113E-03
DAV:   8    -0.102474623452E+03   -0.24938E-05   -0.19977E-07   108   0.186E-03    0.523E-04
DAV:   9    -0.102474626040E+03   -0.25877E-05   -0.13419E-07   108   0.136E-03    0.373E-04
DAV:  10    -0.102474629059E+03   -0.30192E-05   -0.16325E-07   108   0.122E-03    0.240E-04
DAV:  11    -0.102474629791E+03   -0.73241E-06   -0.36542E-08   108   0.680E-04
  24 F= -.10247463E+03 E0= -.10247463E+03  d E =-.832326E-10
       N       E                     dE             d eps       ncg     rms          rms(c)
DAV:   1    -0.102473078641E+03    0.15504E-02   -0.33308E-01    96   0.170E+00    0.263E-01
DAV:   2    -0.102474626434E+03   -0.15478E-02   -0.17177E-02   132   0.455E-01    0.124E-01
DAV:   3    -0.102474556258E+03    0.70176E-04   -0.55686E-04   132   0.903E-02    0.702E-02
DAV:   4    -0.102474564834E+03   -0.85759E-05   -0.19023E-04   132   0.512E-02    0.188E-02
DAV:   5    -0.102474560951E+03    0.38832E-05   -0.34847E-05   132   0.221E-02    0.102E-02
DAV:   6    -0.102474561715E+03   -0.76471E-06   -0.55812E-06   144   0.807E-03
  25 F= -.10247456E+03 E0= -.10247456E+03  d E =-.924678E-11
       N       E                     dE             d eps       ncg     rms          rms(c)
DAV:   1    -0.102472189924E+03    0.23710E-02   -0.16839E-01    96   0.127E+00    0.174E-01
DAV:   2    -0.102473418246E+03   -0.12283E-02   -0.12715E-02   132   0.383E-01    0.106E-01
DAV:   3    -0.102473372631E+03    0.45615E-04   -0.32116E-04   156   0.704E-02    0.601E-02
DAV:   4    -0.102473377945E+03   -0.53135E-05   -0.14659E-04   132   0.447E-02    0.113E-02
DAV:   5    -0.102473373899E+03    0.40462E-05   -0.29115E-05   144   0.197E-02    0.793E-03
DAV:   6    -0.102473373212E+03    0.68638E-06   -0.43217E-06   132   0.684E-03
  26 F= -.10247337E+03 E0= -.10247337E+03  d E =-.581683E-11
       N       E                     dE             d eps       ncg     rms          rms(c)
DAV:   1    -0.102471394829E+03    0.19791E-02   -0.34751E-01    96   0.166E+00    0.221E-01
DAV:   2    -0.102473632318E+03   -0.22375E-02   -0.22357E-02   132   0.490E-01    0.164E-01
DAV:   3    -0.102473586037E+03    0.46281E-04   -0.45178E-04   132   0.821E-02    0.948E-02
DAV:   4    -0.102473560015E+03    0.26021E-04   -0.27082E-04   132   0.581E-02    0.143E-02
DAV:   5    -0.102473550395E+03    0.96200E-05   -0.49683E-05   144   0.243E-02    0.106E-02
DAV:   6    -0.102473551863E+03   -0.14678E-05   -0.12868E-05   132   0.111E-02    0.626E-03
DAV:   7    -0.102473571862E+03   -0.19999E-04   -0.45243E-06   132   0.670E-03    0.239E-03
DAV:   8    -0.102473596336E+03   -0.24474E-04   -0.20422E-06   120   0.413E-03    0.119E-03
DAV:   9    -0.102473622246E+03   -0.25910E-04   -0.28206E-06   120   0.388E-03    0.118E-03
DAV:  10    -0.102473640592E+03   -0.18346E-04   -0.17228E-06   108   0.277E-03    0.537E-04
DAV:  11    -0.102473647977E+03   -0.73854E-05   -0.36330E-07   108   0.132E-03    0.272E-04
DAV:  12    -0.102473651858E+03   -0.38811E-05   -0.16833E-07   108   0.847E-04    0.162E-04
DAV:  13    -0.102473654155E+03   -0.22969E-05   -0.73910E-08   108   0.595E-04    0.922E-05
DAV:  14    -0.102473654950E+03   -0.79522E-06   -0.96110E-09   108   0.292E-04
  27 F= -.10247365E+03 E0= -.10247365E+03  d E =-.576739E-11
       N       E                     dE             d eps       ncg     rms          rms(c)
DAV:   1    -0.102473858267E+03   -0.20411E-03   -0.17077E-01    96   0.116E+00    0.150E-01
DAV:   2    -0.102474859640E+03   -0.10014E-02   -0.10221E-02   120   0.321E-01    0.102E-01
DAV:   3    -0.102474840082E+03    0.19557E-04   -0.24941E-04   144   0.611E-02    0.548E-02
DAV:   4    -0.102474838654E+03    0.14283E-05   -0.11198E-04   132   0.407E-02    0.104E-02
DAV:   5    -0.102474834535E+03    0.41197E-05   -0.27412E-05   144   0.191E-02    0.741E-03
DAV:   6    -0.102474834098E+03    0.43666E-06   -0.53265E-06   132   0.694E-03
  28 F= -.10247483E+03 E0= -.10247483E+03  d E =-.839855E-10
       N       E                     dE             d eps       ncg     rms          rms(c)
DAV:   1    -0.102473204689E+03    0.16298E-02   -0.34066E-01    96   0.150E+00    0.194E-01
DAV:   2    -0.102474793699E+03   -0.15890E-02   -0.15876E-02   132   0.374E-01    0.111E-01
DAV:   3    -0.102474820238E+03   -0.26539E-04   -0.43760E-04   132   0.798E-02    0.556E-02
DAV:   4    -0.102474851849E+03   -0.31611E-04   -0.13530E-04   132   0.483E-02    0.129E-02
DAV:   5    -0.102474851687E+03    0.16258E-06   -0.32281E-05   132   0.210E-02    0.889E-03
DAV:   6    -0.102474853422E+03   -0.17358E-05   -0.60779E-06   132   0.765E-03    0.454E-03
DAV:   7    -0.102474857419E+03   -0.39966E-05   -0.81809E-07   108   0.383E-03    0.172E-03
DAV:   8    -0.102474863064E+03   -0.56449E-05   -0.70235E-07   108   0.340E-03    0.962E-04
DAV:   9    -0.102474871762E+03   -0.86984E-05   -0.61763E-07   108   0.309E-03    0.447E-04
DAV:  10    -0.102474876436E+03   -0.46734E-05   -0.38982E-07   108   0.196E-03    0.378E-04
DAV:  11    -0.102474877905E+03   -0.14698E-05   -0.47300E-08   120   0.840E-04    0.331E-04
DAV:  12    -0.102474881606E+03   -0.37002E-05   -0.93286E-08   108   0.796E-04    0.160E-04
DAV:  13    -0.102474883579E+03   -0.19731E-05   -0.67005E-08   108   0.554E-04    0.187E-04
DAV:  14    -0.102474884419E+03   -0.84062E-06   -0.67572E-09   108   0.347E-04
  29 F= -.10247488E+03 E0= -.10247488E+03  d E =-.104393E-10
       N       E                     dE             d eps       ncg     rms          rms(c)
DAV:   1    -0.102472060498E+03    0.28231E-02   -0.17068E-01    96   0.113E+00    0.145E-01
DAV:   2    -0.102473016561E+03   -0.95606E-03   -0.97360E-03   132   0.310E-01    0.948E-02
DAV:   3    -0.102473001978E+03    0.14583E-04   -0.22989E-04   144   0.599E-02    0.490E-02
DAV:   4    -0.102473009655E+03   -0.76764E-05   -0.11258E-04   132   0.412E-02    0.101E-02
DAV:   5    -0.102473005952E+03    0.37024E-05   -0.27373E-05   132   0.191E-02    0.748E-03
DAV:   6    -0.102473005603E+03    0.34942E-06   -0.48542E-06   132   0.660E-03
  30 F= -.10247301E+03 E0= -.10247301E+03  d E =-.623455E-11
       N       E                     dE             d eps       ncg     rms          rms(c)
DAV:   1    -0.102470772654E+03    0.22333E-02   -0.35603E-01    96   0.166E+00    0.250E-01
DAV:   2    -0.102473330789E+03   -0.25581E-02   -0.25765E-02   132   0.525E-01    0.176E-01
DAV:   3    -0.102473236739E+03    0.94049E-04   -0.54994E-04   144   0.952E-02    0.959E-02
DAV:   4    -0.102473238817E+03   -0.20779E-05   -0.40140E-04   120   0.709E-02    0.170E-02
DAV:   5    -0.102473227857E+03    0.10960E-04   -0.85430E-05   144   0.315E-02    0.120E-02
DAV:   6    -0.102473228859E+03   -0.10023E-05   -0.16557E-05   132   0.106E-02    0.734E-03
DAV:   7    -0.102473247032E+03   -0.18173E-04   -0.20135E-06   132   0.468E-03    0.326E-03
DAV:   8    -0.102473274895E+03   -0.27863E-04   -0.36683E-06   120   0.499E-03    0.119E-03
DAV:   9    -0.102473292014E+03   -0.17119E-04   -0.20225E-06   120   0.334E-03    0.174E-03
DAV:  10    -0.102473310197E+03   -0.18183E-04   -0.14466E-06    96   0.277E-03    0.499E-04
DAV:  11    -0.102473316137E+03   -0.59398E-05   -0.33360E-07   108   0.139E-03    0.320E-04
DAV:  12    -0.102473321396E+03   -0.52593E-05   -0.21771E-07   108   0.991E-04    0.185E-04
DAV:  13    -0.102473323788E+03   -0.23924E-05   -0.89855E-08   108   0.608E-04    0.178E-04
DAV:  14    -0.102473325482E+03   -0.16932E-05   -0.40702E-08   108   0.461E-04    0.670E-05
DAV:  15    -0.102473326028E+03   -0.54611E-06   -0.49171E-09   120   0.226E-04
  31 F= -.10247333E+03 E0= -.10247333E+03  d E =-.707329E-11
       N       E                     dE             d eps       ncg     rms          rms(c)
DAV:   1    -0.102473344875E+03   -0.19394E-04   -0.17052E-01    96   0.128E+00    0.164E-01
DAV:   2    -0.102474590173E+03   -0.12453E-02   -0.12847E-02   132   0.397E-01    0.109E-01
DAV:   3    -0.102474544597E+03    0.45576E-04   -0.31760E-04   156   0.726E-02    0.615E-02
DAV:   4    -0.102474535137E+03    0.94607E-05   -0.16621E-04   132   0.507E-02    0.108E-02
DAV:   5    -0.102474529815E+03    0.53218E-05   -0.45625E-05   144   0.245E-02    0.908E-03
DAV:   6    -0.102474528319E+03    0.14962E-05   -0.64495E-06   132   0.799E-03    0.616E-03
DAV:   7    -0.102474535072E+03   -0.67534E-05   -0.19072E-06   132   0.535E-03    0.238E-03
DAV:   8    -0.102474548639E+03   -0.13567E-04   -0.14542E-06   120   0.466E-03    0.113E-03
DAV:   9    -0.102474562242E+03   -0.13604E-04   -0.10825E-06   120   0.317E-03    0.145E-03
DAV:  10    -0.102474571545E+03   -0.93030E-05   -0.32783E-07   108   0.171E-03    0.705E-04
DAV:  11    -0.102474579080E+03   -0.75343E-05   -0.34109E-07   108   0.129E-03    0.217E-04
DAV:  12    -0.102474583996E+03   -0.49167E-05   -0.16944E-07   108   0.863E-04    0.257E-04
DAV:  13    -0.102474586473E+03   -0.24765E-05   -0.51013E-08   108   0.525E-04    0.137E-04
DAV:  14    -0.102474587736E+03   -0.12631E-05   -0.18074E-08   108   0.344E-04    0.573E-05
DAV:  15    -0.102474588522E+03   -0.78593E-06   -0.53756E-09   108   0.243E-04
  32 F= -.10247459E+03 E0= -.10247459E+03  d E =-.846947E-11
       N       E                     dE             d eps       ncg     rms          rms(c)
DAV:   1    -0.102472881806E+03    0.17059E-02   -0.33252E-01    96   0.172E+00    0.226E-01
DAV:   2    -0.102474582575E+03   -0.17008E-02   -0.17496E-02   132   0.461E-01    0.129E-01
DAV:   3    -0.102474558950E+03    0.23625E-04   -0.45551E-04   132   0.866E-02    0.687E-02
DAV:   4    -0.102474572362E+03   -0.13411E-04   -0.17653E-04   132   0.558E-02    0.138E-02
DAV:   5    -0.102474566545E+03    0.58170E-05   -0.47971E-05   132   0.264E-02    0.101E-02
DAV:   6    -0.102474566226E+03    0.31830E-06   -0.76640E-06   132   0.918E-03
  33 F= -.10247457E+03 E0= -.10247457E+03  d E =-.449141E-11
       N       E                     dE             d eps       ncg     rms          rms(c)
DAV:   1    -0.102472616838E+03    0.19497E-02   -0.17147E-01    96   0.130E+00    0.161E-01
DAV:   2    -0.102473703899E+03   -0.10871E-02   -0.10919E-02   132   0.377E-01    0.112E-01
DAV:   3    -0.102473691688E+03    0.12211E-04   -0.24804E-04   132   0.674E-02    0.569E-02
DAV:   4    -0.102473694533E+03   -0.28442E-05   -0.12822E-04   132   0.426E-02    0.105E-02
DAV:   5    -0.102473688600E+03    0.59329E-05   -0.20171E-05   132   0.174E-02    0.685E-03
DAV:   6    -0.102473690135E+03   -0.15349E-05   -0.58443E-06   132   0.773E-03    0.412E-03
DAV:   7    -0.102473699934E+03   -0.97994E-05   -0.10209E-06   108   0.411E-03    0.157E-03
DAV:   8    -0.102473710385E+03   -0.10451E-04   -0.11329E-06   120   0.367E-03    0.851E-04
DAV:   9    -0.102473720997E+03   -0.10612E-04   -0.89963E-07    96   0.270E-03    0.788E-04
DAV:  10    -0.102473729580E+03   -0.85827E-05   -0.77906E-07   120   0.191E-03    0.373E-04
DAV:  11    -0.102473732478E+03   -0.28980E-05   -0.10007E-07   108   0.857E-04    0.184E-04
DAV:  12    -0.102473735338E+03   -0.28598E-05   -0.12017E-07   108   0.746E-04    0.127E-04
DAV:  13    -0.102473736515E+03   -0.11771E-05   -0.36315E-08   108   0.423E-04    0.134E-04
DAV:  14    -0.102473737451E+03   -0.93592E-06   -0.17690E-08   108   0.334E-04
  34 F= -.10247374E+03 E0= -.10247374E+03  d E =-.492754E-11
       N       E                     dE             d eps       ncg     rms          rms(c)
DAV:   1    -0.102471717933E+03    0.20186E-02   -0.34223E-01    96   0.186E+00    0.255E-01
DAV:   2    -0.102473768120E+03   -0.20502E-02   -0.21228E-02   132   0.518E-01    0.156E-01
DAV:   3    -0.102473678539E+03    0.89581E-04   -0.50406E-04   132   0.920E-02    0.815E-02
DAV:   4    -0.102473664943E+03    0.13596E-04   -0.26370E-04   132   0.608E-02    0.154E-02
DAV:   5    -0.102473652836E+03    0.12107E-04   -0.44728E-05   132   0.261E-02    0.108E-02
DAV:   6    -0.102473653261E+03   -0.42546E-06   -0.10307E-05   132   0.106E-02    0.655E-03
DAV:   7    -0.102473668097E+03   -0.14836E-04   -0.24043E-06   132   0.700E-03    0.222E-03
DAV:   8    -0.102473686681E+03   -0.18584E-04   -0.21151E-06   132   0.594E-03    0.173E-03
DAV:   9    -0.102473707363E+03   -0.20683E-04   -0.12315E-06   108   0.349E-03    0.133E-03
DAV:  10    -0.102473727489E+03   -0.20126E-04   -0.12731E-06   120   0.244E-03    0.533E-04
DAV:  11    -0.102473734324E+03   -0.68347E-05   -0.14643E-07   108   0.108E-03    0.338E-04
DAV:  12    -0.102473744365E+03   -0.10041E-04   -0.30369E-07   108   0.116E-03    0.257E-04
DAV:  13    -0.102473747316E+03   -0.29511E-05   -0.54560E-08   108   0.558E-04    0.217E-04
DAV:  14    -0.102473749919E+03   -0.26030E-05   -0.26687E-08   108   0.413E-04    0.854E-05
DAV:  15    -0.102473751068E+03   -0.11496E-05   -0.92236E-09   108   0.265E-04    0.624E-05
DAV:  16    -0.102473751918E+03   -0.84935E-06   -0.12604E-09   108   0.201E-04
  35 F= -.10247375E+03 E0= -.10247375E+03  d E =-.578978E-11
       N       E                     dE             d eps       ncg     rms          rms(c)
DAV:   1    -0.102471469062E+03    0.22820E-02   -0.17547E-01    96   0.129E+00    0.189E-01
DAV:   2    -0.102472788360E+03   -0.13193E-02   -0.13503E-02   132   0.408E-01    0.126E-01
DAV:   3    -0.102472716949E+03    0.71410E-04   -0.28365E-04   132   0.733E-02    0.706E-02
DAV:   4    -0.102472714665E+03    0.22845E-05   -0.22401E-04   132   0.594E-02    0.129E-02
DAV:   5    -0.102472709617E+03    0.50479E-05   -0.56824E-05   132   0.280E-02    0.945E-03
DAV:   6    -0.102472710341E+03   -0.72383E-06   -0.86415E-06   132   0.850E-03
  36 F= -.10247271E+03 E0= -.10247271E+03  d E =-.575544E-11
       N       E                     dE             d eps       ncg     rms          rms(c)
DAV:   1    -0.102470909185E+03    0.18004E-02   -0.34732E-01    96   0.182E+00    0.249E-01
DAV:   2    -0.102473571751E+03   -0.26626E-02   -0.26772E-02   132   0.583E-01    0.180E-01
DAV:   3    -0.102473460004E+03    0.11175E-03   -0.60168E-04   144   0.107E-01    0.971E-02
DAV:   4    -0.102473477011E+03   -0.17007E-04   -0.41522E-04   132   0.797E-02    0.170E-02
DAV:   5    -0.102473468188E+03    0.88232E-05   -0.93369E-05   144   0.358E-02    0.125E-02
DAV:   6    -0.102473471231E+03   -0.30434E-05   -0.15753E-05   132   0.112E-02    0.799E-03
DAV:   7    -0.102473490918E+03   -0.19687E-04   -0.21002E-06   132   0.497E-03    0.340E-03
DAV:   8    -0.102473515104E+03   -0.24186E-04   -0.32515E-06   132   0.553E-03    0.126E-03
DAV:   9    -0.102473533346E+03   -0.18242E-04   -0.23925E-06   132   0.394E-03    0.198E-03
DAV:  10    -0.102473549895E+03   -0.16549E-04   -0.13392E-06   108   0.290E-03    0.670E-04
DAV:  11    -0.102473555203E+03   -0.53075E-05   -0.28768E-07   108   0.139E-03    0.354E-04
DAV:  12    -0.102473561474E+03   -0.62717E-05   -0.34273E-07   108   0.120E-03    0.202E-04
DAV:  13    -0.102473563119E+03   -0.16448E-05   -0.70249E-08   108   0.554E-04    0.288E-04
DAV:  14    -0.102473564795E+03   -0.16757E-05   -0.35283E-08   108   0.472E-04    0.110E-04
DAV:  15    -0.102473565422E+03   -0.62669E-06   -0.12385E-08   108   0.308E-04
  37 F= -.10247357E+03 E0= -.10247357E+03  d E =-.508030E-11
       N       E                     dE             d eps       ncg     rms          rms(c)
DAV:   1    -0.102472151635E+03    0.14132E-02   -0.18303E-01    96   0.136E+00    0.166E-01
DAV:   2    -0.102473652587E+03   -0.15010E-02   -0.16397E-02   132   0.430E-01    0.115E-01
DAV:   3    -0.102473590349E+03    0.62238E-04   -0.29384E-04   144   0.679E-02    0.692E-02
DAV:   4    -0.102473568206E+03    0.22143E-04   -0.16851E-04   132   0.529E-02    0.107E-02
DAV:   5    -0.102473561649E+03    0.65575E-05   -0.49141E-05   132   0.257E-02    0.810E-03
DAV:   6    -0.102473558503E+03    0.31457E-05   -0.63432E-06   132   0.829E-03    0.547E-03
DAV:   7    -0.102473566126E+03   -0.76233E-05   -0.26540E-06   132   0.541E-03    0.205E-03
DAV:   8    -0.102473581610E+03   -0.15484E-04   -0.11181E-06   108   0.367E-03    0.108E-03
DAV:   9    -0.102473595427E+03   -0.13817E-04   -0.10256E-06   108   0.263E-03    0.131E-03
DAV:  10    -0.102473609813E+03   -0.14386E-04   -0.69088E-07   108   0.211E-03    0.303E-04
DAV:  11    -0.102473614760E+03   -0.49475E-05   -0.18210E-07   108   0.102E-03    0.319E-04
DAV:  12    -0.102473620436E+03   -0.56762E-05   -0.15124E-07   108   0.854E-04    0.147E-04
DAV:  13    -0.102473621993E+03   -0.15572E-05   -0.28597E-08   108   0.427E-04    0.116E-04
DAV:  14    -0.102473623903E+03   -0.19100E-05   -0.25008E-08   108   0.359E-04    0.472E-05
DAV:  15    -0.102473624564E+03   -0.66038E-06   -0.28897E-09   108   0.202E-04
  38 F= -.10247362E+03 E0= -.10247362E+03  d E =-.829376E-10
       N       E                     dE             d eps       ncg     rms          rms(c)
DAV:   1    -0.102472367514E+03    0.12564E-02   -0.40618E-01   132   0.181E+00    0.203E-01
DAV:   2    -0.102473801976E+03   -0.14345E-02   -0.17742E-02   132   0.430E-01    0.128E-01
DAV:   3    -0.102473679957E+03    0.12202E-03   -0.28544E-04   132   0.614E-02    0.645E-02
DAV:   4    -0.102473622241E+03    0.57716E-04   -0.13585E-04   120   0.433E-02    0.116E-02
DAV:   5    -0.102473616437E+03    0.58043E-05   -0.26673E-05   132   0.188E-02    0.729E-03
DAV:   6    -0.102473629750E+03   -0.13314E-04   -0.11384E-05   132   0.944E-03    0.395E-03
DAV:   7    -0.102473654316E+03   -0.24566E-04   -0.18247E-06   120   0.420E-03    0.206E-03
DAV:   8    -0.102473691668E+03   -0.37352E-04   -0.40350E-06   120   0.447E-03    0.123E-03
DAV:   9    -0.102473715119E+03   -0.23450E-04   -0.17404E-06   120   0.297E-03    0.803E-04
DAV:  10    -0.102473735839E+03   -0.20720E-04   -0.17652E-06   120   0.265E-03    0.371E-04
DAV:  11    -0.102473743133E+03   -0.72945E-05   -0.24429E-07   108   0.118E-03    0.311E-04
DAV:  12    -0.102473749598E+03   -0.64647E-05   -0.34056E-07    96   0.116E-03    0.130E-04
DAV:  13    -0.102473750817E+03   -0.12188E-05   -0.32324E-08   120   0.453E-04    0.906E-05
DAV:  14    -0.102473752202E+03   -0.13857E-05   -0.16285E-08    96   0.349E-04    0.485E-05
DAV:  15    -0.102473752729E+03   -0.52635E-06   -0.27614E-09   108   0.211E-04
  39 F= -.10247375E+03 E0= -.10247375E+03  d E =-.999984E-11
       N       E                     dE             d eps       ncg     rms          rms(c)
DAV:   1    -0.102473409439E+03    0.34276E-03   -0.20242E-01   108   0.135E+00    0.148E-01
DAV:   2    -0.102474190489E+03   -0.78105E-03   -0.95174E-03   120   0.313E-01    0.788E-02
DAV:   3    -0.102474148305E+03    0.42184E-04   -0.15991E-04   132   0.438E-02    0.420E-02
DAV:   4    -0.102474119871E+03    0.28433E-04   -0.49518E-05   132   0.270E-02    0.830E-03
DAV:   5    -0.102474113299E+03    0.65722E-05   -0.10616E-05   132   0.127E-02    0.514E-03
DAV:   6    -0.102474113866E+03   -0.56707E-06   -0.36099E-06   132   0.674E-03
  40 F= -.10247411E+03 E0= -.10247411E+03  d E =-.791897E-11
       N       E                     dE             d eps       ncg     rms          rms(c)
DAV:   1    -0.102472373054E+03    0.17402E-02   -0.40347E-01    96   0.189E+00    0.216E-01
DAV:   2    -0.102473948891E+03   -0.15758E-02   -0.18956E-02   132   0.444E-01    0.115E-01
DAV:   3    -0.102473876570E+03    0.72321E-04   -0.33884E-04   144   0.623E-02    0.601E-02
DAV:   4    -0.102473816633E+03    0.59936E-04   -0.82369E-05   132   0.344E-02    0.118E-02
DAV:   5    -0.102473808094E+03    0.85394E-05   -0.14734E-05   132   0.157E-02    0.660E-03
DAV:   6    -0.102473821242E+03   -0.13148E-04   -0.75642E-06   132   0.947E-03    0.331E-03
DAV:   7    -0.102473844487E+03   -0.23244E-04   -0.36380E-06   132   0.617E-03    0.204E-03
DAV:   8    -0.102473871554E+03   -0.27067E-04   -0.21669E-06   120   0.374E-03    0.101E-03
DAV:   9    -0.102473892820E+03   -0.21266E-04   -0.19619E-06   120   0.315E-03    0.784E-04
DAV:  10    -0.102473910911E+03   -0.18092E-04   -0.17598E-06   120   0.263E-03    0.301E-04
DAV:  11    -0.102473917383E+03   -0.64721E-05   -0.31701E-07   108   0.127E-03    0.264E-04
DAV:  12    -0.102473921471E+03   -0.40877E-05   -0.18928E-07   108   0.854E-04    0.106E-04
DAV:  13    -0.102473922855E+03   -0.13843E-05   -0.47216E-08   108   0.457E-04    0.642E-05
DAV:  14    -0.102473923678E+03   -0.82289E-06   -0.95980E-09   108   0.289E-04
  41 F= -.10247392E+03 E0= -.10247392E+03  d E =-.488737E-11
       N       E                     dE             d eps       ncg     rms          rms(c)
DAV:   1    -0.102474204117E+03   -0.28126E-03   -0.20346E-01   120   0.133E+00    0.142E-01
DAV:   2    -0.102474957049E+03   -0.75293E-03   -0.90487E-03   132   0.295E-01    0.705E-02
DAV:   3    -0.102474931575E+03    0.25475E-04   -0.18584E-04   144   0.475E-02    0.368E-02
DAV:   4    -0.102474919040E+03    0.12535E-04   -0.40247E-05   132   0.288E-02    0.812E-03
DAV:   5    -0.102474915551E+03    0.34882E-05   -0.13969E-05   132   0.143E-02    0.555E-03
DAV:   6    -0.102474916224E+03   -0.67296E-06   -0.23441E-06   132   0.491E-03
  42 F= -.10247492E+03 E0= -.10247492E+03  d E =-.750431E-10
       N       E                     dE             d eps       ncg     rms          rms(c)
DAV:   1    -0.102473430680E+03    0.14849E-02   -0.40841E-01    96   0.181E+00    0.181E-01
DAV:   2    -0.102474853602E+03   -0.14229E-02   -0.17047E-02   120   0.394E-01    0.941E-02
DAV:   3    -0.102474823987E+03    0.29616E-04   -0.37586E-04   144   0.660E-02    0.493E-02
DAV:   4    -0.102474806519E+03    0.17467E-04   -0.81964E-05   132   0.395E-02    0.106E-02
DAV:   5    -0.102474803117E+03    0.34024E-05   -0.24813E-05   132   0.193E-02    0.767E-03
DAV:   6    -0.102474805561E+03   -0.24439E-05   -0.43974E-06   132   0.707E-03    0.481E-03
DAV:   7    -0.102474812980E+03   -0.74188E-05   -0.84904E-07   108   0.433E-03    0.176E-03
DAV:   8    -0.102474823144E+03   -0.10164E-04   -0.10844E-06   108   0.386E-03    0.116E-03
DAV:   9    -0.102474840511E+03   -0.17367E-04   -0.14296E-06   120   0.370E-03    0.595E-04
DAV:  10    -0.102474847800E+03   -0.72888E-05   -0.43794E-07   108   0.209E-03    0.549E-04
DAV:  11    -0.102474850779E+03   -0.29787E-05   -0.71085E-08   108   0.849E-04    0.450E-04
DAV:  12    -0.102474857373E+03   -0.65942E-05   -0.24015E-07   108   0.109E-03    0.226E-04
DAV:  13    -0.102474858793E+03   -0.14203E-05   -0.35438E-08   108   0.486E-04    0.218E-04
DAV:  14    -0.102474860517E+03   -0.17233E-05   -0.27300E-08   108   0.414E-04    0.552E-05
DAV:  15    -0.102474861289E+03   -0.77265E-06   -0.77676E-09   108   0.262E-04
  43 F= -.10247486E+03 E0= -.10247486E+03  d E =-.157294E-10
       N       E                     dE             d eps       ncg     rms          rms(c)
DAV:   1    -0.102473856702E+03    0.10038E-02   -0.20073E-01    96   0.132E+00    0.150E-01
DAV:   2    -0.102474912769E+03   -0.10561E-02   -0.12604E-02   132   0.321E-01    0.726E-02
DAV:   3    -0.102474880139E+03    0.32630E-04   -0.29327E-04   144   0.560E-02    0.407E-02
DAV:   4    -0.102474858309E+03    0.21830E-04   -0.53331E-05   132   0.316E-02    0.101E-02
DAV:   5    -0.102474853484E+03    0.48246E-05   -0.17876E-05   132   0.163E-02    0.618E-03
DAV:   6    -0.102474854837E+03   -0.13528E-05   -0.24609E-06   132   0.573E-03    0.403E-03
DAV:   7    -0.102474860776E+03   -0.59388E-05   -0.70845E-07   108   0.344E-03    0.151E-03
DAV:   8    -0.102474868866E+03   -0.80906E-05   -0.78917E-07   108   0.315E-03    0.951E-04
DAV:   9    -0.102474881013E+03   -0.12146E-04   -0.81408E-07   108   0.264E-03    0.480E-04
DAV:  10    -0.102474886800E+03   -0.57877E-05   -0.38142E-07   108   0.159E-03    0.459E-04
DAV:  11    -0.102474890072E+03   -0.32715E-05   -0.79886E-08   108   0.822E-04    0.222E-04
DAV:  12    -0.102474893321E+03   -0.32494E-05   -0.11606E-07   108   0.748E-04    0.170E-04
DAV:  13    -0.102474894490E+03   -0.11689E-05   -0.21453E-08   108   0.365E-04    0.109E-04
DAV:  14    -0.102474895699E+03   -0.12087E-05   -0.23311E-08   108   0.345E-04    0.356E-05
DAV:  15    -0.102474896158E+03   -0.45933E-06   -0.30558E-09   108   0.200E-04
  44 F= -.10247490E+03 E0= -.10247490E+03  d E =-.860795E-10
       N       E                     dE             d eps       ncg     rms          rms(c)
DAV:   1    -0.102473072892E+03    0.18228E-02   -0.40989E-01    96   0.172E+00    0.227E-01
DAV:   2    -0.102474603417E+03   -0.15305E-02   -0.18261E-02   132   0.392E-01    0.104E-01
DAV:   3    -0.102474507904E+03    0.95512E-04   -0.36951E-04   132   0.678E-02    0.558E-02
DAV:   4    -0.102474476803E+03    0.31102E-04   -0.12804E-04   132   0.425E-02    0.133E-02
DAV:   5    -0.102474470844E+03    0.59590E-05   -0.24673E-05   132   0.191E-02    0.828E-03
DAV:   6    -0.102474474260E+03   -0.34162E-05   -0.52475E-06   132   0.786E-03    0.426E-03
DAV:   7    -0.102474484072E+03   -0.98120E-05   -0.11082E-06   120   0.370E-03    0.155E-03
DAV:   8    -0.102474494976E+03   -0.10904E-04   -0.69735E-07   120   0.270E-03    0.909E-04
DAV:   9    -0.102474507791E+03   -0.12815E-04   -0.83292E-07   120   0.240E-03    0.539E-04
DAV:  10    -0.102474519433E+03   -0.11642E-04   -0.10241E-06   120   0.220E-03    0.328E-04
DAV:  11    -0.102474522417E+03   -0.29838E-05   -0.86836E-08   108   0.969E-04    0.227E-04
DAV:  12    -0.102474525635E+03   -0.32185E-05   -0.10657E-07   108   0.739E-04    0.130E-04
DAV:  13    -0.102474527373E+03   -0.17376E-05   -0.51005E-08   108   0.474E-04    0.881E-05
DAV:  14    -0.102474528368E+03   -0.99585E-06   -0.11600E-08   108   0.279E-04
  45 F= -.10247453E+03 E0= -.10247453E+03  d E =-.741814E-11
       N       E                     dE             d eps       ncg     rms          rms(c)
DAV:   1    -0.102473845468E+03    0.68190E-03   -0.20497E-01    96   0.123E+00    0.157E-01
DAV:   2    -0.102474472224E+03   -0.62676E-03   -0.77077E-03   132   0.252E-01    0.649E-02
DAV:   3    -0.102474435641E+03    0.36583E-04   -0.19531E-04   144   0.474E-02    0.335E-02
DAV:   4    -0.102474427033E+03    0.86077E-05   -0.42890E-05   132   0.254E-02    0.101E-02
DAV:   5    -0.102474424468E+03    0.25652E-05   -0.90185E-06   132   0.122E-02    0.539E-03
DAV:   6    -0.102474424694E+03   -0.22568E-06   -0.22427E-06   132   0.534E-03
  46 F= -.10247442E+03 E0= -.10247442E+03  d E =-.589981E-11
       N       E                     dE             d eps       ncg     rms          rms(c)
DAV:   1    -0.102472508833E+03    0.19156E-02   -0.39635E-01    96   0.171E+00    0.218E-01
DAV:   2    -0.102474070827E+03   -0.15620E-02   -0.18760E-02   132   0.393E-01    0.120E-01
DAV:   3    -0.102473949208E+03    0.12162E-03   -0.33750E-04   132   0.669E-02    0.626E-02
DAV:   4    -0.102473913384E+03    0.35824E-04   -0.14979E-04   132   0.443E-02    0.129E-02
DAV:   5    -0.102473901399E+03    0.11985E-04   -0.24324E-05   132   0.185E-02    0.772E-03
DAV:   6    -0.102473901561E+03   -0.16233E-06   -0.61865E-06   132   0.765E-03
  47 F= -.10247390E+03 E0= -.10247390E+03  d E =-.599558E-11
       N       E                     dE             d eps       ncg     rms          rms(c)
DAV:   1    -0.102474569138E+03   -0.66774E-03   -0.20442E-01    96   0.122E+00    0.157E-01
DAV:   2    -0.102475283051E+03   -0.71391E-03   -0.84032E-03   132   0.270E-01    0.731E-02
DAV:   3    -0.102475255732E+03    0.27319E-04   -0.17667E-04   132   0.469E-02    0.384E-02
DAV:   4    -0.102475263811E+03   -0.80789E-05   -0.58457E-05   144   0.286E-02    0.991E-03
DAV:   5    -0.102475265607E+03   -0.17961E-05   -0.10111E-05   132   0.125E-02    0.571E-03
DAV:   6    -0.102475266976E+03   -0.13692E-05   -0.22487E-06   120   0.551E-03    0.265E-03
DAV:   7    -0.102475269071E+03   -0.20947E-05   -0.55504E-07   108   0.289E-03    0.927E-04
DAV:   8    -0.102475271104E+03   -0.20327E-05   -0.21874E-07   108   0.185E-03    0.476E-04
DAV:   9    -0.102475273677E+03   -0.25733E-05   -0.16502E-07   108   0.143E-03    0.268E-04
DAV:  10    -0.102475276008E+03   -0.23309E-05   -0.15047E-07   108   0.112E-03    0.161E-04
DAV:  11    -0.102475277139E+03   -0.11312E-05   -0.37037E-08   108   0.631E-04    0.136E-04
DAV:  12    -0.102475278043E+03   -0.90383E-06   -0.18823E-08   108   0.398E-04
  48 F= -.10247528E+03 E0= -.10247528E+03  d E =-.455301E-11
       N       E                     dE             d eps       ncg     rms          rms(c)
DAV:   1    -0.102473780289E+03    0.14969E-02   -0.41266E-01    96   0.174E+00    0.221E-01
DAV:   2    -0.102474976311E+03   -0.11960E-02   -0.14691E-02   132   0.355E-01    0.895E-02
DAV:   3    -0.102474908929E+03    0.67382E-04   -0.37508E-04   132   0.673E-02    0.461E-02
DAV:   4    -0.102474894768E+03    0.14161E-04   -0.86018E-05   132   0.374E-02    0.140E-02
DAV:   5    -0.102474892080E+03    0.26880E-05   -0.19113E-05   144   0.176E-02    0.835E-03
DAV:   6    -0.102474892844E+03   -0.76412E-06   -0.36793E-06   132   0.706E-03
  49 F= -.10247489E+03 E0= -.10247489E+03  d E =-.638797E-11
       N       E                     dE             d eps       ncg     rms          rms(c)
DAV:   1    -0.102474005722E+03    0.88636E-03   -0.20092E-01    96   0.128E+00    0.153E-01
DAV:   2    -0.102475001376E+03   -0.99565E-03   -0.11565E-02   132   0.286E-01    0.666E-02
DAV:   3    -0.102474985159E+03    0.16217E-04   -0.25166E-04   144   0.492E-02    0.361E-02
DAV:   4    -0.102474983253E+03    0.19064E-05   -0.45488E-05   132   0.239E-02    0.105E-02
DAV:   5    -0.102474981584E+03    0.16689E-05   -0.69194E-06   132   0.105E-02    0.540E-03
DAV:   6    -0.102474982193E+03   -0.60909E-06   -0.21954E-06   120   0.571E-03
  50 F= -.10247498E+03 E0= -.10247498E+03  d E =-.158689E-10
       N       E                     dE             d eps       ncg     rms          rms(c)
DAV:   1    -0.102473399492E+03    0.15821E-02   -0.40778E-01   108   0.166E+00    0.187E-01
DAV:   2    -0.102474845346E+03   -0.14459E-02   -0.16992E-02   132   0.367E-01    0.924E-02
DAV:   3    -0.102474791697E+03    0.53649E-04   -0.31233E-04   144   0.614E-02    0.480E-02
DAV:   4    -0.102474765559E+03    0.26138E-04   -0.86591E-05   144   0.384E-02    0.114E-02
DAV:   5    -0.102474758718E+03    0.68406E-05   -0.22461E-05   132   0.182E-02    0.679E-03
DAV:   6    -0.102474760182E+03   -0.14643E-05   -0.44535E-06   132   0.708E-03    0.401E-03
DAV:   7    -0.102474765902E+03   -0.57201E-05   -0.68627E-07   108   0.304E-03    0.158E-03
DAV:   8    -0.102474773136E+03   -0.72341E-05   -0.64059E-07   120   0.264E-03    0.873E-04
DAV:   9    -0.102474785064E+03   -0.11928E-04   -0.98206E-07   120   0.281E-03    0.456E-04
DAV:  10    -0.102474791478E+03   -0.64144E-05   -0.46891E-07   108   0.183E-03    0.438E-04
DAV:  11    -0.102474794177E+03   -0.26989E-05   -0.10181E-07   108   0.934E-04    0.227E-04
DAV:  12    -0.102474797480E+03   -0.33023E-05   -0.13700E-07   108   0.801E-04    0.191E-04
DAV:  13    -0.102474798644E+03   -0.11643E-05   -0.33278E-08   108   0.411E-04    0.131E-04
DAV:  14    -0.102474799814E+03   -0.11698E-05   -0.27703E-08   108   0.360E-04    0.441E-05
DAV:  15    -0.102474800253E+03   -0.43961E-06   -0.30192E-09   108   0.212E-04
  51 F= -.10247480E+03 E0= -.10247480E+03  d E =-.874319E-10
       N       E                     dE             d eps       ncg     rms          rms(c)
DAV:   1    -0.102473359115E+03    0.14407E-02   -0.20040E-01    96   0.119E+00    0.137E-01
DAV:   2    -0.102474110593E+03   -0.75148E-03   -0.92593E-03   132   0.267E-01    0.833E-02
DAV:   3    -0.102474047702E+03    0.62891E-04   -0.14857E-04   132   0.445E-02    0.419E-02
DAV:   4    -0.102474020233E+03    0.27469E-04   -0.66911E-05   132   0.305E-02    0.802E-03
DAV:   5    -0.102474013718E+03    0.65156E-05   -0.12824E-05   132   0.133E-02    0.523E-03
DAV:   6    -0.102474014890E+03   -0.11726E-05   -0.35141E-06   132   0.545E-03    0.276E-03
DAV:   7    -0.102474022129E+03   -0.72388E-05   -0.72459E-07   108   0.284E-03    0.124E-03
DAV:   8    -0.102474034169E+03   -0.12040E-04   -0.85478E-07   120   0.231E-03    0.837E-04
DAV:   9    -0.102474046526E+03   -0.12357E-04   -0.63911E-07   120   0.178E-03    0.482E-04
DAV:  10    -0.102474056166E+03   -0.96399E-05   -0.44520E-07   108   0.134E-03    0.293E-04
DAV:  11    -0.102474059721E+03   -0.35550E-05   -0.85142E-08   108   0.682E-04    0.170E-04
DAV:  12    -0.102474064151E+03   -0.44300E-05   -0.14213E-07    96   0.742E-04    0.840E-05
DAV:  13    -0.102474065324E+03   -0.11733E-05   -0.18137E-08   108   0.343E-04    0.633E-05
DAV:  14    -0.102474066438E+03   -0.11144E-05   -0.89159E-09   108   0.255E-04    0.299E-05
DAV:  15    -0.102474066865E+03   -0.42637E-06    0.18108E-09   108   0.150E-04
  52 F= -.10247407E+03 E0= -.10247407E+03  d E =-.548602E-11
       N       E                     dE             d eps       ncg     rms          rms(c)
DAV:   1    -0.102473066758E+03    0.99968E-03   -0.40379E-01    96   0.166E+00    0.219E-01
DAV:   2    -0.102474482311E+03   -0.14156E-02   -0.17389E-02   120   0.376E-01    0.111E-01
DAV:   3    -0.102474378248E+03    0.10406E-03   -0.33529E-04   156   0.640E-02    0.566E-02
DAV:   4    -0.102474330119E+03    0.48129E-04   -0.10187E-04   132   0.384E-02    0.117E-02
DAV:   5    -0.102474323447E+03    0.66720E-05   -0.21026E-05   132   0.171E-02    0.692E-03
DAV:   6    -0.102474330916E+03   -0.74693E-05   -0.56017E-06   132   0.706E-03    0.379E-03
DAV:   7    -0.102474349375E+03   -0.18459E-04   -0.20076E-06   132   0.412E-03    0.162E-03
DAV:   8    -0.102474370480E+03   -0.21105E-04   -0.16424E-06   120   0.304E-03    0.102E-03
DAV:   9    -0.102474389037E+03   -0.18557E-04   -0.14918E-06   132   0.256E-03    0.729E-04
DAV:  10    -0.102474404910E+03   -0.15872E-04   -0.14501E-06   120   0.220E-03    0.388E-04
DAV:  11    -0.102474408211E+03   -0.33011E-05   -0.79877E-08   120   0.758E-04    0.290E-04
DAV:  12    -0.102474413967E+03   -0.57565E-05   -0.27008E-07    96   0.106E-03    0.150E-04
DAV:  13    -0.102474415197E+03   -0.12302E-05   -0.43512E-08   108   0.474E-04    0.107E-04
DAV:  14    -0.102474416051E+03   -0.85414E-06   -0.34019E-09   108   0.273E-04
  53 F= -.10247442E+03 E0= -.10247442E+03  d E =-.751611E-11
       N       E                     dE             d eps       ncg     rms          rms(c)
DAV:   1    -0.102474305716E+03    0.10948E-03   -0.20051E-01    96   0.118E+00    0.144E-01
DAV:   2    -0.102475061308E+03   -0.75559E-03   -0.92543E-03   132   0.272E-01    0.824E-02
DAV:   3    -0.102475000250E+03    0.61058E-04   -0.14820E-04   132   0.438E-02    0.426E-02
DAV:   4    -0.102474972807E+03    0.27443E-04   -0.66863E-05   132   0.307E-02    0.825E-03
DAV:   5    -0.102474966444E+03    0.63629E-05   -0.13889E-05   132   0.139E-02    0.530E-03
DAV:   6    -0.102474967529E+03   -0.10851E-05   -0.33673E-06   132   0.534E-03    0.309E-03
DAV:   7    -0.102474974785E+03   -0.72555E-05   -0.69594E-07   108   0.284E-03    0.128E-03
DAV:   8    -0.102474986345E+03   -0.11560E-04   -0.88637E-07   120   0.246E-03    0.883E-04
DAV:   9    -0.102474998208E+03   -0.11863E-04   -0.58675E-07   108   0.184E-03    0.543E-04
DAV:  10    -0.102475007287E+03   -0.90788E-05   -0.49945E-07    96   0.137E-03    0.269E-04
DAV:  11    -0.102475011456E+03   -0.41690E-05   -0.92882E-08   108   0.709E-04    0.177E-04
DAV:  12    -0.102475015463E+03   -0.40073E-05   -0.91987E-08    96   0.632E-04    0.102E-04
DAV:  13    -0.102475016974E+03   -0.15103E-05   -0.21493E-08   108   0.334E-04    0.628E-05
DAV:  14    -0.102475018186E+03   -0.12125E-05   -0.10242E-08   108   0.260E-04    0.351E-05
DAV:  15    -0.102475018632E+03   -0.44589E-06    0.16145E-09   108   0.146E-04
  54 F= -.10247502E+03 E0= -.10247502E+03  d E =-.143765E-10
       N       E                     dE             d eps       ncg     rms          rms(c)
DAV:   1    -0.102473631154E+03    0.13870E-02   -0.41003E-01    96   0.165E+00    0.175E-01
DAV:   2    -0.102474963809E+03   -0.13327E-02   -0.15946E-02   132   0.367E-01    0.897E-02
DAV:   3    -0.102474903888E+03    0.59922E-04   -0.30422E-04   144   0.627E-02    0.455E-02
DAV:   4    -0.102474877551E+03    0.26337E-04   -0.77322E-05   132   0.388E-02    0.103E-02
DAV:   5    -0.102474872824E+03    0.47270E-05   -0.21797E-05   132   0.182E-02    0.716E-03
DAV:   6    -0.102474875937E+03   -0.31127E-05   -0.44106E-06   132   0.717E-03    0.440E-03
DAV:   7    -0.102474884171E+03   -0.82348E-05   -0.76315E-07   108   0.343E-03    0.170E-03
DAV:   8    -0.102474894471E+03   -0.10300E-04   -0.84579E-07   120   0.306E-03    0.102E-03
DAV:   9    -0.102474912661E+03   -0.18189E-04   -0.16627E-06   120   0.356E-03    0.437E-04
DAV:  10    -0.102474919425E+03   -0.67643E-05   -0.48797E-07   108   0.200E-03    0.499E-04
DAV:  11    -0.102474922734E+03   -0.33085E-05   -0.10243E-07   108   0.940E-04    0.293E-04
DAV:  12    -0.102474927307E+03   -0.45733E-05   -0.19727E-07   108   0.966E-04    0.207E-04
DAV:  13    -0.102474928977E+03   -0.16696E-05   -0.57739E-08   108   0.521E-04    0.171E-04
DAV:  14    -0.102474930126E+03   -0.11498E-05   -0.23552E-08   108   0.367E-04    0.477E-05
DAV:  15    -0.102474930597E+03   -0.47051E-06   -0.25025E-09   108   0.216E-04
  55 F= -.10247493E+03 E0= -.10247493E+03  d E =-.747383E-11
       N       E                     dE             d eps       ncg     rms          rms(c)
DAV:   1    -0.102473792483E+03    0.11376E-02   -0.22315E-01    96   0.131E+00    0.140E-01
DAV:   2    -0.102474780801E+03   -0.98832E-03   -0.11251E-02   132   0.299E-01    0.689E-02
DAV:   3    -0.102474762897E+03    0.17904E-04   -0.21918E-04   144   0.480E-02    0.356E-02
DAV:   4    -0.102474756465E+03    0.64316E-05   -0.50499E-05   144   0.255E-02    0.886E-03
DAV:   5    -0.102474752441E+03    0.40243E-05   -0.63781E-06   144   0.969E-03    0.448E-03
DAV:   6    -0.102474753964E+03   -0.15229E-05   -0.28237E-06   120   0.587E-03    0.180E-03
DAV:   7    -0.102474759201E+03   -0.52374E-05   -0.87388E-07   108   0.327E-03    0.956E-04
DAV:   8    -0.102474765899E+03   -0.66972E-05   -0.39733E-07   108   0.180E-03    0.524E-04
DAV:   9    -0.102474772470E+03   -0.65713E-05   -0.38526E-07   108   0.151E-03    0.321E-04
DAV:  10    -0.102474778531E+03   -0.60607E-05   -0.38895E-07   108   0.131E-03    0.173E-04
DAV:  11    -0.102474780810E+03   -0.22798E-05   -0.81860E-08   108   0.688E-04    0.141E-04
DAV:  12    -0.102474782544E+03   -0.17340E-05   -0.35542E-08   108   0.470E-04    0.723E-05
DAV:  13    -0.102474783285E+03   -0.74030E-06   -0.15334E-08   108   0.298E-04
  56 F= -.10247478E+03 E0= -.10247478E+03  d E =-.588806E-10
       N       E                     dE             d eps       ncg     rms          rms(c)
DAV:   1    -0.102473255203E+03    0.15273E-02   -0.40699E-01    96   0.179E+00    0.186E-01
DAV:   2    -0.102474769159E+03   -0.15140E-02   -0.18166E-02   120   0.410E-01    0.983E-02
DAV:   3    -0.102474726053E+03    0.43105E-04   -0.37946E-04   144   0.667E-02    0.517E-02
DAV:   4    -0.102474699182E+03    0.26872E-04   -0.89027E-05   144   0.413E-02    0.108E-02
DAV:   5    -0.102474692740E+03    0.64417E-05   -0.27751E-05   132   0.201E-02    0.764E-03
DAV:   6    -0.102474693883E+03   -0.11432E-05   -0.48424E-06   132   0.733E-03    0.468E-03
DAV:   7    -0.102474700973E+03   -0.70895E-05   -0.91610E-07   108   0.420E-03    0.191E-03
DAV:   8    -0.102474713303E+03   -0.12331E-04   -0.13360E-06   120   0.390E-03    0.123E-03
DAV:   9    -0.102474730807E+03   -0.17503E-04   -0.12483E-06   120   0.345E-03    0.652E-04
DAV:  10    -0.102474739106E+03   -0.82997E-05   -0.44436E-07   108   0.202E-03    0.509E-04
DAV:  11    -0.102474744013E+03   -0.49069E-05   -0.12245E-07   108   0.983E-04    0.328E-04
DAV:  12    -0.102474749981E+03   -0.59680E-05   -0.22320E-07   108   0.976E-04    0.220E-04
DAV:  13    -0.102474751686E+03   -0.17050E-05   -0.33486E-08   108   0.446E-04    0.144E-04
DAV:  14    -0.102474753672E+03   -0.19859E-05   -0.46834E-08   108   0.438E-04    0.502E-05
DAV:  15    -0.102474754272E+03   -0.60032E-06   -0.29716E-09   108   0.221E-04
  57 F= -.10247475E+03 E0= -.10247475E+03  d E =-.170656E-10
       N       E                     dE             d eps       ncg     rms          rms(c)
DAV:   1    -0.102473564137E+03    0.11895E-02   -0.20503E-01   108   0.130E+00    0.134E-01
DAV:   2    -0.102474248547E+03   -0.68441E-03   -0.81919E-03   120   0.267E-01    0.620E-02
DAV:   3    -0.102474234566E+03    0.13981E-04   -0.17657E-04   132   0.470E-02    0.323E-02
DAV:   4    -0.102474228784E+03    0.57817E-05   -0.39687E-05   144   0.297E-02    0.808E-03
DAV:   5    -0.102474227809E+03    0.97570E-06   -0.14499E-05   132   0.144E-02    0.579E-03
DAV:   6    -0.102474228159E+03   -0.35055E-06   -0.14864E-06   120   0.419E-03
  58 F= -.10247423E+03 E0= -.10247423E+03  d E =-.623109E-11
       N       E                     dE             d eps       ncg     rms          rms(c)
DAV:   1    -0.102472396803E+03    0.18310E-02   -0.40376E-01   108   0.188E+00    0.215E-01
DAV:   2    -0.102474004503E+03   -0.16077E-02   -0.19406E-02   120   0.450E-01    0.116E-01
DAV:   3    -0.102473924152E+03    0.80351E-04   -0.36600E-04   144   0.657E-02    0.605E-02
DAV:   4    -0.102473874838E+03    0.49313E-04   -0.94886E-05   132   0.390E-02    0.117E-02
DAV:   5    -0.102473867829E+03    0.70090E-05   -0.21259E-05   132   0.177E-02    0.752E-03
DAV:   6    -0.102473876960E+03   -0.91311E-05   -0.74931E-06   132   0.854E-03    0.402E-03
DAV:   7    -0.102473895816E+03   -0.18856E-04   -0.23550E-06   132   0.491E-03    0.203E-03
DAV:   8    -0.102473923291E+03   -0.27475E-04   -0.28040E-06   120   0.410E-03    0.112E-03
DAV:   9    -0.102473940331E+03   -0.17039E-04   -0.14505E-06   120   0.281E-03    0.928E-04
DAV:  10    -0.102473957097E+03   -0.16766E-04   -0.15006E-06   120   0.247E-03    0.341E-04
DAV:  11    -0.102473963199E+03   -0.61017E-05   -0.28086E-07   108   0.118E-03    0.322E-04
DAV:  12    -0.102473968438E+03   -0.52398E-05   -0.30796E-07   108   0.107E-03    0.123E-04
DAV:  13    -0.102473969787E+03   -0.13484E-05   -0.48484E-08   108   0.474E-04    0.876E-05
DAV:  14    -0.102473970836E+03   -0.10495E-05   -0.13127E-08   108   0.311E-04    0.479E-05
DAV:  15    -0.102473971252E+03   -0.41632E-06   -0.21781E-09   108   0.187E-04
  59 F= -.10247397E+03 E0= -.10247397E+03  d E =-.612212E-11
       N       E                     dE             d eps       ncg     rms          rms(c)
DAV:   1    -0.102472890617E+03    0.10802E-02   -0.20142E-01    96   0.135E+00    0.152E-01
DAV:   2    -0.102473697747E+03   -0.80713E-03   -0.99006E-03   132   0.320E-01    0.795E-02
DAV:   3    -0.102473653837E+03    0.43910E-04   -0.16060E-04   132   0.433E-02    0.421E-02
DAV:   4    -0.102473620942E+03    0.32895E-04   -0.45173E-05   132   0.249E-02    0.839E-03
DAV:   5    -0.102473613295E+03    0.76466E-05   -0.76449E-06   132   0.114E-02    0.474E-03
DAV:   6    -0.102473614720E+03   -0.14250E-05   -0.35456E-06   132   0.733E-03    0.233E-03
DAV:   7    -0.102473623557E+03   -0.88367E-05   -0.20040E-06   132   0.498E-03    0.153E-03
DAV:   8    -0.102473635715E+03   -0.12158E-04   -0.56423E-07   108   0.244E-03    0.812E-04
DAV:   9    -0.102473649114E+03   -0.13399E-04   -0.87999E-07   120   0.214E-03    0.563E-04
DAV:  10    -0.102473660557E+03   -0.11443E-04   -0.48906E-07   108   0.158E-03    0.275E-04
DAV:  11    -0.102473666617E+03   -0.60604E-05   -0.22560E-07   108   0.100E-03    0.204E-04
DAV:  12    -0.102473671220E+03   -0.46033E-05   -0.96570E-08   108   0.650E-04    0.969E-05
DAV:  13    -0.102473672722E+03   -0.15021E-05   -0.17696E-08   108   0.330E-04    0.520E-05
DAV:  14    -0.102473673817E+03   -0.10944E-05   -0.10183E-08   108   0.250E-04    0.340E-05
DAV:  15    -0.102473674345E+03   -0.52807E-06    0.11429E-09   108   0.160E-04
  60 F= -.10247367E+03 E0= -.10247367E+03  d E =-.662664E-11
       N       E                     dE             d eps       ncg     rms          rms(c)
DAV:   1    -0.102472266759E+03    0.14071E-02   -0.40315E-01   108   0.185E+00    0.205E-01
DAV:   2    -0.102473886836E+03   -0.16201E-02   -0.19994E-02   132   0.446E-01    0.126E-01
DAV:   3    -0.102473770973E+03    0.11586E-03   -0.30341E-04   132   0.604E-02    0.672E-02
DAV:   4    -0.102473696589E+03    0.74384E-04   -0.12313E-04   132   0.401E-02    0.115E-02
DAV:   5    -0.102473693195E+03    0.33937E-05   -0.18949E-05   132   0.169E-02    0.735E-03
DAV:   6    -0.102473714074E+03   -0.20879E-04   -0.12450E-05   132   0.110E-02    0.364E-03
DAV:   7    -0.102473745033E+03   -0.30959E-04   -0.48394E-06   132   0.675E-03    0.233E-03
DAV:   8    -0.102473786642E+03   -0.41610E-04   -0.39081E-06   120   0.464E-03    0.114E-03
DAV:   9    -0.102473815832E+03   -0.29190E-04   -0.29129E-06   120   0.371E-03    0.884E-04
DAV:  10    -0.102473839110E+03   -0.23277E-04   -0.23553E-06   120   0.302E-03    0.399E-04
DAV:  11    -0.102473846006E+03   -0.68962E-05   -0.31256E-07   108   0.131E-03    0.271E-04
DAV:  12    -0.102473850752E+03   -0.47466E-05   -0.22166E-07   108   0.969E-04    0.175E-04
DAV:  13    -0.102473852466E+03   -0.17137E-05   -0.44463E-08   108   0.513E-04    0.712E-05
DAV:  14    -0.102473853506E+03   -0.10396E-05   -0.12690E-08   108   0.335E-04    0.583E-05
DAV:  15    -0.102473853914E+03   -0.40857E-06    0.93491E-10   108   0.184E-04
  61 F= -.10247385E+03 E0= -.10247385E+03  d E =-.586482E-11
       N       E                     dE             d eps       ncg     rms          rms(c)
DAV:   1    -0.102476742225E+03   -0.28887E-02   -0.23719E-01   108   0.174E+00    0.154E-01
DAV:   2    -0.102477189706E+03   -0.44748E-03   -0.71767E-03   120   0.281E-01    0.887E-02
DAV:   3    -0.102477110937E+03    0.78769E-04   -0.20715E-04   144   0.519E-02    0.410E-02
DAV:   4    -0.102477091274E+03    0.19663E-04   -0.80265E-05   132   0.314E-02    0.885E-03
DAV:   5    -0.102477086963E+03    0.43112E-05   -0.10304E-05   132   0.124E-02    0.628E-03
DAV:   6    -0.102477087763E+03   -0.79986E-06   -0.35899E-06   132   0.639E-03
  62 F= -.10247709E+03 E0= -.10247709E+03  d E =-.602085E-11
       N       E                     dE             d eps       ncg     rms          rms(c)
DAV:   1    -0.102477364666E+03   -0.27770E-03   -0.54873E-01    96   0.267E+00    0.227E-01
DAV:   2    -0.102477051586E+03    0.31308E-03   -0.35067E-03   132   0.215E-01    0.121E-01
DAV:   3    -0.102476846090E+03    0.20550E-03   -0.50161E-04   132   0.717E-02    0.354E-02
DAV:   4    -0.102476852504E+03   -0.64132E-05   -0.11070E-04   132   0.333E-02    0.131E-02
DAV:   5    -0.102476856820E+03   -0.43162E-05   -0.60863E-06   132   0.983E-03    0.706E-03
DAV:   6    -0.102476863645E+03   -0.68255E-05   -0.32284E-06   132   0.627E-03    0.150E-03
DAV:   7    -0.102476867284E+03   -0.36386E-05   -0.52044E-07   108   0.286E-03    0.944E-04
DAV:   8    -0.102476872284E+03   -0.50000E-05   -0.16597E-07   108   0.132E-03    0.373E-04
DAV:   9    -0.102476876277E+03   -0.39934E-05   -0.12128E-07   108   0.102E-03    0.275E-04
DAV:  10    -0.102476880931E+03   -0.46541E-05   -0.19915E-07   108   0.107E-03    0.124E-04
DAV:  11    -0.102476882425E+03   -0.14935E-05   -0.58503E-08   108   0.624E-04    0.102E-04
DAV:  12    -0.102476883188E+03   -0.76302E-06   -0.70108E-09   108   0.317E-04
  63 F= -.10247688E+03 E0= -.10247688E+03  d E =-.547291E-11
       N       E                     dE             d eps       ncg     rms          rms(c)
DAV:   1    -0.102476329390E+03    0.55303E-03   -0.29074E-01    96   0.193E+00    0.213E-01
DAV:   2    -0.102476105148E+03    0.22424E-03   -0.25677E-03   132   0.180E-01    0.103E-01
DAV:   3    -0.102475951183E+03    0.15397E-03   -0.36318E-04   132   0.610E-02    0.378E-02
DAV:   4    -0.102475942727E+03    0.84554E-05   -0.11777E-04   132   0.331E-02    0.131E-02
DAV:   5    -0.102475941059E+03    0.16687E-05   -0.60767E-06   132   0.105E-02    0.547E-03
DAV:   6    -0.102475942123E+03   -0.10644E-05   -0.27263E-06   132   0.596E-03    0.203E-03
DAV:   7    -0.102475943833E+03   -0.17097E-05   -0.52128E-07    96   0.275E-03    0.829E-04
DAV:   8    -0.102475946423E+03   -0.25903E-05   -0.18318E-07   108   0.167E-03    0.517E-04
DAV:   9    -0.102475948441E+03   -0.20178E-05   -0.12910E-07   108   0.116E-03    0.476E-04
DAV:  10    -0.102475951718E+03   -0.32777E-05   -0.16602E-07   108   0.985E-04    0.198E-04
DAV:  11    -0.102475952507E+03   -0.78897E-06   -0.24869E-08   120   0.482E-04
  64 F= -.10247595E+03 E0= -.10247595E+03  d E =-.597057E-11
       N       E                     dE             d eps       ncg     rms          rms(c)
DAV:   1    -0.102476324118E+03   -0.37240E-03   -0.56869E-01    96   0.270E+00    0.281E-01
DAV:   2    -0.102475883891E+03    0.44023E-03   -0.45719E-03   132   0.249E-01    0.137E-01
DAV:   3    -0.102475595990E+03    0.28790E-03   -0.66279E-04   132   0.794E-02    0.495E-02
DAV:   4    -0.102475579447E+03    0.16543E-04   -0.17870E-04   132   0.413E-02    0.168E-02
DAV:   5    -0.102475582031E+03   -0.25844E-05   -0.10396E-05   132   0.138E-02    0.734E-03
DAV:   6    -0.102475588557E+03   -0.65261E-05   -0.50528E-06   132   0.795E-03    0.253E-03
DAV:   7    -0.102475593432E+03   -0.48748E-05   -0.89219E-07   108   0.366E-03    0.120E-03
DAV:   8    -0.102475601500E+03   -0.80681E-05   -0.47359E-07   108   0.223E-03    0.576E-04
DAV:   9    -0.102475605963E+03   -0.44633E-05   -0.28842E-07   108   0.173E-03    0.637E-04
DAV:  10    -0.102475612912E+03   -0.69482E-05   -0.49242E-07   108   0.174E-03    0.315E-04
DAV:  11    -0.102475614786E+03   -0.18747E-05   -0.12701E-07   108   0.932E-04    0.214E-04
DAV:  12    -0.102475615815E+03   -0.10287E-05   -0.20166E-08   108   0.488E-04    0.125E-04
DAV:  13    -0.102475617176E+03   -0.13609E-05   -0.43851E-08   108   0.469E-04    0.988E-05
DAV:  14    -0.102475617747E+03   -0.57097E-06   -0.11538E-08   108   0.267E-04
  65 F= -.10247562E+03 E0= -.10247562E+03  d E =-.502242E-11
       N       E                     dE             d eps       ncg     rms          rms(c)
DAV:   1    -0.102477455047E+03   -0.18379E-02   -0.28969E-01   108   0.193E+00    0.208E-01
DAV:   2    -0.102477195056E+03    0.25999E-03   -0.25166E-03   132   0.189E-01    0.101E-01
DAV:   3    -0.102477041432E+03    0.15362E-03   -0.41526E-04   132   0.669E-02    0.357E-02
DAV:   4    -0.102477038747E+03    0.26850E-05   -0.11982E-04   132   0.350E-02    0.134E-02
DAV:   5    -0.102477037985E+03    0.76191E-06   -0.50788E-06   132   0.921E-03
  66 F= -.10247704E+03 E0= -.10247704E+03  d E =-.550017E-11
       N       E                     dE             d eps       ncg     rms          rms(c)
DAV:   1    -0.102477513355E+03   -0.47461E-03   -0.55658E-01    96   0.268E+00    0.223E-01
[...]
DAV:   9    -0.102475338790E+03   -0.36989E-05   -0.23073E-07   108   0.134E-03    0.466E-04
DAV:  10    -0.102475343929E+03   -0.51393E-05   -0.39056E-07   108   0.148E-03    0.395E-04
DAV:  11    -0.102475345279E+03   -0.13504E-05   -0.86749E-08   108   0.778E-04    0.266E-04
DAV:  12    -0.102475345818E+03   -0.53906E-06   -0.74675E-09   108   0.351E-04
 129 F= -.10247535E+03 E0= -.10247535E+03  d E =-.544176E-11
       N       E                     dE             d eps       ncg     rms          rms(c)
DAV:   1    -0.102477912955E+03   -0.25677E-02   -0.28205E-01    96   0.169E+00    0.186E-01
DAV:   2    -0.102477704103E+03    0.20885E-03   -0.19894E-03   132   0.146E-01    0.932E-02
DAV:   3    -0.102477583165E+03    0.12094E-03   -0.34611E-04   132   0.536E-02    0.306E-02
DAV:   4    -0.102477580774E+03    0.23902E-05   -0.74145E-05   132   0.255E-02    0.115E-02
DAV:   5    -0.102477579564E+03    0.12106E-05   -0.34164E-06   132   0.811E-03    0.485E-03
DAV:   6    -0.102477580428E+03   -0.86448E-06   -0.24517E-06   132   0.540E-03
 130 F= -.10247758E+03 E0= -.10247758E+03  d E =-.710342E-11
       N       E                     dE             d eps       ncg     rms          rms(c)
DAV:   1    -0.102477910575E+03   -0.33101E-03   -0.54000E-01    96   0.236E+00    0.195E-01
DAV:   2    -0.102477678845E+03    0.23173E-03   -0.28251E-03   132   0.179E-01    0.111E-01
DAV:   3    -0.102477526066E+03    0.15278E-03   -0.44542E-04   132   0.652E-02    0.226E-02
DAV:   4    -0.102477532305E+03   -0.62395E-05   -0.65671E-05   132   0.263E-02    0.941E-03
DAV:   5    -0.102477532866E+03   -0.56050E-06   -0.29080E-06   132   0.619E-03
 131 F= -.10247753E+03 E0= -.10247753E+03  d E =-.489092E-11
       N       E                     dE             d eps       ncg     rms          rms(c)
DAV:   1    -0.102477270744E+03    0.26156E-03   -0.27122E-01    96   0.166E+00    0.139E-01
DAV:   2    -0.102477149159E+03    0.12158E-03   -0.14311E-03   132   0.127E-01    0.780E-02
DAV:   3    -0.102477072914E+03    0.76246E-04   -0.21882E-04   132   0.448E-02    0.174E-02
DAV:   4    -0.102477075942E+03   -0.30286E-05   -0.33717E-05   132   0.187E-02    0.650E-03
DAV:   5    -0.102477076567E+03   -0.62429E-06   -0.15806E-06   120   0.472E-03
 132 F= -.10247708E+03 E0= -.10247708E+03  d E =-.609736E-11
       N       E                     dE             d eps       ncg     rms          rms(c)
DAV:   1    -0.102477605753E+03   -0.52981E-03   -0.55072E-01    96   0.237E+00    0.222E-01
DAV:   2    -0.102477306076E+03    0.29968E-03   -0.31977E-03   132   0.189E-01    0.118E-01
DAV:   3    -0.102477126960E+03    0.17912E-03   -0.48547E-04   132   0.653E-02    0.345E-02
DAV:   4    -0.102477129093E+03   -0.21329E-05   -0.98461E-05   120   0.302E-02    0.116E-02
DAV:   5    -0.102477128197E+03    0.89651E-06   -0.51048E-06   132   0.887E-03
 133 F= -.10247713E+03 E0= -.10247713E+03  d E =-.501706E-11
       N       E                     dE             d eps       ncg     rms          rms(c)
DAV:   1    -0.102477378235E+03   -0.24914E-03   -0.27633E-01    96   0.190E+00    0.159E-01
DAV:   2    -0.102477274422E+03    0.10381E-03   -0.19838E-03   120   0.155E-01    0.856E-02
DAV:   3    -0.102477184103E+03    0.90319E-04   -0.22742E-04   132   0.473E-02    0.272E-02
DAV:   4    -0.102477184294E+03   -0.19140E-06   -0.59461E-05   120   0.234E-02    0.868E-03
DAV:   5    -0.102477183600E+03    0.69415E-06   -0.32771E-06   132   0.694E-03
 134 F= -.10247718E+03 E0= -.10247718E+03  d E =-.561632E-11
       N       E                     dE             d eps       ncg     rms          rms(c)
DAV:   1    -0.102477144475E+03    0.39820E-04   -0.55361E-01    96   0.216E+00    0.231E-01
DAV:   2    -0.102476796887E+03    0.34759E-03   -0.30793E-03   132   0.166E-01    0.121E-01
DAV:   3    -0.102476581443E+03    0.21544E-03   -0.52308E-04   132   0.602E-02    0.349E-02
DAV:   4    -0.102476578050E+03    0.33931E-05   -0.95578E-05   144   0.278E-02    0.120E-02
DAV:   5    -0.102476578153E+03   -0.10300E-06   -0.50762E-06   132   0.863E-03
 135 F= -.10247658E+03 E0= -.10247658E+03  d E =-.548767E-11
       N       E                     dE             d eps       ncg     rms          rms(c)
DAV:   1    -0.102476462203E+03    0.11585E-03   -0.28983E-01   108   0.155E+00    0.210E-01
DAV:   2    -0.102476197258E+03    0.26494E-03   -0.23303E-03   132   0.149E-01    0.103E-01
DAV:   3    -0.102476057349E+03    0.13991E-03   -0.42066E-04   132   0.566E-02    0.347E-02
DAV:   4    -0.102476058704E+03   -0.13551E-05   -0.11443E-04   132   0.298E-02    0.139E-02
DAV:   5    -0.102476057223E+03    0.14813E-05   -0.44857E-06   132   0.837E-03    0.553E-03
DAV:   6    -0.102476057381E+03   -0.15801E-06   -0.28993E-06   132   0.545E-03
 136 F= -.10247606E+03 E0= -.10247606E+03  d E =-.540905E-11
       N       E                     dE             d eps       ncg     rms          rms(c)
DAV:   1    -0.102476579920E+03   -0.52270E-03   -0.57227E-01    96   0.217E+00    0.271E-01
DAV:   2    -0.102476035951E+03    0.54397E-03   -0.44651E-03   132   0.201E-01    0.137E-01
DAV:   3    -0.102475746040E+03    0.28991E-03   -0.85070E-04   132   0.786E-02    0.444E-02
DAV:   4    -0.102475745747E+03    0.29262E-06   -0.17804E-04   132   0.379E-02    0.191E-02
DAV:   5    -0.102475745213E+03    0.53414E-06   -0.69863E-06   132   0.968E-03
 137 F= -.10247575E+03 E0= -.10247575E+03  d E =-.575767E-11
       N       E                     dE             d eps       ncg     rms          rms(c)
DAV:   1    -0.102477643562E+03   -0.18978E-02   -0.28849E-01    96   0.154E+00    0.204E-01
DAV:   2    -0.102477355367E+03    0.28820E-03   -0.21444E-03   132   0.144E-01    0.100E-01
DAV:   3    -0.102477217503E+03    0.13786E-03   -0.43526E-04   132   0.576E-02    0.329E-02
DAV:   4    -0.102477219453E+03   -0.19502E-05   -0.10292E-04   132   0.289E-02    0.138E-02
DAV:   5    -0.102477218527E+03    0.92578E-06   -0.37286E-06   132   0.766E-03
 138 F= -.10247722E+03 E0= -.10247722E+03  d E =-.546347E-11
       N       E                     dE             d eps       ncg     rms          rms(c)
DAV:   1    -0.102477338070E+03   -0.11862E-03   -0.54728E-01    96   0.217E+00    0.226E-01
DAV:   2    -0.102476995211E+03    0.34286E-03   -0.30621E-03   120   0.175E-01    0.120E-01
DAV:   3    -0.102476794693E+03    0.20052E-03   -0.51323E-04   132   0.649E-02    0.329E-02
DAV:   4    -0.102476797627E+03   -0.29337E-05   -0.92905E-05   132   0.291E-02    0.124E-02
DAV:   5    -0.102476797833E+03   -0.20570E-06   -0.48907E-06   132   0.840E-03
 139 F= -.10247680E+03 E0= -.10247680E+03  d E =-.564143E-11
       N       E                     dE             d eps       ncg     rms          rms(c)
DAV:   1    -0.102476803604E+03   -0.59768E-05   -0.27639E-01    96   0.157E+00    0.166E-01
DAV:   2    -0.102476681904E+03    0.12170E-03   -0.17943E-03   108   0.129E-01    0.875E-02
DAV:   3    -0.102476591629E+03    0.90275E-04   -0.27736E-04   132   0.425E-02    0.259E-02
DAV:   4    -0.102476589559E+03    0.20703E-05   -0.38540E-05   144   0.173E-02    0.106E-02
DAV:   5    -0.102476587876E+03    0.16830E-05   -0.25326E-06   132   0.661E-03    0.503E-03
DAV:   6    -0.102476587838E+03    0.38597E-07   -0.21880E-06   132   0.512E-03
 140 F= -.10247659E+03 E0= -.10247659E+03  d E =-.559490E-11
       N       E                     dE             d eps       ncg     rms          rms(c)
DAV:   1    -0.102477305213E+03   -0.71734E-03   -0.55623E-01    96   0.212E+00    0.243E-01
DAV:   2    -0.102476940849E+03    0.36436E-03   -0.34660E-03   132   0.174E-01    0.124E-01
DAV:   3    -0.102476718510E+03    0.22234E-03   -0.53269E-04   132   0.615E-02    0.398E-02
DAV:   4    -0.102476711461E+03    0.70495E-05   -0.11354E-04   144   0.297E-02    0.136E-02
DAV:   5    -0.102476711375E+03    0.85834E-07   -0.62531E-06   132   0.996E-03
 141 F= -.10247671E+03 E0= -.10247671E+03  d E =-.540093E-11
       N       E                     dE             d eps       ncg     rms          rms(c)
DAV:   1    -0.102475962056E+03    0.74941E-03   -0.27275E-01    96   0.149E+00    0.139E-01
DAV:   2    -0.102475823021E+03    0.13903E-03   -0.14541E-03   132   0.115E-01    0.784E-02
DAV:   3    -0.102475739777E+03    0.83245E-04   -0.25861E-04   132   0.463E-02    0.160E-02
DAV:   4    -0.102475744667E+03   -0.48901E-05   -0.46103E-05   132   0.206E-02    0.833E-03
DAV:   5    -0.102475745263E+03   -0.59596E-06   -0.11640E-06   132   0.405E-03
 142 F= -.10247575E+03 E0= -.10247575E+03  d E =-.529489E-11
       N       E                     dE             d eps       ncg     rms          rms(c)
DAV:   1    -0.102476220920E+03   -0.47625E-03   -0.58184E-01    96   0.215E+00    0.284E-01
DAV:   2    -0.102475652499E+03    0.56842E-03   -0.46123E-03   132   0.206E-01    0.142E-01
DAV:   3    -0.102475339837E+03    0.31266E-03   -0.87137E-04   132   0.830E-02    0.456E-02
DAV:   4    -0.102475344473E+03   -0.46357E-05   -0.22569E-04   132   0.417E-02    0.205E-02
DAV:   5    -0.102475341989E+03    0.24835E-05   -0.80759E-06   120   0.112E-02    0.809E-03
DAV:   6    -0.102475342258E+03   -0.26913E-06   -0.56751E-06   132   0.768E-03
 143 F= -.10247534E+03 E0= -.10247534E+03  d E =-.589435E-11
       N       E                     dE             d eps       ncg     rms          rms(c)
DAV:   1    -0.102477908978E+03   -0.25670E-02   -0.28165E-01    96   0.150E+00    0.169E-01
DAV:   2    -0.102477677494E+03    0.23148E-03   -0.18006E-03   132   0.131E-01    0.897E-02
DAV:   3    -0.102477564122E+03    0.11337E-03   -0.34451E-04   132   0.532E-02    0.249E-02
DAV:   4    -0.102477569431E+03   -0.53086E-05   -0.76966E-05   132   0.256E-02    0.116E-02
DAV:   5    -0.102477569446E+03   -0.15013E-07   -0.24832E-06   132   0.603E-03
 144 F= -.10247757E+03 E0= -.10247757E+03  d E =-.547551E-11
       N       E                     dE             d eps       ncg     rms          rms(c)
DAV:   1    -0.102477988756E+03   -0.41933E-03   -0.54082E-01    96   0.213E+00    0.198E-01
DAV:   2    -0.102477706836E+03    0.28192E-03   -0.27026E-03   132   0.163E-01    0.112E-01
DAV:   3    -0.102477540504E+03    0.16633E-03   -0.44743E-04   132   0.647E-02    0.217E-02
DAV:   4    -0.102477546485E+03   -0.59811E-05   -0.70319E-05   132   0.265E-02    0.103E-02
DAV:   5    -0.102477546859E+03   -0.37422E-06   -0.27707E-06   144   0.596E-03
 145 F= -.10247755E+03 E0= -.10247755E+03  d E =-.556306E-11
       N       E                     dE             d eps       ncg     rms          rms(c)
DAV:   1    -0.102476957266E+03    0.58922E-03   -0.27020E-01    96   0.192E+00    0.134E-01
DAV:   2    -0.102476895899E+03    0.61366E-04   -0.18654E-03   132   0.159E-01    0.761E-02
DAV:   3    -0.102476820731E+03    0.75168E-04   -0.22204E-04   132   0.509E-02    0.187E-02
DAV:   4    -0.102476824420E+03   -0.36892E-05   -0.55628E-05   132   0.241E-02    0.823E-03
DAV:   5    -0.102476824215E+03    0.20516E-06   -0.15289E-06   108   0.509E-03
 146 F= -.10247682E+03 E0= -.10247682E+03  d E =-.597801E-11
       N       E                     dE             d eps       ncg     rms          rms(c)
DAV:   1    -0.102476987616E+03   -0.16320E-03   -0.53634E-01    96   0.261E+00    0.178E-01
DAV:   2    -0.102476856278E+03    0.13134E-03   -0.31573E-03   132   0.194E-01    0.101E-01
DAV:   3    -0.102476694272E+03    0.16201E-03   -0.49730E-04   132   0.713E-02    0.206E-02
DAV:   4    -0.102476699303E+03   -0.50311E-05   -0.11132E-04   132   0.338E-02    0.114E-02
DAV:   5    -0.102476698151E+03    0.11521E-05   -0.30024E-06   132   0.630E-03    0.731E-03
DAV:   6    -0.102476698793E+03   -0.64199E-06   -0.33397E-06   132   0.656E-03
 147 F= -.10247670E+03 E0= -.10247670E+03  d E =-.510983E-11
       N       E                     dE             d eps       ncg     rms          rms(c)
DAV:   1    -0.102475663667E+03    0.10345E-02   -0.26367E-01    96   0.180E+00    0.112E-01
DAV:   2    -0.102475599127E+03    0.64541E-04   -0.10047E-03   132   0.108E-01    0.639E-02
DAV:   3    -0.102475541540E+03    0.57586E-04   -0.16968E-04   132   0.407E-02    0.103E-02
DAV:   4    -0.102475544563E+03   -0.30225E-05   -0.27673E-05   120   0.174E-02    0.585E-03
DAV:   5    -0.102475545759E+03   -0.11964E-05   -0.98270E-07   108   0.365E-03    0.395E-03
DAV:   6    -0.102475548837E+03   -0.30778E-05   -0.89692E-07    96   0.350E-03    0.725E-04
DAV:   7    -0.102475550619E+03   -0.17820E-05   -0.34105E-07   108   0.200E-03    0.681E-04
DAV:   8    -0.102475553655E+03   -0.30356E-05   -0.18249E-07    96   0.156E-03    0.273E-04
DAV:   9    -0.102475555769E+03   -0.21141E-05   -0.15740E-07   108   0.113E-03    0.231E-04
DAV:  10    -0.102475557703E+03   -0.19339E-05   -0.74161E-08   108   0.774E-04    0.140E-04
DAV:  11    -0.102475558627E+03   -0.92370E-06   -0.33514E-08   108   0.429E-04
 148 F= -.10247556E+03 E0= -.10247556E+03  d E =-.600982E-11
       N       E                     dE             d eps       ncg     rms          rms(c)
DAV:   1    -0.102476090421E+03   -0.53272E-03   -0.54210E-01   108   0.261E+00    0.205E-01
DAV:   2    -0.102476019717E+03    0.70705E-04   -0.43372E-03   120   0.224E-01    0.110E-01
DAV:   3    -0.102475828419E+03    0.19130E-03   -0.47721E-04   132   0.642E-02    0.329E-02
DAV:   4    -0.102475817625E+03    0.10795E-04   -0.10914E-04   132   0.299E-02    0.117E-02
DAV:   5    -0.102475815075E+03    0.25495E-05   -0.58577E-06   132   0.101E-02    0.609E-03
DAV:   6    -0.102475817394E+03   -0.23189E-05   -0.48213E-06   132   0.812E-03    0.184E-03
DAV:   7    -0.102475821389E+03   -0.39952E-05   -0.16150E-06   132   0.425E-03    0.155E-03
DAV:   8    -0.102475826667E+03   -0.52775E-05   -0.27099E-07   108   0.161E-03    0.614E-04
DAV:   9    -0.102475831894E+03   -0.52278E-05   -0.32863E-07   108   0.151E-03    0.416E-04
DAV:  10    -0.102475838394E+03   -0.64992E-05   -0.38820E-07   108   0.143E-03    0.188E-04
DAV:  11    -0.102475841616E+03   -0.32223E-05   -0.10548E-07   108   0.815E-04    0.180E-04
DAV:  12    -0.102475843451E+03   -0.18348E-05   -0.24079E-08   108   0.437E-04    0.869E-05
DAV:  13    -0.102475844667E+03   -0.12160E-05   -0.15366E-08   108   0.314E-04    0.561E-05
DAV:  14    -0.102475845443E+03   -0.77586E-06   -0.45140E-09   108   0.212E-04
 149 F= -.10247585E+03 E0= -.10247585E+03  d E =-.493852E-11
       N       E                     dE             d eps       ncg     rms          rms(c)
DAV:   1    -0.102477732360E+03   -0.18877E-02   -0.26613E-01    96   0.185E+00    0.129E-01
DAV:   2    -0.102477651054E+03    0.81306E-04   -0.14830E-03   132   0.138E-01    0.711E-02
DAV:   3    -0.102477578669E+03    0.72385E-04   -0.21754E-04   132   0.459E-02    0.158E-02
DAV:   4    -0.102477579476E+03   -0.80747E-06   -0.39617E-05   120   0.205E-02    0.771E-03
DAV:   5    -0.102477579860E+03   -0.38352E-06   -0.15635E-06   108   0.484E-03
 150 F= -.10247758E+03 E0= -.10247758E+03  d E =-.612216E-11
       N       E                     dE             d eps       ncg     rms          rms(c)
DAV:   1    -0.102477826191E+03   -0.24671E-03   -0.52592E-01    96   0.258E+00    0.160E-01
DAV:   2    -0.102477695857E+03    0.13033E-03   -0.20491E-03   132   0.157E-01    0.920E-02
DAV:   3    -0.102477586453E+03    0.10940E-03   -0.36264E-04   132   0.612E-02    0.118E-02
DAV:   4    -0.102477593436E+03   -0.69829E-05   -0.58268E-05   132   0.253E-02    0.777E-03
DAV:   5    -0.102477594495E+03   -0.10587E-05   -0.18214E-06   120   0.458E-03    0.566E-03
DAV:   6    -0.102477598312E+03   -0.38175E-05   -0.15638E-06   120   0.414E-03    0.106E-03
DAV:   7    -0.102477600663E+03   -0.23505E-05   -0.44655E-07   108   0.219E-03    0.974E-04
DAV:   8    -0.102477603871E+03   -0.32088E-05   -0.15429E-07   108   0.160E-03    0.441E-04
DAV:   9    -0.102477607687E+03   -0.38154E-05   -0.25856E-07   108   0.180E-03    0.430E-04
DAV:  10    -0.102477609921E+03   -0.22343E-05   -0.12298E-07   108   0.104E-03    0.185E-04
DAV:  11    -0.102477611045E+03   -0.11241E-05   -0.32102E-08   108   0.452E-04    0.166E-04
DAV:  12    -0.102477611895E+03   -0.84990E-06   -0.18891E-08   108   0.341E-04
 151 F= -.10247761E+03 E0= -.10247761E+03  d E =-.481092E-11
       N       E                     dE             d eps       ncg     rms          rms(c)
DAV:   1    -0.102475487979E+03    0.21231E-02   -0.26679E-01   108   0.192E+00    0.131E-01
DAV:   2    -0.102475444252E+03    0.43727E-04   -0.20194E-03   120   0.157E-01    0.712E-02
DAV:   3    -0.102475364600E+03    0.79652E-04   -0.21996E-04   132   0.495E-02    0.202E-02
DAV:   4    -0.102475366312E+03   -0.17117E-05   -0.67554E-05   132   0.255E-02    0.741E-03
DAV:   5    -0.102475366563E+03   -0.25149E-06   -0.28559E-06   132   0.621E-03
 152 F= -.10247537E+03 E0= -.10247537E+03  d E =-.631052E-11
       N       E                     dE             d eps       ncg     rms          rms(c)
DAV:   1    -0.102475856607E+03   -0.49029E-03   -0.54540E-01   108   0.259E+00    0.206E-01
DAV:   2    -0.102475746290E+03    0.11032E-03   -0.44645E-03   132   0.232E-01    0.114E-01
DAV:   3    -0.102475537604E+03    0.20869E-03   -0.57275E-04   132   0.757E-02    0.297E-02
DAV:   4    -0.102475537913E+03   -0.30921E-06   -0.15680E-04   132   0.375E-02    0.129E-02
DAV:   5    -0.102475535637E+03    0.22763E-05   -0.45361E-06   132   0.847E-03    0.809E-03
DAV:   6    -0.102475535861E+03   -0.22398E-06   -0.56072E-06   120   0.921E-03
 153 F= -.10247554E+03 E0= -.10247554E+03  d E =-.501955E-11
       N       E                     dE             d eps       ncg     rms          rms(c)
DAV:   1    -0.102477520746E+03   -0.19851E-02   -0.26887E-01   108   0.182E+00    0.140E-01
DAV:   2    -0.102477469265E+03    0.51481E-04   -0.19205E-03   132   0.147E-01    0.760E-02
DAV:   3    -0.102477393261E+03    0.76004E-04   -0.23533E-04   132   0.435E-02    0.211E-02
DAV:   4    -0.102477391514E+03    0.17472E-05   -0.40725E-05   120   0.190E-02    0.830E-03
DAV:   5    -0.102477390635E+03    0.87828E-06   -0.26669E-06   120   0.646E-03
 154 F= -.10247739E+03 E0= -.10247739E+03  d E =-.545306E-11
       N       E                     dE             d eps       ncg     rms          rms(c)
DAV:   1    -0.102477873636E+03   -0.48212E-03   -0.53218E-01    96   0.253E+00    0.161E-01
DAV:   2    -0.102477754851E+03    0.11879E-03   -0.19666E-03   120   0.153E-01    0.921E-02
DAV:   3    -0.102477646539E+03    0.10831E-03   -0.35115E-04   132   0.575E-02    0.144E-02
DAV:   4    -0.102477649719E+03   -0.31795E-05   -0.54060E-05   132   0.243E-02    0.777E-03
DAV:   5    -0.102477649111E+03    0.60760E-06   -0.19223E-06   132   0.494E-03
 155 F= -.10247765E+03 E0= -.10247765E+03  d E =-.572968E-11
       N       E                     dE             d eps       ncg     rms          rms(c)
DAV:   1    -0.102477182784E+03    0.46694E-03   -0.26479E-01    96   0.181E+00    0.116E-01
DAV:   2    -0.102477114668E+03    0.68116E-04   -0.10912E-03   132   0.117E-01    0.666E-02
DAV:   3    -0.102477063047E+03    0.51621E-04   -0.19377E-04   132   0.455E-02    0.917E-03
DAV:   4    -0.102477067081E+03   -0.40331E-05   -0.35603E-05   120   0.196E-02    0.631E-03
DAV:   5    -0.102477067468E+03   -0.38709E-06   -0.81138E-07   108   0.346E-03
 156 F= -.10247707E+03 E0= -.10247707E+03  d E =-.693227E-11
       N       E                     dE             d eps       ncg     rms          rms(c)
DAV:   1    -0.102477324283E+03   -0.25720E-03   -0.52730E-01    96   0.255E+00    0.174E-01
DAV:   2    -0.102477202698E+03    0.12159E-03   -0.26024E-03   132   0.179E-01    0.972E-02
DAV:   3    -0.102477070096E+03    0.13260E-03   -0.37741E-04   132   0.576E-02    0.199E-02
DAV:   4    -0.102477070107E+03   -0.10753E-07   -0.60358E-05   132   0.242E-02    0.906E-03
DAV:   5    -0.102477070169E+03   -0.61960E-07   -0.37222E-06   132   0.671E-03
 157 F= -.10247707E+03 E0= -.10247707E+03  d E =-.446761E-11
