       N       E                     dE             d eps       ncg     rms          rms(c)
DAV:   1     0.243894337937E+03    0.24389E+03   -0.10218E+04   120   0.484E+02
DAV:   2    -0.228729629065E+02   -0.26677E+03   -0.25285E+03   156   0.915E+01
DAV:   3    -0.103856000726E+03   -0.80983E+02   -0.80745E+02   120   0.550E+01
DAV:   4    -0.107881239448E+03   -0.40252E+01   -0.40094E+01   120   0.177E+01
DAV:   5    -0.107966799847E+03   -0.85560E-01   -0.85464E-01   168   0.292E+00    0.158E+01
DAV:   6    -0.104379638033E+03    0.35872E+01   -0.16564E+00   108   0.442E+00    0.911E+00
DAV:   7    -0.102550565852E+03    0.18291E+01   -0.44273E+00   120   0.646E+00    0.133E+00
DAV:   8    -0.102494529955E+03    0.56036E-01   -0.35383E-01   132   0.225E+00    0.704E-01
DAV:   9    -0.102460229852E+03    0.34300E-01   -0.62969E-02   132   0.689E-01    0.383E-01
DAV:  10    -0.102458923734E+03    0.13061E-02   -0.42444E-03   120   0.228E-01    0.149E-01
DAV:  11    -0.102457533116E+03    0.13906E-02   -0.68078E-03   120   0.223E-01    0.110E-01
DAV:  12    -0.102463011566E+03   -0.54784E-02   -0.14197E-03   120   0.105E-01    0.523E-02
DAV:  13    -0.102466599255E+03   -0.35877E-02   -0.18652E-03   132   0.106E-01    0.455E-02
DAV:  14    -0.102469806155E+03   -0.32069E-02   -0.19645E-04   144   0.447E-02    0.212E-02
DAV:  15    -0.102474861807E+03   -0.50557E-02   -0.56944E-04    96   0.586E-02    0.139E-02
DAV:  16    -0.102476471158E+03   -0.16094E-02   -0.10859E-04   132   0.303E-02    0.854E-03
DAV:  17    -0.102477730712E+03   -0.12596E-02   -0.11504E-04   108   0.237E-02    0.731E-03
DAV:  18    -0.102478048988E+03   -0.31828E-03   -0.99592E-06   132   0.812E-03    0.198E-03
DAV:  19    -0.102478273442E+03   -0.22445E-03   -0.99416E-06   108   0.688E-03    0.233E-03
DAV:  20    -0.102478332733E+03   -0.59291E-04   -0.11992E-06    84   0.339E-03    0.797E-04
DAV:  21    -0.102478353175E+03   -0.20442E-04   -0.45899E-07   108   0.178E-03    0.498E-04
DAV:  22    -0.102478368427E+03   -0.15252E-04   -0.33689E-07    96   0.138E-03    0.261E-04
DAV:  23    -0.102478372406E+03   -0.39790E-05   -0.90043E-08   108   0.677E-04    0.154E-04
DAV:  24    -0.102478376532E+03   -0.41262E-05   -0.76255E-08   108   0.576E-04    0.927E-05
DAV:  25    -0.102478377079E+03   -0.54771E-06   -0.34418E-09   108   0.251E-04
   1 F= -.10247838E+03 E0= -.10247838E+03  d E =-.440722E-10
       N       E                     dE             d eps       ncg     rms          rms(c)
DAV:   1    -0.102475118950E+03    0.32576E-02   -0.84262E-02   120   0.854E-01    0.129E-01
DAV:   2    -0.102475426267E+03   -0.30732E-03   -0.35606E-03   132   0.208E-01    0.552E-02
DAV:   3    -0.102475414060E+03    0.12207E-04   -0.13234E-04   132   0.432E-02    0.287E-02
DAV:   4    -0.102475417548E+03   -0.34887E-05   -0.32994E-05   132   0.215E-02    0.837E-03
DAV:   5    -0.102475416895E+03    0.65337E-06   -0.64817E-06   132   0.101E-02
   2 F= -.10247542E+03 E0= -.10247542E+03  d E =-.534366E-10
       N       E                     dE             d eps       ncg     rms          rms(c)
DAV:   1    -0.102473901587E+03    0.15160E-02   -0.34010E-01    96   0.171E+00    0.267E-01
DAV:   2    -0.102475175272E+03   -0.12737E-02   -0.14572E-02   132   0.415E-01    0.111E-01
DAV:   3    -0.102475130542E+03    0.44730E-04   -0.53777E-04   132   0.857E-02    0.599E-02
DAV:   4    -0.102475145837E+03   -0.15295E-04   -0.13093E-04   132   0.429E-02    0.176E-02
DAV:   5    -0.102475143409E+03    0.24279E-05   -0.26653E-05   132   0.203E-02    0.964E-03
DAV:   6    -0.102475143118E+03    0.29067E-06   -0.55465E-06   132   0.825E-03
   3 F= -.10247514E+03 E0= -.10247514E+03  d E =-.413309E-10
       N       E                     dE             d eps       ncg     rms          rms(c)
DAV:   1    -0.102474875687E+03    0.26772E-03   -0.16853E-01    96   0.117E+00    0.158E-01
DAV:   2    -0.102475590224E+03   -0.71454E-03   -0.77483E-03   132   0.290E-01    0.761E-02
DAV:   3    -0.102475576030E+03    0.14194E-04   -0.27783E-04   144   0.617E-02    0.383E-02
DAV:   4    -0.102475588840E+03   -0.12810E-04   -0.61528E-05   132   0.293E-02    0.112E-02
DAV:   5    -0.102475588469E+03    0.37090E-06   -0.10419E-05   132   0.125E-02    0.600E-03
DAV:   6    -0.102475588999E+03   -0.52987E-06   -0.27213E-06   132   0.552E-03
   4 F= -.10247559E+03 E0= -.10247559E+03  d E =-.612564E-10
       N       E                     dE             d eps       ncg     rms          rms(c)
DAV:   1    -0.102473631612E+03    0.19569E-02   -0.33759E-01    96   0.165E+00    0.242E-01
DAV:   2    -0.102475111902E+03   -0.14803E-02   -0.16076E-02   132   0.424E-01    0.112E-01
DAV:   3    -0.102475072592E+03    0.39310E-04   -0.54747E-04   132   0.883E-02    0.593E-02
DAV:   4    -0.102475088000E+03   -0.15408E-04   -0.14177E-04   132   0.445E-02    0.168E-02
DAV:   5    -0.102475083234E+03    0.47651E-05   -0.25757E-05   132   0.198E-02    0.904E-03
DAV:   6    -0.102475082795E+03    0.43988E-06   -0.57561E-06   132   0.820E-03
   5 F= -.10247508E+03 E0= -.10247508E+03  d E =-.343370E-10
       N       E                     dE             d eps       ncg     rms          rms(c)
DAV:   1    -0.102473216960E+03    0.18663E-02   -0.16707E-01    96   0.118E+00    0.161E-01
DAV:   2    -0.102474108138E+03   -0.89118E-03   -0.95184E-03   132   0.329E-01    0.913E-02
DAV:   3    -0.102474071616E+03    0.36523E-04   -0.28373E-04   132   0.660E-02    0.478E-02
DAV:   4    -0.102474079420E+03   -0.78042E-05   -0.11037E-04   132   0.384E-02    0.117E-02
DAV:   5    -0.102474078016E+03    0.14036E-05   -0.18970E-05   132   0.164E-02    0.697E-03
DAV:   6    -0.102474080097E+03   -0.20805E-05   -0.37369E-06   132   0.606E-03    0.434E-03
DAV:   7    -0.102474085597E+03   -0.54999E-05   -0.43624E-07    96   0.237E-03    0.166E-03
DAV:   8    -0.102474091259E+03   -0.56621E-05   -0.47434E-07   108   0.232E-03    0.661E-04
DAV:   9    -0.102474096730E+03   -0.54710E-05   -0.36104E-07   108   0.174E-03    0.585E-04
DAV:  10    -0.102474104153E+03   -0.74230E-05   -0.57878E-07   108   0.171E-03    0.486E-04
DAV:  11    -0.102474105306E+03   -0.11530E-05   -0.65416E-08   108   0.779E-04    0.354E-04
DAV:  12    -0.102474106744E+03   -0.14385E-05   -0.33723E-08   108   0.525E-04    0.184E-04
DAV:  13    -0.102474108551E+03   -0.18065E-05   -0.72997E-08   108   0.559E-04    0.117E-04
DAV:  14    -0.102474109382E+03   -0.83082E-06   -0.14925E-08   108   0.297E-04
   6 F= -.10247411E+03 E0= -.10247411E+03  d E =-.495262E-10
       N       E                     dE             d eps       ncg     rms          rms(c)
DAV:   1    -0.102471778390E+03    0.23302E-02   -0.33760E-01    96   0.169E+00    0.265E-01
DAV:   2    -0.102474042508E+03   -0.22641E-02   -0.24525E-02   120   0.514E-01    0.168E-01
DAV:   3    -0.102473871521E+03    0.17099E-03   -0.69073E-04   132   0.108E-01    0.867E-02
DAV:   4    -0.102473872406E+03   -0.88503E-06   -0.44068E-04   132   0.731E-02    0.168E-02
DAV:   5    -0.102473862887E+03    0.95192E-05   -0.67000E-05   132   0.295E-02    0.122E-02
DAV:   6    -0.102473863159E+03   -0.27292E-06   -0.11926E-05   132   0.937E-03    0.808E-03
DAV:   7    -0.102473874194E+03   -0.11035E-04   -0.97203E-07    96   0.356E-03    0.352E-03
DAV:   8    -0.102473894399E+03   -0.20205E-04   -0.25630E-06   132   0.540E-03    0.163E-03
DAV:   9    -0.102473907658E+03   -0.13259E-04   -0.11177E-06   132   0.274E-03    0.176E-03
DAV:  10    -0.102473926009E+03   -0.18351E-04   -0.70094E-07   108   0.191E-03    0.814E-04
DAV:  11    -0.102473934301E+03   -0.82926E-05   -0.42701E-07   108   0.130E-03    0.598E-04
DAV:  12    -0.102473941937E+03   -0.76359E-05   -0.19454E-07   108   0.101E-03    0.234E-04
DAV:  13    -0.102473946031E+03   -0.40943E-05   -0.10932E-07   108   0.654E-04    0.235E-04
DAV:  14    -0.102473948512E+03   -0.24811E-05   -0.29665E-08   108   0.402E-04    0.107E-04
DAV:  15    -0.102473949697E+03   -0.11848E-05   -0.12566E-08   108   0.289E-04    0.743E-05
DAV:  16    -0.102473950377E+03   -0.67977E-06    0.87494E-10   108   0.175E-04
   7 F= -.10247395E+03 E0= -.10247395E+03  d E =-.450946E-10
       N       E                     dE             d eps       ncg     rms          rms(c)
DAV:   1    -0.102473067304E+03    0.88239E-03   -0.19265E-01    96   0.138E+00    0.193E-01
DAV:   2    -0.102474472043E+03   -0.14047E-02   -0.14558E-02   120   0.432E-01    0.119E-01
DAV:   3    -0.102474391058E+03    0.80985E-04   -0.40197E-04   144   0.869E-02    0.646E-02
DAV:   4    -0.102474390108E+03    0.94931E-06   -0.21948E-04   132   0.581E-02    0.124E-02
DAV:   5    -0.102474385543E+03    0.45653E-05   -0.42857E-05   132   0.239E-02    0.963E-03
DAV:   6    -0.102474386147E+03   -0.60378E-06   -0.43898E-06   132   0.678E-03
   8 F= -.10247439E+03 E0= -.10247439E+03  d E =-.523323E-10
       N       E                     dE             d eps       ncg     rms          rms(c)
DAV:   1    -0.102472335549E+03    0.20500E-02   -0.34018E-01    96   0.184E+00    0.262E-01
DAV:   2    -0.102474369769E+03   -0.20342E-02   -0.20818E-02   132   0.520E-01    0.152E-01
DAV:   3    -0.102474300441E+03    0.69328E-04   -0.50573E-04   132   0.908E-02    0.830E-02
DAV:   4    -0.102474296519E+03    0.39224E-05   -0.23881E-04   132   0.598E-02    0.153E-02
DAV:   5    -0.102474287432E+03    0.90870E-05   -0.46913E-05   144   0.262E-02    0.108E-02
DAV:   6    -0.102474286715E+03    0.71682E-06   -0.76200E-06   132   0.101E-02
   9 F= -.10247429E+03 E0= -.10247429E+03  d E =-.372537E-10
       N       E                     dE             d eps       ncg     rms          rms(c)
DAV:   1    -0.102472530666E+03    0.17568E-02   -0.17346E-01    96   0.130E+00    0.188E-01
DAV:   2    -0.102473638028E+03   -0.11074E-02   -0.11051E-02   132   0.385E-01    0.115E-01
DAV:   3    -0.102473618238E+03    0.19790E-04   -0.27622E-04   144   0.699E-02    0.635E-02
DAV:   4    -0.102473638695E+03   -0.20457E-04   -0.15706E-04   120   0.486E-02    0.115E-02
DAV:   5    -0.102473634600E+03    0.40945E-05   -0.33614E-05   132   0.217E-02    0.873E-03
DAV:   6    -0.102473635053E+03   -0.45220E-06   -0.66169E-06   132   0.802E-03
  10 F= -.10247364E+03 E0= -.10247364E+03  d E =-.286950E-10
       N       E                     dE             d eps       ncg     rms          rms(c)
DAV:   1    -0.102470818627E+03    0.28160E-02   -0.35363E-01    96   0.187E+00    0.266E-01
DAV:   2    -0.102473402353E+03   -0.25837E-02   -0.26059E-02   132   0.592E-01    0.182E-01
DAV:   3    -0.102473274625E+03    0.12773E-03   -0.62614E-04   144   0.113E-01    0.904E-02
DAV:   4    -0.102473302753E+03   -0.28128E-04   -0.45777E-04   132   0.807E-02    0.179E-02
DAV:   5    -0.102473285043E+03    0.17710E-04   -0.81003E-05   132   0.337E-02    0.117E-02
DAV:   6    -0.102473287185E+03   -0.21422E-05   -0.14716E-05   132   0.109E-02    0.607E-03
DAV:   7    -0.102473300678E+03   -0.13492E-04   -0.95799E-07   108   0.302E-03    0.295E-03
DAV:   8    -0.102473320778E+03   -0.20100E-04   -0.39951E-06   132   0.555E-03    0.164E-03
DAV:   9    -0.102473335310E+03   -0.14532E-04   -0.12342E-06   132   0.312E-03    0.123E-03
DAV:  10    -0.102473349309E+03   -0.13999E-04   -0.10929E-06   108   0.228E-03    0.498E-04
DAV:  11    -0.102473354529E+03   -0.52196E-05   -0.18667E-07   108   0.113E-03    0.323E-04
DAV:  12    -0.102473360957E+03   -0.64285E-05   -0.27002E-07    96   0.107E-03    0.157E-04
DAV:  13    -0.102473362918E+03   -0.19602E-05   -0.51219E-08   108   0.484E-04    0.153E-04
DAV:  14    -0.102473364822E+03   -0.19044E-05   -0.26681E-08    96   0.412E-04    0.929E-05
DAV:  15    -0.102473365377E+03   -0.55496E-06   -0.50331E-09   108   0.235E-04
  11 F= -.10247337E+03 E0= -.10247337E+03  d E =-.669353E-10
       N       E                     dE             d eps       ncg     rms          rms(c)
DAV:   1    -0.102473594939E+03   -0.23012E-03   -0.17271E-01    96   0.133E+00    0.178E-01
DAV:   2    -0.102474783869E+03   -0.11889E-02   -0.12131E-02   132   0.409E-01    0.119E-01
DAV:   3    -0.102474724601E+03    0.59268E-04   -0.30144E-04   144   0.772E-02    0.583E-02
DAV:   4    -0.102474728268E+03   -0.36679E-05   -0.17786E-04   132   0.514E-02    0.117E-02
DAV:   5    -0.102474722259E+03    0.60091E-05   -0.33175E-05   132   0.220E-02    0.744E-03
DAV:   6    -0.102474725367E+03   -0.31075E-05   -0.64794E-06   132   0.755E-03    0.420E-03
DAV:   7    -0.102474735949E+03   -0.10582E-04   -0.67073E-07   108   0.298E-03    0.188E-03
DAV:   8    -0.102474751484E+03   -0.15535E-04   -0.22465E-06   132   0.425E-03    0.121E-03
DAV:   9    -0.102474762369E+03   -0.10884E-04   -0.71782E-07   108   0.254E-03    0.760E-04
DAV:  10    -0.102474773019E+03   -0.10650E-04   -0.96529E-07   108   0.209E-03    0.359E-04
DAV:  11    -0.102474776312E+03   -0.32932E-05   -0.13354E-07   108   0.899E-04    0.264E-04
DAV:  12    -0.102474779904E+03   -0.35923E-05   -0.11348E-07   108   0.758E-04    0.118E-04
DAV:  13    -0.102474781824E+03   -0.19196E-05   -0.70378E-08   108   0.537E-04    0.127E-04
DAV:  14    -0.102474783234E+03   -0.14105E-05   -0.27111E-08   108   0.368E-04    0.690E-05
DAV:  15    -0.102474783666E+03   -0.43220E-06    0.30097E-10   108   0.194E-04
  12 F= -.10247478E+03 E0= -.10247478E+03  d E =-.363628E-10
       N       E                     dE             d eps       ncg     rms          rms(c)
DAV:   1    -0.102473610206E+03    0.11730E-02   -0.33125E-01    96   0.178E+00    0.219E-01
DAV:   2    -0.102475390403E+03   -0.17802E-02   -0.18280E-02   132   0.475E-01    0.127E-01
DAV:   3    -0.102475366672E+03    0.23732E-04   -0.47679E-04   132   0.873E-02    0.658E-02
DAV:   4    -0.102475377444E+03   -0.10772E-04   -0.16404E-04   132   0.529E-02    0.139E-02
DAV:   5    -0.102475370136E+03    0.73077E-05   -0.40383E-05   132   0.246E-02    0.918E-03
DAV:   6    -0.102475370681E+03   -0.54536E-06   -0.68764E-06   132   0.884E-03
  13 F= -.10247537E+03 E0= -.10247537E+03  d E =-.673766E-10
       N       E                     dE             d eps       ncg     rms          rms(c)
DAV:   1    -0.102472491465E+03    0.28787E-02   -0.16940E-01    96   0.131E+00    0.173E-01
DAV:   2    -0.102473815870E+03   -0.13244E-02   -0.13538E-02   132   0.408E-01    0.112E-01
DAV:   3    -0.102473773459E+03    0.42412E-04   -0.32976E-04   156   0.760E-02    0.649E-02
DAV:   4    -0.102473794813E+03   -0.21355E-04   -0.18898E-04   132   0.567E-02    0.122E-02
DAV:   5    -0.102473794416E+03    0.39681E-06   -0.57443E-05   132   0.279E-02    0.999E-03
DAV:   6    -0.102473793317E+03    0.10990E-05   -0.58908E-06   132   0.816E-03    0.701E-03
DAV:   7    -0.102473796654E+03   -0.33368E-05   -0.17727E-06   132   0.514E-03    0.287E-03
DAV:   8    -0.102473801986E+03   -0.53322E-05   -0.69488E-07   108   0.380E-03    0.775E-04
DAV:   9    -0.102473808317E+03   -0.63304E-05   -0.64700E-07   108   0.261E-03    0.111E-03
DAV:  10    -0.102473816050E+03   -0.77336E-05   -0.31320E-07   108   0.167E-03    0.374E-04
DAV:  11    -0.102473819391E+03   -0.33407E-05   -0.15847E-07   108   0.100E-03    0.298E-04
DAV:  12    -0.102473822962E+03   -0.35709E-05   -0.96918E-08   108   0.743E-04    0.127E-04
DAV:  13    -0.102473825267E+03   -0.23052E-05   -0.69048E-08   108   0.568E-04    0.123E-04
DAV:  14    -0.102473826261E+03   -0.99343E-06   -0.10446E-08   108   0.288E-04
  14 F= -.10247383E+03 E0= -.10247383E+03  d E =-.303303E-10
       N       E                     dE             d eps       ncg     rms          rms(c)
DAV:   1    -0.102471668056E+03    0.21572E-02   -0.35220E-01    96   0.187E+00    0.263E-01
DAV:   2    -0.102474001821E+03   -0.23338E-02   -0.23890E-02   132   0.570E-01    0.171E-01
DAV:   3    -0.102473892870E+03    0.10895E-03   -0.57229E-04   144   0.104E-01    0.923E-02
DAV:   4    -0.102473896530E+03   -0.36598E-05   -0.35684E-04   132   0.747E-02    0.172E-02
DAV:   5    -0.102473887182E+03    0.93478E-05   -0.81536E-05   132   0.341E-02    0.117E-02
DAV:   6    -0.102473893405E+03   -0.62228E-05   -0.13770E-05   132   0.108E-02    0.742E-03
DAV:   7    -0.102473914355E+03   -0.20950E-04   -0.14678E-06   120   0.422E-03    0.334E-03
DAV:   8    -0.102473943661E+03   -0.29306E-04   -0.38379E-06   132   0.579E-03    0.150E-03
DAV:   9    -0.102473959634E+03   -0.15973E-04   -0.15712E-06   120   0.346E-03    0.162E-03
DAV:  10    -0.102473980239E+03   -0.20605E-04   -0.15748E-06   108   0.289E-03    0.724E-04
DAV:  11    -0.102473986531E+03   -0.62920E-05   -0.29862E-07   108   0.143E-03    0.476E-04
DAV:  12    -0.102473993137E+03   -0.66059E-05   -0.25800E-07    96   0.115E-03    0.196E-04
DAV:  13    -0.102473996268E+03   -0.31315E-05   -0.13351E-07   108   0.765E-04    0.242E-04
DAV:  14    -0.102473998450E+03   -0.21816E-05   -0.48709E-08    96   0.536E-04    0.118E-04
DAV:  15    -0.102473999101E+03   -0.65076E-06   -0.12373E-08   108   0.299E-04
  15 F= -.10247400E+03 E0= -.10247400E+03  d E =-.785395E-10
       N       E                     dE             d eps       ncg     rms          rms(c)
DAV:   1    -0.102473331889E+03    0.66656E-03   -0.17534E-01    96   0.133E+00    0.190E-01
DAV:   2    -0.102474569861E+03   -0.12380E-02   -0.12680E-02   132   0.413E-01    0.127E-01
DAV:   3    -0.102474498823E+03    0.71038E-04   -0.30461E-04   144   0.777E-02    0.635E-02
DAV:   4    -0.102474503826E+03   -0.50030E-05   -0.21654E-04   132   0.556E-02    0.125E-02
DAV:   5    -0.102474495725E+03    0.81011E-05   -0.39942E-05   132   0.235E-02    0.826E-03
DAV:   6    -0.102474498432E+03   -0.27070E-05   -0.74779E-06   132   0.771E-03    0.448E-03
DAV:   7    -0.102474509656E+03   -0.11224E-04   -0.57323E-07   108   0.239E-03    0.212E-03
DAV:   8    -0.102474527519E+03   -0.17863E-04   -0.23826E-06   132   0.401E-03    0.119E-03
DAV:   9    -0.102474539857E+03   -0.12338E-04   -0.77180E-07   108   0.237E-03    0.864E-04
DAV:  10    -0.102474551070E+03   -0.11213E-04   -0.89693E-07    96   0.196E-03    0.365E-04
DAV:  11    -0.102474555258E+03   -0.41872E-05   -0.15283E-07   108   0.918E-04    0.193E-04
DAV:  12    -0.102474558779E+03   -0.35217E-05   -0.10378E-07   108   0.700E-04    0.141E-04
DAV:  13    -0.102474560201E+03   -0.14221E-05   -0.32188E-08   108   0.397E-04    0.142E-04
DAV:  14    -0.102474561518E+03   -0.13168E-05   -0.19163E-08   108   0.326E-04    0.519E-05
DAV:  15    -0.102474561820E+03   -0.30151E-06    0.24650E-09   108   0.163E-04
  16 F= -.10247456E+03 E0= -.10247456E+03  d E =-.498821E-10
       N       E                     dE             d eps       ncg     rms          rms(c)
DAV:   1    -0.102472182726E+03    0.23788E-02   -0.34363E-01    96   0.184E+00    0.263E-01
DAV:   2    -0.102474148320E+03   -0.19656E-02   -0.20384E-02   132   0.518E-01    0.153E-01
DAV:   3    -0.102474064061E+03    0.84258E-04   -0.52754E-04   132   0.963E-02    0.791E-02
DAV:   4    -0.102474071021E+03   -0.69600E-05   -0.28239E-04   132   0.646E-02    0.166E-02
DAV:   5    -0.102474060432E+03    0.10589E-04   -0.55136E-05   132   0.283E-02    0.119E-02
DAV:   6    -0.102474060213E+03    0.21935E-06   -0.11917E-05   132   0.108E-02    0.720E-03
DAV:   7    -0.102474069722E+03   -0.95085E-05   -0.15383E-06   120   0.516E-03    0.291E-03
DAV:   8    -0.102474084931E+03   -0.15210E-04   -0.16927E-06   132   0.458E-03    0.122E-03
DAV:   9    -0.102474100590E+03   -0.15659E-04   -0.97487E-07   108   0.316E-03    0.134E-03
DAV:  10    -0.102474117651E+03   -0.17061E-04   -0.11354E-06   120   0.250E-03    0.636E-04
DAV:  11    -0.102474125141E+03   -0.74896E-05   -0.22127E-07   108   0.130E-03    0.298E-04
DAV:  12    -0.102474131343E+03   -0.62028E-05   -0.16272E-07   108   0.908E-04    0.227E-04
DAV:  13    -0.102474134474E+03   -0.31310E-05   -0.57951E-08   108   0.528E-04    0.232E-04
DAV:  14    -0.102474136761E+03   -0.22869E-05   -0.27978E-08   108   0.413E-04    0.517E-05
DAV:  15    -0.102474137468E+03   -0.70696E-06   -0.47834E-09   108   0.232E-04
  17 F= -.10247414E+03 E0= -.10247414E+03  d E =-.429652E-10
       N       E                     dE             d eps       ncg     rms          rms(c)
DAV:   1    -0.102473358959E+03    0.77780E-03   -0.17254E-01    96   0.133E+00    0.176E-01
DAV:   2    -0.102474438847E+03   -0.10799E-02   -0.11148E-02   132   0.386E-01    0.115E-01
DAV:   3    -0.102474392137E+03    0.46710E-04   -0.27302E-04   132   0.695E-02    0.601E-02
DAV:   4    -0.102474376700E+03    0.15437E-04   -0.12851E-04   120   0.433E-02    0.108E-02
DAV:   5    -0.102474373381E+03    0.33194E-05   -0.19085E-05   132   0.173E-02    0.713E-03
DAV:   6    -0.102474379216E+03   -0.58355E-05   -0.59047E-06   132   0.837E-03    0.415E-03
DAV:   7    -0.102474397348E+03   -0.18132E-04   -0.20545E-06    96   0.548E-03    0.158E-03
DAV:   8    -0.102474415290E+03   -0.17942E-04   -0.15453E-06   108   0.430E-03    0.108E-03
DAV:   9    -0.102474432358E+03   -0.17068E-04   -0.15559E-06   120   0.320E-03    0.987E-04
DAV:  10    -0.102474445936E+03   -0.13578E-04   -0.12033E-06   108   0.236E-03    0.373E-04
DAV:  11    -0.102474448520E+03   -0.25846E-05   -0.65264E-08   120   0.830E-04    0.243E-04
DAV:  12    -0.102474453573E+03   -0.50530E-05   -0.30087E-07    96   0.112E-03    0.135E-04
DAV:  13    -0.102474454535E+03   -0.96171E-06   -0.39508E-08   120   0.472E-04
  18 F= -.10247445E+03 E0= -.10247445E+03  d E =-.460042E-10
       N       E                     dE             d eps       ncg     rms          rms(c)
DAV:   1    -0.102473021358E+03    0.14322E-02   -0.33017E-01    96   0.182E+00    0.215E-01
DAV:   2    -0.102475053349E+03   -0.20320E-02   -0.20775E-02   132   0.511E-01    0.142E-01
DAV:   3    -0.102475001184E+03    0.52165E-04   -0.47171E-04   132   0.880E-02    0.748E-02
DAV:   4    -0.102474994746E+03    0.64376E-05   -0.19401E-04   132   0.560E-02    0.137E-02
DAV:   5    -0.102474984154E+03    0.10592E-04   -0.42592E-05   132   0.256E-02    0.920E-03
DAV:   6    -0.102474985609E+03   -0.14546E-05   -0.78011E-06   132   0.942E-03    0.614E-03
DAV:   7    -0.102474997782E+03   -0.12174E-04   -0.16163E-06   120   0.654E-03    0.226E-03
DAV:   8    -0.102475013524E+03   -0.15742E-04   -0.27013E-06   132   0.676E-03    0.186E-03
DAV:   9    -0.102475030551E+03   -0.17027E-04   -0.12743E-06   120   0.406E-03    0.133E-03
DAV:  10    -0.102475040900E+03   -0.10349E-04   -0.41153E-07   108   0.168E-03    0.894E-04
DAV:  11    -0.102475052975E+03   -0.12075E-04   -0.54125E-07   108   0.157E-03    0.376E-04
DAV:  12    -0.102475059503E+03   -0.65286E-05   -0.21360E-07   108   0.964E-04    0.266E-04
DAV:  13    -0.102475065589E+03   -0.60859E-05   -0.16928E-07   108   0.817E-04    0.174E-04
DAV:  14    -0.102475067671E+03   -0.20814E-05   -0.37720E-08   108   0.450E-04    0.145E-04
DAV:  15    -0.102475069149E+03   -0.14787E-05   -0.14758E-08   108   0.358E-04    0.132E-04
DAV:  16    -0.102475069695E+03   -0.54546E-06   -0.11289E-09   120   0.204E-04
  19 F= -.10247507E+03 E0= -.10247507E+03  d E =-.475236E-10
       N       E                     dE             d eps       ncg     rms          rms(c)
DAV:   1    -0.102473949187E+03    0.11200E-02   -0.16683E-01    96   0.129E+00    0.171E-01
DAV:   2    -0.102475041693E+03   -0.10925E-02   -0.11532E-02   132   0.378E-01    0.994E-02
DAV:   3    -0.102474995753E+03    0.45940E-04   -0.32565E-04   144   0.724E-02    0.562E-02
DAV:   4    -0.102474984738E+03    0.11015E-04   -0.11572E-04   132   0.456E-02    0.112E-02
DAV:   5    -0.102474982223E+03    0.25150E-05   -0.33816E-05   144   0.221E-02    0.883E-03
DAV:   6    -0.102474983187E+03   -0.96357E-06   -0.33801E-06   132   0.680E-03
  20 F= -.10247498E+03 E0= -.10247498E+03  d E =-.440855E-10
       N       E                     dE             d eps       ncg     rms          rms(c)
DAV:   1    -0.102473438273E+03    0.15440E-02   -0.33970E-01    96   0.173E+00    0.275E-01
DAV:   2    -0.102474932472E+03   -0.14942E-02   -0.16745E-02   132   0.457E-01    0.128E-01
DAV:   3    -0.102474860783E+03    0.71690E-04   -0.57400E-04   132   0.937E-02    0.689E-02
DAV:   4    -0.102474879964E+03   -0.19182E-04   -0.20338E-04   132   0.532E-02    0.179E-02
DAV:   5    -0.102474877269E+03    0.26952E-05   -0.35049E-05   120   0.228E-02    0.106E-02
DAV:   6    -0.102474878782E+03   -0.15126E-05   -0.62019E-06   132   0.851E-03    0.668E-03
DAV:   7    -0.102474885081E+03   -0.62995E-05   -0.77076E-07    96   0.325E-03    0.243E-03
DAV:   8    -0.102474891037E+03   -0.59559E-05   -0.53965E-07   108   0.286E-03    0.921E-04
DAV:   9    -0.102474897204E+03   -0.61670E-05   -0.44634E-07    96   0.233E-03    0.754E-04
DAV:  10    -0.102474906788E+03   -0.95837E-05   -0.80426E-07   120   0.249E-03    0.802E-04
DAV:  11    -0.102474908340E+03   -0.15520E-05   -0.10272E-07   108   0.120E-03    0.608E-04
DAV:  12    -0.102474909405E+03   -0.10651E-05   -0.19187E-08   108   0.526E-04    0.425E-04
DAV:  13    -0.102474912023E+03   -0.26185E-05   -0.82687E-08   108   0.648E-04    0.128E-04
DAV:  14    -0.102474913605E+03   -0.15814E-05   -0.59371E-08   108   0.563E-04    0.271E-04
DAV:  15    -0.102474914206E+03   -0.60178E-06   -0.48138E-09   108   0.286E-04
  21 F= -.10247491E+03 E0= -.10247491E+03  d E =-.467388E-10
       N       E                     dE             d eps       ncg     rms          rms(c)
DAV:   1    -0.102473629388E+03    0.12842E-02   -0.17052E-01    96   0.122E+00    0.192E-01
DAV:   2    -0.102474670470E+03   -0.10411E-02   -0.11389E-02   120   0.357E-01    0.114E-01
DAV:   3    -0.102474587700E+03    0.82770E-04   -0.33817E-04   132   0.758E-02    0.593E-02
DAV:   4    -0.102474590430E+03   -0.27306E-05   -0.19871E-04   132   0.493E-02    0.127E-02
DAV:   5    -0.102474585593E+03    0.48378E-05   -0.29416E-05   132   0.198E-02    0.884E-03
DAV:   6    -0.102474585753E+03   -0.16016E-06   -0.53348E-06   132   0.656E-03
  22 F= -.10247459E+03 E0= -.10247459E+03  d E =-.499575E-10
       N       E                     dE             d eps       ncg     rms          rms(c)
DAV:   1    -0.102472426884E+03    0.21587E-02   -0.34333E-01    96   0.171E+00    0.270E-01
DAV:   2    -0.102474379975E+03   -0.19531E-02   -0.21040E-02   132   0.493E-01    0.152E-01
DAV:   3    -0.102474272149E+03    0.10783E-03   -0.64375E-04   132   0.101E-01    0.830E-02
DAV:   4    -0.102474289257E+03   -0.17108E-04   -0.30948E-04   132   0.624E-02    0.193E-02
DAV:   5    -0.102474279566E+03    0.96910E-05   -0.46533E-05   132   0.250E-02    0.116E-02
DAV:   6    -0.102474278494E+03    0.10719E-05   -0.74634E-06   132   0.851E-03    0.750E-03
DAV:   7    -0.102474285852E+03   -0.73580E-05   -0.11519E-06   120   0.375E-03    0.217E-03
DAV:   8    -0.102474291931E+03   -0.60785E-05   -0.50016E-07   108   0.252E-03    0.951E-04
DAV:   9    -0.102474300131E+03   -0.82006E-05   -0.69983E-07   120   0.219E-03    0.814E-04
DAV:  10    -0.102474311720E+03   -0.11589E-04   -0.10741E-06   120   0.226E-03    0.530E-04
DAV:  11    -0.102474313958E+03   -0.22383E-05   -0.83506E-08   108   0.931E-04    0.415E-04
DAV:  12    -0.102474316942E+03   -0.29840E-05   -0.86334E-08    96   0.695E-04    0.225E-04
DAV:  13    -0.102474319667E+03   -0.27249E-05   -0.11633E-07   108   0.690E-04    0.163E-04
DAV:  14    -0.102474320953E+03   -0.12856E-05   -0.33299E-08   108   0.389E-04    0.126E-04
DAV:  15    -0.102474321466E+03   -0.51299E-06   -0.19458E-09   108   0.206E-04
  23 F= -.10247432E+03 E0= -.10247432E+03  d E =-.421510E-10
       N       E                     dE             d eps       ncg     rms          rms(c)
DAV:   1    -0.102474020946E+03    0.30001E-03   -0.16777E-01    96   0.121E+00    0.182E-01
DAV:   2    -0.102475098981E+03   -0.10780E-02   -0.11671E-02   132   0.361E-01    0.111E-01
DAV:   3    -0.102475020127E+03    0.78854E-04   -0.32241E-04   132   0.736E-02    0.564E-02
DAV:   4    -0.102475022540E+03   -0.24133E-05   -0.19102E-04   120   0.486E-02    0.118E-02
DAV:   5    -0.102475016979E+03    0.55609E-05   -0.29907E-05   132   0.201E-02    0.825E-03
DAV:   6    -0.102475017012E+03   -0.32252E-07   -0.51793E-06   132   0.653E-03
  24 F= -.10247502E+03 E0= -.10247502E+03  d E =-.346792E-10
       N       E                     dE             d eps       ncg     rms          rms(c)
DAV:   1    -0.102473729499E+03    0.12875E-02   -0.33572E-01    96   0.164E+00    0.217E-01
DAV:   2    -0.102475362766E+03   -0.16333E-02   -0.17368E-02   132   0.441E-01    0.123E-01
DAV:   3    -0.102475320963E+03    0.41803E-04   -0.52825E-04   132   0.885E-02    0.665E-02
DAV:   4    -0.102475351370E+03   -0.30407E-04   -0.17588E-04   132   0.502E-02    0.167E-02
DAV:   5    -0.102475347785E+03    0.35850E-05   -0.32726E-05   132   0.217E-02    0.896E-03
DAV:   6    -0.102475347279E+03    0.50527E-06   -0.63677E-06   132   0.819E-03
  25 F= -.10247535E+03 E0= -.10247535E+03  d E =-.592668E-10
       N       E                     dE             d eps       ncg     rms          rms(c)
DAV:   1    -0.102472841305E+03    0.25065E-02   -0.16372E-01    96   0.130E+00    0.159E-01
DAV:   2    -0.102474082771E+03   -0.12415E-02   -0.12871E-02   132   0.399E-01    0.106E-01
DAV:   3    -0.102474038200E+03    0.44571E-04   -0.30782E-04   132   0.722E-02    0.590E-02
DAV:   4    -0.102474042740E+03   -0.45409E-05   -0.14668E-04   132   0.489E-02    0.104E-02
DAV:   5    -0.102474038949E+03    0.37912E-05   -0.31890E-05   132   0.214E-02    0.764E-03
DAV:   6    -0.102474038216E+03    0.73328E-06   -0.40247E-06   132   0.692E-03
  26 F= -.10247404E+03 E0= -.10247404E+03  d E =-.361803E-10
       N       E                     dE             d eps       ncg     rms          rms(c)
DAV:   1    -0.102471892751E+03    0.21462E-02   -0.34835E-01    96   0.188E+00    0.250E-01
DAV:   2    -0.102473978161E+03   -0.20854E-02   -0.21122E-02   132   0.527E-01    0.162E-01
DAV:   3    -0.102473926023E+03    0.52138E-04   -0.52093E-04   132   0.948E-02    0.865E-02
DAV:   4    -0.102473906749E+03    0.19274E-04   -0.26666E-04   132   0.611E-02    0.152E-02
DAV:   5    -0.102473895513E+03    0.11236E-04   -0.40657E-05   132   0.243E-02    0.109E-02
DAV:   6    -0.102473897272E+03   -0.17596E-05   -0.13308E-05   132   0.123E-02    0.611E-03
DAV:   7    -0.102473916731E+03   -0.19459E-04   -0.40115E-06   120   0.731E-03    0.229E-03
DAV:   8    -0.102473938090E+03   -0.21359E-04   -0.17727E-06   108   0.452E-03    0.122E-03
DAV:   9    -0.102473962422E+03   -0.24332E-04   -0.25837E-06   108   0.413E-03    0.113E-03
DAV:  10    -0.102473980346E+03   -0.17924E-04   -0.16312E-06   120   0.291E-03    0.580E-04
DAV:  11    -0.102473988724E+03   -0.83780E-05   -0.43971E-07   108   0.152E-03    0.303E-04
DAV:  12    -0.102473993010E+03   -0.42855E-05   -0.22369E-07   108   0.974E-04    0.190E-04
DAV:  13    -0.102473995234E+03   -0.22244E-05   -0.65992E-08   108   0.595E-04    0.860E-05
DAV:  14    -0.102473995933E+03   -0.69883E-06   -0.90180E-09   108   0.304E-04
  27 F= -.10247400E+03 E0= -.10247400E+03  d E =-.663570E-10
       N       E                     dE             d eps       ncg     rms          rms(c)
DAV:   1    -0.102474512729E+03   -0.51749E-03   -0.16680E-01    96   0.128E+00    0.160E-01
DAV:   2    -0.102475575789E+03   -0.10631E-02   -0.10862E-02   132   0.372E-01    0.105E-01
DAV:   3    -0.102475541696E+03    0.34092E-04   -0.24208E-04   132   0.655E-02    0.555E-02
DAV:   4    -0.102475542269E+03   -0.57219E-06   -0.13266E-04   132   0.453E-02    0.106E-02
DAV:   5    -0.102475536720E+03    0.55486E-05   -0.27332E-05   132   0.200E-02    0.783E-03
DAV:   6    -0.102475536343E+03    0.37701E-06   -0.52101E-06   132   0.734E-03
  28 F= -.10247554E+03 E0= -.10247554E+03  d E =-.598352E-10
       N       E                     dE             d eps       ncg     rms          rms(c)
DAV:   1    -0.102473376727E+03    0.21600E-02   -0.33781E-01    96   0.175E+00    0.232E-01
DAV:   2    -0.102474900577E+03   -0.15238E-02   -0.15618E-02   132   0.436E-01    0.119E-01
DAV:   3    -0.102474899968E+03    0.60816E-06   -0.48346E-04   132   0.866E-02    0.621E-02
DAV:   4    -0.102474932529E+03   -0.32560E-04   -0.14790E-04   132   0.518E-02    0.144E-02
DAV:   5    -0.102474932787E+03   -0.25874E-06   -0.40048E-05   132   0.238E-02    0.108E-02
DAV:   6    -0.102474933772E+03   -0.98462E-06   -0.56640E-06   132   0.778E-03
  29 F= -.10247493E+03 E0= -.10247493E+03  d E =-.413947E-10
       N       E                     dE             d eps       ncg     rms          rms(c)
DAV:   1    -0.102472637431E+03    0.22954E-02   -0.16933E-01    96   0.129E+00    0.166E-01
DAV:   2    -0.102473590053E+03   -0.95262E-03   -0.97186E-03   132   0.354E-01    0.958E-02
DAV:   3    -0.102473575665E+03    0.14388E-04   -0.25748E-04   132   0.661E-02    0.497E-02
DAV:   4    -0.102473591637E+03   -0.15971E-04   -0.11107E-04   132   0.420E-02    0.110E-02
DAV:   5    -0.102473590352E+03    0.12844E-05   -0.23933E-05   132   0.187E-02    0.689E-03
DAV:   6    -0.102473591702E+03   -0.13495E-05   -0.43085E-06   132   0.672E-03    0.405E-03
DAV:   7    -0.102473596017E+03   -0.43149E-05   -0.55584E-07   108   0.315E-03    0.171E-03
DAV:   8    -0.102473602573E+03   -0.65561E-05   -0.75541E-07   108   0.324E-03    0.840E-04
DAV:   9    -0.102473609129E+03   -0.65563E-05   -0.44501E-07   108   0.216E-03    0.682E-04
DAV:  10    -0.102473615908E+03   -0.67787E-05   -0.33464E-07   108   0.154E-03    0.294E-04
DAV:  11    -0.102473618459E+03   -0.25514E-05   -0.83951E-08   108   0.853E-04    0.257E-04
DAV:  12    -0.102473621266E+03   -0.28071E-05   -0.50404E-08   108   0.579E-04    0.141E-04
DAV:  13    -0.102473623220E+03   -0.19535E-05   -0.46613E-08   108   0.468E-04    0.115E-04
DAV:  14    -0.102473624391E+03   -0.11714E-05   -0.13325E-08   108   0.285E-04    0.545E-05
DAV:  15    -0.102473624873E+03   -0.48182E-06    0.54960E-11   108   0.169E-04
  30 F= -.10247362E+03 E0= -.10247362E+03  d E =-.623962E-10
       N       E                     dE             d eps       ncg     rms          rms(c)
DAV:   1    -0.102471333547E+03    0.22908E-02   -0.34782E-01    96   0.187E+00    0.251E-01
DAV:   2    -0.102473787770E+03   -0.24542E-02   -0.25065E-02   132   0.580E-01    0.176E-01
DAV:   3    -0.102473673336E+03    0.11443E-03   -0.61163E-04   156   0.108E-01    0.892E-02
DAV:   4    -0.102473671100E+03    0.22358E-05   -0.36870E-04   120   0.736E-02    0.170E-02
DAV:   5    -0.102473662071E+03    0.90290E-05   -0.73898E-05   132   0.320E-02    0.109E-02
DAV:   6    -0.102473671964E+03   -0.98929E-05   -0.14609E-05   132   0.108E-02    0.615E-03
DAV:   7    -0.102473698630E+03   -0.26666E-04   -0.17286E-06   120   0.417E-03    0.285E-03
DAV:   8    -0.102473734848E+03   -0.36217E-04   -0.51916E-06   132   0.637E-03    0.172E-03
DAV:   9    -0.102473754184E+03   -0.19337E-04   -0.18620E-06   120   0.360E-03    0.164E-03
DAV:  10    -0.102473774996E+03   -0.20812E-04   -0.17865E-06   108   0.305E-03    0.600E-04
DAV:  11    -0.102473780445E+03   -0.54487E-05   -0.25581E-07   108   0.140E-03    0.387E-04
DAV:  12    -0.102473787089E+03   -0.66438E-05   -0.27575E-07    96   0.116E-03    0.175E-04
DAV:  13    -0.102473789430E+03   -0.23418E-05   -0.94348E-08   108   0.636E-04    0.187E-04
DAV:  14    -0.102473791388E+03   -0.19574E-05   -0.38078E-08    96   0.485E-04    0.103E-04
DAV:  15    -0.102473791998E+03   -0.61013E-06   -0.99723E-09   108   0.284E-04
  31 F= -.10247379E+03 E0= -.10247379E+03  d E =-.348940E-10
       N       E                     dE             d eps       ncg     rms          rms(c)
DAV:   1    -0.102473773666E+03    0.17722E-04   -0.17111E-01    96   0.132E+00    0.181E-01
DAV:   2    -0.102475053934E+03   -0.12803E-02   -0.13536E-02   132   0.414E-01    0.114E-01
DAV:   3    -0.102474992814E+03    0.61120E-04   -0.33867E-04   144   0.770E-02    0.648E-02
DAV:   4    -0.102474980447E+03    0.12366E-04   -0.17672E-04   132   0.547E-02    0.118E-02
DAV:   5    -0.102474974043E+03    0.64041E-05   -0.51034E-05   132   0.265E-02    0.936E-03
DAV:   6    -0.102474972298E+03    0.17456E-05   -0.60915E-06   132   0.828E-03    0.646E-03
DAV:   7    -0.102474979260E+03   -0.69620E-05   -0.15430E-06   120   0.530E-03    0.276E-03
DAV:   8    -0.102474993157E+03   -0.13897E-04   -0.23156E-06   132   0.544E-03    0.140E-03
DAV:   9    -0.102475005508E+03   -0.12351E-04   -0.76986E-07   108   0.310E-03    0.116E-03
DAV:  10    -0.102475016662E+03   -0.11154E-04   -0.57897E-07   108   0.192E-03    0.529E-04
DAV:  11    -0.102475023716E+03   -0.70544E-05   -0.28443E-07   108   0.122E-03    0.272E-04
DAV:  12    -0.102475029236E+03   -0.55196E-05   -0.17947E-07   108   0.887E-04    0.116E-04
DAV:  13    -0.102475031957E+03   -0.27211E-05   -0.76657E-08   108   0.571E-04    0.149E-04
DAV:  14    -0.102475033639E+03   -0.16818E-05   -0.24207E-08   108   0.372E-04    0.586E-05
DAV:  15    -0.102475034190E+03   -0.55120E-06   -0.51968E-09   108   0.229E-04
  32 F= -.10247503E+03 E0= -.10247503E+03  d E =-.747385E-10
       N       E                     dE             d eps       ncg     rms          rms(c)
DAV:   1    -0.102472933194E+03    0.21004E-02   -0.34081E-01    96   0.179E+00    0.252E-01
DAV:   2    -0.102474744275E+03   -0.18111E-02   -0.18696E-02   132   0.490E-01    0.135E-01
DAV:   3    -0.102474689661E+03    0.54614E-04   -0.50030E-04   132   0.914E-02    0.717E-02
DAV:   4    -0.102474702036E+03   -0.12375E-04   -0.22917E-04   132   0.609E-02    0.157E-02
DAV:   5    -0.102474695142E+03    0.68948E-05   -0.55194E-05   132   0.284E-02    0.109E-02
DAV:   6    -0.102474695215E+03   -0.73509E-07   -0.86359E-06   132   0.970E-03
  33 F= -.10247470E+03 E0= -.10247470E+03  d E =-.315846E-10
       N       E                     dE             d eps       ncg     rms          rms(c)
DAV:   1    -0.102473675652E+03    0.10195E-02   -0.16825E-01    96   0.124E+00    0.162E-01
DAV:   2    -0.102474456895E+03   -0.78124E-03   -0.79688E-03   132   0.307E-01    0.820E-02
DAV:   3    -0.102474465255E+03   -0.83597E-05   -0.23898E-04   132   0.597E-02    0.435E-02
DAV:   4    -0.102474487780E+03   -0.22525E-04   -0.67360E-05   132   0.350E-02    0.950E-03
DAV:   5    -0.102474491009E+03   -0.32289E-05   -0.19415E-05   132   0.164E-02    0.723E-03
DAV:   6    -0.102474493487E+03   -0.24774E-05   -0.26680E-06   132   0.534E-03    0.491E-03
DAV:   7    -0.102474498665E+03   -0.51786E-05   -0.40249E-07   108   0.249E-03    0.199E-03
DAV:   8    -0.102474504339E+03   -0.56742E-05   -0.56098E-07   108   0.273E-03    0.848E-04
DAV:   9    -0.102474511283E+03   -0.69434E-05   -0.36180E-07   108   0.229E-03    0.492E-04
DAV:  10    -0.102474515383E+03   -0.41003E-05   -0.24034E-07   108   0.153E-03    0.599E-04
DAV:  11    -0.102474516984E+03   -0.16008E-05   -0.45375E-08   108   0.807E-04    0.430E-04
DAV:  12    -0.102474519543E+03   -0.25589E-05   -0.56397E-08   108   0.622E-04    0.115E-04
DAV:  13    -0.102474520873E+03   -0.13298E-05   -0.21829E-08   108   0.371E-04    0.155E-04
DAV:  14    -0.102474522303E+03   -0.14300E-05   -0.19261E-08   108   0.319E-04    0.549E-05
DAV:  15    -0.102474522803E+03   -0.50055E-06   -0.20528E-09   108   0.194E-04
  34 F= -.10247452E+03 E0= -.10247452E+03  d E =-.401864E-10
       N       E                     dE             d eps       ncg     rms          rms(c)
DAV:   1    -0.102471805652E+03    0.27167E-02   -0.34425E-01    96   0.184E+00    0.232E-01
DAV:   2    -0.102474014096E+03   -0.22084E-02   -0.22532E-02   132   0.537E-01    0.159E-01
DAV:   3    -0.102473931529E+03    0.82567E-04   -0.53944E-04   132   0.992E-02    0.839E-02
DAV:   4    -0.102473932346E+03   -0.81752E-06   -0.30495E-04   132   0.684E-02    0.156E-02
DAV:   5    -0.102473926145E+03    0.62007E-05   -0.63693E-05   132   0.301E-02    0.123E-02
DAV:   6    -0.102473931924E+03   -0.57787E-05   -0.14057E-05   132   0.114E-02    0.765E-03
DAV:   7    -0.102473951391E+03   -0.19467E-04   -0.22089E-06   120   0.541E-03    0.318E-03
DAV:   8    -0.102473977579E+03   -0.26188E-04   -0.30196E-06   132   0.540E-03    0.122E-03
DAV:   9    -0.102473998215E+03   -0.20635E-04   -0.21535E-06   120   0.383E-03    0.160E-03
DAV:  10    -0.102474017195E+03   -0.18981E-04   -0.16778E-06   120   0.303E-03    0.580E-04
DAV:  11    -0.102474023947E+03   -0.67516E-05   -0.32411E-07   108   0.147E-03    0.299E-04
DAV:  12    -0.102474029902E+03   -0.59544E-05   -0.30420E-07   108   0.113E-03    0.226E-04
DAV:  13    -0.102474031869E+03   -0.19671E-05   -0.64263E-08   108   0.539E-04    0.224E-04
DAV:  14    -0.102474033713E+03   -0.18447E-05   -0.44287E-08   108   0.488E-04    0.611E-05
DAV:  15    -0.102474034147E+03   -0.43339E-06   -0.44126E-09   108   0.232E-04
  35 F= -.10247403E+03 E0= -.10247403E+03  d E =-.574692E-10
       N       E                     dE             d eps       ncg     rms          rms(c)
DAV:   1    -0.102472652167E+03    0.13815E-02   -0.16674E-01    96   0.132E+00    0.161E-01
DAV:   2    -0.102473737483E+03   -0.10853E-02   -0.11154E-02   132   0.378E-01    0.108E-01
DAV:   3    -0.102473699715E+03    0.37768E-04   -0.24576E-04   132   0.648E-02    0.562E-02
DAV:   4    -0.102473689010E+03    0.10705E-04   -0.11105E-04   132   0.406E-02    0.101E-02
DAV:   5    -0.102473681959E+03    0.70504E-05   -0.18990E-05   144   0.172E-02    0.645E-03
DAV:   6    -0.102473682204E+03   -0.24499E-06   -0.44228E-06   132   0.747E-03
  36 F= -.10247368E+03 E0= -.10247368E+03  d E =-.575604E-10
       N       E                     dE             d eps       ncg     rms          rms(c)
DAV:   1    -0.102471719662E+03    0.19623E-02   -0.34712E-01    96   0.186E+00    0.251E-01
DAV:   2    -0.102473931883E+03   -0.22122E-02   -0.22370E-02   132   0.549E-01    0.167E-01
DAV:   3    -0.102473878666E+03    0.53218E-04   -0.56974E-04   144   0.102E-01    0.856E-02
DAV:   4    -0.102473871489E+03    0.71763E-05   -0.30314E-04   132   0.657E-02    0.162E-02
DAV:   5    -0.102473860234E+03    0.11255E-04   -0.49079E-05   144   0.268E-02    0.110E-02
DAV:   6    -0.102473864924E+03   -0.46893E-05   -0.15491E-05   132   0.121E-02    0.634E-03
DAV:   7    -0.102473886163E+03   -0.21239E-04   -0.26217E-06   132   0.595E-03    0.249E-03
DAV:   8    -0.102473911268E+03   -0.25105E-04   -0.25071E-06   120   0.487E-03    0.112E-03
DAV:   9    -0.102473934514E+03   -0.23247E-04   -0.26021E-06   120   0.397E-03    0.132E-03
DAV:  10    -0.102473953734E+03   -0.19220E-04   -0.17971E-06   108   0.306E-03    0.391E-04
DAV:  11    -0.102473958945E+03   -0.52109E-05   -0.21239E-07   108   0.120E-03    0.272E-04
DAV:  12    -0.102473964634E+03   -0.56892E-05   -0.30770E-07   108   0.111E-03    0.212E-04
DAV:  13    -0.102473966025E+03   -0.13906E-05   -0.43170E-08   108   0.483E-04    0.151E-04
DAV:  14    -0.102473967389E+03   -0.13637E-05   -0.26757E-08   108   0.419E-04    0.568E-05
DAV:  15    -0.102473967937E+03   -0.54863E-06   -0.53851E-09   108   0.249E-04
  37 F= -.10247397E+03 E0= -.10247397E+03  d E =-.366598E-10
       N       E                     dE             d eps       ncg     rms          rms(c)
DAV:   1    -0.102472806286E+03    0.11611E-02   -0.18335E-01    96   0.135E+00    0.166E-01
DAV:   2    -0.102474084547E+03   -0.12783E-02   -0.14460E-02   132   0.412E-01    0.110E-01
DAV:   3    -0.102474026727E+03    0.57820E-04   -0.28219E-04   144   0.651E-02    0.646E-02
DAV:   4    -0.102473996662E+03    0.30065E-04   -0.11901E-04   132   0.433E-02    0.103E-02
DAV:   5    -0.102473986521E+03    0.10142E-04   -0.28116E-05   132   0.197E-02    0.715E-03
DAV:   6    -0.102473984673E+03    0.18477E-05   -0.56929E-06   132   0.808E-03    0.461E-03
DAV:   7    -0.102473995856E+03   -0.11183E-04   -0.24845E-06   132   0.570E-03    0.169E-03
DAV:   8    -0.102474012777E+03   -0.16921E-04   -0.12734E-06   120   0.402E-03    0.122E-03
DAV:   9    -0.102474028369E+03   -0.15591E-04   -0.76864E-07   108   0.265E-03    0.106E-03
DAV:  10    -0.102474044654E+03   -0.16286E-04   -0.82193E-07   108   0.201E-03    0.358E-04
DAV:  11    -0.102474050181E+03   -0.55267E-05   -0.16911E-07   108   0.939E-04    0.319E-04
DAV:  12    -0.102474057063E+03   -0.68823E-05   -0.15740E-07   108   0.913E-04    0.130E-04
DAV:  13    -0.102474059357E+03   -0.22937E-05   -0.56033E-08   108   0.521E-04    0.130E-04
DAV:  14    -0.102474061098E+03   -0.17405E-05   -0.12441E-08   108   0.370E-04    0.870E-05
DAV:  15    -0.102474062166E+03   -0.10679E-05   -0.11242E-08   108   0.279E-04    0.477E-05
DAV:  16    -0.102474062568E+03   -0.40231E-06    0.32996E-09   108   0.151E-04
  38 F= -.10247406E+03 E0= -.10247406E+03  d E =-.475417E-10
       N       E                     dE             d eps       ncg     rms          rms(c)
DAV:   1    -0.102472715083E+03    0.13471E-02   -0.40037E-01   108   0.161E+00    0.215E-01
DAV:   2    -0.102474391956E+03   -0.16769E-02   -0.20395E-02   132   0.399E-01    0.131E-01
DAV:   3    -0.102474275479E+03    0.11648E-03   -0.33260E-04   132   0.632E-02    0.720E-02
DAV:   4    -0.102474221927E+03    0.53552E-04   -0.14617E-04   132   0.451E-02    0.117E-02
DAV:   5    -0.102474215057E+03    0.68699E-05   -0.31087E-05   132   0.206E-02    0.831E-03
DAV:   6    -0.102474225368E+03   -0.10311E-04   -0.10712E-05   132   0.863E-03    0.489E-03
DAV:   7    -0.102474248537E+03   -0.23169E-04   -0.18102E-06   132   0.392E-03    0.238E-03
DAV:   8    -0.102474285275E+03   -0.36738E-04   -0.42573E-06   108   0.445E-03    0.136E-03
DAV:   9    -0.102474303994E+03   -0.18719E-04   -0.12532E-06   120   0.251E-03    0.111E-03
DAV:  10    -0.102474327992E+03   -0.23998E-04   -0.21985E-06   120   0.285E-03    0.351E-04
DAV:  11    -0.102474335102E+03   -0.71096E-05   -0.27000E-07   108   0.123E-03    0.361E-04
DAV:  12    -0.102474341913E+03   -0.68113E-05   -0.30690E-07   108   0.111E-03    0.149E-04
DAV:  13    -0.102474343773E+03   -0.18604E-05   -0.63526E-08   108   0.517E-04    0.116E-04
DAV:  14    -0.102474345483E+03   -0.17097E-05   -0.22394E-08   108   0.376E-04    0.509E-05
DAV:  15    -0.102474345986E+03   -0.50334E-06   -0.32731E-09   108   0.203E-04
  39 F= -.10247435E+03 E0= -.10247435E+03  d E =-.430866E-10
       N       E                     dE             d eps       ncg     rms          rms(c)
DAV:   1    -0.102473594312E+03    0.75117E-03   -0.20234E-01    96   0.117E+00    0.151E-01
DAV:   2    -0.102474324660E+03   -0.73035E-03   -0.88952E-03   132   0.266E-01    0.799E-02
DAV:   3    -0.102474279637E+03    0.45023E-04   -0.16897E-04   132   0.428E-02    0.422E-02
DAV:   4    -0.102474253326E+03    0.26311E-04   -0.49091E-05   132   0.267E-02    0.865E-03
DAV:   5    -0.102474246034E+03    0.72921E-05   -0.98160E-06   132   0.125E-02    0.527E-03
DAV:   6    -0.102474247120E+03   -0.10859E-05   -0.32864E-06   132   0.579E-03    0.305E-03
DAV:   7    -0.102474254293E+03   -0.71732E-05   -0.71527E-07   108   0.361E-03    0.123E-03
DAV:   8    -0.102474264400E+03   -0.10107E-04   -0.88741E-07   120   0.298E-03    0.102E-03
DAV:   9    -0.102474279500E+03   -0.15099E-04   -0.95980E-07   120   0.254E-03    0.407E-04
DAV:  10    -0.102474286522E+03   -0.70223E-05   -0.27278E-07   108   0.139E-03    0.364E-04
DAV:  11    -0.102474291638E+03   -0.51160E-05   -0.10684E-07   108   0.787E-04    0.178E-04
DAV:  12    -0.102474296502E+03   -0.48640E-05   -0.14585E-07   108   0.750E-04    0.118E-04
DAV:  13    -0.102474298133E+03   -0.16318E-05   -0.19221E-08   108   0.348E-04    0.639E-05
DAV:  14    -0.102474299454E+03   -0.13208E-05   -0.20303E-08   108   0.300E-04    0.423E-05
DAV:  15    -0.102474300065E+03   -0.61048E-06   -0.10534E-11   108   0.178E-04
  40 F= -.10247430E+03 E0= -.10247430E+03  d E =-.482430E-10
       N       E                     dE             d eps       ncg     rms          rms(c)
DAV:   1    -0.102473306490E+03    0.99296E-03   -0.40241E-01    96   0.163E+00    0.216E-01
DAV:   2    -0.102474854484E+03   -0.15480E-02   -0.18971E-02   132   0.383E-01    0.120E-01
DAV:   3    -0.102474750847E+03    0.10364E-03   -0.33670E-04   144   0.603E-02    0.650E-02
DAV:   4    -0.102474682375E+03    0.68472E-04   -0.98376E-05   132   0.373E-02    0.123E-02
DAV:   5    -0.102474675824E+03    0.65503E-05   -0.19442E-05   132   0.174E-02    0.737E-03
DAV:   6    -0.102474691329E+03   -0.15505E-04   -0.77077E-06   132   0.875E-03    0.411E-03
DAV:   7    -0.102474721193E+03   -0.29864E-04   -0.36483E-06   132   0.590E-03    0.197E-03
DAV:   8    -0.102474756511E+03   -0.35318E-04   -0.33465E-06   132   0.467E-03    0.130E-03
DAV:   9    -0.102474781714E+03   -0.25204E-04   -0.23797E-06   120   0.343E-03    0.847E-04
DAV:  10    -0.102474799276E+03   -0.17562E-04   -0.13874E-06   120   0.239E-03    0.466E-04
DAV:  11    -0.102474806778E+03   -0.75016E-05   -0.30527E-07   108   0.121E-03    0.308E-04
DAV:  12    -0.102474812718E+03   -0.59395E-05   -0.35156E-07   108   0.112E-03    0.169E-04
DAV:  13    -0.102474814307E+03   -0.15898E-05   -0.47509E-08   108   0.498E-04    0.885E-05
DAV:  14    -0.102474815391E+03   -0.10836E-05   -0.15211E-08   108   0.329E-04    0.483E-05
DAV:  15    -0.102474815776E+03   -0.38465E-06   -0.14535E-09   108   0.184E-04
  41 F= -.10247482E+03 E0= -.10247482E+03  d E =-.458053E-10
       N       E                     dE             d eps       ncg     rms          rms(c)
DAV:   1    -0.102474735590E+03    0.79801E-04   -0.20494E-01    96   0.115E+00    0.152E-01
DAV:   2    -0.102475428972E+03   -0.69338E-03   -0.83806E-03   132   0.262E-01    0.731E-02
DAV:   3    -0.102475396171E+03    0.32800E-04   -0.18434E-04   144   0.469E-02    0.384E-02
DAV:   4    -0.102475383298E+03    0.12873E-04   -0.44339E-05   132   0.295E-02    0.922E-03
DAV:   5    -0.102475379691E+03    0.36067E-05   -0.13872E-05   144   0.144E-02    0.650E-03
DAV:   6    -0.102475379962E+03   -0.27095E-06   -0.22292E-06   132   0.478E-03
  42 F= -.10247538E+03 E0= -.10247538E+03  d E =-.417739E-10
       N       E                     dE             d eps       ncg     rms          rms(c)
DAV:   1    -0.102473930091E+03    0.14496E-02   -0.41064E-01    96   0.162E+00    0.214E-01
DAV:   2    -0.102475271024E+03   -0.13409E-02   -0.16138E-02   132   0.353E-01    0.996E-02
DAV:   3    -0.102475217431E+03    0.53593E-04   -0.37322E-04   144   0.660E-02    0.520E-02
DAV:   4    -0.102475200924E+03    0.16507E-04   -0.85466E-05   144   0.400E-02    0.134E-02
DAV:   5    -0.102475197408E+03    0.35160E-05   -0.23389E-05   132   0.190E-02    0.860E-03
DAV:   6    -0.102475199607E+03   -0.21993E-05   -0.40762E-06   132   0.689E-03    0.515E-03
DAV:   7    -0.102475206867E+03   -0.72592E-05   -0.83311E-07   108   0.396E-03    0.170E-03
DAV:   8    -0.102475215810E+03   -0.89430E-05   -0.90968E-07   120   0.342E-03    0.120E-03
DAV:   9    -0.102475231354E+03   -0.15545E-04   -0.10482E-06   120   0.345E-03    0.535E-04
DAV:  10    -0.102475238073E+03   -0.67190E-05   -0.43377E-07   108   0.204E-03    0.570E-04
DAV:  11    -0.102475240730E+03   -0.26571E-05   -0.72601E-08   108   0.907E-04    0.404E-04
DAV:  12    -0.102475246651E+03   -0.59205E-05   -0.18817E-07   108   0.986E-04    0.183E-04
DAV:  13    -0.102475248760E+03   -0.21090E-05   -0.54599E-08   108   0.536E-04    0.217E-04
DAV:  14    -0.102475250658E+03   -0.18979E-05   -0.32491E-08   108   0.430E-04    0.597E-05
DAV:  15    -0.102475251284E+03   -0.62603E-06   -0.57056E-09   108   0.244E-04
  43 F= -.10247525E+03 E0= -.10247525E+03  d E =-.464836E-10
       N       E                     dE             d eps       ncg     rms          rms(c)
DAV:   1    -0.102473622093E+03    0.16286E-02   -0.19868E-01    96   0.131E+00    0.156E-01
DAV:   2    -0.102474650676E+03   -0.10286E-02   -0.12286E-02   132   0.316E-01    0.805E-02
DAV:   3    -0.102474603280E+03    0.47396E-04   -0.24942E-04   144   0.540E-02    0.441E-02
DAV:   4    -0.102474573987E+03    0.29292E-04   -0.56336E-05   132   0.316E-02    0.103E-02
DAV:   5    -0.102474566011E+03    0.79761E-05   -0.16609E-05   132   0.161E-02    0.645E-03
DAV:   6    -0.102474568148E+03   -0.21371E-05   -0.29968E-06   132   0.626E-03    0.403E-03
DAV:   7    -0.102474577478E+03   -0.93294E-05   -0.10070E-06   120   0.362E-03    0.155E-03
DAV:   8    -0.102474589477E+03   -0.11999E-04   -0.91482E-07   120   0.313E-03    0.974E-04
DAV:   9    -0.102474605988E+03   -0.16511E-04   -0.13834E-06   120   0.299E-03    0.559E-04
DAV:  10    -0.102474613858E+03   -0.78702E-05   -0.50559E-07   108   0.185E-03    0.442E-04
DAV:  11    -0.102474618398E+03   -0.45401E-05   -0.20256E-07   108   0.107E-03    0.237E-04
DAV:  12    -0.102474621211E+03   -0.28129E-05   -0.10647E-07   108   0.699E-04    0.170E-04
DAV:  13    -0.102474622579E+03   -0.13681E-05   -0.31980E-08   108   0.418E-04    0.967E-05
DAV:  14    -0.102474623408E+03   -0.82875E-06   -0.16488E-08   108   0.294E-04
  44 F= -.10247462E+03 E0= -.10247462E+03  d E =-.370521E-10
       N       E                     dE             d eps       ncg     rms          rms(c)
DAV:   1    -0.102472993015E+03    0.16296E-02   -0.39548E-01    96   0.173E+00    0.206E-01
DAV:   2    -0.102474557315E+03   -0.15643E-02   -0.19192E-02   132   0.396E-01    0.120E-01
DAV:   3    -0.102474427933E+03    0.12938E-03   -0.33277E-04   132   0.674E-02    0.611E-02
DAV:   4    -0.102474382293E+03    0.45640E-04   -0.14060E-04   132   0.445E-02    0.119E-02
DAV:   5    -0.102474371161E+03    0.11132E-04   -0.24445E-05   132   0.188E-02    0.764E-03
DAV:   6    -0.102474374423E+03   -0.32628E-05   -0.68962E-06   132   0.771E-03    0.423E-03
DAV:   7    -0.102474388757E+03   -0.14333E-04   -0.15121E-06   132   0.397E-03    0.177E-03
DAV:   8    -0.102474410109E+03   -0.21353E-04   -0.12847E-06   120   0.301E-03    0.118E-03
DAV:   9    -0.102474431358E+03   -0.21248E-04   -0.11350E-06   120   0.230E-03    0.738E-04
DAV:  10    -0.102474449038E+03   -0.17680E-04   -0.10009E-06   120   0.191E-03    0.410E-04
DAV:  11    -0.102474454755E+03   -0.57179E-05   -0.82464E-08   108   0.829E-04    0.239E-04
DAV:  12    -0.102474461889E+03   -0.71333E-05   -0.23039E-07   108   0.963E-04    0.131E-04
DAV:  13    -0.102474463655E+03   -0.17662E-05   -0.23070E-08   108   0.411E-04    0.900E-05
DAV:  14    -0.102474465169E+03   -0.15144E-05   -0.11131E-08   108   0.304E-04    0.469E-05
DAV:  15    -0.102474465778E+03   -0.60829E-06    0.39027E-11   108   0.177E-04
  45 F= -.10247447E+03 E0= -.10247447E+03  d E =-.691443E-10
       N       E                     dE             d eps       ncg     rms          rms(c)
DAV:   1    -0.102475319806E+03   -0.85464E-03   -0.20011E-01    96   0.124E+00    0.156E-01
DAV:   2    -0.102476027104E+03   -0.70730E-03   -0.87201E-03   132   0.282E-01    0.784E-02
DAV:   3    -0.102475972854E+03    0.54250E-04   -0.18011E-04   144   0.490E-02    0.400E-02
DAV:   4    -0.102475951705E+03    0.21149E-04   -0.56324E-05   132   0.297E-02    0.879E-03
DAV:   5    -0.102475946975E+03    0.47304E-05   -0.11235E-05   132   0.129E-02    0.513E-03
DAV:   6    -0.102475949835E+03   -0.28608E-05   -0.26078E-06   132   0.518E-03    0.296E-03
DAV:   7    -0.102475958600E+03   -0.87643E-05   -0.69014E-07   108   0.277E-03    0.106E-03
DAV:   8    -0.102475967896E+03   -0.92960E-05   -0.73309E-07   120   0.224E-03    0.803E-04
DAV:   9    -0.102475979886E+03   -0.11990E-04   -0.87922E-07   120   0.218E-03    0.385E-04
DAV:  10    -0.102475986523E+03   -0.66380E-05   -0.43108E-07   108   0.146E-03    0.311E-04
DAV:  11    -0.102475988700E+03   -0.21769E-05   -0.81775E-08   108   0.726E-04    0.176E-04
DAV:  12    -0.102475991881E+03   -0.31801E-05   -0.14860E-07   108   0.781E-04    0.103E-04
DAV:  13    -0.102475992684E+03   -0.80375E-06   -0.24669E-08   108   0.355E-04
  46 F= -.10247599E+03 E0= -.10247599E+03  d E =-.908984E-11
       N       E                     dE             d eps       ncg     rms          rms(c)
DAV:   1    -0.102474130742E+03    0.18611E-02   -0.40707E-01    96   0.176E+00    0.191E-01
DAV:   2    -0.102475388185E+03   -0.12574E-02   -0.15026E-02   132   0.358E-01    0.842E-02
DAV:   3    -0.102475332845E+03    0.55339E-04   -0.33228E-04   132   0.639E-02    0.426E-02
DAV:   4    -0.102475319115E+03    0.13730E-04   -0.79981E-05   132   0.371E-02    0.122E-02
DAV:   5    -0.102475316113E+03    0.30022E-05   -0.18647E-05   132   0.173E-02    0.700E-03
DAV:   6    -0.102475317350E+03   -0.12372E-05   -0.39977E-06   132   0.708E-03    0.388E-03
DAV:   7    -0.102475321072E+03   -0.37220E-05   -0.43245E-07   108   0.290E-03    0.126E-03
DAV:   8    -0.102475325591E+03   -0.45187E-05   -0.34880E-07   108   0.244E-03    0.778E-04
DAV:   9    -0.102475334807E+03   -0.92153E-05   -0.72863E-07   108   0.310E-03    0.328E-04
DAV:  10    -0.102475338656E+03   -0.38492E-05   -0.39778E-07   108   0.185E-03    0.438E-04
DAV:  11    -0.102475340184E+03   -0.15286E-05   -0.33224E-08   108   0.740E-04    0.315E-04
DAV:  12    -0.102475343246E+03   -0.30616E-05   -0.84388E-08   108   0.775E-04    0.126E-04
DAV:  13    -0.102475344903E+03   -0.16571E-05   -0.52484E-08   108   0.517E-04    0.180E-04
DAV:  14    -0.102475345838E+03   -0.93481E-06   -0.86900E-09   108   0.312E-04
  47 F= -.10247535E+03 E0= -.10247535E+03  d E =-.115212E-10
       N       E                     dE             d eps       ncg     rms          rms(c)
DAV:   1    -0.102474686923E+03    0.65798E-03   -0.20600E-01    96   0.128E+00    0.147E-01
DAV:   2    -0.102475275134E+03   -0.58821E-03   -0.71675E-03   132   0.259E-01    0.625E-02
DAV:   3    -0.102475242802E+03    0.32332E-04   -0.16690E-04   132   0.455E-02    0.320E-02
DAV:   4    -0.102475233829E+03    0.89728E-05   -0.40304E-05   144   0.262E-02    0.959E-03
DAV:   5    -0.102475231810E+03    0.20186E-05   -0.93458E-06   132   0.123E-02    0.552E-03
DAV:   6    -0.102475232170E+03   -0.35982E-06   -0.19206E-06   120   0.534E-03
  48 F= -.10247523E+03 E0= -.10247523E+03  d E =-.298248E-10
       N       E                     dE             d eps       ncg     rms          rms(c)
DAV:   1    -0.102474257094E+03    0.97472E-03   -0.40739E-01   108   0.180E+00    0.220E-01
DAV:   2    -0.102475485492E+03   -0.12284E-02   -0.15013E-02   132   0.379E-01    0.953E-02
DAV:   3    -0.102475421065E+03    0.64426E-04   -0.34659E-04   144   0.664E-02    0.488E-02
DAV:   4    -0.102475401857E+03    0.19208E-04   -0.86013E-05   144   0.381E-02    0.128E-02
DAV:   5    -0.102475396081E+03    0.57760E-05   -0.19743E-05   144   0.174E-02    0.735E-03
DAV:   6    -0.102475397014E+03   -0.93226E-06   -0.37201E-06   132   0.675E-03
  49 F= -.10247540E+03 E0= -.10247540E+03  d E =-.664293E-10
       N       E                     dE             d eps       ncg     rms          rms(c)
DAV:   1    -0.102474313574E+03    0.10825E-02   -0.19869E-01    96   0.128E+00    0.158E-01
DAV:   2    -0.102475452266E+03   -0.11387E-02   -0.13305E-02   132   0.305E-01    0.722E-02
DAV:   3    -0.102475420036E+03    0.32230E-04   -0.28350E-04   144   0.558E-02    0.397E-02
DAV:   4    -0.102475415019E+03    0.50176E-05   -0.62002E-05   132   0.309E-02    0.109E-02
DAV:   5    -0.102475413142E+03    0.18773E-05   -0.14304E-05   132   0.149E-02    0.620E-03
DAV:   6    -0.102475413542E+03   -0.40088E-06   -0.27095E-06   132   0.621E-03
  50 F= -.10247541E+03 E0= -.10247541E+03  d E =-.600316E-11
       N       E                     dE             d eps       ncg     rms          rms(c)
DAV:   1    -0.102473626472E+03    0.17867E-02   -0.40188E-01    96   0.174E+00    0.192E-01
DAV:   2    -0.102475104061E+03   -0.14776E-02   -0.17483E-02   120   0.385E-01    0.100E-01
DAV:   3    -0.102475042215E+03    0.61846E-04   -0.34967E-04   144   0.674E-02    0.531E-02
DAV:   4    -0.102475013915E+03    0.28300E-04   -0.10851E-04   144   0.409E-02    0.116E-02
DAV:   5    -0.102475006144E+03    0.77714E-05   -0.21863E-05   132   0.178E-02    0.741E-03
DAV:   6    -0.102475006731E+03   -0.58745E-06   -0.50154E-06   132   0.753E-03
  51 F= -.10247501E+03 E0= -.10247501E+03  d E =-.186180E-10
       N       E                     dE             d eps       ncg     rms          rms(c)
DAV:   1    -0.102474345752E+03    0.66039E-03   -0.20443E-01    96   0.126E+00    0.143E-01
DAV:   2    -0.102474984497E+03   -0.63875E-03   -0.76032E-03   132   0.258E-01    0.604E-02
DAV:   3    -0.102474964516E+03    0.19981E-04   -0.17028E-04   132   0.458E-02    0.308E-02
DAV:   4    -0.102474966227E+03   -0.17113E-05   -0.40298E-05   144   0.259E-02    0.888E-03
DAV:   5    -0.102474968540E+03   -0.23129E-05   -0.87777E-06   132   0.117E-02    0.490E-03
DAV:   6    -0.102474971549E+03   -0.30091E-05   -0.18673E-06   132   0.476E-03    0.275E-03
DAV:   7    -0.102474976045E+03   -0.44954E-05   -0.29763E-07   108   0.205E-03    0.882E-04
DAV:   8    -0.102474980015E+03   -0.39705E-05   -0.24113E-07   108   0.162E-03    0.525E-04
DAV:   9    -0.102474986554E+03   -0.65383E-05   -0.52915E-07   120   0.214E-03    0.243E-04
DAV:  10    -0.102474988928E+03   -0.23740E-05   -0.15751E-07   108   0.120E-03    0.274E-04
DAV:  11    -0.102474990223E+03   -0.12954E-05   -0.31160E-08   108   0.558E-04    0.170E-04
DAV:  12    -0.102474991878E+03   -0.16552E-05   -0.39613E-08   108   0.499E-04    0.851E-05
DAV:  13    -0.102474992833E+03   -0.95436E-06   -0.22511E-08   108   0.339E-04
  52 F= -.10247499E+03 E0= -.10247499E+03  d E =-.488751E-11
       N       E                     dE             d eps       ncg     rms          rms(c)
DAV:   1    -0.102473046921E+03    0.19450E-02   -0.39652E-01    96   0.174E+00    0.213E-01
DAV:   2    -0.102474513156E+03   -0.14662E-02   -0.17942E-02   132   0.395E-01    0.116E-01
DAV:   3    -0.102474391823E+03    0.12133E-03   -0.33905E-04   132   0.680E-02    0.590E-02
DAV:   4    -0.102474351361E+03    0.40462E-04   -0.14149E-04   132   0.447E-02    0.126E-02
DAV:   5    -0.102474341665E+03    0.96954E-05   -0.23749E-05   132   0.185E-02    0.769E-03
DAV:   6    -0.102474344133E+03   -0.24670E-05   -0.59451E-06   132   0.744E-03    0.421E-03
DAV:   7    -0.102474356428E+03   -0.12295E-04   -0.14195E-06   132   0.399E-03    0.163E-03
DAV:   8    -0.102474373088E+03   -0.16660E-04   -0.92019E-07   120   0.275E-03    0.111E-03
DAV:   9    -0.102474393206E+03   -0.20118E-04   -0.11355E-06   120   0.242E-03    0.629E-04
DAV:  10    -0.102474408027E+03   -0.14821E-04   -0.82194E-07   120   0.185E-03    0.394E-04
DAV:  11    -0.102474414661E+03   -0.66340E-05   -0.12195E-07   108   0.963E-04    0.206E-04
DAV:  12    -0.102474420730E+03   -0.60687E-05   -0.20303E-07   108   0.901E-04    0.132E-04
DAV:  13    -0.102474422533E+03   -0.18034E-05   -0.19979E-08   108   0.380E-04    0.789E-05
DAV:  14    -0.102474424005E+03   -0.14721E-05   -0.12415E-08   108   0.296E-04    0.458E-05
DAV:  15    -0.102474424678E+03   -0.67326E-06   -0.10361E-09   108   0.181E-04
  53 F= -.10247442E+03 E0= -.10247442E+03  d E =-.207388E-10
       N       E                     dE             d eps       ncg     rms          rms(c)
DAV:   1    -0.102474843854E+03   -0.41985E-03   -0.20347E-01    96   0.127E+00    0.155E-01
DAV:   2    -0.102475498163E+03   -0.65431E-03   -0.80071E-03   132   0.277E-01    0.706E-02
DAV:   3    -0.102475455804E+03    0.42359E-04   -0.17535E-04   144   0.477E-02    0.363E-02
DAV:   4    -0.102475438551E+03    0.17253E-04   -0.47403E-05   132   0.282E-02    0.898E-03
DAV:   5    -0.102475435017E+03    0.35344E-05   -0.10877E-05   132   0.130E-02    0.542E-03
DAV:   6    -0.102475436557E+03   -0.15404E-05   -0.22976E-06   132   0.538E-03    0.324E-03
DAV:   7    -0.102475441662E+03   -0.51045E-05   -0.44437E-07   108   0.241E-03    0.126E-03
DAV:   8    -0.102475447849E+03   -0.61874E-05   -0.44572E-07   108   0.215E-03    0.698E-04
DAV:   9    -0.102475456398E+03   -0.85486E-05   -0.60384E-07   108   0.214E-03    0.447E-04
DAV:  10    -0.102475462413E+03   -0.60152E-05   -0.47818E-07   108   0.164E-03    0.383E-04
DAV:  11    -0.102475464366E+03   -0.19531E-05   -0.58929E-08   108   0.808E-04    0.188E-04
DAV:  12    -0.102475466523E+03   -0.21571E-05   -0.63087E-08   108   0.611E-04    0.139E-04
DAV:  13    -0.102475467563E+03   -0.10398E-05   -0.25856E-08   108   0.361E-04    0.128E-04
DAV:  14    -0.102475468318E+03   -0.75482E-06   -0.85719E-09   108   0.255E-04
  54 F= -.10247547E+03 E0= -.10247547E+03  d E =-.239173E-10
       N       E                     dE             d eps       ncg     rms          rms(c)
DAV:   1    -0.102474658286E+03    0.80928E-03   -0.41074E-01    96   0.182E+00    0.212E-01
DAV:   2    -0.102475778213E+03   -0.11199E-02   -0.13801E-02   132   0.363E-01    0.860E-02
DAV:   3    -0.102475719029E+03    0.59185E-04   -0.33204E-04   132   0.649E-02    0.437E-02
DAV:   4    -0.102475704000E+03    0.15029E-04   -0.75841E-05   132   0.369E-02    0.128E-02
DAV:   5    -0.102475701373E+03    0.26270E-05   -0.20294E-05   132   0.178E-02    0.773E-03
DAV:   6    -0.102475702367E+03   -0.99439E-06   -0.35171E-06   132   0.670E-03
  55 F= -.10247570E+03 E0= -.10247570E+03  d E =-.907086E-10
       N       E                     dE             d eps       ncg     rms          rms(c)
DAV:   1    -0.102474482372E+03    0.12190E-02   -0.22135E-01    96   0.131E+00    0.149E-01
DAV:   2    -0.102475432475E+03   -0.95010E-03   -0.10805E-02   132   0.284E-01    0.656E-02
DAV:   3    -0.102475420894E+03    0.11580E-04   -0.23220E-04   144   0.509E-02    0.336E-02
DAV:   4    -0.102475426089E+03   -0.51949E-05   -0.48023E-05   144   0.270E-02    0.961E-03
DAV:   5    -0.102475427297E+03   -0.12083E-05   -0.89207E-06   132   0.114E-02    0.557E-03
DAV:   6    -0.102475430000E+03   -0.27021E-05   -0.21449E-06   120   0.522E-03    0.246E-03
DAV:   7    -0.102475434296E+03   -0.42963E-05   -0.49357E-07   108   0.271E-03    0.900E-04
DAV:   8    -0.102475439018E+03   -0.47222E-05   -0.29077E-07   108   0.190E-03    0.518E-04
DAV:   9    -0.102475444259E+03   -0.52406E-05   -0.31875E-07   108   0.179E-03    0.289E-04
DAV:  10    -0.102475447526E+03   -0.32669E-05   -0.23478E-07   108   0.129E-03    0.226E-04
DAV:  11    -0.102475448458E+03   -0.93203E-06   -0.28727E-08   108   0.576E-04
  56 F= -.10247545E+03 E0= -.10247545E+03  d E =-.440618E-10
       N       E                     dE             d eps       ncg     rms          rms(c)
DAV:   1    -0.102473995829E+03    0.14517E-02   -0.40640E-01   120   0.158E+00    0.171E-01
DAV:   2    -0.102475373359E+03   -0.13775E-02   -0.16706E-02   132   0.348E-01    0.916E-02
DAV:   3    -0.102475341167E+03    0.32191E-04   -0.30023E-04   132   0.628E-02    0.481E-02
DAV:   4    -0.102475317697E+03    0.23470E-04   -0.70996E-05   132   0.438E-02    0.928E-03
DAV:   5    -0.102475314450E+03    0.32472E-05   -0.34469E-05   132   0.217E-02    0.880E-03
DAV:   6    -0.102475315388E+03   -0.93778E-06   -0.36035E-06   132   0.592E-03
  57 F= -.10247532E+03 E0= -.10247532E+03  d E =-.870202E-10
       N       E                     dE             d eps       ncg     rms          rms(c)
DAV:   1    -0.102474068243E+03    0.12462E-02   -0.20040E-01   108   0.114E+00    0.135E-01
DAV:   2    -0.102474862182E+03   -0.79394E-03   -0.95168E-03   132   0.269E-01    0.820E-02
DAV:   3    -0.102474841874E+03    0.20308E-04   -0.14777E-04   144   0.390E-02    0.442E-02
DAV:   4    -0.102474815878E+03    0.25996E-04   -0.47982E-05   132   0.254E-02    0.745E-03
DAV:   5    -0.102474809780E+03    0.60975E-05   -0.92116E-06   132   0.117E-02    0.466E-03
DAV:   6    -0.102474813848E+03   -0.40675E-05   -0.39052E-06   132   0.593E-03    0.253E-03
DAV:   7    -0.102474823689E+03   -0.98410E-05   -0.11208E-06   120   0.345E-03    0.134E-03
DAV:   8    -0.102474838055E+03   -0.14367E-04   -0.11606E-06   120   0.273E-03    0.724E-04
DAV:   9    -0.102474848664E+03   -0.10608E-04   -0.85341E-07   120   0.205E-03    0.624E-04
DAV:  10    -0.102474858118E+03   -0.94546E-05   -0.64344E-07   108   0.163E-03    0.235E-04
DAV:  11    -0.102474861872E+03   -0.37542E-05   -0.24537E-07   108   0.906E-04    0.222E-04
DAV:  12    -0.102474864758E+03   -0.28860E-05   -0.13368E-07   108   0.713E-04    0.943E-05
DAV:  13    -0.102474865656E+03   -0.89736E-06   -0.25617E-08   108   0.367E-04
  58 F= -.10247487E+03 E0= -.10247487E+03  d E =-.167482E-10
       N       E                     dE             d eps       ncg     rms          rms(c)
DAV:   1    -0.102473034817E+03    0.18299E-02   -0.40127E-01    96   0.162E+00    0.188E-01
DAV:   2    -0.102474501353E+03   -0.14665E-02   -0.18315E-02   132   0.374E-01    0.111E-01
DAV:   3    -0.102474421642E+03    0.79711E-04   -0.29729E-04   132   0.553E-02    0.581E-02
DAV:   4    -0.102474360339E+03    0.61303E-04   -0.84091E-05   132   0.360E-02    0.102E-02
DAV:   5    -0.102474348811E+03    0.11527E-04   -0.20148E-05   132   0.174E-02    0.671E-03
DAV:   6    -0.102474352918E+03   -0.41066E-05   -0.77430E-06   132   0.863E-03    0.380E-03
DAV:   7    -0.102474367959E+03   -0.15041E-04   -0.16946E-06   120   0.492E-03    0.203E-03
DAV:   8    -0.102474395135E+03   -0.27176E-04   -0.20350E-06   120   0.431E-03    0.127E-03
DAV:   9    -0.102474417522E+03   -0.22387E-04   -0.15329E-06   120   0.314E-03    0.968E-04
DAV:  10    -0.102474436322E+03   -0.18800E-04   -0.74078E-07   108   0.205E-03    0.412E-04
DAV:  11    -0.102474445806E+03   -0.94844E-05   -0.31006E-07   108   0.113E-03    0.345E-04
DAV:  12    -0.102474453864E+03   -0.80584E-05   -0.21326E-07   108   0.910E-04    0.185E-04
DAV:  13    -0.102474456993E+03   -0.31286E-05   -0.49420E-08   108   0.496E-04    0.871E-05
DAV:  14    -0.102474458945E+03   -0.19524E-05   -0.21585E-08   108   0.343E-04    0.755E-05
DAV:  15    -0.102474459629E+03   -0.68380E-06   -0.84697E-11   108   0.194E-04
  59 F= -.10247446E+03 E0= -.10247446E+03  d E =-.632631E-11
       N       E                     dE             d eps       ncg     rms          rms(c)
DAV:   1    -0.102473098875E+03    0.13601E-02   -0.20208E-01   120   0.111E+00    0.143E-01
DAV:   2    -0.102473883817E+03   -0.78494E-03   -0.97635E-03   132   0.275E-01    0.881E-02
DAV:   3    -0.102473828102E+03    0.55715E-04   -0.15188E-04   132   0.421E-02    0.470E-02
DAV:   4    -0.102473795698E+03    0.32403E-04   -0.61745E-05   132   0.309E-02    0.758E-03
DAV:   5    -0.102473792472E+03    0.32266E-05   -0.14746E-05   132   0.140E-02    0.569E-03
DAV:   6    -0.102473797475E+03   -0.50036E-05   -0.51142E-06   132   0.597E-03    0.334E-03
DAV:   7    -0.102473809009E+03   -0.11534E-04   -0.67577E-07   108   0.265E-03    0.170E-03
DAV:   8    -0.102473831375E+03   -0.22366E-04   -0.25962E-06   108   0.340E-03    0.106E-03
DAV:   9    -0.102473843857E+03   -0.12482E-04   -0.69200E-07   108   0.203E-03    0.723E-04
DAV:  10    -0.102473856673E+03   -0.12816E-04   -0.10873E-06   120   0.194E-03    0.322E-04
DAV:  11    -0.102473862511E+03   -0.58377E-05   -0.23634E-07   108   0.113E-03    0.304E-04
DAV:  12    -0.102473865231E+03   -0.27201E-05   -0.81765E-08   108   0.646E-04    0.194E-04
DAV:  13    -0.102473866862E+03   -0.16309E-05   -0.38581E-08   108   0.442E-04    0.905E-05
DAV:  14    -0.102473867474E+03   -0.61241E-06   -0.17518E-09   108   0.235E-04
  60 F= -.10247387E+03 E0= -.10247387E+03  d E =-.829932E-10
       N       E                     dE             d eps       ncg     rms          rms(c)
DAV:   1    -0.102472623554E+03    0.12433E-02   -0.40171E-01   120   0.158E+00    0.202E-01
DAV:   2    -0.102474301369E+03   -0.16778E-02   -0.20860E-02   120   0.400E-01    0.131E-01
DAV:   3    -0.102474185300E+03    0.11607E-03   -0.27589E-04   132   0.566E-02    0.755E-02
DAV:   4    -0.102474116990E+03    0.68310E-04   -0.15223E-04   132   0.461E-02    0.110E-02
DAV:   5    -0.102474115669E+03    0.13213E-05   -0.35499E-05   132   0.215E-02    0.832E-03
DAV:   6    -0.102474129496E+03   -0.13827E-04   -0.13327E-05   132   0.934E-03    0.506E-03
DAV:   7    -0.102474156088E+03   -0.26592E-04   -0.24882E-06   132   0.469E-03    0.265E-03
DAV:   8    -0.102474204550E+03   -0.48461E-04   -0.62216E-06   120   0.524E-03    0.137E-03
DAV:   9    -0.102474225093E+03   -0.20543E-04   -0.14556E-06   120   0.268E-03    0.119E-03
DAV:  10    -0.102474251010E+03   -0.25917E-04   -0.24595E-06   108   0.300E-03    0.402E-04
DAV:  11    -0.102474259945E+03   -0.89352E-05   -0.45127E-07   108   0.143E-03    0.339E-04
DAV:  12    -0.102474266032E+03   -0.60867E-05   -0.30823E-07   108   0.107E-03    0.188E-04
DAV:  13    -0.102474267859E+03   -0.18269E-05   -0.46908E-08   108   0.481E-04    0.101E-04
DAV:  14    -0.102474269372E+03   -0.15137E-05   -0.22152E-08   108   0.366E-04    0.622E-05
DAV:  15    -0.102474269759E+03   -0.38698E-06    0.24064E-10   108   0.176E-04
  61 F= -.10247427E+03 E0= -.10247427E+03  d E =-.276164E-10
       N       E                     dE             d eps       ncg     rms          rms(c)
DAV:   1    -0.102477226890E+03   -0.29575E-02   -0.21740E-01    96   0.139E+00    0.124E-01
DAV:   2    -0.102477550900E+03   -0.32401E-03   -0.53905E-03   132   0.213E-01    0.790E-02
DAV:   3    -0.102477486024E+03    0.64876E-04   -0.14015E-04   132   0.398E-02    0.352E-02
DAV:   4    -0.102477471304E+03    0.14720E-04   -0.58355E-05   132   0.263E-02    0.721E-03
DAV:   5    -0.102477468327E+03    0.29767E-05   -0.68265E-06   132   0.984E-03    0.510E-03
DAV:   6    -0.102477469245E+03   -0.91839E-06   -0.29135E-06   132   0.517E-03
  62 F= -.10247747E+03 E0= -.10247747E+03  d E =-.515104E-10
       N       E                     dE             d eps       ncg     rms          rms(c)
DAV:   1    -0.102477789241E+03   -0.32091E-03   -0.52824E-01    96   0.220E+00    0.174E-01
DAV:   2    -0.102477647897E+03    0.14134E-03   -0.26183E-03   132   0.158E-01    0.988E-02
DAV:   3    -0.102477511601E+03    0.13630E-03   -0.43687E-04   132   0.616E-02    0.171E-02
DAV:   4    -0.102477518200E+03   -0.65998E-05   -0.65523E-05   132   0.254E-02    0.936E-03
DAV:   5    -0.102477520702E+03   -0.25014E-05   -0.34699E-06   132   0.626E-03    0.600E-03
DAV:   6    -0.102477527630E+03   -0.69282E-05   -0.21879E-06   132   0.466E-03    0.145E-03
DAV:   7    -0.102477532689E+03   -0.50595E-05   -0.61458E-07   108   0.254E-03    0.112E-03
DAV:   8    -0.102477538542E+03   -0.58527E-05   -0.22363E-07   108   0.168E-03    0.556E-04
DAV:   9    -0.102477544983E+03   -0.64408E-05   -0.33230E-07   108   0.173E-03    0.406E-04
DAV:  10    -0.102477548201E+03   -0.32183E-05   -0.14128E-07   108   0.988E-04    0.218E-04
DAV:  11    -0.102477550514E+03   -0.23123E-05   -0.75393E-08   108   0.620E-04    0.205E-04
DAV:  12    -0.102477551688E+03   -0.11740E-05   -0.27267E-08   108   0.397E-04    0.923E-05
DAV:  13    -0.102477552487E+03   -0.79973E-06   -0.13591E-08   108   0.290E-04
  63 F= -.10247755E+03 E0= -.10247755E+03  d E =-.452580E-10
       N       E                     dE             d eps       ncg     rms          rms(c)
DAV:   1    -0.102476552126E+03    0.99956E-03   -0.27265E-01    96   0.158E+00    0.147E-01
DAV:   2    -0.102476507452E+03    0.44674E-04   -0.22235E-03   132   0.137E-01    0.802E-02
DAV:   3    -0.102476407186E+03    0.10027E-03   -0.24666E-04   132   0.407E-02    0.231E-02
DAV:   4    -0.102476400837E+03    0.63486E-05   -0.50576E-05   132   0.190E-02    0.770E-03
DAV:   5    -0.102476399625E+03    0.12122E-05   -0.38017E-06   132   0.679E-03    0.351E-03
DAV:   6    -0.102476401383E+03   -0.17576E-05   -0.20593E-06   132   0.448E-03    0.137E-03
DAV:   7    -0.102476404525E+03   -0.31425E-05   -0.47345E-07   108   0.232E-03    0.785E-04
DAV:   8    -0.102476407888E+03   -0.33624E-05   -0.21090E-07   108   0.150E-03    0.509E-04
DAV:   9    -0.102476412305E+03   -0.44178E-05   -0.27280E-07   108   0.129E-03    0.214E-04
DAV:  10    -0.102476415007E+03   -0.27020E-05   -0.13008E-07   108   0.840E-04    0.169E-04
DAV:  11    -0.102476416339E+03   -0.13316E-05   -0.13915E-08   108   0.363E-04    0.108E-04
DAV:  12    -0.102476418120E+03   -0.17807E-05   -0.37276E-08   108   0.393E-04    0.605E-05
DAV:  13    -0.102476418531E+03   -0.41109E-06   -0.10055E-09   108   0.179E-04
  64 F= -.10247642E+03 E0= -.10247642E+03  d E =-.513405E-10
       N       E                     dE             d eps       ncg     rms          rms(c)
DAV:   1    -0.102476818024E+03   -0.39990E-03   -0.53786E-01    96   0.220E+00    0.197E-01
DAV:   2    -0.102476658826E+03    0.15920E-03   -0.35791E-03   132   0.175E-01    0.108E-01
DAV:   3    -0.102476451238E+03    0.20759E-03   -0.49805E-04   132   0.560E-02    0.270E-02
DAV:   4    -0.102476442138E+03    0.90995E-05   -0.68018E-05   132   0.236E-02    0.109E-02
DAV:   5    -0.102476445601E+03   -0.34630E-05   -0.71033E-06   132   0.898E-03    0.460E-03
DAV:   6    -0.102476454533E+03   -0.89320E-05   -0.34285E-06   132   0.559E-03    0.172E-03
DAV:   7    -0.102476466268E+03   -0.11735E-04   -0.10462E-06   120   0.313E-03    0.103E-03
DAV:   8    -0.102476475198E+03   -0.89296E-05   -0.50182E-07   108   0.213E-03    0.643E-04
DAV:   9    -0.102476485667E+03   -0.10469E-04   -0.10064E-06   120   0.210E-03    0.280E-04
DAV:  10    -0.102476489271E+03   -0.36040E-05   -0.18330E-07   108   0.111E-03    0.238E-04
DAV:  11    -0.102476490881E+03   -0.16102E-05   -0.45962E-08   108   0.515E-04    0.177E-04
DAV:  12    -0.102476493583E+03   -0.27015E-05   -0.12237E-07   108   0.685E-04    0.997E-05
DAV:  13    -0.102476493993E+03   -0.41075E-06   -0.10979E-08   108   0.276E-04
  65 F= -.10247649E+03 E0= -.10247649E+03  d E =-.417654E-10
       N       E                     dE             d eps       ncg     rms          rms(c)
DAV:   1    -0.102477613052E+03   -0.11195E-02   -0.27227E-01    96   0.157E+00    0.144E-01
DAV:   2    -0.102477540469E+03    0.72583E-04   -0.20400E-03   132   0.132E-01    0.786E-02
DAV:   3    -0.102477438733E+03    0.10174E-03   -0.29020E-04   132   0.453E-02    0.197E-02
DAV:   4    -0.102477436868E+03    0.18650E-05   -0.52704E-05   132   0.206E-02    0.807E-03
DAV:   5    -0.102477436030E+03    0.83757E-06   -0.28193E-06   120   0.576E-03
  66 F= -.10247744E+03 E0= -.10247744E+03  d E =-.563770E-10
       N       E                     dE             d eps       ncg     rms          rms(c)
DAV:   1    -0.102477960245E+03   -0.52338E-03   -0.53611E-01    96   0.213E+00    0.171E-01
DAV:   2    -0.102477815410E+03    0.14483E-03   -0.27839E-03   132   0.150E-01    0.977E-02
DAV:   3    -0.102477676032E+03    0.13938E-03   -0.49246E-04   132   0.587E-02    0.167E-02
DAV:   4    -0.102477682158E+03   -0.61255E-05   -0.77150E-05   132   0.254E-02    0.932E-03
DAV:   5    -0.102477681678E+03    0.47995E-06   -0.28141E-06   132   0.526E-03
  67 F= -.10247768E+03 E0= -.10247768E+03  d E =-.490767E-10
       N       E                     dE             d eps       ncg     rms          rms(c)
DAV:   1    -0.102478204200E+03   -0.52204E-03   -0.26587E-01    96   0.150E+00    0.119E-01
DAV:   2    -0.102478181721E+03    0.22479E-04   -0.14260E-03   132   0.112E-01    0.689E-02
DAV:   3    -0.102478124192E+03    0.57529E-04   -0.15196E-04   132   0.350E-02    0.106E-02
DAV:   4    -0.102478125892E+03   -0.17001E-05   -0.21668E-05   132   0.143E-02    0.456E-03
DAV:   5    -0.102478126173E+03   -0.28133E-06   -0.69167E-07   108   0.306E-03
  68 F= -.10247813E+03 E0= -.10247813E+03  d E =-.507913E-10
       N       E                     dE             d eps       ncg     rms          rms(c)
DAV:   1    -0.102478258114E+03   -0.13222E-03   -0.52635E-01    96   0.220E+00    0.160E-01
DAV:   2    -0.102478126610E+03    0.13150E-03   -0.21320E-03   132   0.142E-01    0.931E-02
DAV:   3    -0.102478020201E+03    0.10641E-03   -0.39865E-04   132   0.635E-02    0.110E-02
DAV:   4    -0.102478027780E+03   -0.75790E-05   -0.70454E-05   120   0.271E-02    0.798E-03
DAV:   5    -0.102478028076E+03   -0.29598E-06   -0.20155E-06   120   0.492E-03
[...]
DAV:   3    -0.102478104517E+03    0.91046E-04   -0.35307E-04   132   0.573E-02    0.110E-02
DAV:   4    -0.102478110475E+03   -0.59578E-05   -0.50661E-05   132   0.233E-02    0.779E-03
DAV:   5    -0.102478111243E+03   -0.76806E-06   -0.15978E-06   120   0.429E-03
 131 F= -.10247811E+03 E0= -.10247811E+03  d E =-.773114E-10
       N       E                     dE             d eps       ncg     rms          rms(c)
DAV:   1    -0.102477778437E+03    0.33204E-03   -0.26135E-01    96   0.148E+00    0.110E-01
DAV:   2    -0.102477725802E+03    0.52635E-04   -0.10022E-03   132   0.980E-02    0.641E-02
DAV:   3    -0.102477680250E+03    0.45552E-04   -0.17396E-04   132   0.419E-02    0.851E-03
DAV:   4    -0.102477682934E+03   -0.26836E-05   -0.26401E-05   132   0.172E-02    0.652E-03
DAV:   5    -0.102477683135E+03   -0.20116E-06   -0.76238E-07   108   0.323E-03
 132 F= -.10247768E+03 E0= -.10247768E+03  d E =-.503174E-10
       N       E                     dE             d eps       ncg     rms          rms(c)
DAV:   1    -0.102477802881E+03   -0.11995E-03   -0.52846E-01    96   0.200E+00    0.168E-01
DAV:   2    -0.102477696072E+03    0.10681E-03   -0.23750E-03   132   0.150E-01    0.954E-02
DAV:   3    -0.102477581726E+03    0.11435E-03   -0.39229E-04   132   0.602E-02    0.175E-02
DAV:   4    -0.102477584845E+03   -0.31183E-05   -0.62419E-05   132   0.258E-02    0.103E-02
DAV:   5    -0.102477584499E+03    0.34601E-06   -0.26217E-06   132   0.567E-03
 133 F= -.10247758E+03 E0= -.10247758E+03  d E =-.469761E-10
       N       E                     dE             d eps       ncg     rms          rms(c)
DAV:   1    -0.102477469595E+03    0.11525E-03   -0.27102E-01    96   0.202E+00    0.145E-01
DAV:   2    -0.102477420633E+03    0.48961E-04   -0.19107E-03   132   0.163E-01    0.784E-02
DAV:   3    -0.102477347839E+03    0.72794E-04   -0.17803E-04   132   0.435E-02    0.244E-02
DAV:   4    -0.102477348134E+03   -0.29504E-06   -0.47119E-05   132   0.217E-02    0.653E-03
DAV:   5    -0.102477347434E+03    0.69991E-06   -0.30582E-06   132   0.669E-03
 134 F= -.10247735E+03 E0= -.10247735E+03  d E =-.479903E-10
       N       E                     dE             d eps       ncg     rms          rms(c)
DAV:   1    -0.102477945324E+03   -0.59719E-03   -0.55381E-01    96   0.268E+00    0.235E-01
DAV:   2    -0.102477607293E+03    0.33803E-03   -0.32575E-03   132   0.212E-01    0.121E-01
DAV:   3    -0.102477390621E+03    0.21667E-03   -0.47497E-04   132   0.667E-02    0.382E-02
DAV:   4    -0.102477383473E+03    0.71482E-05   -0.10422E-04   132   0.320E-02    0.124E-02
DAV:   5    -0.102477383828E+03   -0.35431E-06   -0.66842E-06   132   0.107E-02
 135 F= -.10247738E+03 E0= -.10247738E+03  d E =-.436572E-10
       N       E                     dE             d eps       ncg     rms          rms(c)
DAV:   1    -0.102476404959E+03    0.97851E-03   -0.29004E-01    96   0.201E+00    0.215E-01
DAV:   2    -0.102476174260E+03    0.23070E-03   -0.25377E-03   132   0.186E-01    0.103E-01
DAV:   3    -0.102476028911E+03    0.14535E-03   -0.38362E-04   132   0.660E-02    0.380E-02
DAV:   4    -0.102476027773E+03    0.11388E-05   -0.12570E-04   132   0.358E-02    0.136E-02
DAV:   5    -0.102476026357E+03    0.14151E-05   -0.66243E-06   132   0.107E-02    0.631E-03
DAV:   6    -0.102476026524E+03   -0.16668E-06   -0.28900E-06   132   0.641E-03
 136 F= -.10247603E+03 E0= -.10247603E+03  d E =-.493219E-10
       N       E                     dE             d eps       ncg     rms          rms(c)
DAV:   1    -0.102477484818E+03   -0.14585E-02   -0.57485E-01    96   0.277E+00    0.274E-01
DAV:   2    -0.102476936128E+03    0.54869E-03   -0.45076E-03   132   0.256E-01    0.138E-01
DAV:   3    -0.102476638490E+03    0.29764E-03   -0.84036E-04   132   0.958E-02    0.452E-02
DAV:   4    -0.102476638755E+03   -0.26474E-06   -0.20251E-04   132   0.474E-02    0.206E-02
DAV:   5    -0.102476638276E+03    0.47935E-06   -0.79243E-06   132   0.113E-02
 137 F= -.10247664E+03 E0= -.10247664E+03  d E =-.441649E-10
       N       E                     dE             d eps       ncg     rms          rms(c)
DAV:   1    -0.102477980731E+03   -0.13420E-02   -0.28866E-01    96   0.196E+00    0.207E-01
DAV:   2    -0.102477725142E+03    0.25559E-03   -0.23924E-03   132   0.182E-01    0.101E-01
DAV:   3    -0.102477583615E+03    0.14153E-03   -0.40745E-04   132   0.665E-02    0.344E-02
DAV:   4    -0.102477585511E+03   -0.18959E-05   -0.11631E-04   132   0.349E-02    0.137E-02
DAV:   5    -0.102477584790E+03    0.72166E-06   -0.48613E-06   132   0.927E-03
 138 F= -.10247758E+03 E0= -.10247758E+03  d E =-.516989E-10
       N       E                     dE             d eps       ncg     rms          rms(c)
DAV:   1    -0.102478013460E+03   -0.42795E-03   -0.54768E-01    96   0.271E+00    0.228E-01
DAV:   2    -0.102477699466E+03    0.31399E-03   -0.32989E-03   132   0.215E-01    0.120E-01
DAV:   3    -0.102477496551E+03    0.20292E-03   -0.48404E-04   132   0.699E-02    0.356E-02
DAV:   4    -0.102477498719E+03   -0.21682E-05   -0.98658E-05   132   0.318E-02    0.117E-02
DAV:   5    -0.102477498906E+03   -0.18626E-06   -0.60741E-06   132   0.984E-03
 139 F= -.10247750E+03 E0= -.10247750E+03  d E =-.425813E-10
       N       E                     dE             d eps       ncg     rms          rms(c)
DAV:   1    -0.102477463350E+03    0.35369E-04   -0.27632E-01    96   0.200E+00    0.168E-01
DAV:   2    -0.102477358243E+03    0.10511E-03   -0.18512E-03   120   0.155E-01    0.874E-02
DAV:   3    -0.102477265621E+03    0.92621E-04   -0.24669E-04   132   0.464E-02    0.281E-02
DAV:   4    -0.102477262252E+03    0.33693E-05   -0.44214E-05   132   0.200E-02    0.101E-02
DAV:   5    -0.102477260641E+03    0.16116E-05   -0.27355E-06   132   0.763E-03    0.488E-03
DAV:   6    -0.102477260665E+03   -0.24665E-07   -0.23112E-06   132   0.590E-03
 140 F= -.10247726E+03 E0= -.10247726E+03  d E =-.491568E-10
       N       E                     dE             d eps       ncg     rms          rms(c)
DAV:   1    -0.102477637397E+03   -0.37676E-03   -0.55623E-01    96   0.276E+00    0.246E-01
DAV:   2    -0.102477284253E+03    0.35314E-03   -0.34788E-03   132   0.210E-01    0.124E-01
DAV:   3    -0.102477063242E+03    0.22101E-03   -0.49652E-04   132   0.678E-02    0.419E-02
DAV:   4    -0.102477052785E+03    0.10457E-04   -0.11756E-04   132   0.337E-02    0.129E-02
DAV:   5    -0.102477052901E+03   -0.11553E-06   -0.75949E-06   132   0.116E-02
 141 F= -.10247705E+03 E0= -.10247705E+03  d E =-.446816E-10
       N       E                     dE             d eps       ncg     rms          rms(c)
DAV:   1    -0.102476267331E+03    0.78545E-03   -0.27291E-01    96   0.188E+00    0.139E-01
DAV:   2    -0.102476134635E+03    0.13270E-03   -0.14928E-03   132   0.137E-01    0.786E-02
DAV:   3    -0.102476047217E+03    0.87418E-04   -0.26505E-04   132   0.534E-02    0.163E-02
DAV:   4    -0.102476052143E+03   -0.49258E-05   -0.47698E-05   132   0.234E-02    0.863E-03
DAV:   5    -0.102476052675E+03   -0.53185E-06   -0.10532E-06   120   0.429E-03
 142 F= -.10247605E+03 E0= -.10247605E+03  d E =-.473588E-10
       N       E                     dE             d eps       ncg     rms          rms(c)
DAV:   1    -0.102476868359E+03   -0.81622E-03   -0.58086E-01    96   0.275E+00    0.289E-01
DAV:   2    -0.102476336479E+03    0.53188E-03   -0.49981E-03   132   0.265E-01    0.143E-01
DAV:   3    -0.102476029355E+03    0.30712E-03   -0.88207E-04   132   0.996E-02    0.485E-02
DAV:   4    -0.102476029955E+03   -0.60019E-06   -0.23966E-04   132   0.508E-02    0.197E-02
DAV:   5    -0.102476028026E+03    0.19291E-05   -0.91606E-06   132   0.124E-02    0.848E-03
DAV:   6    -0.102476028157E+03   -0.13071E-06   -0.52009E-06   120   0.891E-03
 143 F= -.10247603E+03 E0= -.10247603E+03  d E =-.479211E-10
       N       E                     dE             d eps       ncg     rms          rms(c)
DAV:   1    -0.102478630785E+03   -0.26028E-02   -0.28152E-01    96   0.194E+00    0.167E-01
DAV:   2    -0.102478413417E+03    0.21737E-03   -0.18742E-03   132   0.162E-01    0.894E-02
DAV:   3    -0.102478298891E+03    0.11453E-03   -0.35302E-04   132   0.631E-02    0.248E-02
DAV:   4    -0.102478304807E+03   -0.59161E-05   -0.80670E-05   132   0.305E-02    0.118E-02
DAV:   5    -0.102478305055E+03   -0.24789E-06   -0.24369E-06   120   0.652E-03
 144 F= -.10247831E+03 E0= -.10247831E+03  d E =-.568564E-10
       N       E                     dE             d eps       ncg     rms          rms(c)
DAV:   1    -0.102478239161E+03    0.65646E-04   -0.54244E-01    96   0.275E+00    0.201E-01
DAV:   2    -0.102477959927E+03    0.27923E-03   -0.27565E-03   132   0.189E-01    0.112E-01
DAV:   3    -0.102477783656E+03    0.17627E-03   -0.44579E-04   132   0.672E-02    0.248E-02
DAV:   4    -0.102477789734E+03   -0.60777E-05   -0.74573E-05   132   0.283E-02    0.879E-03
DAV:   5    -0.102477790169E+03   -0.43521E-06   -0.34249E-06   132   0.687E-03
 145 F= -.10247779E+03 E0= -.10247779E+03  d E =-.394589E-10
       N       E                     dE             d eps       ncg     rms          rms(c)
DAV:   1    -0.102477377753E+03    0.41198E-03   -0.27035E-01    96   0.197E+00    0.135E-01
DAV:   2    -0.102477310893E+03    0.66860E-04   -0.18168E-03   132   0.158E-01    0.761E-02
DAV:   3    -0.102477237739E+03    0.73154E-04   -0.22674E-04   132   0.490E-02    0.182E-02
DAV:   4    -0.102477241004E+03   -0.32654E-05   -0.44627E-05   132   0.216E-02    0.708E-03
DAV:   5    -0.102477241005E+03   -0.81945E-09   -0.16035E-06   108   0.511E-03
 146 F= -.10247724E+03 E0= -.10247724E+03  d E =-.488554E-10
       N       E                     dE             d eps       ncg     rms          rms(c)
DAV:   1    -0.102477634875E+03   -0.39387E-03   -0.53546E-01   108   0.209E+00    0.179E-01
DAV:   2    -0.102477466310E+03    0.16857E-03   -0.28986E-03   132   0.157E-01    0.998E-02
DAV:   3    -0.102477314240E+03    0.15207E-03   -0.45773E-04   132   0.581E-02    0.210E-02
DAV:   4    -0.102477316263E+03   -0.20228E-05   -0.79526E-05   132   0.257E-02    0.970E-03
DAV:   5    -0.102477315478E+03    0.78458E-06   -0.29629E-06   132   0.587E-03
 147 F= -.10247732E+03 E0= -.10247732E+03  d E =-.462653E-10
       N       E                     dE             d eps       ncg     rms          rms(c)
DAV:   1    -0.102476049878E+03    0.12664E-02   -0.26341E-01    96   0.145E+00    0.111E-01
DAV:   2    -0.102475987398E+03    0.62479E-04   -0.10190E-03   120   0.924E-02    0.638E-02
DAV:   3    -0.102475930960E+03    0.56439E-04   -0.16339E-04   132   0.365E-02    0.996E-03
DAV:   4    -0.102475933847E+03   -0.28874E-05   -0.23618E-05   132   0.153E-02    0.577E-03
DAV:   5    -0.102475935185E+03   -0.13378E-05   -0.85979E-07   108   0.333E-03    0.385E-03
DAV:   6    -0.102475938523E+03   -0.33384E-05   -0.91621E-07   108   0.318E-03    0.708E-04
DAV:   7    -0.102475940306E+03   -0.17828E-05   -0.23010E-07   108   0.161E-03    0.644E-04
DAV:   8    -0.102475943777E+03   -0.34708E-05   -0.21043E-07    96   0.152E-03    0.267E-04
DAV:   9    -0.102475945575E+03   -0.17977E-05   -0.12186E-07   108   0.962E-04    0.240E-04
DAV:  10    -0.102475947506E+03   -0.19313E-05   -0.60349E-08   108   0.616E-04    0.118E-04
DAV:  11    -0.102475948555E+03   -0.10492E-05   -0.34979E-08   108   0.390E-04    0.799E-05
DAV:  12    -0.102475949238E+03   -0.68298E-06   -0.13159E-08   108   0.270E-04
 148 F= -.10247595E+03 E0= -.10247595E+03  d E =-.417334E-10
       N       E                     dE             d eps       ncg     rms          rms(c)
DAV:   1    -0.102476744115E+03   -0.79556E-03   -0.54196E-01   108   0.210E+00    0.201E-01
DAV:   2    -0.102476596705E+03    0.14741E-03   -0.36173E-03   132   0.174E-01    0.110E-01
DAV:   3    -0.102476403136E+03    0.19357E-03   -0.54604E-04   132   0.598E-02    0.268E-02
DAV:   4    -0.102476396285E+03    0.68509E-05   -0.82215E-05   132   0.254E-02    0.116E-02
DAV:   5    -0.102476393913E+03    0.23716E-05   -0.52723E-06   132   0.850E-03    0.591E-03
DAV:   6    -0.102476396254E+03   -0.23404E-05   -0.40431E-06   132   0.680E-03    0.183E-03
DAV:   7    -0.102476400733E+03   -0.44792E-05   -0.13199E-06   132   0.371E-03    0.150E-03
DAV:   8    -0.102476406234E+03   -0.55008E-05   -0.26345E-07   108   0.173E-03    0.667E-04
DAV:   9    -0.102476411952E+03   -0.57181E-05   -0.33993E-07   108   0.146E-03    0.375E-04
DAV:  10    -0.102476417830E+03   -0.58780E-05   -0.30124E-07   108   0.117E-03    0.231E-04
DAV:  11    -0.102476421173E+03   -0.33429E-05   -0.83678E-08   108   0.659E-04    0.154E-04
DAV:  12    -0.102476423007E+03   -0.18346E-05   -0.26360E-08   108   0.371E-04    0.877E-05
DAV:  13    -0.102476424029E+03   -0.10213E-05   -0.73330E-09   108   0.249E-04    0.417E-05
DAV:  14    -0.102476424785E+03   -0.75597E-06   -0.44302E-09   108   0.196E-04
 149 F= -.10247642E+03 E0= -.10247642E+03  d E =-.509142E-10
       N       E                     dE             d eps       ncg     rms          rms(c)
DAV:   1    -0.102478371729E+03   -0.19477E-02   -0.26591E-01    96   0.148E+00    0.127E-01
DAV:   2    -0.102478281605E+03    0.90124E-04   -0.13174E-03   132   0.114E-01    0.712E-02
DAV:   3    -0.102478209685E+03    0.71920E-04   -0.22323E-04   132   0.436E-02    0.137E-02
DAV:   4    -0.102478210489E+03   -0.80411E-06   -0.33075E-05   132   0.181E-02    0.770E-03
DAV:   5    -0.102478210828E+03   -0.33862E-06   -0.13947E-06   120   0.424E-03
 150 F= -.10247821E+03 E0= -.10247821E+03  d E =-.447060E-10
       N       E                     dE             d eps       ncg     rms          rms(c)
DAV:   1    -0.102478172740E+03    0.37749E-04   -0.52506E-01    96   0.213E+00    0.158E-01
DAV:   2    -0.102478042138E+03    0.13060E-03   -0.19609E-03   132   0.138E-01    0.920E-02
DAV:   3    -0.102477936413E+03    0.10573E-03   -0.34725E-04   132   0.589E-02    0.119E-02
DAV:   4    -0.102477943102E+03   -0.66891E-05   -0.55014E-05   132   0.244E-02    0.928E-03
DAV:   5    -0.102477944013E+03   -0.91033E-06   -0.15923E-06   120   0.438E-03
 151 F= -.10247794E+03 E0= -.10247794E+03  d E =-.398067E-10
       N       E                     dE             d eps       ncg     rms          rms(c)
DAV:   1    -0.102475991215E+03    0.19519E-02   -0.26644E-01    96   0.152E+00    0.130E-01
DAV:   2    -0.102475918456E+03    0.72759E-04   -0.17148E-03   132   0.125E-01    0.709E-02
DAV:   3    -0.102475844034E+03    0.74422E-04   -0.23198E-04   132   0.455E-02    0.174E-02
DAV:   4    -0.102475846777E+03   -0.27428E-05   -0.49064E-05   132   0.209E-02    0.777E-03
DAV:   5    -0.102475847876E+03   -0.10993E-05   -0.16900E-06   132   0.467E-03    0.563E-03
DAV:   6    -0.102475851689E+03   -0.38131E-05   -0.15276E-06   120   0.416E-03    0.109E-03
DAV:   7    -0.102475853951E+03   -0.22622E-05   -0.59510E-07   108   0.235E-03    0.923E-04
DAV:   8    -0.102475856361E+03   -0.24098E-05   -0.11810E-07   108   0.123E-03    0.390E-04
DAV:   9    -0.102475859969E+03   -0.36075E-05   -0.23830E-07   108   0.131E-03    0.474E-04
DAV:  10    -0.102475861023E+03   -0.10545E-05   -0.57231E-08   108   0.728E-04    0.183E-04
DAV:  11    -0.102475862505E+03   -0.14819E-05   -0.68022E-08   108   0.592E-04    0.223E-04
DAV:  12    -0.102475863317E+03   -0.81223E-06   -0.32648E-08   108   0.394E-04
 152 F= -.10247586E+03 E0= -.10247586E+03  d E =-.414962E-10
       N       E                     dE             d eps       ncg     rms          rms(c)
DAV:   1    -0.102476401051E+03   -0.53855E-03   -0.54571E-01   108   0.206E+00    0.204E-01
DAV:   2    -0.102476207794E+03    0.19326E-03   -0.38871E-03   132   0.185E-01    0.113E-01
DAV:   3    -0.102475995921E+03    0.21187E-03   -0.63774E-04   132   0.673E-02    0.260E-02
DAV:   4    -0.102475994788E+03    0.11330E-05   -0.11508E-04   132   0.303E-02    0.125E-02
DAV:   5    -0.102475992936E+03    0.18518E-05   -0.47643E-06   132   0.777E-03    0.684E-03
DAV:   6    -0.102475995053E+03   -0.21167E-05   -0.43196E-06   132   0.701E-03    0.175E-03
DAV:   7    -0.102475998980E+03   -0.39275E-05   -0.15227E-06   132   0.373E-03    0.147E-03
DAV:   8    -0.102476005204E+03   -0.62236E-05   -0.32060E-07   108   0.158E-03    0.446E-04
DAV:   9    -0.102476009276E+03   -0.40720E-05   -0.21217E-07   108   0.112E-03    0.444E-04
DAV:  10    -0.102476014436E+03   -0.51604E-05   -0.22214E-07   108   0.108E-03    0.206E-04
DAV:  11    -0.102476017202E+03   -0.27659E-05   -0.91723E-08   108   0.667E-04    0.188E-04
DAV:  12    -0.102476018614E+03   -0.14117E-05   -0.15653E-08   108   0.374E-04    0.976E-05
DAV:  13    -0.102476020081E+03   -0.14674E-05   -0.19017E-08   108   0.319E-04    0.569E-05
DAV:  14    -0.102476020901E+03   -0.81912E-06   -0.76377E-09   108   0.219E-04
 153 F= -.10247602E+03 E0= -.10247602E+03  d E =-.510992E-10
       N       E                     dE             d eps       ncg     rms          rms(c)
DAV:   1    -0.102477941624E+03   -0.19215E-02   -0.26908E-01   108   0.147E+00    0.139E-01
DAV:   2    -0.102477856627E+03    0.84996E-04   -0.18000E-03   132   0.123E-01    0.761E-02
DAV:   3    -0.102477762165E+03    0.94463E-04   -0.24354E-04   132   0.401E-02    0.198E-02
DAV:   4    -0.102477757709E+03    0.44554E-05   -0.35706E-05   120   0.172E-02    0.792E-03
DAV:   5    -0.102477759257E+03   -0.15474E-05   -0.27277E-06   132   0.595E-03    0.389E-03
DAV:   6    -0.102477763937E+03   -0.46804E-05   -0.17108E-06   120   0.415E-03    0.111E-03
DAV:   7    -0.102477768573E+03   -0.46363E-05   -0.43395E-07   108   0.222E-03    0.763E-04
DAV:   8    -0.102477773929E+03   -0.53561E-05   -0.29222E-07   108   0.149E-03    0.389E-04
DAV:   9    -0.102477778157E+03   -0.42274E-05   -0.25487E-07   108   0.123E-03    0.225E-04
DAV:  10    -0.102477781481E+03   -0.33241E-05   -0.22166E-07   108   0.980E-04    0.138E-04
DAV:  11    -0.102477782531E+03   -0.10504E-05   -0.35941E-08   108   0.453E-04    0.107E-04
DAV:  12    -0.102477783521E+03   -0.98948E-06   -0.26680E-08   108   0.357E-04
 154 F= -.10247778E+03 E0= -.10247778E+03  d E =-.424030E-10
       N       E                     dE             d eps       ncg     rms          rms(c)
DAV:   1    -0.102478497248E+03   -0.71472E-03   -0.53089E-01    96   0.209E+00    0.160E-01
DAV:   2    -0.102478370330E+03    0.12692E-03   -0.19268E-03   132   0.128E-01    0.920E-02
DAV:   3    -0.102478253752E+03    0.11658E-03   -0.35105E-04   132   0.518E-02    0.131E-02
DAV:   4    -0.102478256301E+03   -0.25496E-05   -0.49730E-05   132   0.215E-02    0.767E-03
DAV:   5    -0.102478255868E+03    0.43345E-06   -0.19811E-06   132   0.484E-03
 155 F= -.10247826E+03 E0= -.10247826E+03  d E =-.551333E-10
       N       E                     dE             d eps       ncg     rms          rms(c)
DAV:   1    -0.102477866230E+03    0.39007E-03   -0.26434E-01    96   0.148E+00    0.115E-01
DAV:   2    -0.102477790588E+03    0.75642E-04   -0.97105E-04   132   0.988E-02    0.664E-02
DAV:   3    -0.102477743568E+03    0.47020E-04   -0.19482E-04   132   0.438E-02    0.819E-03
DAV:   4    -0.102477747862E+03   -0.42937E-05   -0.32306E-05   132   0.184E-02    0.685E-03
DAV:   5    -0.102477748376E+03   -0.51355E-06   -0.72787E-07   108   0.321E-03
 156 F= -.10247775E+03 E0= -.10247775E+03  d E =-.523502E-10
       N       E                     dE             d eps       ncg     rms          rms(c)
DAV:   1    -0.102477684634E+03    0.63228E-04   -0.52662E-01    96   0.212E+00    0.171E-01
DAV:   2    -0.102477553559E+03    0.13108E-03   -0.24613E-03   132   0.151E-01    0.970E-02
DAV:   3    -0.102477424831E+03    0.12873E-03   -0.38285E-04   132   0.572E-02    0.190E-02
DAV:   4    -0.102477426695E+03   -0.18644E-05   -0.55335E-05   132   0.235E-02    0.103E-02
DAV:   5    -0.102477426846E+03   -0.15080E-06   -0.25982E-06   132   0.558E-03
 157 F= -.10247743E+03 E0= -.10247743E+03  d E =-.402999E-10
