       N       E                     dE             d eps       ncg     rms          rms(c)
DAV:   1     0.244820485291E+03    0.24482E+03   -0.10206E+04   120   0.484E+02
DAV:   2    -0.230536032574E+02   -0.26787E+03   -0.25374E+03   156   0.916E+01
DAV:   3    -0.103874761237E+03   -0.80821E+02   -0.80592E+02   120   0.551E+01
DAV:   4    -0.107871149578E+03   -0.39964E+01   -0.39813E+01   132   0.177E+01
DAV:   5    -0.107940953064E+03   -0.69803E-01   -0.69712E-01   156   0.232E+00    0.158E+01
DAV:   6    -0.104361324677E+03    0.35796E+01   -0.16488E+00   108   0.442E+00    0.909E+00
DAV:   7    -0.102532365815E+03    0.18290E+01   -0.44164E+00   120   0.647E+00    0.133E+00
DAV:   8    -0.102476909892E+03    0.55456E-01   -0.34620E-01   132   0.225E+00    0.704E-01
DAV:   9    -0.102442565743E+03    0.34344E-01   -0.63589E-02   144   0.689E-01    0.381E-01
DAV:  10    -0.102441145807E+03    0.14199E-02   -0.39416E-03   120   0.222E-01    0.148E-01
DAV:  11    -0.102439718543E+03    0.14273E-02   -0.67257E-03   120   0.222E-01    0.111E-01
DAV:  12    -0.102445370834E+03   -0.56523E-02   -0.14807E-03   132   0.107E-01    0.516E-02
DAV:  13    -0.102448899595E+03   -0.35288E-02   -0.19464E-03   132   0.109E-01    0.478E-02
DAV:  14    -0.102451897787E+03   -0.29982E-02   -0.17586E-04   144   0.454E-02    0.220E-02
DAV:  15    -0.102457084686E+03   -0.51869E-02   -0.59324E-04   120   0.602E-02    0.140E-02
DAV:  16    -0.102458704124E+03   -0.16194E-02   -0.10868E-04   132   0.311E-02    0.889E-03
DAV:  17    -0.102459944134E+03   -0.12400E-02   -0.11023E-04   108   0.235E-02    0.783E-03
DAV:  18    -0.102460248053E+03   -0.30392E-03   -0.88245E-06   132   0.778E-03    0.193E-03
DAV:  19    -0.102460495763E+03   -0.24771E-03   -0.11579E-05   108   0.751E-03    0.239E-03
DAV:  20    -0.102460555145E+03   -0.59382E-04   -0.11041E-06   108   0.326E-03    0.972E-04
DAV:  21    -0.102460580471E+03   -0.25326E-04   -0.56255E-07   108   0.194E-03    0.419E-04
DAV:  22    -0.102460595641E+03   -0.15169E-04   -0.31863E-07   108   0.134E-03    0.363E-04
DAV:  23    -0.102460598926E+03   -0.32853E-05   -0.65089E-08   108   0.606E-04    0.204E-04
DAV:  24    -0.102460603043E+03   -0.41174E-05   -0.67639E-08   108   0.651E-04    0.181E-04
DAV:  25    -0.102460603715E+03   -0.67186E-06   -0.73186E-09   108   0.323E-04
   1 F= -.10246060E+03 E0= -.10246060E+03  d E =-.260124E-10
       N       E                     dE             d eps       ncg     rms          rms(c)
DAV:   1    -0.102457119970E+03    0.34831E-02   -0.83368E-02   120   0.838E-01    0.128E-01
DAV:   2    -0.102457453745E+03   -0.33378E-03   -0.37907E-03   132   0.209E-01    0.557E-02
DAV:   3    -0.102457440544E+03    0.13201E-04   -0.14234E-04   132   0.447E-02    0.288E-02
DAV:   4    -0.102457443894E+03   -0.33496E-05   -0.34276E-05   132   0.219E-02    0.845E-03
DAV:   5    -0.102457443265E+03    0.62867E-06   -0.64148E-06   132   0.993E-03
   2 F= -.10245744E+03 E0= -.10245744E+03  d E =-.379698E-10
       N       E                     dE             d eps       ncg     rms          rms(c)
DAV:   1    -0.102456253305E+03    0.11906E-02   -0.33518E-01    96   0.170E+00    0.265E-01
DAV:   2    -0.102457614151E+03   -0.13608E-02   -0.15387E-02   132   0.417E-01    0.112E-01
DAV:   3    -0.102457566537E+03    0.47615E-04   -0.57232E-04   132   0.879E-02    0.603E-02
DAV:   4    -0.102457581776E+03   -0.15240E-04   -0.13485E-04   132   0.432E-02    0.177E-02
DAV:   5    -0.102457579334E+03    0.24422E-05   -0.26358E-05   132   0.198E-02    0.943E-03
DAV:   6    -0.102457578988E+03    0.34642E-06   -0.49682E-06   132   0.763E-03
   3 F= -.10245758E+03 E0= -.10245758E+03  d E =-.351387E-10
       N       E                     dE             d eps       ncg     rms          rms(c)
DAV:   1    -0.102456856738E+03    0.72260E-03   -0.16709E-01    96   0.118E+00    0.157E-01
DAV:   2    -0.102457583942E+03   -0.72720E-03   -0.78877E-03   132   0.293E-01    0.767E-02
DAV:   3    -0.102457570494E+03    0.13448E-04   -0.28110E-04   144   0.623E-02    0.388E-02
DAV:   4    -0.102457582966E+03   -0.12472E-04   -0.60963E-05   132   0.292E-02    0.110E-02
DAV:   5    -0.102457582565E+03    0.40128E-06   -0.10566E-05   132   0.126E-02    0.609E-03
DAV:   6    -0.102457583042E+03   -0.47787E-06   -0.27224E-06   132   0.552E-03
   4 F= -.10245758E+03 E0= -.10245758E+03  d E =-.382696E-10
       N       E                     dE             d eps       ncg     rms          rms(c)
DAV:   1    -0.102456022940E+03    0.15596E-02   -0.33288E-01    96   0.168E+00    0.244E-01
DAV:   2    -0.102457542619E+03   -0.15197E-02   -0.16493E-02   132   0.433E-01    0.112E-01
DAV:   3    -0.102457501919E+03    0.40701E-04   -0.55046E-04   132   0.891E-02    0.596E-02
DAV:   4    -0.102457516832E+03   -0.14913E-04   -0.14476E-04   132   0.454E-02    0.161E-02
DAV:   5    -0.102457512361E+03    0.44713E-05   -0.27166E-05   132   0.201E-02    0.943E-03
DAV:   6    -0.102457511744E+03    0.61657E-06   -0.53493E-06   132   0.802E-03
   5 F= -.10245751E+03 E0= -.10245751E+03  d E =-.417267E-10
       N       E                     dE             d eps       ncg     rms          rms(c)
DAV:   1    -0.102455389040E+03    0.21233E-02   -0.16541E-01    96   0.122E+00    0.160E-01
DAV:   2    -0.102456309834E+03   -0.92079E-03   -0.97761E-03   132   0.335E-01    0.924E-02
DAV:   3    -0.102456273131E+03    0.36704E-04   -0.28354E-04   132   0.664E-02    0.504E-02
DAV:   4    -0.102456279556E+03   -0.64258E-05   -0.10952E-04   132   0.396E-02    0.115E-02
DAV:   5    -0.102456278281E+03    0.12757E-05   -0.21603E-05   132   0.174E-02    0.740E-03
DAV:   6    -0.102456279942E+03   -0.16615E-05   -0.33635E-06   132   0.591E-03    0.499E-03
DAV:   7    -0.102456285656E+03   -0.57140E-05   -0.46413E-07   108   0.249E-03    0.179E-03
DAV:   8    -0.102456291187E+03   -0.55311E-05   -0.52278E-07   108   0.257E-03    0.762E-04
DAV:   9    -0.102456296509E+03   -0.53216E-05   -0.38041E-07   108   0.188E-03    0.618E-04
DAV:  10    -0.102456303704E+03   -0.71946E-05   -0.51484E-07   108   0.168E-03    0.599E-04
DAV:  11    -0.102456305075E+03   -0.13713E-05   -0.77079E-08   108   0.804E-04    0.434E-04
DAV:  12    -0.102456306581E+03   -0.15063E-05   -0.34852E-08   108   0.555E-04    0.230E-04
DAV:  13    -0.102456308448E+03   -0.18670E-05   -0.78767E-08   108   0.601E-04    0.132E-04
DAV:  14    -0.102456309337E+03   -0.88899E-06   -0.17423E-08   108   0.329E-04
   6 F= -.10245631E+03 E0= -.10245631E+03  d E =-.471007E-10
       N       E                     dE             d eps       ncg     rms          rms(c)
DAV:   1    -0.102453958302E+03    0.23501E-02   -0.33453E-01    96   0.173E+00    0.264E-01
DAV:   2    -0.102456315877E+03   -0.23576E-02   -0.25411E-02   132   0.531E-01    0.170E-01
DAV:   3    -0.102456137609E+03    0.17827E-03   -0.67425E-04   132   0.108E-01    0.890E-02
DAV:   4    -0.102456136110E+03    0.14989E-05   -0.44628E-04   132   0.752E-02    0.171E-02
DAV:   5    -0.102456127119E+03    0.89915E-05   -0.71932E-05   132   0.307E-02    0.126E-02
DAV:   6    -0.102456127088E+03    0.30854E-07   -0.11756E-05   132   0.962E-03    0.844E-03
DAV:   7    -0.102456138139E+03   -0.11051E-04   -0.98943E-07   108   0.367E-03    0.361E-03
DAV:   8    -0.102456157372E+03   -0.19233E-04   -0.23973E-06   132   0.538E-03    0.152E-03
DAV:   9    -0.102456171764E+03   -0.14393E-04   -0.12447E-06   132   0.291E-03    0.177E-03
DAV:  10    -0.102456191252E+03   -0.19488E-04   -0.81016E-07   108   0.211E-03    0.883E-04
DAV:  11    -0.102456198000E+03   -0.67478E-05   -0.34531E-07   108   0.125E-03    0.594E-04
DAV:  12    -0.102456205466E+03   -0.74659E-05   -0.18797E-07   108   0.100E-03    0.236E-04
DAV:  13    -0.102456209969E+03   -0.45030E-05   -0.13761E-07   108   0.722E-04    0.240E-04
DAV:  14    -0.102456212467E+03   -0.24984E-05   -0.31805E-08   108   0.424E-04    0.127E-04
DAV:  15    -0.102456213639E+03   -0.11718E-05   -0.11453E-08   108   0.290E-04    0.768E-05
DAV:  16    -0.102456214303E+03   -0.66390E-06    0.63679E-10   108   0.178E-04
   7 F= -.10245621E+03 E0= -.10245621E+03  d E =-.355010E-10
       N       E                     dE             d eps       ncg     rms          rms(c)
DAV:   1    -0.102455172694E+03    0.10409E-02   -0.19135E-01    96   0.134E+00    0.192E-01
DAV:   2    -0.102456608816E+03   -0.14361E-02   -0.14857E-02   120   0.426E-01    0.120E-01
DAV:   3    -0.102456528954E+03    0.79863E-04   -0.41297E-04   144   0.864E-02    0.661E-02
DAV:   4    -0.102456526170E+03    0.27837E-05   -0.21694E-04   132   0.569E-02    0.126E-02
DAV:   5    -0.102456521671E+03    0.44984E-05   -0.40722E-05   132   0.230E-02    0.946E-03
DAV:   6    -0.102456522148E+03   -0.47628E-06   -0.38971E-06   132   0.643E-03
   8 F= -.10245652E+03 E0= -.10245652E+03  d E =-.432111E-10
       N       E                     dE             d eps       ncg     rms          rms(c)
DAV:   1    -0.102454729015E+03    0.17927E-02   -0.34031E-01    96   0.171E+00    0.256E-01
DAV:   2    -0.102456663243E+03   -0.19342E-02   -0.19966E-02   132   0.477E-01    0.151E-01
DAV:   3    -0.102456608520E+03    0.54723E-04   -0.52182E-04   132   0.879E-02    0.799E-02
DAV:   4    -0.102456605990E+03    0.25301E-05   -0.21216E-04   132   0.540E-02    0.153E-02
DAV:   5    -0.102456595571E+03    0.10419E-04   -0.39238E-05   144   0.236E-02    0.994E-03
DAV:   6    -0.102456596307E+03   -0.73662E-06   -0.77925E-06   132   0.905E-03
   9 F= -.10245660E+03 E0= -.10245660E+03  d E =-.394178E-10
       N       E                     dE             d eps       ncg     rms          rms(c)
DAV:   1    -0.102454639884E+03    0.19557E-02   -0.17328E-01    96   0.122E+00    0.189E-01
DAV:   2    -0.102455761242E+03   -0.11214E-02   -0.11217E-02   132   0.356E-01    0.115E-01
DAV:   3    -0.102455742327E+03    0.18915E-04   -0.28180E-04   132   0.667E-02    0.638E-02
DAV:   4    -0.102455761946E+03   -0.19619E-04   -0.15371E-04   120   0.455E-02    0.118E-02
DAV:   5    -0.102455757866E+03    0.40795E-05   -0.32533E-05   132   0.201E-02    0.821E-03
DAV:   6    -0.102455758560E+03   -0.69420E-06   -0.58272E-06   132   0.699E-03
  10 F= -.10245576E+03 E0= -.10245576E+03  d E =-.583694E-10
       N       E                     dE             d eps       ncg     rms          rms(c)
DAV:   1    -0.102453124148E+03    0.26337E-02   -0.35310E-01    96   0.172E+00    0.262E-01
DAV:   2    -0.102455774734E+03   -0.26506E-02   -0.26726E-02   132   0.537E-01    0.183E-01
DAV:   3    -0.102455638238E+03    0.13650E-03   -0.63335E-04   132   0.106E-01    0.931E-02
DAV:   4    -0.102455665841E+03   -0.27604E-04   -0.49004E-04   132   0.787E-02    0.180E-02
DAV:   5    -0.102455650007E+03    0.15834E-04   -0.91890E-05   132   0.335E-02    0.120E-02
DAV:   6    -0.102455650095E+03   -0.87669E-07   -0.16372E-05   132   0.105E-02    0.673E-03
DAV:   7    -0.102455663190E+03   -0.13096E-04   -0.10414E-06   120   0.316E-03    0.323E-03
DAV:   8    -0.102455682780E+03   -0.19590E-04   -0.35087E-06   132   0.512E-03    0.154E-03
DAV:   9    -0.102455697303E+03   -0.14522E-04   -0.14297E-06   132   0.301E-03    0.148E-03
DAV:  10    -0.102455712349E+03   -0.15047E-04   -0.11740E-06   108   0.234E-03    0.544E-04
DAV:  11    -0.102455717072E+03   -0.47228E-05   -0.17148E-07   108   0.108E-03    0.305E-04
DAV:  12    -0.102455723671E+03   -0.65990E-05   -0.26560E-07    96   0.103E-03    0.154E-04
DAV:  13    -0.102455725771E+03   -0.20993E-05   -0.61499E-08   108   0.496E-04    0.194E-04
DAV:  14    -0.102455727787E+03   -0.20162E-05   -0.31808E-08    96   0.412E-04    0.104E-04
DAV:  15    -0.102455728408E+03   -0.62114E-06   -0.46816E-09   108   0.234E-04
  11 F= -.10245573E+03 E0= -.10245573E+03  d E =-.328394E-10
       N       E                     dE             d eps       ncg     rms          rms(c)
DAV:   1    -0.102456052879E+03   -0.32509E-03   -0.17252E-01    96   0.123E+00    0.175E-01
DAV:   2    -0.102457300754E+03   -0.12479E-02   -0.12680E-02   132   0.377E-01    0.120E-01
DAV:   3    -0.102457236148E+03    0.64606E-04   -0.30680E-04   156   0.727E-02    0.607E-02
DAV:   4    -0.102457239289E+03   -0.31413E-05   -0.19986E-04   132   0.511E-02    0.122E-02
DAV:   5    -0.102457234124E+03    0.51651E-05   -0.38152E-05   132   0.220E-02    0.877E-03
DAV:   6    -0.102457235407E+03   -0.12831E-05   -0.84683E-06   132   0.810E-03    0.513E-03
DAV:   7    -0.102457245025E+03   -0.96176E-05   -0.14611E-06   132   0.396E-03    0.205E-03
DAV:   8    -0.102457259184E+03   -0.14160E-04   -0.12434E-06   120   0.310E-03    0.856E-04
DAV:   9    -0.102457272253E+03   -0.13069E-04   -0.11113E-06   120   0.243E-03    0.105E-03
DAV:  10    -0.102457284263E+03   -0.12010E-04   -0.88615E-07    96   0.213E-03    0.299E-04
DAV:  11    -0.102457288406E+03   -0.41432E-05   -0.23616E-07   108   0.105E-03    0.222E-04
DAV:  12    -0.102457291872E+03   -0.34658E-05   -0.13111E-07    96   0.756E-04    0.153E-04
DAV:  13    -0.102457293310E+03   -0.14381E-05   -0.40622E-08   108   0.440E-04    0.941E-05
DAV:  14    -0.102457294427E+03   -0.11171E-05   -0.18114E-08    96   0.302E-04    0.360E-05
DAV:  15    -0.102457294834E+03   -0.40635E-06    0.67331E-10   108   0.170E-04
  12 F= -.10245729E+03 E0= -.10245729E+03  d E =-.376676E-10
       N       E                     dE             d eps       ncg     rms          rms(c)
DAV:   1    -0.102455575810E+03    0.17186E-02   -0.32904E-01    96   0.166E+00    0.218E-01
DAV:   2    -0.102457323747E+03   -0.17479E-02   -0.17972E-02   132   0.451E-01    0.127E-01
DAV:   3    -0.102457304585E+03    0.19163E-04   -0.48370E-04   132   0.866E-02    0.663E-02
DAV:   4    -0.102457314758E+03   -0.10173E-04   -0.16476E-04   132   0.532E-02    0.138E-02
DAV:   5    -0.102457307581E+03    0.71772E-05   -0.40995E-05   132   0.248E-02    0.938E-03
DAV:   6    -0.102457308220E+03   -0.63923E-06   -0.71787E-06   132   0.871E-03
  13 F= -.10245731E+03 E0= -.10245731E+03  d E =-.488364E-10
       N       E                     dE             d eps       ncg     rms          rms(c)
DAV:   1    -0.102454642846E+03    0.26647E-02   -0.16798E-01    96   0.132E+00    0.172E-01
DAV:   2    -0.102455982229E+03   -0.13394E-02   -0.13710E-02   132   0.410E-01    0.113E-01
DAV:   3    -0.102455937721E+03    0.44508E-04   -0.33746E-04   144   0.761E-02    0.665E-02
DAV:   4    -0.102455959265E+03   -0.21544E-04   -0.18748E-04   132   0.567E-02    0.127E-02
DAV:   5    -0.102455959279E+03   -0.14513E-07   -0.56130E-05   132   0.277E-02    0.102E-02
DAV:   6    -0.102455958111E+03    0.11677E-05   -0.56348E-06   132   0.813E-03    0.711E-03
DAV:   7    -0.102455961412E+03   -0.33006E-05   -0.18297E-06   132   0.518E-03    0.281E-03
DAV:   8    -0.102455966905E+03   -0.54929E-05   -0.65483E-07   108   0.363E-03    0.759E-04
DAV:   9    -0.102455973413E+03   -0.65077E-05   -0.56880E-07   108   0.248E-03    0.109E-03
DAV:  10    -0.102455981743E+03   -0.83303E-05   -0.39787E-07   108   0.173E-03    0.333E-04
DAV:  11    -0.102455984549E+03   -0.28061E-05   -0.12808E-07   108   0.934E-04    0.261E-04
DAV:  12    -0.102455987815E+03   -0.32657E-05   -0.79275E-08   108   0.697E-04    0.128E-04
DAV:  13    -0.102455990076E+03   -0.22614E-05   -0.66784E-08   108   0.564E-04    0.124E-04
DAV:  14    -0.102455991286E+03   -0.12098E-05   -0.18262E-08   108   0.322E-04    0.852E-05
DAV:  15    -0.102455992009E+03   -0.72285E-06   -0.55612E-09   108   0.231E-04
  14 F= -.10245599E+03 E0= -.10245599E+03  d E =-.405518E-10
       N       E                     dE             d eps       ncg     rms          rms(c)
DAV:   1    -0.102453664882E+03    0.23264E-02   -0.34760E-01    96   0.182E+00    0.259E-01
DAV:   2    -0.102456225099E+03   -0.25602E-02   -0.26071E-02   132   0.576E-01    0.175E-01
DAV:   3    -0.102456099713E+03    0.12539E-03   -0.56941E-04   132   0.102E-01    0.984E-02
DAV:   4    -0.102456097175E+03    0.25387E-05   -0.40940E-04   132   0.800E-02    0.176E-02
DAV:   5    -0.102456089538E+03    0.76361E-05   -0.10011E-04   132   0.370E-02    0.131E-02
DAV:   6    -0.102456092824E+03   -0.32853E-05   -0.17262E-05   132   0.122E-02    0.856E-03
DAV:   7    -0.102456112281E+03   -0.19458E-04   -0.24776E-06   132   0.553E-03    0.362E-03
DAV:   8    -0.102456139543E+03   -0.27262E-04   -0.29599E-06   132   0.494E-03    0.110E-03
DAV:   9    -0.102456161801E+03   -0.22258E-04   -0.23371E-06   132   0.371E-03    0.174E-03
DAV:  10    -0.102456181776E+03   -0.19975E-04   -0.15641E-06   132   0.287E-03    0.679E-04
DAV:  11    -0.102456188728E+03   -0.69522E-05   -0.29921E-07   108   0.134E-03    0.319E-04
DAV:  12    -0.102456195671E+03   -0.69429E-05   -0.35659E-07   108   0.117E-03    0.200E-04
DAV:  13    -0.102456197617E+03   -0.19461E-05   -0.58248E-08   108   0.495E-04    0.228E-04
DAV:  14    -0.102456199523E+03   -0.19059E-05   -0.39069E-08   108   0.460E-04    0.818E-05
DAV:  15    -0.102456200079E+03   -0.55540E-06   -0.63952E-09   108   0.246E-04
  15 F= -.10245620E+03 E0= -.10245620E+03  d E =-.400162E-10
       N       E                     dE             d eps       ncg     rms          rms(c)
DAV:   1    -0.102455314268E+03    0.88526E-03   -0.17425E-01    96   0.130E+00    0.188E-01
DAV:   2    -0.102456625735E+03   -0.13115E-02   -0.13379E-02   132   0.422E-01    0.129E-01
DAV:   3    -0.102456550880E+03    0.74856E-04   -0.30805E-04   144   0.779E-02    0.671E-02
DAV:   4    -0.102456554654E+03   -0.37745E-05   -0.22186E-04   120   0.571E-02    0.130E-02
DAV:   5    -0.102456546618E+03    0.80363E-05   -0.47173E-05   132   0.255E-02    0.875E-03
DAV:   6    -0.102456548895E+03   -0.22777E-05   -0.80056E-06   132   0.786E-03    0.483E-03
DAV:   7    -0.102456560089E+03   -0.11194E-04   -0.51120E-07   108   0.233E-03    0.246E-03
DAV:   8    -0.102456578680E+03   -0.18591E-04   -0.23839E-06   132   0.418E-03    0.119E-03
DAV:   9    -0.102456588486E+03   -0.98064E-05   -0.72992E-07   108   0.244E-03    0.108E-03
DAV:  10    -0.102456601992E+03   -0.13505E-04   -0.10831E-06   108   0.218E-03    0.546E-04
DAV:  11    -0.102456605501E+03   -0.35092E-05   -0.10943E-07   108   0.960E-04    0.247E-04
DAV:  12    -0.102456609361E+03   -0.38596E-05   -0.11889E-07    96   0.781E-04    0.138E-04
DAV:  13    -0.102456610905E+03   -0.15446E-05   -0.32587E-08   108   0.411E-04    0.182E-04
DAV:  14    -0.102456612247E+03   -0.13418E-05   -0.15194E-08   108   0.320E-04    0.844E-05
DAV:  15    -0.102456612598E+03   -0.35096E-06    0.34063E-10   108   0.176E-04
  16 F= -.10245661E+03 E0= -.10245661E+03  d E =-.314595E-10
       N       E                     dE             d eps       ncg     rms          rms(c)
DAV:   1    -0.102454485032E+03    0.21272E-02   -0.34011E-01    96   0.185E+00    0.263E-01
DAV:   2    -0.102456549035E+03   -0.20640E-02   -0.21361E-02   132   0.520E-01    0.153E-01
DAV:   3    -0.102456462777E+03    0.86258E-04   -0.53673E-04   132   0.970E-02    0.796E-02
DAV:   4    -0.102456468695E+03   -0.59179E-05   -0.28414E-04   132   0.642E-02    0.170E-02
DAV:   5    -0.102456458267E+03    0.10429E-04   -0.55125E-05   132   0.283E-02    0.117E-02
DAV:   6    -0.102456457689E+03    0.57750E-06   -0.11581E-05   132   0.108E-02    0.688E-03
DAV:   7    -0.102456467445E+03   -0.97561E-05   -0.17125E-06   120   0.536E-03    0.273E-03
DAV:   8    -0.102456482425E+03   -0.14980E-04   -0.16548E-06   132   0.446E-03    0.124E-03
DAV:   9    -0.102456499186E+03   -0.16760E-04   -0.98253E-07   108   0.307E-03    0.126E-03
DAV:  10    -0.102456515164E+03   -0.15978E-04   -0.10281E-06   120   0.234E-03    0.612E-04
DAV:  11    -0.102456523868E+03   -0.87045E-05   -0.26876E-07   108   0.131E-03    0.264E-04
DAV:  12    -0.102456529878E+03   -0.60103E-05   -0.16631E-07   108   0.863E-04    0.257E-04
DAV:  13    -0.102456533167E+03   -0.32883E-05   -0.57298E-08   108   0.515E-04    0.173E-04
DAV:  14    -0.102456534949E+03   -0.17824E-05   -0.18666E-08   108   0.348E-04    0.475E-05
DAV:  15    -0.102456535730E+03   -0.78131E-06   -0.35510E-09   108   0.214E-04
  17 F= -.10245654E+03 E0= -.10245654E+03  d E =-.506883E-10
       N       E                     dE             d eps       ncg     rms          rms(c)
DAV:   1    -0.102455862101E+03    0.67285E-03   -0.17207E-01    96   0.130E+00    0.175E-01
DAV:   2    -0.102456909919E+03   -0.10478E-02   -0.10858E-02   132   0.374E-01    0.114E-01
DAV:   3    -0.102456866530E+03    0.43389E-04   -0.26297E-04   132   0.673E-02    0.609E-02
DAV:   4    -0.102456850630E+03    0.15900E-04   -0.11730E-04   132   0.408E-02    0.108E-02
DAV:   5    -0.102456847138E+03    0.34928E-05   -0.18047E-05   132   0.165E-02    0.705E-03
DAV:   6    -0.102456853339E+03   -0.62011E-05   -0.58655E-06   132   0.830E-03    0.402E-03
DAV:   7    -0.102456872143E+03   -0.18804E-04   -0.21571E-06   108   0.545E-03    0.147E-03
DAV:   8    -0.102456889230E+03   -0.17087E-04   -0.12843E-06   108   0.374E-03    0.102E-03
DAV:   9    -0.102456907272E+03   -0.18041E-04   -0.15575E-06   120   0.309E-03    0.802E-04
DAV:  10    -0.102456919907E+03   -0.12636E-04   -0.10821E-06   120   0.223E-03    0.352E-04
DAV:  11    -0.102456924127E+03   -0.42200E-05   -0.13580E-07   108   0.963E-04    0.195E-04
DAV:  12    -0.102456928480E+03   -0.43528E-05   -0.28513E-07   108   0.105E-03    0.166E-04
DAV:  13    -0.102456929354E+03   -0.87394E-06   -0.22166E-08   120   0.396E-04
  18 F= -.10245693E+03 E0= -.10245693E+03  d E =-.433618E-10
       N       E                     dE             d eps       ncg     rms          rms(c)
DAV:   1    -0.102455163549E+03    0.17649E-02   -0.32960E-01    96   0.174E+00    0.214E-01
DAV:   2    -0.102457072329E+03   -0.19088E-02   -0.19597E-02   132   0.488E-01    0.140E-01
DAV:   3    -0.102457031659E+03    0.40670E-04   -0.47639E-04   132   0.875E-02    0.714E-02
DAV:   4    -0.102457026462E+03    0.51977E-05   -0.16203E-04   132   0.509E-02    0.136E-02
DAV:   5    -0.102457015679E+03    0.10782E-04   -0.31983E-05   132   0.226E-02    0.836E-03
DAV:   6    -0.102457017801E+03   -0.21215E-05   -0.76907E-06   132   0.958E-03    0.523E-03
DAV:   7    -0.102457031454E+03   -0.13653E-04   -0.19444E-06   132   0.624E-03    0.188E-03
DAV:   8    -0.102457047070E+03   -0.15616E-04   -0.12958E-06   108   0.521E-03    0.143E-03
DAV:   9    -0.102457063914E+03   -0.16845E-04   -0.14526E-06   132   0.367E-03    0.152E-03
DAV:  10    -0.102457075109E+03   -0.11194E-04   -0.26283E-07   108   0.156E-03    0.687E-04
DAV:  11    -0.102457086635E+03   -0.11526E-04   -0.60152E-07   108   0.160E-03    0.347E-04
DAV:  12    -0.102457092374E+03   -0.57398E-05   -0.15412E-07   108   0.818E-04    0.324E-04
DAV:  13    -0.102457097791E+03   -0.54164E-05   -0.11153E-07   108   0.733E-04    0.121E-04
DAV:  14    -0.102457099955E+03   -0.21640E-05   -0.29710E-08   108   0.428E-04    0.108E-04
DAV:  15    -0.102457101609E+03   -0.16541E-05   -0.15298E-08   108   0.361E-04    0.744E-05
DAV:  16    -0.102457102023E+03   -0.41437E-06    0.46990E-10   108   0.184E-04
  19 F= -.10245710E+03 E0= -.10245710E+03  d E =-.352229E-10
       N       E                     dE             d eps       ncg     rms          rms(c)
DAV:   1    -0.102456205179E+03    0.89643E-03   -0.16467E-01    96   0.128E+00    0.151E-01
DAV:   2    -0.102457312903E+03   -0.11077E-02   -0.11599E-02   132   0.374E-01    0.973E-02
DAV:   3    -0.102457276463E+03    0.36439E-04   -0.31210E-04   144   0.706E-02    0.548E-02
DAV:   4    -0.102457266695E+03    0.97685E-05   -0.10054E-04   120   0.431E-02    0.104E-02
DAV:   5    -0.102457263941E+03    0.27535E-05   -0.29509E-05   144   0.206E-02    0.790E-03
DAV:   6    -0.102457264821E+03   -0.88036E-06   -0.32156E-06   132   0.681E-03
  20 F= -.10245726E+03 E0= -.10245726E+03  d E =-.797158E-10
       N       E                     dE             d eps       ncg     rms          rms(c)
DAV:   1    -0.102455549007E+03    0.17149E-02   -0.33704E-01    96   0.167E+00    0.223E-01
DAV:   2    -0.102457314826E+03   -0.17658E-02   -0.18493E-02   132   0.455E-01    0.125E-01
DAV:   3    -0.102457262508E+03    0.52318E-04   -0.51450E-04   132   0.883E-02    0.682E-02
DAV:   4    -0.102457281058E+03   -0.18550E-04   -0.20322E-04   132   0.533E-02    0.164E-02
DAV:   5    -0.102457277732E+03    0.33262E-05   -0.40387E-05   132   0.238E-02    0.960E-03
DAV:   6    -0.102457279541E+03   -0.18087E-05   -0.65635E-06   144   0.834E-03    0.638E-03
DAV:   7    -0.102457286842E+03   -0.73015E-05   -0.80586E-07   108   0.328E-03    0.209E-03
DAV:   8    -0.102457293272E+03   -0.64298E-05   -0.64903E-07   120   0.290E-03    0.969E-04
DAV:   9    -0.102457301642E+03   -0.83697E-05   -0.51787E-07   108   0.254E-03    0.615E-04
DAV:  10    -0.102457310354E+03   -0.87120E-05   -0.79342E-07   120   0.230E-03    0.708E-04
DAV:  11    -0.102457312301E+03   -0.19477E-05   -0.87678E-08   108   0.115E-03    0.464E-04
DAV:  12    -0.102457314743E+03   -0.24413E-05   -0.73679E-08   108   0.715E-04    0.230E-04
DAV:  13    -0.102457316641E+03   -0.18980E-05   -0.51514E-08   108   0.501E-04    0.104E-04
DAV:  14    -0.102457318263E+03   -0.16227E-05   -0.48217E-08   108   0.448E-04    0.137E-04
DAV:  15    -0.102457318846E+03   -0.58226E-06   -0.56550E-09   120   0.238E-04
  21 F= -.10245732E+03 E0= -.10245732E+03  d E =-.284566E-10
       N       E                     dE             d eps       ncg     rms          rms(c)
DAV:   1    -0.102455623645E+03    0.16946E-02   -0.17144E-01    96   0.121E+00    0.170E-01
DAV:   2    -0.102456708646E+03   -0.10850E-02   -0.11653E-02   132   0.353E-01    0.112E-01
DAV:   3    -0.102456634691E+03    0.73955E-04   -0.30309E-04   132   0.713E-02    0.562E-02
DAV:   4    -0.102456636305E+03   -0.16142E-05   -0.18679E-04   132   0.476E-02    0.113E-02
DAV:   5    -0.102456630900E+03    0.54050E-05   -0.27038E-05   132   0.190E-02    0.808E-03
DAV:   6    -0.102456631006E+03   -0.10544E-06   -0.54356E-06   132   0.656E-03
  22 F= -.10245663E+03 E0= -.10245663E+03  d E =-.255711E-10
       N       E                     dE             d eps       ncg     rms          rms(c)
DAV:   1    -0.102454731224E+03    0.18997E-02   -0.34330E-01    96   0.172E+00    0.268E-01
DAV:   2    -0.102456684939E+03   -0.19537E-02   -0.20909E-02   120   0.493E-01    0.150E-01
DAV:   3    -0.102456598431E+03    0.86509E-04   -0.64515E-04   132   0.101E-01    0.840E-02
DAV:   4    -0.102456611621E+03   -0.13190E-04   -0.29795E-04   132   0.628E-02    0.180E-02
DAV:   5    -0.102456603030E+03    0.85908E-05   -0.50537E-05   144   0.252E-02    0.118E-02
DAV:   6    -0.102456601368E+03    0.16615E-05   -0.74179E-06   132   0.842E-03    0.753E-03
DAV:   7    -0.102456608580E+03   -0.72117E-05   -0.14429E-06   120   0.428E-03    0.200E-03
DAV:   8    -0.102456615298E+03   -0.67179E-05   -0.46131E-07   108   0.237E-03    0.944E-04
DAV:   9    -0.102456625658E+03   -0.10360E-04   -0.90702E-07   108   0.232E-03    0.831E-04
DAV:  10    -0.102456634845E+03   -0.91870E-05   -0.65422E-07   120   0.183E-03    0.454E-04
DAV:  11    -0.102456639515E+03   -0.46704E-05   -0.21140E-07   108   0.104E-03    0.292E-04
DAV:  12    -0.102456643428E+03   -0.39121E-05   -0.15388E-07   108   0.807E-04    0.145E-04
DAV:  13    -0.102456645429E+03   -0.20019E-05   -0.75773E-08   108   0.540E-04    0.143E-04
DAV:  14    -0.102456646456E+03   -0.10263E-05   -0.15730E-08   108   0.320E-04    0.697E-05
DAV:  15    -0.102456646869E+03   -0.41359E-06   -0.15010E-09   108   0.190E-04
  23 F= -.10245665E+03 E0= -.10245665E+03  d E =-.679346E-10
       N       E                     dE             d eps       ncg     rms          rms(c)
DAV:   1    -0.102456493967E+03    0.15249E-03   -0.16944E-01    96   0.122E+00    0.173E-01
DAV:   2    -0.102457575239E+03   -0.10813E-02   -0.11598E-02   132   0.355E-01    0.110E-01
DAV:   3    -0.102457500776E+03    0.74463E-04   -0.30770E-04   132   0.715E-02    0.553E-02
DAV:   4    -0.102457503346E+03   -0.25701E-05   -0.18692E-04   132   0.481E-02    0.116E-02
DAV:   5    -0.102457497898E+03    0.54481E-05   -0.28144E-05   132   0.194E-02    0.781E-03
DAV:   6    -0.102457498136E+03   -0.23870E-06   -0.52786E-06   132   0.658E-03
  24 F= -.10245750E+03 E0= -.10245750E+03  d E =-.226445E-10
       N       E                     dE             d eps       ncg     rms          rms(c)
DAV:   1    -0.102455665148E+03    0.18327E-02   -0.33508E-01    96   0.167E+00    0.206E-01
DAV:   2    -0.102457307447E+03   -0.16423E-02   -0.17180E-02   132   0.443E-01    0.120E-01
DAV:   3    -0.102457286959E+03    0.20488E-04   -0.50197E-04   144   0.866E-02    0.673E-02
DAV:   4    -0.102457315357E+03   -0.28398E-04   -0.15039E-04   132   0.477E-02    0.161E-02
DAV:   5    -0.102457312382E+03    0.29749E-05   -0.29665E-05   132   0.211E-02    0.845E-03
DAV:   6    -0.102457311458E+03    0.92457E-06   -0.58496E-06   144   0.828E-03
  25 F= -.10245731E+03 E0= -.10245731E+03  d E =-.931783E-10
       N       E                     dE             d eps       ncg     rms          rms(c)
DAV:   1    -0.102454945341E+03    0.23670E-02   -0.16426E-01    96   0.127E+00    0.153E-01
DAV:   2    -0.102456178156E+03   -0.12328E-02   -0.12789E-02   132   0.387E-01    0.106E-01
DAV:   3    -0.102456141137E+03    0.37019E-04   -0.31125E-04   144   0.713E-02    0.578E-02
DAV:   4    -0.102456147529E+03   -0.63923E-05   -0.14012E-04   132   0.458E-02    0.103E-02
DAV:   5    -0.102456143630E+03    0.38990E-05   -0.29264E-05   132   0.199E-02    0.758E-03
DAV:   6    -0.102456143080E+03    0.54993E-06   -0.40813E-06   132   0.662E-03
  26 F= -.10245614E+03 E0= -.10245614E+03  d E =-.349129E-10
       N       E                     dE             d eps       ncg     rms          rms(c)
DAV:   1    -0.102454241581E+03    0.19020E-02   -0.34925E-01    96   0.175E+00    0.244E-01
DAV:   2    -0.102456304303E+03   -0.20627E-02   -0.20902E-02   132   0.502E-01    0.163E-01
DAV:   3    -0.102456252616E+03    0.51686E-04   -0.50077E-04   132   0.896E-02    0.882E-02
DAV:   4    -0.102456233180E+03    0.19437E-04   -0.26092E-04   132   0.574E-02    0.147E-02
DAV:   5    -0.102456221422E+03    0.11757E-04   -0.39970E-05   132   0.230E-02    0.107E-02
DAV:   6    -0.102456223840E+03   -0.24179E-05   -0.11552E-05   132   0.107E-02    0.607E-03
DAV:   7    -0.102456244752E+03   -0.20911E-04   -0.36771E-06   120   0.667E-03    0.215E-03
DAV:   8    -0.102456266673E+03   -0.21921E-04   -0.18213E-06   108   0.424E-03    0.124E-03
DAV:   9    -0.102456291649E+03   -0.24976E-04   -0.24782E-06   108   0.379E-03    0.110E-03
DAV:  10    -0.102456308703E+03   -0.17055E-04   -0.14976E-06   120   0.266E-03    0.504E-04
DAV:  11    -0.102456316403E+03   -0.76998E-05   -0.36900E-07   108   0.136E-03    0.271E-04
DAV:  12    -0.102456320906E+03   -0.45028E-05   -0.22387E-07   108   0.958E-04    0.161E-04
DAV:  13    -0.102456323091E+03   -0.21852E-05   -0.70151E-08   108   0.593E-04    0.907E-05
DAV:  14    -0.102456323770E+03   -0.67846E-06   -0.60116E-09   108   0.278E-04
  27 F= -.10245632E+03 E0= -.10245632E+03  d E =-.495524E-10
       N       E                     dE             d eps       ncg     rms          rms(c)
DAV:   1    -0.102456479456E+03   -0.15637E-03   -0.16731E-01    96   0.122E+00    0.156E-01
DAV:   2    -0.102457469323E+03   -0.98987E-03   -0.10192E-02   132   0.345E-01    0.102E-01
DAV:   3    -0.102457444012E+03    0.25310E-04   -0.24941E-04   132   0.646E-02    0.502E-02
DAV:   4    -0.102457445793E+03   -0.17802E-05   -0.11294E-04   132   0.396E-02    0.105E-02
DAV:   5    -0.102457439629E+03    0.61639E-05   -0.19619E-05   132   0.169E-02    0.653E-03
DAV:   6    -0.102457440001E+03   -0.37201E-06   -0.50316E-06   132   0.684E-03
  28 F= -.10245744E+03 E0= -.10245744E+03  d E =-.294169E-10
       N       E                     dE             d eps       ncg     rms          rms(c)
DAV:   1    -0.102455877783E+03    0.15618E-02   -0.33638E-01    96   0.168E+00    0.234E-01
DAV:   2    -0.102457475224E+03   -0.15974E-02   -0.16338E-02   132   0.422E-01    0.118E-01
DAV:   3    -0.102457475557E+03   -0.33276E-06   -0.51747E-04   132   0.867E-02    0.618E-02
DAV:   4    -0.102457507696E+03   -0.32139E-04   -0.14689E-04   132   0.507E-02    0.141E-02
DAV:   5    -0.102457508043E+03   -0.34781E-06   -0.40781E-05   132   0.239E-02    0.104E-02
DAV:   6    -0.102457509155E+03   -0.11120E-05   -0.57176E-06   132   0.777E-03    0.663E-03
DAV:   7    -0.102457512689E+03   -0.35333E-05   -0.64896E-07   108   0.338E-03    0.289E-03
DAV:   8    -0.102457517503E+03   -0.48140E-05   -0.90517E-07   108   0.383E-03    0.106E-03
DAV:   9    -0.102457524392E+03   -0.68897E-05   -0.51837E-07   108   0.288E-03    0.681E-04
DAV:  10    -0.102457529748E+03   -0.53553E-05   -0.35895E-07   108   0.215E-03    0.692E-04
DAV:  11    -0.102457531901E+03   -0.21533E-05   -0.11888E-07   108   0.123E-03    0.521E-04
DAV:  12    -0.102457534267E+03   -0.23655E-05   -0.54923E-08   108   0.675E-04    0.212E-04
DAV:  13    -0.102457536497E+03   -0.22302E-05   -0.64652E-08   108   0.564E-04    0.168E-04
DAV:  14    -0.102457537773E+03   -0.12759E-05   -0.24475E-08   108   0.346E-04    0.130E-04
DAV:  15    -0.102457538616E+03   -0.84354E-06   -0.13208E-08   108   0.283E-04
  29 F= -.10245754E+03 E0= -.10245754E+03  d E =-.678186E-10
       N       E                     dE             d eps       ncg     rms          rms(c)
DAV:   1    -0.102454890321E+03    0.26475E-02   -0.16739E-01    96   0.121E+00    0.160E-01
DAV:   2    -0.102455870306E+03   -0.97999E-03   -0.10087E-02   132   0.337E-01    0.973E-02
DAV:   3    -0.102455848313E+03    0.21994E-04   -0.25254E-04   132   0.640E-02    0.512E-02
DAV:   4    -0.102455855981E+03   -0.76686E-05   -0.11732E-04   132   0.430E-02    0.105E-02
DAV:   5    -0.102455851985E+03    0.39965E-05   -0.27409E-05   132   0.197E-02    0.768E-03
DAV:   6    -0.102455851181E+03    0.80352E-06   -0.47873E-06   132   0.701E-03
  30 F= -.10245585E+03 E0= -.10245585E+03  d E =-.435306E-10
       N       E                     dE             d eps       ncg     rms          rms(c)
DAV:   1    -0.102453480413E+03    0.23716E-02   -0.34864E-01    96   0.177E+00    0.258E-01
DAV:   2    -0.102455980469E+03   -0.25001E-02   -0.25350E-02   132   0.551E-01    0.176E-01
DAV:   3    -0.102455889605E+03    0.90864E-04   -0.61827E-04   144   0.105E-01    0.907E-02
DAV:   4    -0.102455895888E+03   -0.62827E-05   -0.37749E-04   120   0.706E-02    0.172E-02
DAV:   5    -0.102455882037E+03    0.13851E-04   -0.68150E-05   132   0.297E-02    0.111E-02
DAV:   6    -0.102455885636E+03   -0.35988E-05   -0.13576E-05   132   0.101E-02    0.625E-03
DAV:   7    -0.102455904985E+03   -0.19349E-04   -0.14605E-06   120   0.401E-03    0.273E-03
DAV:   8    -0.102455931339E+03   -0.26355E-04   -0.37723E-06   120   0.549E-03    0.150E-03
DAV:   9    -0.102455947193E+03   -0.15854E-04   -0.16889E-06   120   0.327E-03    0.159E-03
DAV:  10    -0.102455963905E+03   -0.16711E-04   -0.13250E-06   108   0.266E-03    0.496E-04
DAV:  11    -0.102455968713E+03   -0.48081E-05   -0.24544E-07   108   0.131E-03    0.347E-04
DAV:  12    -0.102455974257E+03   -0.55439E-05   -0.23883E-07    96   0.106E-03    0.177E-04
DAV:  13    -0.102455976402E+03   -0.21454E-05   -0.83891E-08   108   0.608E-04    0.157E-04
DAV:  14    -0.102455978062E+03   -0.16597E-05   -0.35412E-08   108   0.459E-04    0.651E-05
DAV:  15    -0.102455978550E+03   -0.48813E-06   -0.57472E-09   108   0.243E-04
  31 F= -.10245598E+03 E0= -.10245598E+03  d E =-.361374E-10
       N       E                     dE             d eps       ncg     rms          rms(c)
DAV:   1    -0.102456043876E+03   -0.65815E-04   -0.17038E-01    96   0.129E+00    0.157E-01
DAV:   2    -0.102457289226E+03   -0.12453E-02   -0.12825E-02   132   0.404E-01    0.109E-01
DAV:   3    -0.102457245134E+03    0.44092E-04   -0.29292E-04   144   0.720E-02    0.618E-02
DAV:   4    -0.102457235585E+03    0.95493E-05   -0.16576E-04   132   0.522E-02    0.106E-02
DAV:   5    -0.102457230288E+03    0.52971E-05   -0.48243E-05   132   0.255E-02    0.902E-03
DAV:   6    -0.102457228900E+03    0.13875E-05   -0.68127E-06   132   0.828E-03    0.617E-03
DAV:   7    -0.102457235709E+03   -0.68087E-05   -0.16400E-06   132   0.513E-03    0.252E-03
DAV:   8    -0.102457248334E+03   -0.12625E-04   -0.14042E-06   120   0.471E-03    0.107E-03
DAV:   9    -0.102457261827E+03   -0.13493E-04   -0.11727E-06   120   0.326E-03    0.145E-03
DAV:  10    -0.102457272941E+03   -0.11114E-04   -0.46689E-07   108   0.203E-03    0.575E-04
DAV:  11    -0.102457278695E+03   -0.57545E-05   -0.25778E-07   108   0.122E-03    0.257E-04
DAV:  12    -0.102457284583E+03   -0.58882E-05   -0.21104E-07    96   0.968E-04    0.205E-04
DAV:  13    -0.102457286243E+03   -0.16595E-05   -0.39034E-08   108   0.460E-04    0.215E-04
DAV:  14    -0.102457287939E+03   -0.16958E-05   -0.27133E-08    96   0.395E-04    0.701E-05
DAV:  15    -0.102457288543E+03   -0.60407E-06   -0.47287E-09   108   0.245E-04
  32 F= -.10245729E+03 E0= -.10245729E+03  d E =-.811449E-10
       N       E                     dE             d eps       ncg     rms          rms(c)
DAV:   1    -0.102455623869E+03    0.16641E-02   -0.33969E-01    96   0.173E+00    0.198E-01
DAV:   2    -0.102457347495E+03   -0.17236E-02   -0.17464E-02   132   0.435E-01    0.125E-01
DAV:   3    -0.102457337733E+03    0.97613E-05   -0.42836E-04   132   0.849E-02    0.612E-02
DAV:   4    -0.102457350994E+03   -0.13261E-04   -0.17102E-04   132   0.543E-02    0.136E-02
DAV:   5    -0.102457344936E+03    0.60579E-05   -0.42247E-05   132   0.244E-02    0.925E-03
DAV:   6    -0.102457345461E+03   -0.52459E-06   -0.79939E-06   132   0.893E-03
  33 F= -.10245735E+03 E0= -.10245735E+03  d E =-.321489E-10
       N       E                     dE             d eps       ncg     rms          rms(c)
DAV:   1    -0.102455436656E+03    0.19083E-02   -0.17362E-01    96   0.125E+00    0.158E-01
DAV:   2    -0.102456516342E+03   -0.10797E-02   -0.10746E-02   132   0.361E-01    0.111E-01
DAV:   3    -0.102456506960E+03    0.93824E-05   -0.23249E-04   132   0.632E-02    0.589E-02
DAV:   4    -0.102456508648E+03   -0.16887E-05   -0.12023E-04   120   0.402E-02    0.102E-02
DAV:   5    -0.102456503852E+03    0.47959E-05   -0.21339E-05   144   0.171E-02    0.653E-03
DAV:   6    -0.102456505865E+03   -0.20127E-05   -0.54149E-06   132   0.711E-03    0.407E-03
DAV:   7    -0.102456515890E+03   -0.10025E-04   -0.10091E-06   108   0.384E-03    0.160E-03
DAV:   8    -0.102456528239E+03   -0.12348E-04   -0.13023E-06    96   0.363E-03    0.858E-04
DAV:   9    -0.102456539604E+03   -0.11366E-04   -0.11229E-06   108   0.273E-03    0.915E-04
DAV:  10    -0.102456547059E+03   -0.74546E-05   -0.40038E-07   108   0.159E-03    0.377E-04
DAV:  11    -0.102456550629E+03   -0.35704E-05   -0.20635E-07   108   0.946E-04    0.192E-04
DAV:  12    -0.102456553758E+03   -0.31285E-05   -0.12902E-07   108   0.760E-04    0.121E-04
DAV:  13    -0.102456554986E+03   -0.12287E-05   -0.44271E-08   108   0.450E-04    0.140E-04
DAV:  14    -0.102456555938E+03   -0.95116E-06   -0.19907E-08   108   0.341E-04
  34 F= -.10245656E+03 E0= -.10245656E+03  d E =-.354173E-10
       N       E                     dE             d eps       ncg     rms          rms(c)
DAV:   1    -0.102454397125E+03    0.21579E-02   -0.34386E-01    96   0.178E+00    0.222E-01
DAV:   2    -0.102456466865E+03   -0.20697E-02   -0.21163E-02   132   0.495E-01    0.153E-01
DAV:   3    -0.102456401719E+03    0.65147E-04   -0.46535E-04   144   0.876E-02    0.768E-02
DAV:   4    -0.102456385870E+03    0.15848E-04   -0.22426E-04   132   0.552E-02    0.144E-02
DAV:   5    -0.102456374100E+03    0.11770E-04   -0.36772E-05   132   0.235E-02    0.898E-03
DAV:   6    -0.102456375975E+03   -0.18744E-05   -0.10734E-05   132   0.103E-02    0.521E-03
DAV:   7    -0.102456391392E+03   -0.15418E-04   -0.20682E-06   132   0.581E-03    0.213E-03
DAV:   8    -0.102456412569E+03   -0.21177E-04   -0.19694E-06   132   0.528E-03    0.153E-03
DAV:   9    -0.102456437763E+03   -0.25193E-04   -0.18983E-06   132   0.361E-03    0.112E-03
DAV:  10    -0.102456455016E+03   -0.17254E-04   -0.71585E-07   108   0.205E-03    0.445E-04
DAV:  11    -0.102456463784E+03   -0.87678E-05   -0.27462E-07   108   0.113E-03    0.322E-04
DAV:  12    -0.102456473167E+03   -0.93835E-05   -0.28333E-07   108   0.104E-03    0.195E-04
DAV:  13    -0.102456475830E+03   -0.26626E-05   -0.43736E-08   120   0.480E-04    0.122E-04
DAV:  14    -0.102456478247E+03   -0.24173E-05   -0.30900E-08   108   0.382E-04    0.539E-05
DAV:  15    -0.102456479066E+03   -0.81848E-06   -0.25856E-09   108   0.212E-04
  35 F= -.10245648E+03 E0= -.10245648E+03  d E =-.547947E-10
       N       E                     dE             d eps       ncg     rms          rms(c)
DAV:   1    -0.102454493672E+03    0.19846E-02   -0.17768E-01    96   0.124E+00    0.172E-01
DAV:   2    -0.102455794038E+03   -0.13004E-02   -0.13227E-02   132   0.391E-01    0.124E-01
DAV:   3    -0.102455729299E+03    0.64739E-04   -0.27121E-04   132   0.701E-02    0.663E-02
DAV:   4    -0.102455728835E+03    0.46362E-06   -0.21366E-04   120   0.550E-02    0.122E-02
DAV:   5    -0.102455723680E+03    0.51548E-05   -0.49996E-05   132   0.252E-02    0.902E-03
DAV:   6    -0.102455725056E+03   -0.13758E-05   -0.89175E-06   132   0.820E-03    0.560E-03
DAV:   7    -0.102455734905E+03   -0.98493E-05   -0.77287E-07   108   0.322E-03    0.272E-03
DAV:   8    -0.102455752503E+03   -0.17598E-04   -0.22859E-06   132   0.410E-03    0.102E-03
DAV:   9    -0.102455763385E+03   -0.10882E-04   -0.93645E-07   120   0.254E-03    0.135E-03
DAV:  10    -0.102455775376E+03   -0.11991E-04   -0.72515E-07    96   0.195E-03    0.503E-04
DAV:  11    -0.102455779447E+03   -0.40702E-05   -0.22267E-07   108   0.107E-03    0.260E-04
DAV:  12    -0.102455783073E+03   -0.36259E-05   -0.90792E-08   108   0.708E-04    0.119E-04
DAV:  13    -0.102455785364E+03   -0.22911E-05   -0.82414E-08   108   0.574E-04    0.182E-04
DAV:  14    -0.102455786510E+03   -0.11464E-05   -0.18248E-08   108   0.330E-04    0.111E-04
DAV:  15    -0.102455786983E+03   -0.47298E-06    0.25336E-10   108   0.194E-04
  36 F= -.10245579E+03 E0= -.10245579E+03  d E =-.565065E-10
       N       E                     dE             d eps       ncg     rms          rms(c)
DAV:   1    -0.102453312242E+03    0.24743E-02   -0.35495E-01    96   0.176E+00    0.244E-01
DAV:   2    -0.102455960635E+03   -0.26484E-02   -0.26902E-02   132   0.566E-01    0.179E-01
DAV:   3    -0.102455834111E+03    0.12652E-03   -0.55118E-04   132   0.101E-01    0.969E-02
DAV:   4    -0.102455829952E+03    0.41591E-05   -0.41469E-04   120   0.766E-02    0.173E-02
DAV:   5    -0.102455822485E+03    0.74671E-05   -0.90920E-05   132   0.339E-02    0.125E-02
DAV:   6    -0.102455829424E+03   -0.69387E-05   -0.17073E-05   132   0.113E-02    0.772E-03
DAV:   7    -0.102455855470E+03   -0.26046E-04   -0.21597E-06   132   0.483E-03    0.340E-03
DAV:   8    -0.102455892456E+03   -0.36986E-04   -0.46575E-06   120   0.577E-03    0.139E-03
DAV:   9    -0.102455915518E+03   -0.23062E-04   -0.27896E-06   132   0.403E-03    0.205E-03
DAV:  10    -0.102455934961E+03   -0.19443E-04   -0.13925E-06    96   0.284E-03    0.793E-04
DAV:  11    -0.102455942870E+03   -0.79088E-05   -0.43568E-07   108   0.159E-03    0.322E-04
DAV:  12    -0.102455949952E+03   -0.70823E-05   -0.36268E-07   108   0.123E-03    0.256E-04
DAV:  13    -0.102455951748E+03   -0.17963E-05   -0.53979E-08   108   0.504E-04    0.290E-04
DAV:  14    -0.102455953833E+03   -0.20845E-05   -0.46995E-08   108   0.514E-04    0.813E-05
DAV:  15    -0.102455954341E+03   -0.50811E-06   -0.69991E-09   108   0.265E-04
  37 F= -.10245595E+03 E0= -.10245595E+03  d E =-.304939E-10
       N       E                     dE             d eps       ncg     rms          rms(c)
DAV:   1    -0.102454795751E+03    0.11581E-02   -0.18443E-01    96   0.134E+00    0.164E-01
DAV:   2    -0.102456331061E+03   -0.15353E-02   -0.16749E-02   132   0.418E-01    0.116E-01
DAV:   3    -0.102456269719E+03    0.61342E-04   -0.30018E-04   156   0.655E-02    0.705E-02
DAV:   4    -0.102456248790E+03    0.20929E-04   -0.16672E-04   132   0.509E-02    0.105E-02
DAV:   5    -0.102456242314E+03    0.64760E-05   -0.49128E-05   132   0.249E-02    0.800E-03
DAV:   6    -0.102456238693E+03    0.36207E-05   -0.62399E-06   132   0.821E-03    0.528E-03
DAV:   7    -0.102456246473E+03   -0.77796E-05   -0.32617E-06   132   0.576E-03    0.198E-03
DAV:   8    -0.102456263080E+03   -0.16607E-04   -0.12392E-06   108   0.351E-03    0.112E-03
DAV:   9    -0.102456276077E+03   -0.12997E-04   -0.64570E-07    96   0.225E-03    0.125E-03
DAV:  10    -0.102456291706E+03   -0.15629E-04   -0.98228E-07   108   0.206E-03    0.286E-04
DAV:  11    -0.102456296012E+03   -0.43054E-05   -0.10488E-07   108   0.834E-04    0.314E-04
DAV:  12    -0.102456301060E+03   -0.50484E-05   -0.10944E-07    96   0.741E-04    0.122E-04
DAV:  13    -0.102456302722E+03   -0.16617E-05   -0.24810E-08   108   0.383E-04    0.106E-04
DAV:  14    -0.102456304465E+03   -0.17436E-05   -0.17591E-08    96   0.335E-04    0.399E-05
DAV:  15    -0.102456304957E+03   -0.49209E-06   -0.65331E-10   108   0.174E-04
  38 F= -.10245630E+03 E0= -.10245630E+03  d E =-.330658E-10
       N       E                     dE             d eps       ncg     rms          rms(c)
DAV:   1    -0.102455117273E+03    0.11872E-02   -0.40225E-01   120   0.182E+00    0.207E-01
DAV:   2    -0.102456627780E+03   -0.15105E-02   -0.18427E-02   132   0.428E-01    0.129E-01
DAV:   3    -0.102456505238E+03    0.12254E-03   -0.31039E-04   132   0.636E-02    0.670E-02
DAV:   4    -0.102456451663E+03    0.53574E-04   -0.14328E-04   132   0.441E-02    0.118E-02
DAV:   5    -0.102456444572E+03    0.70913E-05   -0.26575E-05   132   0.192E-02    0.763E-03
DAV:   6    -0.102456457319E+03   -0.12747E-04   -0.11344E-05   132   0.945E-03    0.395E-03
DAV:   7    -0.102456481156E+03   -0.23838E-04   -0.20244E-06   132   0.434E-03    0.209E-03
DAV:   8    -0.102456516387E+03   -0.35231E-04   -0.36310E-06   120   0.421E-03    0.120E-03
DAV:   9    -0.102456537371E+03   -0.20984E-04   -0.14127E-06   120   0.264E-03    0.831E-04
DAV:  10    -0.102456560116E+03   -0.22746E-04   -0.21185E-06   108   0.283E-03    0.426E-04
DAV:  11    -0.102456567503E+03   -0.73867E-05   -0.27710E-07   108   0.124E-03    0.298E-04
DAV:  12    -0.102456573391E+03   -0.58878E-05   -0.29755E-07    96   0.109E-03    0.173E-04
DAV:  13    -0.102456574903E+03   -0.15122E-05   -0.38550E-08   108   0.473E-04    0.102E-04
DAV:  14    -0.102456576232E+03   -0.13290E-05   -0.15154E-08   108   0.340E-04    0.482E-05
DAV:  15    -0.102456576734E+03   -0.50201E-06   -0.15218E-09   108   0.195E-04
  39 F= -.10245658E+03 E0= -.10245658E+03  d E =-.522371E-10
       N       E                     dE             d eps       ncg     rms          rms(c)
DAV:   1    -0.102455922575E+03    0.65366E-03   -0.20128E-01    96   0.130E+00    0.149E-01
DAV:   2    -0.102456724422E+03   -0.80185E-03   -0.96717E-03   132   0.303E-01    0.804E-02
DAV:   3    -0.102456680538E+03    0.43884E-04   -0.18540E-04   132   0.453E-02    0.426E-02
DAV:   4    -0.102456654788E+03    0.25751E-04   -0.53767E-05   132   0.277E-02    0.871E-03
DAV:   5    -0.102456647317E+03    0.74701E-05   -0.10329E-05   132   0.129E-02    0.514E-03
DAV:   6    -0.102456648118E+03   -0.80076E-06   -0.35324E-06   132   0.665E-03
  40 F= -.10245665E+03 E0= -.10245665E+03  d E =-.368998E-10
       N       E                     dE             d eps       ncg     rms          rms(c)
DAV:   1    -0.102455247484E+03    0.13998E-02   -0.40168E-01    96   0.186E+00    0.218E-01
DAV:   2    -0.102456915802E+03   -0.16683E-02   -0.19864E-02   120   0.430E-01    0.118E-01
DAV:   3    -0.102456841299E+03    0.74503E-04   -0.39187E-04   144   0.653E-02    0.622E-02
DAV:   4    -0.102456785457E+03    0.55842E-04   -0.91342E-05   132   0.357E-02    0.124E-02
DAV:   5    -0.102456775277E+03    0.10179E-04   -0.16078E-05   132   0.162E-02    0.695E-03
DAV:   6    -0.102456786945E+03   -0.11668E-04   -0.68984E-06   132   0.910E-03    0.369E-03
DAV:   7    -0.102456811016E+03   -0.24071E-04   -0.37343E-06   132   0.626E-03    0.186E-03
DAV:   8    -0.102456837101E+03   -0.26085E-04   -0.21603E-06   120   0.394E-03    0.108E-03
DAV:   9    -0.102456857876E+03   -0.20774E-04   -0.18183E-06   120   0.308E-03    0.720E-04
DAV:  10    -0.102456875050E+03   -0.17174E-04   -0.16518E-06   120   0.254E-03    0.379E-04
DAV:  11    -0.102456880383E+03   -0.53333E-05   -0.19290E-07   108   0.107E-03    0.227E-04
DAV:  12    -0.102456885219E+03   -0.48352E-05   -0.29354E-07   108   0.105E-03    0.153E-04
DAV:  13    -0.102456886236E+03   -0.10169E-05   -0.28405E-08   108   0.438E-04    0.880E-05
DAV:  14    -0.102456887168E+03   -0.93220E-06   -0.13710E-08   108   0.339E-04
  41 F= -.10245689E+03 E0= -.10245689E+03  d E =-.441587E-10
       N       E                     dE             d eps       ncg     rms          rms(c)
DAV:   1    -0.102456860782E+03    0.25453E-04   -0.20077E-01    96   0.129E+00    0.151E-01
DAV:   2    -0.102457606161E+03   -0.74538E-03   -0.90033E-03   132   0.283E-01    0.729E-02
DAV:   3    -0.102457577372E+03    0.28789E-04   -0.21343E-04   144   0.490E-02    0.375E-02
DAV:   4    -0.102457565322E+03    0.12050E-04   -0.43041E-05   132   0.285E-02    0.916E-03
DAV:   5    -0.102457561464E+03    0.38578E-05   -0.12715E-05   132   0.140E-02    0.580E-03
DAV:   6    -0.102457562113E+03   -0.64866E-06   -0.24436E-06   132   0.515E-03
  42 F= -.10245756E+03 E0= -.10245756E+03  d E =-.396923E-10
       N       E                     dE             d eps       ncg     rms          rms(c)
DAV:   1    -0.102455965242E+03    0.15962E-02   -0.40529E-01    96   0.180E+00    0.215E-01
DAV:   2    -0.102457463346E+03   -0.14981E-02   -0.17871E-02   132   0.409E-01    0.101E-01
DAV:   3    -0.102457414296E+03    0.49050E-04   -0.41261E-04   144   0.686E-02    0.530E-02
DAV:   4    -0.102457397940E+03    0.16356E-04   -0.81633E-05   132   0.387E-02    0.131E-02
DAV:   5    -0.102457393831E+03    0.41089E-05   -0.23646E-05   132   0.192E-02    0.815E-03
DAV:   6    -0.102457395955E+03   -0.21247E-05   -0.43275E-06   132   0.749E-03    0.496E-03
DAV:   7    -0.102457403230E+03   -0.72742E-05   -0.85049E-07   108   0.414E-03    0.188E-03
DAV:   8    -0.102457412912E+03   -0.96820E-05   -0.10082E-06   120   0.384E-03    0.121E-03
DAV:   9    -0.102457427940E+03   -0.15029E-04   -0.10456E-06   120   0.335E-03    0.576E-04
DAV:  10    -0.102457434806E+03   -0.68659E-05   -0.36933E-07   108   0.188E-03    0.531E-04
DAV:  11    -0.102457438764E+03   -0.39575E-05   -0.10139E-07   108   0.952E-04    0.297E-04
DAV:  12    -0.102457443994E+03   -0.52298E-05   -0.17431E-07   108   0.903E-04    0.219E-04
DAV:  13    -0.102457445317E+03   -0.13236E-05   -0.23987E-08   108   0.407E-04    0.165E-04
DAV:  14    -0.102457447355E+03   -0.20374E-05   -0.43480E-08    96   0.436E-04    0.581E-05
DAV:  15    -0.102457447864E+03   -0.50926E-06   -0.26287E-09   108   0.216E-04
  43 F= -.10245745E+03 E0= -.10245745E+03  d E =-.442725E-10
       N       E                     dE             d eps       ncg     rms          rms(c)
DAV:   1    -0.102455910863E+03    0.15365E-02   -0.19754E-01    96   0.134E+00    0.157E-01
DAV:   2    -0.102456958898E+03   -0.10480E-02   -0.12505E-02   132   0.332E-01    0.812E-02
DAV:   3    -0.102456912336E+03    0.46562E-04   -0.26793E-04   144   0.553E-02    0.446E-02
DAV:   4    -0.102456882355E+03    0.29982E-04   -0.58335E-05   132   0.321E-02    0.104E-02
DAV:   5    -0.102456874041E+03    0.83144E-05   -0.16758E-05   132   0.162E-02    0.640E-03
DAV:   6    -0.102456876450E+03   -0.24099E-05   -0.31210E-06   132   0.638E-03    0.397E-03
DAV:   7    -0.102456886036E+03   -0.95857E-05   -0.10230E-06   120   0.373E-03    0.146E-03
DAV:   8    -0.102456897644E+03   -0.11608E-04   -0.82457E-07   108   0.315E-03    0.964E-04
DAV:   9    -0.102456913971E+03   -0.16326E-04   -0.15335E-06   120   0.310E-03    0.602E-04
DAV:  10    -0.102456922411E+03   -0.84401E-05   -0.59159E-07   108   0.202E-03    0.463E-04
DAV:  11    -0.102456925431E+03   -0.30202E-05   -0.12226E-07   108   0.951E-04    0.309E-04
DAV:  12    -0.102456929437E+03   -0.40057E-05   -0.18098E-07   108   0.954E-04    0.180E-04
DAV:  13    -0.102456930364E+03   -0.92757E-06   -0.29625E-08   108   0.430E-04
  44 F= -.10245693E+03 E0= -.10245693E+03  d E =-.326395E-10
       N       E                     dE             d eps       ncg     rms          rms(c)
DAV:   1    -0.102455109630E+03    0.18198E-02   -0.39827E-01    96   0.176E+00    0.207E-01
DAV:   2    -0.102456689147E+03   -0.15795E-02   -0.19243E-02   132   0.415E-01    0.122E-01
DAV:   3    -0.102456555748E+03    0.13340E-03   -0.34019E-04   144   0.678E-02    0.624E-02
DAV:   4    -0.102456507369E+03    0.48379E-04   -0.13022E-04   132   0.441E-02    0.122E-02
DAV:   5    -0.102456495444E+03    0.11925E-04   -0.26377E-05   132   0.194E-02    0.761E-03
DAV:   6    -0.102456498791E+03   -0.33466E-05   -0.63231E-06   132   0.778E-03    0.443E-03
DAV:   7    -0.102456514083E+03   -0.15292E-04   -0.17929E-06   120   0.436E-03    0.171E-03
DAV:   8    -0.102456534990E+03   -0.20907E-04   -0.12404E-06   120   0.316E-03    0.123E-03
DAV:   9    -0.102456555420E+03   -0.20430E-04   -0.10494E-06   120   0.237E-03    0.786E-04
DAV:  10    -0.102456572764E+03   -0.17344E-04   -0.95774E-07   120   0.192E-03    0.412E-04
DAV:  11    -0.102456577777E+03   -0.50125E-05   -0.74721E-08   108   0.790E-04    0.276E-04
DAV:  12    -0.102456585475E+03   -0.76983E-05   -0.23664E-07   108   0.102E-03    0.137E-04
DAV:  13    -0.102456587273E+03   -0.17982E-05   -0.29034E-08   108   0.457E-04    0.948E-05
DAV:  14    -0.102456589018E+03   -0.17443E-05   -0.14233E-08   108   0.338E-04    0.429E-05
DAV:  15    -0.102456589633E+03   -0.61547E-06   -0.13979E-09   108   0.194E-04
  45 F= -.10245659E+03 E0= -.10245659E+03  d E =-.654440E-10
       N       E                     dE             d eps       ncg     rms          rms(c)
DAV:   1    -0.102457174713E+03   -0.58570E-03   -0.20094E-01    96   0.120E+00    0.135E-01
DAV:   2    -0.102457931148E+03   -0.75643E-03   -0.90994E-03   132   0.280E-01    0.775E-02
DAV:   3    -0.102457877727E+03    0.53420E-04   -0.16315E-04   132   0.470E-02    0.403E-02
DAV:   4    -0.102457855162E+03    0.22565E-04   -0.64374E-05   132   0.315E-02    0.806E-03
DAV:   5    -0.102457851024E+03    0.41376E-05   -0.12929E-05   132   0.136E-02    0.540E-03
DAV:   6    -0.102457854487E+03   -0.34624E-05   -0.31623E-06   132   0.558E-03    0.289E-03
DAV:   7    -0.102457862939E+03   -0.84528E-05   -0.70866E-07   108   0.289E-03    0.116E-03
DAV:   8    -0.102457873024E+03   -0.10085E-04   -0.79697E-07   120   0.233E-03    0.802E-04
DAV:   9    -0.102457885136E+03   -0.12112E-04   -0.88500E-07   120   0.214E-03    0.398E-04
DAV:  10    -0.102457892899E+03   -0.77629E-05   -0.55138E-07   108   0.157E-03    0.307E-04
DAV:  11    -0.102457895413E+03   -0.25139E-05   -0.96583E-08   108   0.787E-04    0.161E-04
DAV:  12    -0.102457898556E+03   -0.31436E-05   -0.16346E-07   108   0.802E-04    0.898E-05
DAV:  13    -0.102457899280E+03   -0.72409E-06   -0.19805E-08   108   0.343E-04
  46 F= -.10245790E+03 E0= -.10245790E+03  d E =-.465638E-10
       N       E                     dE             d eps       ncg     rms          rms(c)
DAV:   1    -0.102456567964E+03    0.13306E-02   -0.40925E-01    96   0.170E+00    0.198E-01
DAV:   2    -0.102457875267E+03   -0.13073E-02   -0.15611E-02   132   0.358E-01    0.848E-02
DAV:   3    -0.102457818207E+03    0.57060E-04   -0.33700E-04   132   0.636E-02    0.436E-02
DAV:   4    -0.102457801552E+03    0.16655E-04   -0.78974E-05   132   0.364E-02    0.125E-02
DAV:   5    -0.102457797692E+03    0.38596E-05   -0.19887E-05   132   0.177E-02    0.724E-03
DAV:   6    -0.102457798660E+03   -0.96805E-06   -0.43545E-06   132   0.735E-03
  47 F= -.10245780E+03 E0= -.10245780E+03  d E =-.465331E-11
       N       E                     dE             d eps       ncg     rms          rms(c)
DAV:   1    -0.102456956092E+03    0.84160E-03   -0.20654E-01    96   0.124E+00    0.137E-01
DAV:   2    -0.102457574958E+03   -0.61887E-03   -0.72782E-03   132   0.254E-01    0.610E-02
DAV:   3    -0.102457553699E+03    0.21259E-04   -0.15548E-04   132   0.438E-02    0.313E-02
DAV:   4    -0.102457554887E+03   -0.11878E-05   -0.43214E-05   132   0.267E-02    0.842E-03
DAV:   5    -0.102457555820E+03   -0.93342E-06   -0.92669E-06   132   0.122E-02
  48 F= -.10245756E+03 E0= -.10245756E+03  d E =-.236202E-10
       N       E                     dE             d eps       ncg     rms          rms(c)
DAV:   1    -0.102456267145E+03    0.12877E-02   -0.40974E-01    96   0.177E+00    0.216E-01
DAV:   2    -0.102457678643E+03   -0.14115E-02   -0.16793E-02   132   0.400E-01    0.950E-02
DAV:   3    -0.102457617429E+03    0.61215E-04   -0.34570E-04   132   0.665E-02    0.501E-02
DAV:   4    -0.102457600108E+03    0.17321E-04   -0.10205E-04   132   0.399E-02    0.126E-02
DAV:   5    -0.102457592842E+03    0.72656E-05   -0.19920E-05   144   0.173E-02    0.760E-03
DAV:   6    -0.102457592221E+03    0.62054E-06   -0.41877E-06   132   0.724E-03
  49 F= -.10245759E+03 E0= -.10245759E+03  d E =-.462826E-11
       N       E                     dE             d eps       ncg     rms          rms(c)
DAV:   1    -0.102456398773E+03    0.11941E-02   -0.20035E-01    96   0.130E+00    0.165E-01
DAV:   2    -0.102457457431E+03   -0.10587E-02   -0.12445E-02   132   0.314E-01    0.734E-02
DAV:   3    -0.102457417820E+03    0.39611E-04   -0.27336E-04   144   0.571E-02    0.402E-02
DAV:   4    -0.102457411944E+03    0.58764E-05   -0.65868E-05   132   0.312E-02    0.109E-02
DAV:   5    -0.102457410189E+03    0.17551E-05   -0.13817E-05   132   0.147E-02    0.623E-03
DAV:   6    -0.102457410528E+03   -0.33971E-06   -0.26408E-06   132   0.608E-03
  50 F= -.10245741E+03 E0= -.10245741E+03  d E =-.528562E-10
       N       E                     dE             d eps       ncg     rms          rms(c)
DAV:   1    -0.102455988843E+03    0.14213E-02   -0.40511E-01   108   0.176E+00    0.223E-01
DAV:   2    -0.102457417435E+03   -0.14286E-02   -0.17178E-02   132   0.400E-01    0.104E-01
DAV:   3    -0.102457337794E+03    0.79641E-04   -0.36405E-04   132   0.677E-02    0.549E-02
DAV:   4    -0.102457310949E+03    0.26845E-04   -0.11702E-04   132   0.409E-02    0.135E-02
DAV:   5    -0.102457302232E+03    0.87170E-05   -0.21900E-05   132   0.182E-02    0.801E-03
DAV:   6    -0.102457302740E+03   -0.50791E-06   -0.48716E-06   132   0.764E-03
  51 F= -.10245730E+03 E0= -.10245730E+03  d E =-.342860E-10
       N       E                     dE             d eps       ncg     rms          rms(c)
DAV:   1    -0.102456380620E+03    0.92161E-03   -0.20455E-01    96   0.124E+00    0.160E-01
DAV:   2    -0.102457060303E+03   -0.67968E-03   -0.81533E-03   132   0.266E-01    0.648E-02
DAV:   3    -0.102457030003E+03    0.30301E-04   -0.19969E-04   132   0.486E-02    0.340E-02
DAV:   4    -0.102457030028E+03   -0.25335E-07   -0.46620E-05   132   0.262E-02    0.104E-02
DAV:   5    -0.102457032157E+03   -0.21293E-05   -0.92519E-06   132   0.122E-02    0.575E-03
DAV:   6    -0.102457035090E+03   -0.29326E-05   -0.21898E-06   132   0.530E-03    0.302E-03
DAV:   7    -0.102457039408E+03   -0.43182E-05   -0.33101E-07   108   0.212E-03    0.936E-04
DAV:   8    -0.102457043306E+03   -0.38984E-05   -0.23410E-07   108   0.161E-03    0.526E-04
DAV:   9    -0.102457049030E+03   -0.57238E-05   -0.36801E-07    96   0.181E-03    0.248E-04
DAV:  10    -0.102457052026E+03   -0.29959E-05   -0.22948E-07   108   0.123E-03    0.228E-04
DAV:  11    -0.102457053314E+03   -0.12876E-05   -0.30735E-08   108   0.600E-04    0.160E-04
DAV:  12    -0.102457054800E+03   -0.14868E-05   -0.35362E-08   108   0.482E-04    0.803E-05
DAV:  13    -0.102457055611E+03   -0.81111E-06   -0.16639E-08   108   0.314E-04
  52 F= -.10245706E+03 E0= -.10245706E+03  d E =-.616460E-10
       N       E                     dE             d eps       ncg     rms          rms(c)
DAV:   1    -0.102455432855E+03    0.16219E-02   -0.39655E-01    96   0.173E+00    0.214E-01
DAV:   2    -0.102456982236E+03   -0.15494E-02   -0.18739E-02   132   0.410E-01    0.118E-01
DAV:   3    -0.102456853263E+03    0.12897E-03   -0.35798E-04   132   0.707E-02    0.608E-02
DAV:   4    -0.102456813980E+03    0.39283E-04   -0.15502E-04   132   0.459E-02    0.131E-02
DAV:   5    -0.102456803483E+03    0.10497E-04   -0.24744E-05   132   0.188E-02    0.805E-03
DAV:   6    -0.102456805836E+03   -0.23530E-05   -0.65021E-06   132   0.811E-03    0.405E-03
DAV:   7    -0.102456817779E+03   -0.11943E-04   -0.16177E-06   132   0.426E-03    0.161E-03
DAV:   8    -0.102456833496E+03   -0.15717E-04   -0.78841E-07   120   0.256E-03    0.107E-03
DAV:   9    -0.102456851586E+03   -0.18090E-04   -0.91981E-07   120   0.215E-03    0.617E-04
DAV:  10    -0.102456867308E+03   -0.15722E-04   -0.92539E-07   120   0.189E-03    0.397E-04
DAV:  11    -0.102456873151E+03   -0.58434E-05   -0.10331E-07   108   0.907E-04    0.198E-04
DAV:  12    -0.102456879009E+03   -0.58579E-05   -0.17727E-07   108   0.863E-04    0.132E-04
DAV:  13    -0.102456881022E+03   -0.20125E-05   -0.24089E-08   108   0.391E-04    0.844E-05
DAV:  14    -0.102456882640E+03   -0.16188E-05   -0.13363E-08   108   0.303E-04    0.399E-05
DAV:  15    -0.102456883201E+03   -0.56095E-06    0.11415E-10   108   0.166E-04
  53 F= -.10245688E+03 E0= -.10245688E+03  d E =-.289439E-10
       N       E                     dE             d eps       ncg     rms          rms(c)
DAV:   1    -0.102457291244E+03   -0.40860E-03   -0.20245E-01    96   0.127E+00    0.158E-01
DAV:   2    -0.102458017000E+03   -0.72576E-03   -0.87095E-03   132   0.288E-01    0.732E-02
DAV:   3    -0.102457970182E+03    0.46817E-04   -0.19166E-04   132   0.499E-02    0.389E-02
DAV:   4    -0.102457953985E+03    0.16197E-04   -0.60446E-05   132   0.301E-02    0.982E-03
DAV:   5    -0.102457950229E+03    0.37568E-05   -0.10991E-05   132   0.130E-02    0.596E-03
DAV:   6    -0.102457951425E+03   -0.11960E-05   -0.24577E-06   132   0.571E-03    0.299E-03
DAV:   7    -0.102457956261E+03   -0.48364E-05   -0.58104E-07   108   0.285E-03    0.107E-03
DAV:   8    -0.102457962157E+03   -0.58957E-05   -0.39360E-07   108   0.209E-03    0.663E-04
DAV:   9    -0.102457970106E+03   -0.79497E-05   -0.54827E-07   120   0.192E-03    0.369E-04
DAV:  10    -0.102457975797E+03   -0.56901E-05   -0.38270E-07   108   0.148E-03    0.258E-04
DAV:  11    -0.102457977291E+03   -0.14948E-05   -0.58031E-08   108   0.712E-04    0.190E-04
DAV:  12    -0.102457979277E+03   -0.19862E-05   -0.55276E-08   108   0.570E-04    0.975E-05
DAV:  13    -0.102457980632E+03   -0.13544E-05   -0.46123E-08   108   0.443E-04    0.765E-05
DAV:  14    -0.102457981351E+03   -0.71897E-06   -0.94543E-09   108   0.256E-04
  54 F= -.10245798E+03 E0= -.10245798E+03  d E =-.327864E-10
       N       E                     dE             d eps       ncg     rms          rms(c)
DAV:   1    -0.102456504086E+03    0.14765E-02   -0.40848E-01    96   0.180E+00    0.221E-01
DAV:   2    -0.102457710926E+03   -0.12068E-02   -0.14891E-02   132   0.367E-01    0.886E-02
DAV:   3    -0.102457646482E+03    0.64444E-04   -0.38611E-04   144   0.678E-02    0.457E-02
DAV:   4    -0.102457632422E+03    0.14060E-04   -0.76553E-05   132   0.362E-02    0.138E-02
DAV:   5    -0.102457629401E+03    0.30215E-05   -0.18636E-05   132   0.176E-02    0.775E-03
DAV:   6    -0.102457630368E+03   -0.96729E-06   -0.38448E-06   132   0.705E-03
  55 F= -.10245763E+03 E0= -.10245763E+03  d E =-.485360E-10
       N       E                     dE             d eps       ncg     rms          rms(c)
DAV:   1    -0.102456371547E+03    0.12579E-02   -0.20061E-01    96   0.134E+00    0.164E-01
DAV:   2    -0.102457422096E+03   -0.10505E-02   -0.12282E-02   132   0.313E-01    0.707E-02
DAV:   3    -0.102457401889E+03    0.20207E-04   -0.26895E-04   144   0.541E-02    0.393E-02
DAV:   4    -0.102457398811E+03    0.30782E-05   -0.54589E-05   144   0.289E-02    0.108E-02
DAV:   5    -0.102457398879E+03   -0.68072E-07   -0.11076E-05   132   0.130E-02    0.614E-03
DAV:   6    -0.102457401094E+03   -0.22145E-05   -0.23745E-06   132   0.579E-03    0.307E-03
DAV:   7    -0.102457405801E+03   -0.47073E-05   -0.68077E-07   108   0.303E-03    0.101E-03
DAV:   8    -0.102457410607E+03   -0.48056E-05   -0.35705E-07   108   0.201E-03    0.631E-04
DAV:   9    -0.102457416582E+03   -0.59754E-05   -0.38872E-07   108   0.174E-03    0.268E-04
DAV:  10    -0.102457419945E+03   -0.33627E-05   -0.26438E-07   108   0.126E-03    0.199E-04
DAV:  11    -0.102457421910E+03   -0.19651E-05   -0.79987E-08   108   0.733E-04    0.143E-04
DAV:  12    -0.102457423023E+03   -0.11133E-05   -0.30875E-08   108   0.443E-04    0.902E-05
DAV:  13    -0.102457423828E+03   -0.80507E-06   -0.18371E-08   108   0.315E-04
  56 F= -.10245742E+03 E0= -.10245742E+03  d E =-.632675E-10
       N       E                     dE             d eps       ncg     rms          rms(c)
DAV:   1    -0.102455947176E+03    0.14758E-02   -0.40835E-01   108   0.183E+00    0.211E-01
DAV:   2    -0.102457401477E+03   -0.14543E-02   -0.17441E-02   120   0.396E-01    0.995E-02
DAV:   3    -0.102457352073E+03    0.49403E-04   -0.38236E-04   144   0.674E-02    0.525E-02
DAV:   4    -0.102457324370E+03    0.27703E-04   -0.90673E-05   132   0.414E-02    0.111E-02
DAV:   5    -0.102457319235E+03    0.51354E-05   -0.28473E-05   132   0.201E-02    0.812E-03
DAV:   6    -0.102457320191E+03   -0.95652E-06   -0.47529E-06   132   0.735E-03
  57 F= -.10245732E+03 E0= -.10245732E+03  d E =-.543878E-10
       N       E                     dE             d eps       ncg     rms          rms(c)
DAV:   1    -0.102456045888E+03    0.12733E-02   -0.20498E-01    96   0.122E+00    0.137E-01
DAV:   2    -0.102456787305E+03   -0.74142E-03   -0.86889E-03   120   0.259E-01    0.602E-02
DAV:   3    -0.102456789393E+03   -0.20883E-05   -0.19860E-04   156   0.482E-02    0.320E-02
DAV:   4    -0.102456794609E+03   -0.52154E-05   -0.30143E-05   132   0.276E-02    0.718E-03
DAV:   5    -0.102456798750E+03   -0.41408E-05   -0.13987E-05   132   0.142E-02    0.567E-03
DAV:   6    -0.102456801355E+03   -0.26054E-05   -0.14065E-06   120   0.397E-03    0.427E-03
DAV:   7    -0.102456807508E+03   -0.61527E-05   -0.51387E-07   108   0.257E-03    0.141E-03
DAV:   8    -0.102456813147E+03   -0.56389E-05   -0.47402E-07   108   0.231E-03    0.904E-04
DAV:   9    -0.102456822545E+03   -0.93987E-05   -0.58381E-07   108   0.265E-03    0.539E-04
DAV:  10    -0.102456825142E+03   -0.25964E-05   -0.20551E-07   108   0.140E-03    0.598E-04
DAV:  11    -0.102456826640E+03   -0.14977E-05   -0.23797E-08   108   0.572E-04    0.422E-04
DAV:  12    -0.102456829800E+03   -0.31608E-05   -0.79825E-08   108   0.651E-04    0.142E-04
DAV:  13    -0.102456831497E+03   -0.16970E-05   -0.34002E-08   108   0.431E-04    0.196E-04
DAV:  14    -0.102456832615E+03   -0.11173E-05   -0.12879E-08   108   0.302E-04    0.109E-04
DAV:  15    -0.102456832976E+03   -0.36097E-06    0.16221E-09   108   0.158E-04
  58 F= -.10245683E+03 E0= -.10245683E+03  d E =-.844358E-10
       N       E                     dE             d eps       ncg     rms          rms(c)
DAV:   1    -0.102455423926E+03    0.14087E-02   -0.40417E-01   108   0.179E+00    0.198E-01
DAV:   2    -0.102457000426E+03   -0.15765E-02   -0.19353E-02   120   0.423E-01    0.113E-01
DAV:   3    -0.102456922705E+03    0.77721E-04   -0.38869E-04   156   0.663E-02    0.583E-02
DAV:   4    -0.102456869097E+03    0.53608E-04   -0.85840E-05   132   0.384E-02    0.108E-02
DAV:   5    -0.102456865723E+03    0.33743E-05   -0.21540E-05   132   0.180E-02    0.746E-03
DAV:   6    -0.102456878469E+03   -0.12747E-04   -0.78448E-06   132   0.871E-03    0.417E-03
DAV:   7    -0.102456901554E+03   -0.23085E-04   -0.24291E-06   120   0.515E-03    0.201E-03
DAV:   8    -0.102456932902E+03   -0.31347E-04   -0.30886E-06   120   0.448E-03    0.124E-03
DAV:   9    -0.102456955322E+03   -0.22420E-04   -0.20591E-06   120   0.343E-03    0.897E-04
DAV:  10    -0.102456972905E+03   -0.17584E-04   -0.15367E-06   120   0.265E-03    0.412E-04
DAV:  11    -0.102456979851E+03   -0.69454E-05   -0.28358E-07   108   0.125E-03    0.344E-04
DAV:  12    -0.102456985261E+03   -0.54106E-05   -0.31335E-07   108   0.109E-03    0.150E-04
DAV:  13    -0.102456986674E+03   -0.14125E-05   -0.38579E-08   108   0.458E-04    0.887E-05
DAV:  14    -0.102456987778E+03   -0.11048E-05   -0.13463E-08   108   0.324E-04    0.537E-05
DAV:  15    -0.102456988268E+03   -0.48964E-06   -0.28490E-09   108   0.206E-04
  59 F= -.10245699E+03 E0= -.10245699E+03  d E =-.271255E-10
       N       E                     dE             d eps       ncg     rms          rms(c)
DAV:   1    -0.102455526796E+03    0.14610E-02   -0.20130E-01    96   0.129E+00    0.135E-01
DAV:   2    -0.102456299821E+03   -0.77302E-03   -0.95535E-03   120   0.304E-01    0.770E-02
DAV:   3    -0.102456262052E+03    0.37768E-04   -0.17323E-04   144   0.430E-02    0.400E-02
DAV:   4    -0.102456229248E+03    0.32804E-04   -0.39730E-05   132   0.238E-02    0.735E-03
DAV:   5    -0.102456221528E+03    0.77199E-05   -0.71535E-06   132   0.114E-02    0.431E-03
DAV:   6    -0.102456223615E+03   -0.20867E-05   -0.38321E-06   132   0.758E-03    0.223E-03
DAV:   7    -0.102456232794E+03   -0.91791E-05   -0.20006E-06   132   0.495E-03    0.158E-03
DAV:   8    -0.102456244556E+03   -0.11762E-04   -0.45325E-07   108   0.204E-03    0.808E-04
DAV:   9    -0.102456259125E+03   -0.14569E-04   -0.10041E-06   120   0.224E-03    0.609E-04
DAV:  10    -0.102456269897E+03   -0.10772E-04   -0.41693E-07   108   0.151E-03    0.272E-04
DAV:  11    -0.102456276832E+03   -0.69351E-05   -0.27793E-07   108   0.105E-03    0.236E-04
DAV:  12    -0.102456280871E+03   -0.40385E-05   -0.63266E-08   108   0.569E-04    0.112E-04
DAV:  13    -0.102456283276E+03   -0.24054E-05   -0.37371E-08   108   0.419E-04    0.562E-05
DAV:  14    -0.102456284170E+03   -0.89320E-06   -0.52215E-09   108   0.225E-04
  60 F= -.10245628E+03 E0= -.10245628E+03  d E =-.782983E-10
       N       E                     dE             d eps       ncg     rms          rms(c)
DAV:   1    -0.102455187441E+03    0.10958E-02   -0.40231E-01   108   0.183E+00    0.203E-01
DAV:   2    -0.102456712148E+03   -0.15247E-02   -0.19001E-02   132   0.436E-01    0.124E-01
DAV:   3    -0.102456596521E+03    0.11563E-03   -0.29970E-04   132   0.596E-02    0.641E-02
DAV:   4    -0.102456522108E+03    0.74413E-04   -0.11168E-04   132   0.385E-02    0.114E-02
DAV:   5    -0.102456519625E+03    0.24824E-05   -0.16730E-05   132   0.163E-02    0.693E-03
DAV:   6    -0.102456542873E+03   -0.23248E-04   -0.12724E-05   108   0.112E-02    0.348E-03
DAV:   7    -0.102456574582E+03   -0.31709E-04   -0.46729E-06   120   0.677E-03    0.236E-03
DAV:   8    -0.102456614379E+03   -0.39797E-04   -0.35243E-06   108   0.437E-03    0.112E-03
DAV:   9    -0.102456644465E+03   -0.30086E-04   -0.30436E-06   120   0.376E-03    0.902E-04
DAV:  10    -0.102456668211E+03   -0.23746E-04   -0.25365E-06   120   0.314E-03    0.336E-04
DAV:  11    -0.102456674710E+03   -0.64980E-05   -0.28463E-07   108   0.130E-03    0.300E-04
DAV:  12    -0.102456679114E+03   -0.44048E-05   -0.17228E-07   108   0.891E-04    0.131E-04
DAV:  13    -0.102456680854E+03   -0.17398E-05   -0.49560E-08   108   0.490E-04    0.759E-05
DAV:  14    -0.102456681976E+03   -0.11217E-05   -0.13158E-08   108   0.335E-04    0.461E-05
DAV:  15    -0.102456682381E+03   -0.40521E-06    0.65317E-10   108   0.177E-04
  61 F= -.10245668E+03 E0= -.10245668E+03  d E =-.232178E-10
       N       E                     dE             d eps       ncg     rms          rms(c)
DAV:   1    -0.102459483062E+03   -0.28011E-02   -0.23765E-01    96   0.171E+00    0.152E-01
DAV:   2    -0.102459884457E+03   -0.40139E-03   -0.66364E-03   120   0.275E-01    0.885E-02
DAV:   3    -0.102459802020E+03    0.82438E-04   -0.20470E-04   132   0.513E-02    0.395E-02
DAV:   4    -0.102459782552E+03    0.19468E-04   -0.77831E-05   132   0.307E-02    0.880E-03
DAV:   5    -0.102459778035E+03    0.45168E-05   -0.96165E-06   132   0.120E-02    0.598E-03
DAV:   6    -0.102459779132E+03   -0.10972E-05   -0.37166E-06   132   0.651E-03    0.240E-03
DAV:   7    -0.102459784066E+03   -0.49345E-05   -0.73286E-07   108   0.356E-03    0.126E-03
DAV:   8    -0.102459792169E+03   -0.81024E-05   -0.52947E-07   108   0.233E-03    0.836E-04
DAV:   9    -0.102459801184E+03   -0.90151E-05   -0.48294E-07   108   0.188E-03    0.396E-04
DAV:  10    -0.102459809232E+03   -0.80477E-05   -0.44987E-07   108   0.151E-03    0.363E-04
DAV:  11    -0.102459813633E+03   -0.44012E-05   -0.12414E-07   108   0.929E-04    0.179E-04
DAV:  12    -0.102459815869E+03   -0.22363E-05   -0.45966E-08   108   0.539E-04    0.200E-04
DAV:  13    -0.102459816877E+03   -0.10079E-05   -0.74663E-09   108   0.310E-04    0.813E-05
DAV:  14    -0.102459817946E+03   -0.10690E-05   -0.11410E-08   108   0.279E-04    0.345E-05
DAV:  15    -0.102459818369E+03   -0.42330E-06    0.26094E-09   108   0.147E-04
  62 F= -.10245982E+03 E0= -.10245982E+03  d E =-.333558E-10
       N       E                     dE             d eps       ncg     rms          rms(c)
DAV:   1    -0.102460165247E+03   -0.34730E-03   -0.54964E-01    96   0.254E+00    0.229E-01
DAV:   2    -0.102459815327E+03    0.34992E-03   -0.35128E-03   132   0.203E-01    0.121E-01
DAV:   3    -0.102459603355E+03    0.21197E-03   -0.51045E-04   132   0.696E-02    0.357E-02
DAV:   4    -0.102459604321E+03   -0.96628E-06   -0.10784E-04   132   0.325E-02    0.118E-02
DAV:   5    -0.102459605980E+03   -0.16594E-05   -0.67041E-06   132   0.100E-02    0.620E-03
DAV:   6    -0.102459609466E+03   -0.34862E-05   -0.29812E-06   132   0.574E-03    0.151E-03
DAV:   7    -0.102459611718E+03   -0.22516E-05   -0.34305E-07   108   0.234E-03    0.881E-04
DAV:   8    -0.102459615227E+03   -0.35089E-05   -0.15679E-07   108   0.140E-03    0.326E-04
DAV:   9    -0.102459617490E+03   -0.22633E-05   -0.91344E-08   108   0.983E-04    0.275E-04
DAV:  10    -0.102459620764E+03   -0.32734E-05   -0.16260E-07   108   0.103E-03    0.133E-04
DAV:  11    -0.102459621769E+03   -0.10050E-05   -0.44564E-08   108   0.592E-04    0.113E-04
DAV:  12    -0.102459622341E+03   -0.57197E-06   -0.33569E-09   108   0.278E-04
  63 F= -.10245962E+03 E0= -.10245962E+03  d E =-.489386E-10
       N       E                     dE             d eps       ncg     rms          rms(c)
DAV:   1    -0.102458937964E+03    0.68380E-03   -0.29091E-01    96   0.183E+00    0.212E-01
DAV:   2    -0.102458689515E+03    0.24845E-03   -0.23770E-03   132   0.163E-01    0.103E-01
DAV:   3    -0.102458535886E+03    0.15363E-03   -0.38249E-04   132   0.585E-02    0.361E-02
DAV:   4    -0.102458527698E+03    0.81879E-05   -0.11040E-04   132   0.309E-02    0.128E-02
DAV:   5    -0.102458526174E+03    0.15239E-05   -0.52192E-06   132   0.926E-03    0.552E-03
DAV:   6    -0.102458527217E+03   -0.10425E-05   -0.26401E-06   132   0.578E-03    0.201E-03
DAV:   7    -0.102458529057E+03   -0.18400E-05   -0.55609E-07   108   0.274E-03    0.803E-04
DAV:   8    -0.102458531659E+03   -0.26023E-05   -0.20100E-07   108   0.165E-03    0.568E-04
DAV:   9    -0.102458533779E+03   -0.21196E-05   -0.13051E-07   108   0.112E-03    0.446E-04
DAV:  10    -0.102458536933E+03   -0.31542E-05   -0.16106E-07    96   0.939E-04    0.255E-04
DAV:  11    -0.102458537776E+03   -0.84279E-06   -0.23555E-08   120   0.457E-04
  64 F= -.10245854E+03 E0= -.10245854E+03  d E =-.442011E-10
       N       E                     dE             d eps       ncg     rms          rms(c)
DAV:   1    -0.102459206522E+03   -0.66959E-03   -0.56872E-01    96   0.255E+00    0.279E-01
DAV:   2    -0.102458750118E+03    0.45640E-03   -0.43896E-03   120   0.223E-01    0.138E-01
DAV:   3    -0.102458456328E+03    0.29379E-03   -0.68035E-04   132   0.750E-02    0.476E-02
DAV:   4    -0.102458440884E+03    0.15445E-04   -0.17276E-04   144   0.386E-02    0.155E-02
DAV:   5    -0.102458443257E+03   -0.23733E-05   -0.10268E-05   132   0.129E-02    0.684E-03
DAV:   6    -0.102458449870E+03   -0.66127E-05   -0.50371E-06   132   0.752E-03    0.264E-03
DAV:   7    -0.102458455945E+03   -0.60755E-05   -0.86179E-07   108   0.347E-03    0.110E-03
DAV:   8    -0.102458464191E+03   -0.82459E-05   -0.51852E-07    96   0.235E-03    0.725E-04
DAV:   9    -0.102458469108E+03   -0.49165E-05   -0.33821E-07   108   0.178E-03    0.707E-04
DAV:  10    -0.102458476479E+03   -0.73710E-05   -0.55605E-07    96   0.174E-03    0.331E-04
DAV:  11    -0.102458477987E+03   -0.15088E-05   -0.95446E-08   108   0.822E-04    0.231E-04
DAV:  12    -0.102458478978E+03   -0.99104E-06   -0.16910E-08    96   0.425E-04
  65 F= -.10245848E+03 E0= -.10245848E+03  d E =-.359170E-10
       N       E                     dE             d eps       ncg     rms          rms(c)
DAV:   1    -0.102460139732E+03   -0.16617E-02   -0.28961E-01    96   0.182E+00    0.208E-01
DAV:   2    -0.102459894142E+03    0.24559E-03   -0.25352E-03   120   0.172E-01    0.102E-01
DAV:   3    -0.102459737796E+03    0.15635E-03   -0.39580E-04   132   0.621E-02    0.365E-02
DAV:   4    -0.102459733398E+03    0.43976E-05   -0.12049E-04   132   0.329E-02    0.125E-02
DAV:   5    -0.102459732311E+03    0.10870E-05   -0.59292E-06   132   0.937E-03    0.583E-03
DAV:   6    -0.102459733211E+03   -0.89945E-06   -0.27352E-06   132   0.578E-03
  66 F= -.10245973E+03 E0= -.10245973E+03  d E =-.378336E-10
       N       E                     dE             d eps       ncg     rms          rms(c)
DAV:   1    -0.102460265607E+03   -0.53330E-03   -0.55861E-01    96   0.253E+00    0.223E-01
DAV:   2    -0.102459911350E+03    0.35426E-03   -0.37873E-03   132   0.200E-01    0.122E-01
DAV:   3    -0.102459678016E+03    0.23333E-03   -0.64212E-04   132   0.785E-02    0.329E-02
DAV:   4    -0.102459685251E+03   -0.72350E-05   -0.13949E-04   132   0.369E-02    0.148E-02
DAV:   5    -0.102459684631E+03    0.61967E-06   -0.50581E-06   132   0.837E-03
  67 F= -.10245968E+03 E0= -.10245968E+03  d E =-.417949E-10
       N       E                     dE             d eps       ncg     rms          rms(c)
DAV:   1    -0.102460412083E+03   -0.72683E-03   -0.27494E-01    96   0.184E+00    0.150E-01
DAV:   2    -0.102460344872E+03    0.67211E-04   -0.19181E-03   132   0.148E-01    0.854E-02
DAV:   3    -0.102460259508E+03    0.85364E-04   -0.18228E-04   132   0.424E-02    0.207E-02
DAV:   4    -0.102460260598E+03   -0.10899E-05   -0.34853E-05   132   0.179E-02    0.585E-03
DAV:   5    -0.102460260839E+03   -0.24149E-06   -0.15828E-06   132   0.475E-03
  68 F= -.10246026E+03 E0= -.10246026E+03  d E =-.377866E-10
       N       E                     dE             d eps       ncg     rms          rms(c)
DAV:   1    -0.102460716331E+03   -0.45573E-03   -0.54283E-01    96   0.251E+00    0.202E-01
DAV:   2    -0.102460431315E+03    0.28502E-03   -0.29270E-03   132   0.186E-01    0.114E-01
DAV:   3    -0.102460255816E+03    0.17550E-03   -0.50427E-04   132   0.713E-02    0.235E-02
DAV:   4    -0.102460265064E+03   -0.92475E-05   -0.93394E-05   132   0.311E-02    0.972E-03
DAV:   5    -0.102460265264E+03   -0.20072E-06   -0.32820E-06   132   0.672E-03
  69 F= -.10246027E+03 E0= -.10246027E+03  d E =-.422730E-10
       N       E                     dE             d eps       ncg     rms          rms(c)
[...]
DAV:   4    -0.102460298286E+03   -0.59811E-05   -0.49964E-05   132   0.231E-02    0.768E-03
DAV:   5    -0.102460298929E+03   -0.64318E-06   -0.13829E-06   108   0.424E-03
 131 F= -.10246030E+03 E0= -.10246030E+03  d E =-.338053E-10
       N       E                     dE             d eps       ncg     rms          rms(c)
DAV:   1    -0.102459847704E+03    0.45058E-03   -0.26213E-01    96   0.164E+00    0.111E-01
DAV:   2    -0.102459803327E+03    0.44377E-04   -0.11445E-03   132   0.111E-01    0.641E-02
DAV:   3    -0.102459756504E+03    0.46823E-04   -0.17492E-04   132   0.407E-02    0.898E-03
DAV:   4    -0.102459759248E+03   -0.27439E-05   -0.24751E-05   132   0.164E-02    0.555E-03
DAV:   5    -0.102459759663E+03   -0.41545E-06   -0.86953E-07   108   0.336E-03
 132 F= -.10245976E+03 E0= -.10245976E+03  d E =-.489585E-10
       N       E                     dE             d eps       ncg     rms          rms(c)
DAV:   1    -0.102460156081E+03   -0.39683E-03   -0.52931E-01    96   0.234E+00    0.168E-01
DAV:   2    -0.102460064677E+03    0.91404E-04   -0.25914E-03   132   0.168E-01    0.954E-02
DAV:   3    -0.102459949082E+03    0.11560E-03   -0.38105E-04   132   0.597E-02    0.186E-02
DAV:   4    -0.102459952256E+03   -0.31746E-05   -0.62862E-05   120   0.257E-02    0.963E-03
DAV:   5    -0.102459951846E+03    0.41052E-06   -0.27568E-06   132   0.596E-03
 133 F= -.10245995E+03 E0= -.10245995E+03  d E =-.337120E-10
       N       E                     dE             d eps       ncg     rms          rms(c)
DAV:   1    -0.102459912298E+03    0.39958E-04   -0.27121E-01    96   0.197E+00    0.144E-01
DAV:   2    -0.102459866258E+03    0.46041E-04   -0.19245E-03   120   0.160E-01    0.783E-02
DAV:   3    -0.102459793418E+03    0.72839E-04   -0.17835E-04   132   0.423E-02    0.239E-02
DAV:   4    -0.102459793491E+03   -0.72968E-07   -0.48834E-05   132   0.210E-02    0.656E-03
DAV:   5    -0.102459792812E+03    0.67914E-06   -0.31094E-06   132   0.656E-03
 134 F= -.10245979E+03 E0= -.10245979E+03  d E =-.418119E-10
       N       E                     dE             d eps       ncg     rms          rms(c)
DAV:   1    -0.102459924213E+03   -0.13072E-03   -0.55356E-01    96   0.244E+00    0.233E-01
DAV:   2    -0.102459618439E+03    0.30577E-03   -0.34588E-03   132   0.189E-01    0.122E-01
DAV:   3    -0.102459399601E+03    0.21884E-03   -0.46272E-04   132   0.610E-02    0.393E-02
DAV:   4    -0.102459392078E+03    0.75233E-05   -0.11031E-04   120   0.303E-02    0.121E-02
DAV:   5    -0.102459392501E+03   -0.42338E-06   -0.71480E-06   132   0.103E-02
 135 F= -.10245939E+03 E0= -.10245939E+03  d E =-.368989E-10
       N       E                     dE             d eps       ncg     rms          rms(c)
DAV:   1    -0.102459057085E+03    0.33499E-03   -0.28992E-01   108   0.175E+00    0.207E-01
DAV:   2    -0.102458792769E+03    0.26432E-03   -0.23198E-03   132   0.165E-01    0.103E-01
DAV:   3    -0.102458652083E+03    0.14069E-03   -0.44599E-04   132   0.629E-02    0.333E-02
DAV:   4    -0.102458654094E+03   -0.20103E-05   -0.11337E-04   132   0.318E-02    0.154E-02
DAV:   5    -0.102458652571E+03    0.15229E-05   -0.43567E-06   132   0.840E-03    0.580E-03
DAV:   6    -0.102458652615E+03   -0.44261E-07   -0.30104E-06   132   0.600E-03
 136 F= -.10245865E+03 E0= -.10245865E+03  d E =-.359588E-10
       N       E                     dE             d eps       ncg     rms          rms(c)
DAV:   1    -0.102459398507E+03   -0.74594E-03   -0.57349E-01    96   0.247E+00    0.269E-01
DAV:   2    -0.102458858177E+03    0.54033E-03   -0.44160E-03   132   0.224E-01    0.137E-01
DAV:   3    -0.102458559808E+03    0.29837E-03   -0.86452E-04   132   0.861E-02    0.433E-02
DAV:   4    -0.102458562083E+03   -0.22750E-05   -0.19068E-04   132   0.419E-02    0.204E-02
DAV:   5    -0.102458561094E+03    0.98860E-06   -0.80733E-06   132   0.106E-02
 137 F= -.10245856E+03 E0= -.10245856E+03  d E =-.447685E-10
       N       E                     dE             d eps       ncg     rms          rms(c)
DAV:   1    -0.102460234445E+03   -0.16724E-02   -0.28868E-01    96   0.175E+00    0.203E-01
DAV:   2    -0.102459946984E+03    0.28746E-03   -0.21778E-03   132   0.158E-01    0.101E-01
DAV:   3    -0.102459806304E+03    0.14068E-03   -0.41649E-04   132   0.611E-02    0.327E-02
DAV:   4    -0.102459808837E+03   -0.25330E-05   -0.10600E-04   132   0.305E-02    0.135E-02
DAV:   5    -0.102459807771E+03    0.10656E-05   -0.44128E-06   132   0.844E-03    0.546E-03
DAV:   6    -0.102459808127E+03   -0.35529E-06   -0.26335E-06   132   0.557E-03
 138 F= -.10245981E+03 E0= -.10245981E+03  d E =-.441139E-10
       N       E                     dE             d eps       ncg     rms          rms(c)
DAV:   1    -0.102460184433E+03   -0.37666E-03   -0.54830E-01    96   0.245E+00    0.227E-01
DAV:   2    -0.102459851984E+03    0.33245E-03   -0.32867E-03   132   0.193E-01    0.121E-01
DAV:   3    -0.102459649280E+03    0.20270E-03   -0.50053E-04   132   0.666E-02    0.348E-02
DAV:   4    -0.102459649804E+03   -0.52457E-06   -0.98704E-05   144   0.304E-02    0.119E-02
DAV:   5    -0.102459650032E+03   -0.22806E-06   -0.62409E-06   132   0.961E-03
 139 F= -.10245965E+03 E0= -.10245965E+03  d E =-.364720E-10
       N       E                     dE             d eps       ncg     rms          rms(c)
DAV:   1    -0.102459543358E+03    0.10645E-03   -0.27654E-01    96   0.177E+00    0.168E-01
DAV:   2    -0.102459420999E+03    0.12236E-03   -0.17600E-03   120   0.137E-01    0.874E-02
DAV:   3    -0.102459332200E+03    0.88799E-04   -0.25185E-04   132   0.430E-02    0.273E-02
DAV:   4    -0.102459328348E+03    0.38517E-05   -0.41158E-05   144   0.181E-02    0.101E-02
DAV:   5    -0.102459326731E+03    0.16174E-05   -0.28265E-06   132   0.723E-03    0.470E-03
DAV:   6    -0.102459326811E+03   -0.80059E-07   -0.22334E-06   132   0.526E-03
 140 F= -.10245933E+03 E0= -.10245933E+03  d E =-.387677E-10
       N       E                     dE             d eps       ncg     rms          rms(c)
DAV:   1    -0.102460024125E+03   -0.69739E-03   -0.55651E-01    96   0.234E+00    0.244E-01
DAV:   2    -0.102459653948E+03    0.37018E-03   -0.34224E-03   120   0.191E-01    0.124E-01
DAV:   3    -0.102459431581E+03    0.22237E-03   -0.52912E-04   132   0.648E-02    0.396E-02
DAV:   4    -0.102459423882E+03    0.76995E-05   -0.11234E-04   120   0.310E-02    0.134E-02
DAV:   5    -0.102459423895E+03   -0.12824E-07   -0.69272E-06   132   0.106E-02
 141 F= -.10245942E+03 E0= -.10245942E+03  d E =-.390990E-10
       N       E                     dE             d eps       ncg     rms          rms(c)
DAV:   1    -0.102458617042E+03    0.80684E-03   -0.27301E-01    96   0.166E+00    0.139E-01
DAV:   2    -0.102458481291E+03    0.13575E-03   -0.14887E-03   132   0.124E-01    0.788E-02
DAV:   3    -0.102458394479E+03    0.86812E-04   -0.26667E-04   132   0.495E-02    0.157E-02
DAV:   4    -0.102458399671E+03   -0.51924E-05   -0.48722E-05   132   0.221E-02    0.855E-03
DAV:   5    -0.102458400276E+03   -0.60494E-06   -0.11857E-06   120   0.413E-03
 142 F= -.10245840E+03 E0= -.10245840E+03  d E =-.383088E-10
       N       E                     dE             d eps       ncg     rms          rms(c)
DAV:   1    -0.102458969165E+03   -0.56949E-03   -0.58218E-01    96   0.239E+00    0.283E-01
DAV:   2    -0.102458412862E+03    0.55630E-03   -0.47562E-03   132   0.230E-01    0.143E-01
DAV:   3    -0.102458100665E+03    0.31220E-03   -0.89047E-04   132   0.900E-02    0.454E-02
DAV:   4    -0.102458103915E+03   -0.32501E-05   -0.21971E-04   132   0.439E-02    0.201E-02
DAV:   5    -0.102458101561E+03    0.23546E-05   -0.85673E-06   132   0.113E-02    0.815E-03
DAV:   6    -0.102458101752E+03   -0.19137E-06   -0.54499E-06   120   0.815E-03
 143 F= -.10245810E+03 E0= -.10245810E+03  d E =-.422240E-10
       N       E                     dE             d eps       ncg     rms          rms(c)
DAV:   1    -0.102460602200E+03   -0.25006E-02   -0.28228E-01    96   0.168E+00    0.169E-01
DAV:   2    -0.102460380805E+03    0.22139E-03   -0.18844E-03   132   0.144E-01    0.902E-02
DAV:   3    -0.102460263972E+03    0.11683E-03   -0.36187E-04   132   0.575E-02    0.247E-02
DAV:   4    -0.102460269811E+03   -0.58390E-05   -0.80265E-05   132   0.275E-02    0.116E-02
DAV:   5    -0.102460269958E+03   -0.14691E-06   -0.26253E-06   132   0.629E-03
 144 F= -.10246027E+03 E0= -.10246027E+03  d E =-.444810E-10
       N       E                     dE             d eps       ncg     rms          rms(c)
DAV:   1    -0.102460758005E+03   -0.48819E-03   -0.54278E-01    96   0.235E+00    0.201E-01
DAV:   2    -0.102460464768E+03    0.29324E-03   -0.27301E-03   132   0.177E-01    0.112E-01
DAV:   3    -0.102460293774E+03    0.17099E-03   -0.45115E-04   132   0.658E-02    0.231E-02
DAV:   4    -0.102460300266E+03   -0.64921E-05   -0.74969E-05   132   0.281E-02    0.899E-03
DAV:   5    -0.102460300652E+03   -0.38635E-06   -0.31474E-06   132   0.648E-03
 145 F= -.10246030E+03 E0= -.10246030E+03  d E =-.358317E-10
       N       E                     dE             d eps       ncg     rms          rms(c)
DAV:   1    -0.102459529894E+03    0.77037E-03   -0.27075E-01    96   0.192E+00    0.134E-01
DAV:   2    -0.102459466413E+03    0.63481E-04   -0.18397E-03   132   0.156E-01    0.763E-02
DAV:   3    -0.102459391608E+03    0.74805E-04   -0.23425E-04   132   0.508E-02    0.176E-02
DAV:   4    -0.102459395385E+03   -0.37768E-05   -0.50988E-05   132   0.232E-02    0.763E-03
DAV:   5    -0.102459395254E+03    0.13131E-06   -0.14797E-06   108   0.500E-03
 146 F= -.10245940E+03 E0= -.10245940E+03  d E =-.416529E-10
       N       E                     dE             d eps       ncg     rms          rms(c)
DAV:   1    -0.102459894028E+03   -0.49864E-03   -0.53664E-01    96   0.249E+00    0.177E-01
DAV:   2    -0.102459740137E+03    0.15389E-03   -0.30458E-03   132   0.183E-01    0.101E-01
DAV:   3    -0.102459585456E+03    0.15468E-03   -0.49794E-04   132   0.675E-02    0.193E-02
DAV:   4    -0.102459589768E+03   -0.43121E-05   -0.99050E-05   132   0.311E-02    0.108E-02
DAV:   5    -0.102459588878E+03    0.88920E-06   -0.25664E-06   132   0.570E-03
 147 F= -.10245959E+03 E0= -.10245959E+03  d E =-.375932E-10
       N       E                     dE             d eps       ncg     rms          rms(c)
DAV:   1    -0.102458528618E+03    0.10612E-02   -0.26366E-01    96   0.173E+00    0.111E-01
DAV:   2    -0.102458470124E+03    0.58493E-04   -0.10679E-03   132   0.108E-01    0.640E-02
DAV:   3    -0.102458413611E+03    0.56513E-04   -0.16739E-04   132   0.393E-02    0.103E-02
DAV:   4    -0.102458416723E+03   -0.31116E-05   -0.26331E-05   132   0.165E-02    0.583E-03
DAV:   5    -0.102458418015E+03   -0.12922E-05   -0.91492E-07   108   0.348E-03    0.394E-03
DAV:   6    -0.102458421382E+03   -0.33671E-05   -0.86762E-07    96   0.336E-03    0.715E-04
DAV:   7    -0.102458423294E+03   -0.19116E-05   -0.33109E-07   108   0.192E-03    0.658E-04
DAV:   8    -0.102458426687E+03   -0.33932E-05   -0.21539E-07    96   0.166E-03    0.245E-04
DAV:   9    -0.102458428612E+03   -0.19244E-05   -0.15227E-07   108   0.108E-03    0.240E-04
DAV:  10    -0.102458430258E+03   -0.16461E-05   -0.51416E-08   108   0.681E-04    0.147E-04
DAV:  11    -0.102458431428E+03   -0.11703E-05   -0.49618E-08   108   0.471E-04    0.793E-05
DAV:  12    -0.102458432001E+03   -0.57257E-06   -0.10757E-08   108   0.266E-04
 148 F= -.10245843E+03 E0= -.10245843E+03  d E =-.413243E-10
       N       E                     dE             d eps       ncg     rms          rms(c)
DAV:   1    -0.102458640022E+03   -0.20859E-03   -0.54170E-01   108   0.250E+00    0.202E-01
DAV:   2    -0.102458576758E+03    0.63264E-04   -0.43509E-03   120   0.216E-01    0.111E-01
DAV:   3    -0.102458380538E+03    0.19622E-03   -0.47311E-04   132   0.637E-02    0.313E-02
DAV:   4    -0.102458372594E+03    0.79433E-05   -0.11067E-04   132   0.296E-02    0.110E-02
DAV:   5    -0.102458370192E+03    0.24025E-05   -0.54428E-06   132   0.969E-03    0.580E-03
DAV:   6    -0.102458372539E+03   -0.23474E-05   -0.45270E-06   132   0.775E-03    0.184E-03
DAV:   7    -0.102458376572E+03   -0.40332E-05   -0.14697E-06   132   0.403E-03    0.146E-03
DAV:   8    -0.102458381858E+03   -0.52857E-05   -0.24711E-07   108   0.161E-03    0.609E-04
DAV:   9    -0.102458387288E+03   -0.54303E-05   -0.33283E-07   108   0.150E-03    0.392E-04
DAV:  10    -0.102458393761E+03   -0.64723E-05   -0.38211E-07   108   0.139E-03    0.184E-04
DAV:  11    -0.102458396716E+03   -0.29550E-05   -0.90617E-08   108   0.761E-04    0.180E-04
DAV:  12    -0.102458398563E+03   -0.18476E-05   -0.22720E-08   108   0.427E-04    0.828E-05
DAV:  13    -0.102458399809E+03   -0.12458E-05   -0.17936E-08   108   0.326E-04    0.593E-05
DAV:  14    -0.102458400571E+03   -0.76202E-06   -0.40922E-09   108   0.214E-04
 149 F= -.10245840E+03 E0= -.10245840E+03  d E =-.373426E-10
       N       E                     dE             d eps       ncg     rms          rms(c)
DAV:   1    -0.102460501451E+03   -0.21016E-02   -0.26603E-01    96   0.178E+00    0.127E-01
DAV:   2    -0.102460423346E+03    0.78106E-04   -0.14682E-03   132   0.133E-01    0.714E-02
DAV:   3    -0.102460352150E+03    0.71196E-04   -0.21089E-04   132   0.453E-02    0.152E-02
DAV:   4    -0.102460352986E+03   -0.83625E-06   -0.37726E-05   132   0.196E-02    0.767E-03
DAV:   5    -0.102460353334E+03   -0.34789E-06   -0.13792E-06   120   0.442E-03
 150 F= -.10246035E+03 E0= -.10246035E+03  d E =-.405859E-10
       N       E                     dE             d eps       ncg     rms          rms(c)
DAV:   1    -0.102460470666E+03   -0.11768E-03   -0.52503E-01    96   0.248E+00    0.159E-01
DAV:   2    -0.102460355432E+03    0.11523E-03   -0.21790E-03   120   0.159E-01    0.920E-02
DAV:   3    -0.102460252131E+03    0.10330E-03   -0.34557E-04   132   0.604E-02    0.127E-02
DAV:   4    -0.102460258798E+03   -0.66669E-05   -0.55276E-05   132   0.245E-02    0.898E-03
DAV:   5    -0.102460259708E+03   -0.90942E-06   -0.17151E-06   120   0.454E-03
 151 F= -.10246026E+03 E0= -.10246026E+03  d E =-.374991E-10
       N       E                     dE             d eps       ncg     rms          rms(c)
DAV:   1    -0.102458285120E+03    0.19737E-02   -0.26619E-01   108   0.183E+00    0.130E-01
DAV:   2    -0.102458248291E+03    0.36829E-04   -0.20193E-03   132   0.151E-01    0.713E-02
DAV:   3    -0.102458172246E+03    0.76045E-04   -0.20855E-04   132   0.473E-02    0.201E-02
DAV:   4    -0.102458174617E+03   -0.23712E-05   -0.58882E-05   132   0.234E-02    0.738E-03
DAV:   5    -0.102458175825E+03   -0.12076E-05   -0.22791E-06   132   0.556E-03    0.515E-03
DAV:   6    -0.102458179558E+03   -0.37328E-05   -0.16632E-06   120   0.454E-03    0.981E-04
DAV:   7    -0.102458181702E+03   -0.21439E-05   -0.59260E-07   108   0.250E-03    0.810E-04
DAV:   8    -0.102458183859E+03   -0.21570E-05   -0.10015E-07   108   0.107E-03    0.423E-04
DAV:   9    -0.102458187524E+03   -0.36659E-05   -0.23090E-07   108   0.123E-03    0.364E-04
DAV:  10    -0.102458188879E+03   -0.13547E-05   -0.69494E-08   108   0.755E-04    0.152E-04
DAV:  11    -0.102458190349E+03   -0.14695E-05   -0.71623E-08   108   0.613E-04    0.185E-04
DAV:  12    -0.102458191035E+03   -0.68613E-06   -0.23557E-08   108   0.387E-04
 152 F= -.10245819E+03 E0= -.10245819E+03  d E =-.411627E-10
       N       E                     dE             d eps       ncg     rms          rms(c)
DAV:   1    -0.102458479581E+03   -0.28923E-03   -0.54503E-01   108   0.249E+00    0.207E-01
DAV:   2    -0.102458405190E+03    0.74391E-04   -0.48489E-03   132   0.229E-01    0.114E-01
DAV:   3    -0.102458189573E+03    0.21562E-03   -0.53610E-04   132   0.710E-02    0.324E-02
DAV:   4    -0.102458185739E+03    0.38342E-05   -0.14320E-04   132   0.344E-02    0.116E-02
DAV:   5    -0.102458183534E+03    0.22054E-05   -0.55244E-06   132   0.950E-03    0.645E-03
DAV:   6    -0.102458185652E+03   -0.21179E-05   -0.50499E-06   132   0.813E-03    0.180E-03
DAV:   7    -0.102458189317E+03   -0.36649E-05   -0.16319E-06   132   0.419E-03    0.137E-03
DAV:   8    -0.102458194687E+03   -0.53704E-05   -0.26245E-07   108   0.141E-03    0.473E-04
DAV:   9    -0.102458199304E+03   -0.46174E-05   -0.25857E-07   108   0.124E-03    0.422E-04
DAV:  10    -0.102458205121E+03   -0.58166E-05   -0.32967E-07   108   0.135E-03    0.212E-04
DAV:  11    -0.102458207643E+03   -0.25218E-05   -0.88680E-08   108   0.756E-04    0.219E-04
DAV:  12    -0.102458208947E+03   -0.13043E-05   -0.13634E-08   108   0.401E-04    0.101E-04
DAV:  13    -0.102458210298E+03   -0.13504E-05   -0.18931E-08   108   0.343E-04    0.779E-05
DAV:  14    -0.102458211246E+03   -0.94835E-06   -0.10001E-08    96   0.255E-04
 153 F= -.10245821E+03 E0= -.10245821E+03  d E =-.378329E-10
       N       E                     dE             d eps       ncg     rms          rms(c)
DAV:   1    -0.102460190071E+03   -0.19798E-02   -0.26901E-01   108   0.176E+00    0.139E-01
DAV:   2    -0.102460116278E+03    0.73793E-04   -0.18871E-03   108   0.141E-01    0.760E-02
DAV:   3    -0.102460021970E+03    0.94308E-04   -0.24355E-04   132   0.429E-02    0.203E-02
DAV:   4    -0.102460017472E+03    0.44984E-05   -0.38811E-05   144   0.186E-02    0.809E-03
DAV:   5    -0.102460018882E+03   -0.14098E-05   -0.26336E-06   132   0.644E-03    0.406E-03
DAV:   6    -0.102460023578E+03   -0.46963E-05   -0.19506E-06   132   0.476E-03    0.116E-03
DAV:   7    -0.102460027965E+03   -0.43871E-05   -0.50728E-07   108   0.250E-03    0.838E-04
DAV:   8    -0.102460033187E+03   -0.52221E-05   -0.27177E-07   108   0.148E-03    0.422E-04
DAV:   9    -0.102460037608E+03   -0.44208E-05   -0.26351E-07   108   0.129E-03    0.232E-04
DAV:  10    -0.102460041235E+03   -0.36269E-05   -0.26778E-07   108   0.110E-03    0.130E-04
DAV:  11    -0.102460042492E+03   -0.12569E-05   -0.53339E-08   108   0.549E-04    0.104E-04
DAV:  12    -0.102460043298E+03   -0.80593E-06   -0.18671E-08   108   0.336E-04
 154 F= -.10246004E+03 E0= -.10246004E+03  d E =-.402324E-10
       N       E                     dE             d eps       ncg     rms          rms(c)
DAV:   1    -0.102460685378E+03   -0.64289E-03   -0.53152E-01    96   0.243E+00    0.160E-01
DAV:   2    -0.102460565072E+03    0.12031E-03   -0.20182E-03   132   0.148E-01    0.919E-02
DAV:   3    -0.102460449921E+03    0.11515E-03   -0.34271E-04   132   0.549E-02    0.143E-02
DAV:   4    -0.102460452456E+03   -0.25342E-05   -0.51041E-05   132   0.228E-02    0.757E-03
DAV:   5    -0.102460452047E+03    0.40845E-06   -0.20680E-06   132   0.503E-03
 155 F= -.10246045E+03 E0= -.10246045E+03  d E =-.398441E-10
       N       E                     dE             d eps       ncg     rms          rms(c)
DAV:   1    -0.102459930162E+03    0.52229E-03   -0.26445E-01    96   0.174E+00    0.115E-01
DAV:   2    -0.102459869399E+03    0.60763E-04   -0.11213E-03   132   0.116E-01    0.665E-02
DAV:   3    -0.102459822482E+03    0.46918E-04   -0.18826E-04   132   0.446E-02    0.935E-03
DAV:   4    -0.102459827074E+03   -0.45927E-05   -0.33623E-05   132   0.187E-02    0.655E-03
DAV:   5    -0.102459827641E+03   -0.56684E-06   -0.73914E-07   108   0.331E-03
 156 F= -.10245983E+03 E0= -.10245983E+03  d E =-.424694E-10
       N       E                     dE             d eps       ncg     rms          rms(c)
DAV:   1    -0.102459972907E+03   -0.14583E-03   -0.52652E-01    96   0.246E+00    0.173E-01
DAV:   2    -0.102459862961E+03    0.10995E-03   -0.26640E-03   120   0.178E-01    0.972E-02
DAV:   3    -0.102459737330E+03    0.12563E-03   -0.39151E-04   132   0.589E-02    0.197E-02
DAV:   4    -0.102459738683E+03   -0.13536E-05   -0.58705E-05   132   0.240E-02    0.101E-02
DAV:   5    -0.102459738709E+03   -0.25569E-07   -0.30658E-06   132   0.612E-03
 157 F= -.10245974E+03 E0= -.10245974E+03  d E =-.375873E-10
