       N       E                     dE             d eps       ncg     rms          rms(c)
DAV:   1     0.201696037774E+03    0.20170E+03   -0.10485E+04   116   0.546E+02
DAV:   2    -0.293035594140E+02   -0.23100E+03   -0.21641E+03   144   0.103E+02
DAV:   3    -0.102986997042E+03   -0.73683E+02   -0.73514E+02   112   0.542E+01
DAV:   4    -0.107115398561E+03   -0.41284E+01   -0.41134E+01   104   0.180E+01
DAV:   5    -0.107195463243E+03   -0.80065E-01   -0.80019E-01   144   0.278E+00    0.151E+01
DAV:   6    -0.103957653477E+03    0.32378E+01   -0.15856E+00   104   0.460E+00    0.875E+00
DAV:   7    -0.102259950105E+03    0.16977E+01   -0.41310E+00   104   0.679E+00    0.122E+00
DAV:   8    -0.102208987408E+03    0.50963E-01   -0.27098E-01   104   0.222E+00    0.621E-01
DAV:   9    -0.102173002073E+03    0.35985E-01   -0.79365E-02   120   0.803E-01    0.338E-01
DAV:  10    -0.102173099858E+03   -0.97785E-04   -0.30396E-03   112   0.224E-01    0.164E-01
DAV:  11    -0.102173043787E+03    0.56071E-04   -0.63117E-03   104   0.235E-01    0.795E-02
DAV:  12    -0.102177067080E+03   -0.40233E-02   -0.11390E-03   102   0.100E-01    0.576E-02
DAV:  13    -0.102181835464E+03   -0.47684E-02   -0.19638E-03   104   0.112E-01    0.352E-02
DAV:  14    -0.102186208557E+03   -0.43731E-02   -0.38384E-04   112   0.572E-02    0.152E-02
DAV:  15    -0.102190465923E+03   -0.42574E-02   -0.50689E-04   112   0.594E-02    0.151E-02
DAV:  16    -0.102191481583E+03   -0.10157E-02   -0.53836E-05   112   0.217E-02    0.640E-03
DAV:  17    -0.102192526360E+03   -0.10448E-02   -0.86595E-05   104   0.225E-02    0.330E-03
DAV:  18    -0.102192795806E+03   -0.26945E-03   -0.85560E-06   104   0.814E-03    0.181E-03
DAV:  19    -0.102192966198E+03   -0.17039E-03   -0.63479E-06    96   0.634E-03    0.174E-03
DAV:  20    -0.102193019418E+03   -0.53220E-04   -0.10398E-06    88   0.355E-03    0.570E-04
DAV:  21    -0.102193046332E+03   -0.26914E-04   -0.84841E-07    80   0.241E-03    0.564E-04
DAV:  22    -0.102193053862E+03   -0.75304E-05   -0.18084E-07    88   0.138E-03    0.191E-04
DAV:  23    -0.102193057453E+03   -0.35912E-05   -0.86436E-08    80   0.799E-04    0.163E-04
DAV:  24    -0.102193059822E+03   -0.23682E-05   -0.30493E-08    80   0.483E-04    0.804E-05
DAV:  25    -0.102193060673E+03   -0.85143E-06   -0.16035E-08    80   0.327E-04
   1 F= -.10219306E+03 E0= -.10219306E+03  d E =-.102193E+03
       N       E                     dE             d eps       ncg     rms          rms(c)
DAV:   1    -0.102372035083E+03   -0.17898E+00   -0.76729E+00    84   0.117E+01    0.122E+00
DAV:   2    -0.102400155839E+03   -0.28121E-01   -0.36138E-01   120   0.241E+00    0.622E-01
DAV:   3    -0.102394753534E+03    0.54023E-02   -0.14389E-02   120   0.490E-01    0.308E-01
DAV:   4    -0.102393639686E+03    0.11138E-02   -0.75163E-03   112   0.304E-01    0.704E-02
DAV:   5    -0.102393469813E+03    0.16987E-03   -0.60356E-04   112   0.110E-01    0.444E-02
DAV:   6    -0.102393506027E+03   -0.36214E-04   -0.17225E-04   120   0.508E-02    0.234E-02
DAV:   7    -0.102393681187E+03   -0.17516E-03   -0.63757E-05   120   0.355E-02    0.863E-03
DAV:   8    -0.102393787633E+03   -0.10645E-03   -0.22832E-05   112   0.198E-02    0.899E-03
DAV:   9    -0.102393880093E+03   -0.92460E-04   -0.48762E-06   112   0.807E-03    0.601E-03
DAV:  10    -0.102394065029E+03   -0.18494E-03   -0.17967E-05   112   0.101E-02    0.374E-03
DAV:  11    -0.102394091895E+03   -0.26866E-04   -0.66325E-07    96   0.333E-03    0.229E-03
DAV:  12    -0.102394176518E+03   -0.84623E-04   -0.53707E-06   104   0.622E-03    0.114E-03
DAV:  13    -0.102394198196E+03   -0.21678E-04   -0.76345E-07    96   0.327E-03    0.726E-04
DAV:  14    -0.102394215424E+03   -0.17228E-04   -0.35370E-07    88   0.175E-03    0.473E-04
DAV:  15    -0.102394229933E+03   -0.14509E-04   -0.36179E-07    88   0.141E-03    0.507E-04
DAV:  16    -0.102394235660E+03   -0.57275E-05   -0.84928E-08    96   0.797E-04    0.183E-04
DAV:  17    -0.102394237993E+03   -0.23328E-05   -0.36855E-08    88   0.495E-04    0.261E-04
DAV:  18    -0.102394239670E+03   -0.16770E-05   -0.26433E-08    80   0.530E-04    0.111E-04
DAV:  19    -0.102394240078E+03   -0.40777E-06   -0.79555E-09    88   0.268E-04
   2 F= -.10239424E+03 E0= -.10239424E+03  d E =-.201179E+00
       N       E                     dE             d eps       ncg     rms          rms(c)
DAV:   1    -0.102396480139E+03   -0.22405E-02   -0.71333E-02    84   0.114E+00    0.112E-01
DAV:   2    -0.102396719646E+03   -0.23951E-03   -0.33365E-03   120   0.231E-01    0.622E-02
DAV:   3    -0.102396659443E+03    0.60203E-04   -0.14273E-04   120   0.487E-02    0.301E-02
DAV:   4    -0.102396642555E+03    0.16888E-04   -0.69420E-05   112   0.293E-02    0.784E-03
DAV:   5    -0.102396641066E+03    0.14886E-05   -0.51869E-06   112   0.103E-02    0.426E-03
DAV:   6    -0.102396644283E+03   -0.32165E-05   -0.17471E-06    88   0.530E-03    0.194E-03
DAV:   7    -0.102396650779E+03   -0.64959E-05   -0.83224E-07    78   0.382E-03    0.760E-04
DAV:   8    -0.102396654686E+03   -0.39067E-05   -0.34687E-07    88   0.220E-03    0.831E-04
DAV:   9    -0.102396658841E+03   -0.41558E-05   -0.19185E-07    88   0.138E-03    0.275E-04
DAV:  10    -0.102396663541E+03   -0.46996E-05   -0.37701E-07    80   0.136E-03    0.325E-04
DAV:  11    -0.102396664340E+03   -0.79907E-06   -0.35060E-08    96   0.611E-04
   3 F= -.10239666E+03 E0= -.10239666E+03  d E =-.203604E+00
       N       E                     dE             d eps       ncg     rms          rms(c)
DAV:   1    -0.102436262230E+03   -0.39599E-01   -0.95539E-01    84   0.418E+00    0.413E-01
DAV:   2    -0.102440755076E+03   -0.44928E-02   -0.54903E-02   120   0.875E-01    0.195E-01
DAV:   3    -0.102440381430E+03    0.37365E-03   -0.23283E-03   128   0.195E-01    0.103E-01
DAV:   4    -0.102440351832E+03    0.29597E-04   -0.65603E-04   112   0.960E-02    0.350E-02
DAV:   5    -0.102440340472E+03    0.11360E-04   -0.59620E-05   120   0.347E-02    0.186E-02
DAV:   6    -0.102440340844E+03   -0.37224E-06   -0.16142E-05   120   0.178E-02    0.919E-03
DAV:   7    -0.102440358591E+03   -0.17746E-04   -0.91110E-06   104   0.129E-02    0.274E-03
DAV:   8    -0.102440369033E+03   -0.10442E-04   -0.22455E-06   104   0.613E-03    0.266E-03
DAV:   9    -0.102440375622E+03   -0.65892E-05   -0.24053E-07    88   0.175E-03    0.164E-03
DAV:  10    -0.102440396491E+03   -0.20869E-04   -0.19812E-06    88   0.386E-03    0.111E-03
DAV:  11    -0.102440400056E+03   -0.35652E-05   -0.21150E-07    88   0.158E-03    0.756E-04
DAV:  12    -0.102440409328E+03   -0.92726E-05   -0.52748E-07    80   0.187E-03    0.238E-04
DAV:  13    -0.102440412418E+03   -0.30896E-05   -0.17365E-07    88   0.107E-03    0.282E-04
DAV:  14    -0.102440414366E+03   -0.19485E-05   -0.38806E-08    88   0.669E-04    0.128E-04
DAV:  15    -0.102440416009E+03   -0.16426E-05   -0.69217E-08    88   0.608E-04    0.100E-04
DAV:  16    -0.102440416508E+03   -0.49933E-06   -0.11198E-08    88   0.292E-04
   4 F= -.10244042E+03 E0= -.10244042E+03  d E =-.437522E-01
       N       E                     dE             d eps       ncg     rms          rms(c)
DAV:   1    -0.102443798921E+03   -0.33829E-02   -0.15929E-01    84   0.171E+00    0.166E-01
DAV:   2    -0.102444556423E+03   -0.75750E-03   -0.92750E-03   120   0.360E-01    0.802E-02
DAV:   3    -0.102444495120E+03    0.61303E-04   -0.39854E-04   128   0.810E-02    0.422E-02
DAV:   4    -0.102444491354E+03    0.37657E-05   -0.11302E-04   112   0.398E-02    0.150E-02
DAV:   5    -0.102444487132E+03    0.42227E-05   -0.10030E-05   120   0.143E-02    0.769E-03
DAV:   6    -0.102444486257E+03    0.87436E-06   -0.28258E-06   104   0.745E-03
   5 F= -.10244449E+03 E0= -.10244449E+03  d E =-.478219E-01
       N       E                     dE             d eps       ncg     rms          rms(c)
DAV:   1    -0.102457104258E+03   -0.12617E-01   -0.37122E-01    84   0.280E+00    0.219E-01
DAV:   2    -0.102457874020E+03   -0.76976E-03   -0.13509E-02   120   0.448E-01    0.116E-01
DAV:   3    -0.102457734465E+03    0.13955E-03   -0.63156E-04   128   0.954E-02    0.612E-02
DAV:   4    -0.102457703961E+03    0.30505E-04   -0.18506E-04   112   0.459E-02    0.173E-02
DAV:   5    -0.102457700035E+03    0.39256E-05   -0.15797E-05   112   0.162E-02    0.107E-02
DAV:   6    -0.102457706544E+03   -0.65090E-05   -0.62821E-06   112   0.961E-03    0.341E-03
DAV:   7    -0.102457720670E+03   -0.14127E-04   -0.20866E-06    96   0.519E-03    0.182E-03
DAV:   8    -0.102457734441E+03   -0.13771E-04   -0.52511E-07    88   0.217E-03    0.101E-03
DAV:   9    -0.102457752849E+03   -0.18408E-04   -0.10191E-06    80   0.230E-03    0.605E-04
DAV:  10    -0.102457763926E+03   -0.11077E-04   -0.57270E-07    88   0.167E-03    0.364E-04
DAV:  11    -0.102457773653E+03   -0.97272E-05   -0.55252E-07    80   0.157E-03    0.214E-04
DAV:  12    -0.102457776706E+03   -0.30523E-05   -0.10002E-07    88   0.809E-04    0.130E-04
DAV:  13    -0.102457779525E+03   -0.28191E-05   -0.99469E-08    80   0.719E-04    0.135E-04
DAV:  14    -0.102457780261E+03   -0.73681E-06   -0.20854E-08    88   0.376E-04
   6 F= -.10245778E+03 E0= -.10245778E+03  d E =-.132940E-01
       N       E                     dE             d eps       ncg     rms          rms(c)
DAV:   1    -0.102458795783E+03   -0.10163E-02   -0.51907E-02    84   0.105E+00    0.817E-02
DAV:   2    -0.102458906910E+03   -0.11113E-03   -0.19050E-03   120   0.168E-01    0.435E-02
DAV:   3    -0.102458888876E+03    0.18034E-04   -0.88250E-05   120   0.357E-02    0.230E-02
DAV:   4    -0.102458884685E+03    0.41907E-05   -0.25960E-05   112   0.172E-02    0.650E-03
DAV:   5    -0.102458882854E+03    0.18311E-05   -0.21068E-06    96   0.607E-03    0.384E-03
DAV:   6    -0.102458882655E+03    0.19925E-06   -0.10086E-06    88   0.398E-03
   7 F= -.10245888E+03 E0= -.10245888E+03  d E =-.143964E-01
       N       E                     dE             d eps       ncg     rms          rms(c)
DAV:   1    -0.102465555768E+03   -0.66729E-02   -0.28539E-01    84   0.250E+00    0.169E-01
DAV:   2    -0.102465886023E+03   -0.33026E-03   -0.71957E-03   120   0.344E-01    0.920E-02
DAV:   3    -0.102465769276E+03    0.11675E-03   -0.49547E-04   128   0.903E-02    0.448E-02
DAV:   4    -0.102465768708E+03    0.56797E-06   -0.17628E-04   120   0.521E-02    0.142E-02
DAV:   5    -0.102465768503E+03    0.20568E-06   -0.21317E-05   112   0.187E-02    0.883E-03
DAV:   6    -0.102465768716E+03   -0.21303E-06   -0.26701E-06   120   0.612E-03
   8 F= -.10246577E+03 E0= -.10246577E+03  d E =-.688606E-02
       N       E                     dE             d eps       ncg     rms          rms(c)
DAV:   1    -0.102466286710E+03   -0.51821E-03   -0.37845E-02    86   0.910E-01    0.616E-02
DAV:   2    -0.102466331886E+03   -0.45176E-04   -0.96092E-04   120   0.126E-01    0.337E-02
DAV:   3    -0.102466317534E+03    0.14352E-04   -0.65475E-05   128   0.330E-02    0.165E-02
DAV:   4    -0.102466318786E+03   -0.12522E-05   -0.23526E-05   120   0.194E-02    0.514E-03
DAV:   5    -0.102466320456E+03   -0.16705E-05   -0.30488E-06    96   0.730E-03    0.314E-03
DAV:   6    -0.102466322530E+03   -0.20735E-05   -0.50883E-07    88   0.294E-03    0.141E-03
DAV:   7    -0.102466325615E+03   -0.30857E-05   -0.24195E-07    88   0.191E-03    0.425E-04
DAV:   8    -0.102466328749E+03   -0.31336E-05   -0.13689E-07    88   0.130E-03    0.358E-04
DAV:   9    -0.102466333182E+03   -0.44328E-05   -0.23873E-07    80   0.142E-03    0.229E-04
DAV:  10    -0.102466334596E+03   -0.14145E-05   -0.72541E-08    88   0.818E-04    0.114E-04
DAV:  11    -0.102466335373E+03   -0.77673E-06   -0.23048E-08    88   0.457E-04
   9 F= -.10246634E+03 E0= -.10246634E+03  d E =-.745272E-02
       N       E                     dE             d eps       ncg     rms          rms(c)
DAV:   1    -0.102470533862E+03   -0.41993E-02   -0.18023E-01    84   0.196E+00    0.121E-01
DAV:   2    -0.102470693618E+03   -0.15976E-03   -0.39404E-03   120   0.255E-01    0.671E-02
DAV:   3    -0.102470623709E+03    0.69910E-04   -0.26985E-04   128   0.642E-02    0.323E-02
DAV:   4    -0.102470611151E+03    0.12558E-04   -0.72748E-05   120   0.330E-02    0.893E-03
DAV:   5    -0.102470606842E+03    0.43091E-05   -0.87319E-06   112   0.131E-02    0.610E-03
DAV:   6    -0.102470606536E+03    0.30541E-06   -0.16967E-06    88   0.644E-03
  10 F= -.10247061E+03 E0= -.10247061E+03  d E =-.427116E-02
       N       E                     dE             d eps       ncg     rms          rms(c)
DAV:   1    -0.102471879363E+03   -0.12725E-02   -0.21915E-01    84   0.216E+00    0.133E-01
DAV:   2    -0.102472070659E+03   -0.19130E-03   -0.48194E-03   120   0.282E-01    0.742E-02
DAV:   3    -0.102471981405E+03    0.89254E-04   -0.33219E-04   128   0.714E-02    0.359E-02
DAV:   4    -0.102471964688E+03    0.16717E-04   -0.88099E-05   120   0.367E-02    0.992E-03
DAV:   5    -0.102471962015E+03    0.26736E-05   -0.11377E-05   120   0.150E-02    0.686E-03
DAV:   6    -0.102471965261E+03   -0.32465E-05   -0.24203E-06    96   0.741E-03    0.347E-03
DAV:   7    -0.102471974040E+03   -0.87792E-05   -0.90775E-07    88   0.531E-03    0.109E-03
DAV:   8    -0.102471982253E+03   -0.82131E-05   -0.78848E-07    88   0.386E-03    0.116E-03
DAV:   9    -0.102471997528E+03   -0.15275E-04   -0.11044E-06    88   0.347E-03    0.544E-04
DAV:  10    -0.102472002342E+03   -0.48140E-05   -0.29635E-07    88   0.197E-03    0.475E-04
DAV:  11    -0.102472005496E+03   -0.31539E-05   -0.10122E-07    88   0.115E-03    0.260E-04
DAV:  12    -0.102472010379E+03   -0.48835E-05   -0.20080E-07    80   0.107E-03    0.134E-04
DAV:  13    -0.102472012060E+03   -0.16808E-05   -0.60662E-08    88   0.551E-04    0.872E-05
DAV:  14    -0.102472013246E+03   -0.11855E-05   -0.29369E-08    88   0.378E-04    0.496E-05
DAV:  15    -0.102472013679E+03   -0.43382E-06   -0.84868E-09    88   0.224E-04
  11 F= -.10247201E+03 E0= -.10247201E+03  d E =-.567831E-02
       N       E                     dE             d eps       ncg     rms          rms(c)
DAV:   1    -0.102474834830E+03   -0.28216E-02   -0.29136E-01    84   0.246E+00    0.153E-01
DAV:   2    -0.102475171774E+03   -0.33694E-03   -0.64386E-03   120   0.325E-01    0.886E-02
DAV:   3    -0.102475054440E+03    0.11733E-03   -0.39949E-04   128   0.829E-02    0.395E-02
DAV:   4    -0.102475057023E+03   -0.25827E-05   -0.15612E-04   120   0.439E-02    0.126E-02
DAV:   5    -0.102475056550E+03    0.47229E-06   -0.10444E-05   112   0.133E-02    0.707E-03
DAV:   6    -0.102475057026E+03   -0.47590E-06   -0.23872E-06    96   0.576E-03
  12 F= -.10247506E+03 E0= -.10247506E+03  d E =-.304335E-02
       N       E                     dE             d eps       ncg     rms          rms(c)
DAV:   1    -0.102475261839E+03   -0.20529E-03   -0.42250E-02    84   0.935E-01    0.581E-02
DAV:   2    -0.102475309150E+03   -0.47311E-04   -0.94272E-04   120   0.124E-01    0.340E-02
DAV:   3    -0.102475291115E+03    0.18036E-04   -0.58248E-05   128   0.318E-02    0.153E-02
DAV:   4    -0.102475292186E+03   -0.10717E-05   -0.23184E-05   128   0.170E-02    0.484E-03
DAV:   5    -0.102475293516E+03   -0.13297E-05   -0.13907E-06    88   0.517E-03    0.257E-03
DAV:   6    -0.102475295438E+03   -0.19223E-05   -0.59913E-07    88   0.299E-03    0.901E-04
DAV:   7    -0.102475297800E+03   -0.23619E-05   -0.19767E-07    88   0.176E-03    0.365E-04
DAV:   8    -0.102475300474E+03   -0.26739E-05   -0.12152E-07    88   0.117E-03    0.346E-04
DAV:   9    -0.102475302889E+03   -0.24147E-05   -0.90363E-08    88   0.898E-04    0.145E-04
DAV:  10    -0.102475304843E+03   -0.19547E-05   -0.87906E-08    88   0.736E-04    0.161E-04
DAV:  11    -0.102475305394E+03   -0.55058E-06   -0.16554E-08    88   0.429E-04
  13 F= -.10247531E+03 E0= -.10247531E+03  d E =-.329171E-02
       N       E                     dE             d eps       ncg     rms          rms(c)
DAV:   1    -0.102476903516E+03   -0.15987E-02   -0.33068E-01    84   0.258E+00    0.186E-01
DAV:   2    -0.102477429293E+03   -0.52578E-03   -0.90531E-03   120   0.367E-01    0.999E-02
DAV:   3    -0.102477292158E+03    0.13713E-03   -0.42946E-04   120   0.816E-02    0.500E-02
DAV:   4    -0.102477280444E+03    0.11714E-04   -0.15126E-04   120   0.430E-02    0.140E-02
DAV:   5    -0.102477282026E+03   -0.15823E-05   -0.12402E-05   112   0.147E-02    0.762E-03
DAV:   6    -0.102477284723E+03   -0.26972E-05   -0.28049E-06   104   0.585E-03    0.296E-03
DAV:   7    -0.102477288870E+03   -0.41470E-05   -0.63417E-07    88   0.305E-03    0.833E-04
DAV:   8    -0.102477292114E+03   -0.32443E-05   -0.18510E-07    88   0.155E-03    0.592E-04
DAV:   9    -0.102477296173E+03   -0.40582E-05   -0.15703E-07    80   0.115E-03    0.240E-04
DAV:  10    -0.102477300222E+03   -0.40495E-05   -0.24601E-07    88   0.113E-03    0.302E-04
DAV:  11    -0.102477302017E+03   -0.17948E-05   -0.71220E-08    88   0.724E-04    0.182E-04
DAV:  12    -0.102477302948E+03   -0.93074E-06   -0.31093E-08    88   0.455E-04
  14 F= -.10247730E+03 E0= -.10247730E+03  d E =-.199755E-02
       N       E                     dE             d eps       ncg     rms          rms(c)
DAV:   1    -0.102477358424E+03   -0.56407E-04   -0.77084E-03    84   0.394E-01    0.285E-02
DAV:   2    -0.102477372673E+03   -0.14248E-04   -0.21115E-04   120   0.560E-02    0.152E-02
DAV:   3    -0.102477370692E+03    0.19802E-05   -0.10043E-05   120   0.125E-02    0.758E-03
DAV:   4    -0.102477371188E+03   -0.49558E-06   -0.34906E-06   112   0.653E-03
  15 F= -.10247737E+03 E0= -.10247737E+03  d E =-.206579E-02
       N       E                     dE             d eps       ncg     rms          rms(c)
DAV:   1    -0.102477657980E+03   -0.28729E-03   -0.34677E-02    84   0.808E-01    0.689E-02
DAV:   2    -0.102477782322E+03   -0.12434E-03   -0.16136E-03   120   0.147E-01    0.358E-02
DAV:   3    -0.102477767414E+03    0.14909E-04   -0.59630E-05   120   0.310E-02    0.192E-02
DAV:   4    -0.102477764505E+03    0.29085E-05   -0.21359E-05   112   0.178E-02    0.524E-03
DAV:   5    -0.102477763666E+03    0.83948E-06   -0.23048E-06   112   0.727E-03
  16 F= -.10247776E+03 E0= -.10247776E+03  d E =-.392478E-03
       N       E                     dE             d eps       ncg     rms          rms(c)
DAV:   1    -0.102477772188E+03   -0.76833E-05   -0.72884E-04    84   0.117E-01    0.961E-03
DAV:   2    -0.102477775177E+03   -0.29886E-05   -0.31298E-05   120   0.205E-02    0.533E-03
DAV:   3    -0.102477775504E+03   -0.32689E-06   -0.12331E-06    88   0.462E-03
  17 F= -.10247778E+03 E0= -.10247778E+03  d E =-.404316E-03
       N       E                     dE             d eps       ncg     rms          rms(c)
DAV:   1    -0.102477848730E+03   -0.73553E-04   -0.81338E-03    84   0.393E-01    0.322E-02
DAV:   2    -0.102477884169E+03   -0.35438E-04   -0.45596E-04   120   0.832E-02    0.198E-02
DAV:   3    -0.102477880503E+03    0.36656E-05   -0.13064E-05   120   0.152E-02    0.117E-02
DAV:   4    -0.102477878677E+03    0.18263E-05   -0.60174E-06   112   0.103E-02    0.208E-03
DAV:   5    -0.102477878388E+03    0.28909E-06   -0.12377E-06    88   0.493E-03
  18 F= -.10247788E+03 E0= -.10247788E+03  d E =-.102884E-03
