       N       E                     dE             d eps       ncg     rms          rms(c)
DAV:   1     0.244413419339E+03    0.24441E+03   -0.10205E+04   120   0.484E+02
DAV:   2    -0.238002053453E+02   -0.26821E+03   -0.25417E+03   156   0.920E+01
DAV:   3    -0.103733589771E+03   -0.79933E+02   -0.79725E+02   120   0.554E+01
DAV:   4    -0.107660998104E+03   -0.39274E+01   -0.39137E+01   120   0.177E+01
DAV:   5    -0.107743897853E+03   -0.82900E-01   -0.82833E-01   168   0.290E+00    0.157E+01
DAV:   6    -0.104222873930E+03    0.35210E+01   -0.16023E+00   108   0.436E+00    0.906E+00
DAV:   7    -0.102412930314E+03    0.18099E+01   -0.43409E+00   120   0.640E+00    0.132E+00
DAV:   8    -0.102358765417E+03    0.54165E-01   -0.33757E-01   132   0.221E+00    0.693E-01
DAV:   9    -0.102324842474E+03    0.33923E-01   -0.63111E-02   132   0.685E-01    0.368E-01
DAV:  10    -0.102323538414E+03    0.13041E-02   -0.38175E-03   132   0.214E-01    0.147E-01
DAV:  11    -0.102322244923E+03    0.12935E-02   -0.62212E-03   120   0.210E-01    0.103E-01
DAV:  12    -0.102327803815E+03   -0.55589E-02   -0.15729E-03   132   0.107E-01    0.500E-02
DAV:  13    -0.102331309001E+03   -0.35052E-02   -0.18762E-03   120   0.106E-01    0.428E-02
DAV:  14    -0.102334231975E+03   -0.29230E-02   -0.15808E-04   144   0.427E-02    0.215E-02
DAV:  15    -0.102339494026E+03   -0.52621E-02   -0.59771E-04   108   0.584E-02    0.134E-02
DAV:  16    -0.102340956439E+03   -0.14624E-02   -0.88805E-05   132   0.276E-02    0.848E-03
DAV:  17    -0.102342359241E+03   -0.14028E-02   -0.13511E-04   108   0.250E-02    0.721E-03
DAV:  18    -0.102342621578E+03   -0.26234E-03   -0.70549E-06   132   0.706E-03    0.184E-03
DAV:  19    -0.102342860850E+03   -0.23927E-03   -0.10783E-05   108   0.715E-03    0.219E-03
DAV:  20    -0.102342913077E+03   -0.52227E-04   -0.78564E-07   108   0.291E-03    0.696E-04
DAV:  21    -0.102342947717E+03   -0.34640E-04   -0.82298E-07    84   0.220E-03    0.433E-04
DAV:  22    -0.102342960320E+03   -0.12604E-04   -0.26411E-07    96   0.123E-03    0.226E-04
DAV:  23    -0.102342964258E+03   -0.39376E-05   -0.76445E-08   108   0.650E-04    0.203E-04
DAV:  24    -0.102342968472E+03   -0.42143E-05   -0.69664E-08    84   0.664E-04    0.176E-04
DAV:  25    -0.102342969092E+03   -0.61977E-06   -0.89134E-09   108   0.324E-04
   1 F= -.10234297E+03 E0= -.10234297E+03  d E =-.815738E-10
       N       E                     dE             d eps       ncg     rms          rms(c)
DAV:   1    -0.102339600766E+03    0.33677E-02   -0.82045E-02   120   0.802E-01    0.133E-01
DAV:   2    -0.102339911501E+03   -0.31073E-03   -0.36811E-03   132   0.202E-01    0.572E-02
DAV:   3    -0.102339897309E+03    0.14192E-04   -0.14875E-04   144   0.449E-02    0.299E-02
DAV:   4    -0.102339900554E+03   -0.32451E-05   -0.35409E-05   144   0.218E-02    0.917E-03
DAV:   5    -0.102339899799E+03    0.75507E-06   -0.60939E-06   132   0.953E-03
   2 F= -.10233990E+03 E0= -.10233990E+03  d E =-.529824E-11
       N       E                     dE             d eps       ncg     rms          rms(c)
DAV:   1    -0.102338657155E+03    0.12434E-02   -0.32638E-01    96   0.161E+00    0.266E-01
DAV:   2    -0.102339929105E+03   -0.12719E-02   -0.14941E-02   132   0.405E-01    0.116E-01
DAV:   3    -0.102339871533E+03    0.57572E-04   -0.60212E-04   144   0.906E-02    0.613E-02
DAV:   4    -0.102339888413E+03   -0.16880E-04   -0.14369E-04   132   0.439E-02    0.186E-02
DAV:   5    -0.102339886250E+03    0.21630E-05   -0.26540E-05   132   0.197E-02    0.105E-02
DAV:   6    -0.102339885808E+03    0.44257E-06   -0.52740E-06   132   0.801E-03
   3 F= -.10233989E+03 E0= -.10233989E+03  d E =-.793243E-11
       N       E                     dE             d eps       ncg     rms          rms(c)
DAV:   1    -0.102339187474E+03    0.69878E-03   -0.16375E-01   120   0.113E+00    0.193E-01
DAV:   2    -0.102339856288E+03   -0.66881E-03   -0.77963E-03   132   0.287E-01    0.809E-02
DAV:   3    -0.102339828489E+03    0.27799E-04   -0.30103E-04   144   0.630E-02    0.435E-02
DAV:   4    -0.102339838619E+03   -0.10130E-04   -0.71143E-05   144   0.299E-02    0.135E-02
DAV:   5    -0.102339838475E+03    0.14425E-06   -0.12462E-05   132   0.135E-02    0.723E-03
DAV:   6    -0.102339838725E+03   -0.25045E-06   -0.26875E-06   132   0.548E-03
   4 F= -.10233984E+03 E0= -.10233984E+03  d E =-.769802E-11
       N       E                     dE             d eps       ncg     rms          rms(c)
DAV:   1    -0.102338539341E+03    0.12991E-02   -0.32396E-01    96   0.159E+00    0.268E-01
DAV:   2    -0.102339924596E+03   -0.13853E-02   -0.15939E-02   132   0.418E-01    0.117E-01
DAV:   3    -0.102339859141E+03    0.65455E-04   -0.60258E-04   132   0.910E-02    0.623E-02
DAV:   4    -0.102339872941E+03   -0.13801E-04   -0.15735E-04   132   0.447E-02    0.185E-02
DAV:   5    -0.102339869363E+03    0.35781E-05   -0.26789E-05   132   0.200E-02    0.104E-02
DAV:   6    -0.102339869018E+03    0.34549E-06   -0.55738E-06   132   0.804E-03
   5 F= -.10233987E+03 E0= -.10233987E+03  d E =-.985326E-11
       N       E                     dE             d eps       ncg     rms          rms(c)
DAV:   1    -0.102337849651E+03    0.20197E-02   -0.16267E-01    96   0.115E+00    0.189E-01
DAV:   2    -0.102338717210E+03   -0.86756E-03   -0.96655E-03   132   0.325E-01    0.957E-02
DAV:   3    -0.102338668264E+03    0.48946E-04   -0.32347E-04   132   0.695E-02    0.513E-02
DAV:   4    -0.102338674544E+03   -0.62802E-05   -0.12014E-04   132   0.385E-02    0.135E-02
DAV:   5    -0.102338672688E+03    0.18561E-05   -0.17642E-05   132   0.156E-02    0.801E-03
DAV:   6    -0.102338674242E+03   -0.15543E-05   -0.34082E-06   132   0.601E-03    0.498E-03
DAV:   7    -0.102338679881E+03   -0.56388E-05   -0.51816E-07   108   0.257E-03    0.145E-03
DAV:   8    -0.102338684363E+03   -0.44819E-05   -0.35937E-07   108   0.204E-03    0.629E-04
DAV:   9    -0.102338690025E+03   -0.56621E-05   -0.33448E-07   108   0.167E-03    0.550E-04
DAV:  10    -0.102338696641E+03   -0.66162E-05   -0.57056E-07   120   0.160E-03    0.432E-04
DAV:  11    -0.102338697746E+03   -0.11049E-05   -0.28568E-08   108   0.663E-04    0.295E-04
DAV:  12    -0.102338699576E+03   -0.18297E-05   -0.51383E-08   108   0.542E-04    0.116E-04
DAV:  13    -0.102338700690E+03   -0.11147E-05   -0.24970E-08   108   0.357E-04    0.104E-04
DAV:  14    -0.102338701587E+03   -0.89617E-06   -0.12998E-08   108   0.269E-04
   6 F= -.10233870E+03 E0= -.10233870E+03  d E =-.100487E-10
       N       E                     dE             d eps       ncg     rms          rms(c)
DAV:   1    -0.102336378501E+03    0.23222E-02   -0.33001E-01    96   0.163E+00    0.274E-01
DAV:   2    -0.102338674370E+03   -0.22959E-02   -0.25081E-02   120   0.498E-01    0.171E-01
DAV:   3    -0.102338494558E+03    0.17981E-03   -0.70354E-04   132   0.106E-01    0.900E-02
DAV:   4    -0.102338497139E+03   -0.25814E-05   -0.43360E-04   132   0.692E-02    0.172E-02
DAV:   5    -0.102338487298E+03    0.98416E-05   -0.58530E-05   132   0.269E-02    0.122E-02
DAV:   6    -0.102338487586E+03   -0.28830E-06   -0.10539E-05   132   0.873E-03    0.788E-03
DAV:   7    -0.102338498723E+03   -0.11137E-04   -0.89509E-07   108   0.343E-03    0.336E-03
DAV:   8    -0.102338517015E+03   -0.18292E-04   -0.22110E-06   132   0.508E-03    0.160E-03
DAV:   9    -0.102338528936E+03   -0.11921E-04   -0.10548E-06   132   0.262E-03    0.169E-03
DAV:  10    -0.102338545449E+03   -0.16513E-04   -0.55066E-07   108   0.176E-03    0.784E-04
DAV:  11    -0.102338554403E+03   -0.89541E-05   -0.50755E-07   120   0.137E-03    0.618E-04
DAV:  12    -0.102338560910E+03   -0.65063E-05   -0.13880E-07   108   0.876E-04    0.184E-04
DAV:  13    -0.102338565435E+03   -0.45259E-05   -0.13297E-07   108   0.703E-04    0.247E-04
DAV:  14    -0.102338567953E+03   -0.25180E-05   -0.25900E-08   108   0.418E-04    0.110E-04
DAV:  15    -0.102338569070E+03   -0.11169E-05   -0.10678E-08   108   0.278E-04    0.636E-05
DAV:  16    -0.102338569524E+03   -0.45401E-06    0.35129E-09   108   0.135E-04
   7 F= -.10233857E+03 E0= -.10233857E+03  d E =-.849933E-11
       N       E                     dE             d eps       ncg     rms          rms(c)
DAV:   1    -0.102337888038E+03    0.68103E-03   -0.18871E-01    96   0.134E+00    0.195E-01
DAV:   2    -0.102339263287E+03   -0.13752E-02   -0.14390E-02   120   0.419E-01    0.120E-01
DAV:   3    -0.102339181374E+03    0.81912E-04   -0.40250E-04   144   0.848E-02    0.656E-02
DAV:   4    -0.102339181993E+03   -0.61861E-06   -0.21644E-04   132   0.560E-02    0.125E-02
DAV:   5    -0.102339176873E+03    0.51202E-05   -0.42397E-05   132   0.231E-02    0.981E-03
DAV:   6    -0.102339177424E+03   -0.55112E-06   -0.41821E-06   144   0.646E-03
   8 F= -.10233918E+03 E0= -.10233918E+03  d E =-.860527E-11
       N       E                     dE             d eps       ncg     rms          rms(c)
DAV:   1    -0.102336926751E+03    0.22501E-02   -0.33550E-01    96   0.177E+00    0.256E-01
DAV:   2    -0.102338906978E+03   -0.19802E-02   -0.20434E-02   132   0.496E-01    0.153E-01
DAV:   3    -0.102338838840E+03    0.68138E-04   -0.56721E-04   132   0.929E-02    0.814E-02
DAV:   4    -0.102338836778E+03    0.20621E-05   -0.21460E-04   132   0.558E-02    0.152E-02
DAV:   5    -0.102338826670E+03    0.10108E-04   -0.38772E-05   132   0.237E-02    0.102E-02
DAV:   6    -0.102338825895E+03    0.77485E-06   -0.73230E-06   132   0.980E-03
   9 F= -.10233883E+03 E0= -.10233883E+03  d E =-.917023E-11
       N       E                     dE             d eps       ncg     rms          rms(c)
DAV:   1    -0.102337112049E+03    0.17146E-02   -0.17027E-01    96   0.126E+00    0.181E-01
DAV:   2    -0.102338133651E+03   -0.10216E-02   -0.10391E-02   132   0.362E-01    0.114E-01
DAV:   3    -0.102338118200E+03    0.15451E-04   -0.27921E-04   132   0.694E-02    0.607E-02
DAV:   4    -0.102338138317E+03   -0.20118E-04   -0.14833E-04   120   0.468E-02    0.118E-02
DAV:   5    -0.102338133735E+03    0.45822E-05   -0.28427E-05   132   0.202E-02    0.822E-03
DAV:   6    -0.102338134892E+03   -0.11564E-05   -0.66966E-06   132   0.783E-03    0.512E-03
DAV:   7    -0.102338142356E+03   -0.74647E-05   -0.79516E-07   108   0.355E-03    0.212E-03
DAV:   8    -0.102338151366E+03   -0.90095E-05   -0.71356E-07   108   0.286E-03    0.673E-04
DAV:   9    -0.102338159883E+03   -0.85177E-05   -0.83854E-07    96   0.252E-03    0.900E-04
DAV:  10    -0.102338169445E+03   -0.95619E-05   -0.69124E-07   108   0.202E-03    0.371E-04
DAV:  11    -0.102338171737E+03   -0.22916E-05   -0.11734E-07   108   0.847E-04    0.283E-04
DAV:  12    -0.102338174229E+03   -0.24917E-05   -0.70122E-08   108   0.652E-04    0.112E-04
DAV:  13    -0.102338176408E+03   -0.21798E-05   -0.10448E-07    96   0.646E-04    0.178E-04
DAV:  14    -0.102338177325E+03   -0.91634E-06   -0.16527E-08   108   0.323E-04
  10 F= -.10233818E+03 E0= -.10233818E+03  d E =-.117261E-10
       N       E                     dE             d eps       ncg     rms          rms(c)
DAV:   1    -0.102335528464E+03    0.26479E-02   -0.34406E-01    96   0.182E+00    0.268E-01
DAV:   2    -0.102338168491E+03   -0.26400E-02   -0.26965E-02   132   0.570E-01    0.185E-01
DAV:   3    -0.102337999763E+03    0.16873E-03   -0.62953E-04   144   0.109E-01    0.944E-02
DAV:   4    -0.102338013724E+03   -0.13961E-04   -0.48127E-04   120   0.821E-02    0.182E-02
DAV:   5    -0.102337998867E+03    0.14856E-04   -0.96052E-05   132   0.361E-02    0.124E-02
DAV:   6    -0.102338003484E+03   -0.46167E-05   -0.16277E-05   132   0.110E-02    0.688E-03
DAV:   7    -0.102338022593E+03   -0.19109E-04   -0.12949E-06   132   0.332E-03    0.334E-03
DAV:   8    -0.102338050622E+03   -0.28029E-04   -0.39163E-06   132   0.566E-03    0.163E-03
DAV:   9    -0.102338069386E+03   -0.18764E-04   -0.15815E-06   132   0.319E-03    0.151E-03
DAV:  10    -0.102338090527E+03   -0.21141E-04   -0.17212E-06   132   0.275E-03    0.540E-04
DAV:  11    -0.102338095664E+03   -0.51368E-05   -0.13233E-07   108   0.104E-03    0.325E-04
DAV:  12    -0.102338104412E+03   -0.87484E-05   -0.35744E-07    96   0.120E-03    0.186E-04
DAV:  13    -0.102338106344E+03   -0.19318E-05   -0.50522E-08   108   0.477E-04    0.208E-04
DAV:  14    -0.102338108832E+03   -0.24873E-05   -0.37248E-08    96   0.455E-04    0.104E-04
DAV:  15    -0.102338109539E+03   -0.70766E-06   -0.91878E-09   108   0.260E-04
  11 F= -.10233811E+03 E0= -.10233811E+03  d E =-.746199E-11
       N       E                     dE             d eps       ncg     rms          rms(c)
DAV:   1    -0.102338250690E+03   -0.14186E-03   -0.17078E-01    96   0.127E+00    0.192E-01
DAV:   2    -0.102339429734E+03   -0.11790E-02   -0.12197E-02   132   0.386E-01    0.122E-01
DAV:   3    -0.102339362385E+03    0.67349E-04   -0.30962E-04   144   0.748E-02    0.645E-02
DAV:   4    -0.102339365281E+03   -0.28953E-05   -0.19413E-04   132   0.542E-02    0.124E-02
DAV:   5    -0.102339359495E+03    0.57859E-05   -0.41331E-05   132   0.241E-02    0.891E-03
DAV:   6    -0.102339361064E+03   -0.15693E-05   -0.74458E-06   132   0.790E-03    0.566E-03
DAV:   7    -0.102339370396E+03   -0.93319E-05   -0.73887E-07    96   0.319E-03    0.250E-03
DAV:   8    -0.102339384270E+03   -0.13874E-04   -0.17561E-06   132   0.384E-03    0.977E-04
DAV:   9    -0.102339394685E+03   -0.10415E-04   -0.75017E-07   108   0.246E-03    0.101E-03
DAV:  10    -0.102339407037E+03   -0.12352E-04   -0.12371E-06   108   0.226E-03    0.465E-04
DAV:  11    -0.102339410502E+03   -0.34650E-05   -0.10833E-07   108   0.949E-04    0.263E-04
DAV:  12    -0.102339414126E+03   -0.36241E-05   -0.12958E-07   108   0.773E-04    0.144E-04
DAV:  13    -0.102339415793E+03   -0.16675E-05   -0.41522E-08   108   0.440E-04    0.183E-04
DAV:  14    -0.102339417252E+03   -0.14588E-05   -0.27699E-08   108   0.375E-04    0.679E-05
DAV:  15    -0.102339417656E+03   -0.40425E-06   -0.31193E-10   108   0.190E-04
  12 F= -.10233942E+03 E0= -.10233942E+03  d E =-.854704E-11
       N       E                     dE             d eps       ncg     rms          rms(c)
DAV:   1    -0.102337890923E+03    0.15263E-02   -0.32954E-01    96   0.176E+00    0.272E-01
DAV:   2    -0.102339666583E+03   -0.17757E-02   -0.18704E-02   132   0.457E-01    0.134E-01
DAV:   3    -0.102339605773E+03    0.60811E-04   -0.57729E-04   132   0.915E-02    0.729E-02
DAV:   4    -0.102339615768E+03   -0.99959E-05   -0.20258E-04   132   0.565E-02    0.157E-02
DAV:   5    -0.102339609203E+03    0.65657E-05   -0.46654E-05   132   0.261E-02    0.120E-02
DAV:   6    -0.102339608612E+03    0.59107E-06   -0.65996E-06   132   0.896E-03
  13 F= -.10233961E+03 E0= -.10233961E+03  d E =-.101028E-10
       N       E                     dE             d eps       ncg     rms          rms(c)
DAV:   1    -0.102337031077E+03    0.25781E-02   -0.16547E-01    96   0.128E+00    0.193E-01
DAV:   2    -0.102338331542E+03   -0.13005E-02   -0.13453E-02   132   0.395E-01    0.116E-01
DAV:   3    -0.102338278042E+03    0.53500E-04   -0.36245E-04   144   0.772E-02    0.672E-02
DAV:   4    -0.102338297802E+03   -0.19761E-04   -0.18818E-04   132   0.554E-02    0.130E-02
DAV:   5    -0.102338297147E+03    0.65516E-06   -0.51976E-05   132   0.267E-02    0.105E-02
DAV:   6    -0.102338295714E+03    0.14334E-05   -0.52310E-06   132   0.789E-03    0.749E-03
DAV:   7    -0.102338299106E+03   -0.33922E-05   -0.18289E-06   132   0.513E-03    0.278E-03
DAV:   8    -0.102338304120E+03   -0.50144E-05   -0.57882E-07   108   0.352E-03    0.795E-04
DAV:   9    -0.102338310073E+03   -0.59531E-05   -0.50469E-07   108   0.235E-03    0.100E-03
DAV:  10    -0.102338318490E+03   -0.84163E-05   -0.44292E-07   108   0.172E-03    0.326E-04
DAV:  11    -0.102338320753E+03   -0.22631E-05   -0.11038E-07   108   0.891E-04    0.315E-04
DAV:  12    -0.102338323761E+03   -0.30084E-05   -0.65907E-08   108   0.668E-04    0.186E-04
DAV:  13    -0.102338326475E+03   -0.27136E-05   -0.92490E-08   108   0.633E-04    0.134E-04
DAV:  14    -0.102338327626E+03   -0.11515E-05   -0.18137E-08   108   0.326E-04    0.102E-04
DAV:  15    -0.102338328468E+03   -0.84169E-06   -0.79778E-09   108   0.253E-04
  14 F= -.10233833E+03 E0= -.10233833E+03  d E =-.104965E-10
       N       E                     dE             d eps       ncg     rms          rms(c)
DAV:   1    -0.102336358206E+03    0.19694E-02   -0.34052E-01    96   0.180E+00    0.264E-01
DAV:   2    -0.102338658367E+03   -0.23002E-02   -0.23801E-02   132   0.536E-01    0.173E-01
DAV:   3    -0.102338538275E+03    0.12009E-03   -0.61691E-04   144   0.105E-01    0.904E-02
DAV:   4    -0.102338545928E+03   -0.76537E-05   -0.37988E-04   132   0.744E-02    0.177E-02
DAV:   5    -0.102338536632E+03    0.92966E-05   -0.74023E-05   132   0.320E-02    0.125E-02
DAV:   6    -0.102338541866E+03   -0.52345E-05   -0.16044E-05   132   0.116E-02    0.769E-03
DAV:   7    -0.102338561550E+03   -0.19684E-04   -0.20335E-06   132   0.496E-03    0.317E-03
DAV:   8    -0.102338587183E+03   -0.25633E-04   -0.24882E-06   120   0.444E-03    0.107E-03
DAV:   9    -0.102338608031E+03   -0.20848E-04   -0.19878E-06   120   0.342E-03    0.150E-03
DAV:  10    -0.102338630548E+03   -0.22517E-04   -0.22138E-06   108   0.324E-03    0.429E-04
DAV:  11    -0.102338635273E+03   -0.47244E-05   -0.17469E-07   108   0.120E-03    0.298E-04
DAV:  12    -0.102338640963E+03   -0.56905E-05   -0.21727E-07   108   0.998E-04    0.152E-04
DAV:  13    -0.102338643574E+03   -0.26109E-05   -0.92365E-08   108   0.616E-04    0.168E-04
DAV:  14    -0.102338645450E+03   -0.18761E-05   -0.38464E-08   108   0.440E-04    0.704E-05
DAV:  15    -0.102338645983E+03   -0.53272E-06   -0.24544E-09   108   0.206E-04
  15 F= -.10233865E+03 E0= -.10233865E+03  d E =-.813985E-11
       N       E                     dE             d eps       ncg     rms          rms(c)
DAV:   1    -0.102338143851E+03    0.50160E-03   -0.17369E-01    96   0.127E+00    0.200E-01
DAV:   2    -0.102339235687E+03   -0.10918E-02   -0.11428E-02   132   0.384E-01    0.124E-01
DAV:   3    -0.102339171436E+03    0.64251E-04   -0.31772E-04   132   0.787E-02    0.589E-02
DAV:   4    -0.102339179393E+03   -0.79569E-05   -0.20105E-04   120   0.520E-02    0.128E-02
DAV:   5    -0.102339171412E+03    0.79814E-05   -0.26360E-05   132   0.197E-02    0.744E-03
DAV:   6    -0.102339175512E+03   -0.41008E-05   -0.72786E-06   144   0.754E-03    0.336E-03
DAV:   7    -0.102339185981E+03   -0.10468E-04   -0.47120E-07   108   0.217E-03    0.167E-03
DAV:   8    -0.102339203843E+03   -0.17862E-04   -0.21647E-06   132   0.361E-03    0.108E-03
DAV:   9    -0.102339214942E+03   -0.11099E-04   -0.60518E-07   108   0.208E-03    0.679E-04
DAV:  10    -0.102339226206E+03   -0.11264E-04   -0.98012E-07   108   0.192E-03    0.278E-04
DAV:  11    -0.102339230011E+03   -0.38052E-05   -0.97429E-08   108   0.809E-04    0.198E-04
DAV:  12    -0.102339233152E+03   -0.31407E-05   -0.94550E-08    96   0.654E-04    0.115E-04
DAV:  13    -0.102339234442E+03   -0.12896E-05   -0.21030E-08   108   0.352E-04    0.822E-05
DAV:  14    -0.102339235542E+03   -0.11005E-05   -0.11115E-08   108   0.279E-04    0.534E-05
DAV:  15    -0.102339235852E+03   -0.30949E-06    0.26126E-09   108   0.142E-04
  16 F= -.10233924E+03 E0= -.10233924E+03  d E =-.110353E-10
       N       E                     dE             d eps       ncg     rms          rms(c)
DAV:   1    -0.102336933535E+03    0.23020E-02   -0.33831E-01    96   0.178E+00    0.258E-01
DAV:   2    -0.102338859899E+03   -0.19264E-02   -0.20202E-02   132   0.490E-01    0.154E-01
DAV:   3    -0.102338772751E+03    0.87148E-04   -0.56275E-04   132   0.960E-02    0.790E-02
DAV:   4    -0.102338780372E+03   -0.76212E-05   -0.27723E-04   132   0.638E-02    0.167E-02
DAV:   5    -0.102338769655E+03    0.10717E-04   -0.54078E-05   132   0.278E-02    0.115E-02
DAV:   6    -0.102338768925E+03    0.73003E-06   -0.11677E-05   132   0.108E-02    0.684E-03
DAV:   7    -0.102338778133E+03   -0.92073E-05   -0.18151E-06   132   0.527E-03    0.265E-03
DAV:   8    -0.102338791526E+03   -0.13394E-04   -0.13237E-06   132   0.415E-03    0.116E-03
DAV:   9    -0.102338806167E+03   -0.14641E-04   -0.84251E-07   108   0.280E-03    0.115E-03
DAV:  10    -0.102338823336E+03   -0.17169E-04   -0.11896E-06   132   0.247E-03    0.567E-04
DAV:  11    -0.102338831347E+03   -0.80106E-05   -0.23698E-07   108   0.128E-03    0.261E-04
DAV:  12    -0.102338836353E+03   -0.50059E-05   -0.13073E-07   108   0.778E-04    0.261E-04
DAV:  13    -0.102338840147E+03   -0.37945E-05   -0.71489E-08   108   0.561E-04    0.156E-04
DAV:  14    -0.102338841862E+03   -0.17147E-05   -0.20238E-08   108   0.345E-04    0.564E-05
DAV:  15    -0.102338842930E+03   -0.10679E-05   -0.75898E-09   108   0.238E-04    0.495E-05
DAV:  16    -0.102338843418E+03   -0.48791E-06    0.18668E-09   108   0.149E-04
  17 F= -.10233884E+03 E0= -.10233884E+03  d E =-.774793E-11
       N       E                     dE             d eps       ncg     rms          rms(c)
DAV:   1    -0.102338126058E+03    0.71687E-03   -0.17082E-01    96   0.129E+00    0.183E-01
DAV:   2    -0.102339135520E+03   -0.10095E-02   -0.10571E-02   108   0.361E-01    0.116E-01
DAV:   3    -0.102339086120E+03    0.49400E-04   -0.28038E-04   132   0.677E-02    0.610E-02
DAV:   4    -0.102339073272E+03    0.12848E-04   -0.12624E-04   132   0.418E-02    0.109E-02
DAV:   5    -0.102339068983E+03    0.42885E-05   -0.18615E-05   132   0.164E-02    0.784E-03
DAV:   6    -0.102339073628E+03   -0.46444E-05   -0.57497E-06   132   0.841E-03    0.446E-03
DAV:   7    -0.102339090651E+03   -0.17023E-04   -0.25657E-06   120   0.591E-03    0.156E-03
DAV:   8    -0.102339105843E+03   -0.15192E-04   -0.10463E-06   120   0.340E-03    0.109E-03
DAV:   9    -0.102339122057E+03   -0.16214E-04   -0.10973E-06   120   0.256E-03    0.751E-04
DAV:  10    -0.102339135976E+03   -0.13919E-04   -0.12659E-06   120   0.232E-03    0.470E-04
DAV:  11    -0.102339140800E+03   -0.48245E-05   -0.18830E-07   108   0.117E-03    0.305E-04
DAV:  12    -0.102339145418E+03   -0.46177E-05   -0.30584E-07    96   0.109E-03    0.185E-04
DAV:  13    -0.102339146487E+03   -0.10694E-05   -0.29096E-08   108   0.436E-04    0.148E-04
DAV:  14    -0.102339147892E+03   -0.14046E-05   -0.41952E-08    96   0.457E-04    0.698E-05
DAV:  15    -0.102339148077E+03   -0.18488E-06   -0.16822E-10   108   0.184E-04
  18 F= -.10233915E+03 E0= -.10233915E+03  d E =-.840118E-11
       N       E                     dE             d eps       ncg     rms          rms(c)
DAV:   1    -0.102337361622E+03    0.17863E-02   -0.33232E-01    96   0.179E+00    0.264E-01
DAV:   2    -0.102339270003E+03   -0.19084E-02   -0.19905E-02   132   0.483E-01    0.146E-01
DAV:   3    -0.102339193036E+03    0.76968E-04   -0.56172E-04   132   0.919E-02    0.777E-02
DAV:   4    -0.102339188898E+03    0.41375E-05   -0.21211E-04   132   0.562E-02    0.154E-02
DAV:   5    -0.102339178614E+03    0.10284E-04   -0.41588E-05   132   0.249E-02    0.111E-02
DAV:   6    -0.102339178982E+03   -0.36719E-06   -0.69764E-06   132   0.915E-03
  19 F= -.10233918E+03 E0= -.10233918E+03  d E =-.101255E-10
       N       E                     dE             d eps       ncg     rms          rms(c)
DAV:   1    -0.102336819194E+03    0.23594E-02   -0.16858E-01    96   0.130E+00    0.185E-01
DAV:   2    -0.102338204071E+03   -0.13849E-02   -0.13793E-02   132   0.412E-01    0.119E-01
DAV:   3    -0.102338167806E+03    0.36266E-04   -0.30766E-04   144   0.710E-02    0.705E-02
DAV:   4    -0.102338195962E+03   -0.28157E-04   -0.18608E-04   132   0.535E-02    0.115E-02
DAV:   5    -0.102338195686E+03    0.27665E-06   -0.51721E-05   132   0.261E-02    0.951E-03
DAV:   6    -0.102338195958E+03   -0.27242E-06   -0.52125E-06   132   0.752E-03
  20 F= -.10233820E+03 E0= -.10233820E+03  d E =-.927093E-11
       N       E                     dE             d eps       ncg     rms          rms(c)
DAV:   1    -0.102336217129E+03    0.19786E-02   -0.35288E-01    96   0.172E+00    0.271E-01
DAV:   2    -0.102338448136E+03   -0.22310E-02   -0.22709E-02   132   0.513E-01    0.172E-01
DAV:   3    -0.102338357062E+03    0.91074E-04   -0.57744E-04   132   0.100E-01    0.869E-02
DAV:   4    -0.102338378034E+03   -0.20972E-04   -0.37308E-04   132   0.707E-02    0.180E-02
DAV:   5    -0.102338363689E+03    0.14345E-04   -0.65771E-05   132   0.296E-02    0.117E-02
DAV:   6    -0.102338365471E+03   -0.17825E-05   -0.13390E-05   132   0.997E-03    0.592E-03
DAV:   7    -0.102338378757E+03   -0.13285E-04   -0.10296E-06   120   0.340E-03    0.257E-03
DAV:   8    -0.102338396759E+03   -0.18003E-04   -0.20806E-06   120   0.405E-03    0.108E-03
DAV:   9    -0.102338413162E+03   -0.16403E-04   -0.16124E-06   120   0.306E-03    0.115E-03
DAV:  10    -0.102338427647E+03   -0.14485E-04   -0.12111E-06   120   0.249E-03    0.371E-04
DAV:  11    -0.102338431592E+03   -0.39455E-05   -0.12167E-07   108   0.100E-03    0.262E-04
DAV:  12    -0.102338437009E+03   -0.54170E-05   -0.24423E-07   108   0.103E-03    0.137E-04
DAV:  13    -0.102338438652E+03   -0.16433E-05   -0.56740E-08   108   0.511E-04    0.157E-04
DAV:  14    -0.102338440243E+03   -0.15908E-05   -0.27446E-08   108   0.400E-04    0.665E-05
DAV:  15    -0.102338440687E+03   -0.44392E-06   -0.25547E-09   108   0.214E-04
  21 F= -.10233844E+03 E0= -.10233844E+03  d E =-.116765E-10
       N       E                     dE             d eps       ncg     rms          rms(c)
DAV:   1    -0.102337674953E+03    0.76529E-03   -0.17153E-01    96   0.120E+00    0.181E-01
DAV:   2    -0.102338618507E+03   -0.94355E-03   -0.98291E-03   132   0.327E-01    0.106E-01
DAV:   3    -0.102338580980E+03    0.37527E-04   -0.24625E-04   144   0.596E-02    0.572E-02
DAV:   4    -0.102338577505E+03    0.34752E-05   -0.10944E-04   132   0.389E-02    0.107E-02
DAV:   5    -0.102338571749E+03    0.57563E-05   -0.20875E-05   132   0.170E-02    0.743E-03
DAV:   6    -0.102338570975E+03    0.77369E-06   -0.46530E-06   132   0.722E-03
  22 F= -.10233857E+03 E0= -.10233857E+03  d E =-.986112E-11
       N       E                     dE             d eps       ncg     rms          rms(c)
DAV:   1    -0.102336924127E+03    0.16476E-02   -0.34722E-01    96   0.168E+00    0.264E-01
DAV:   2    -0.102338869123E+03   -0.19450E-02   -0.19845E-02   132   0.475E-01    0.157E-01
DAV:   3    -0.102338821395E+03    0.47729E-04   -0.50895E-04   132   0.863E-02    0.860E-02
DAV:   4    -0.102338813476E+03    0.79182E-05   -0.22495E-04   132   0.555E-02    0.159E-02
DAV:   5    -0.102338806264E+03    0.72127E-05   -0.41064E-05   144   0.233E-02    0.108E-02
DAV:   6    -0.102338811475E+03   -0.52112E-05   -0.10269E-05   132   0.104E-02    0.606E-03
DAV:   7    -0.102338832025E+03   -0.20550E-04   -0.35099E-06   132   0.644E-03    0.231E-03
DAV:   8    -0.102338852055E+03   -0.20031E-04   -0.13880E-06   120   0.361E-03    0.120E-03
DAV:   9    -0.102338875376E+03   -0.23321E-04   -0.21551E-06   120   0.355E-03    0.100E-03
DAV:  10    -0.102338891740E+03   -0.16363E-04   -0.14940E-06   120   0.269E-03    0.652E-04
DAV:  11    -0.102338900515E+03   -0.87755E-05   -0.50463E-07   108   0.159E-03    0.248E-04
DAV:  12    -0.102338904672E+03   -0.41568E-05   -0.21193E-07   108   0.933E-04    0.176E-04
DAV:  13    -0.102338907006E+03   -0.23346E-05   -0.84455E-08   108   0.625E-04    0.123E-04
DAV:  14    -0.102338907797E+03   -0.79045E-06   -0.10700E-08   120   0.316E-04
  23 F= -.10233891E+03 E0= -.10233891E+03  d E =-.100628E-10
       N       E                     dE             d eps       ncg     rms          rms(c)
DAV:   1    -0.102338796210E+03    0.11080E-03   -0.17034E-01    96   0.118E+00    0.174E-01
DAV:   2    -0.102339652616E+03   -0.85641E-03   -0.88987E-03   132   0.305E-01    0.939E-02
DAV:   3    -0.102339630391E+03    0.22225E-04   -0.25998E-04   132   0.620E-02    0.482E-02
DAV:   4    -0.102339638660E+03   -0.82692E-05   -0.10116E-04   132   0.397E-02    0.106E-02
DAV:   5    -0.102339635141E+03    0.35188E-05   -0.23160E-05   132   0.180E-02    0.753E-03
DAV:   6    -0.102339635068E+03    0.73025E-07   -0.38340E-06   132   0.608E-03
  24 F= -.10233964E+03 E0= -.10233964E+03  d E =-.691937E-11
       N       E                     dE             d eps       ncg     rms          rms(c)
DAV:   1    -0.102337880188E+03    0.17550E-02   -0.33290E-01    96   0.161E+00    0.214E-01
DAV:   2    -0.102339646689E+03   -0.17665E-02   -0.17977E-02   132   0.425E-01    0.128E-01
DAV:   3    -0.102339626737E+03    0.19952E-04   -0.47416E-04   132   0.829E-02    0.657E-02
DAV:   4    -0.102339647058E+03   -0.20321E-04   -0.16826E-04   132   0.516E-02    0.135E-02
DAV:   5    -0.102339642177E+03    0.48807E-05   -0.37450E-05   132   0.232E-02    0.953E-03
DAV:   6    -0.102339644020E+03   -0.18423E-05   -0.64400E-06   132   0.800E-03    0.612E-03
DAV:   7    -0.102339651796E+03   -0.77767E-05   -0.93076E-07   108   0.451E-03    0.227E-03
DAV:   8    -0.102339661311E+03   -0.95143E-05   -0.17244E-06   120   0.500E-03    0.152E-03
DAV:   9    -0.102339674462E+03   -0.13152E-04   -0.90927E-07   108   0.345E-03    0.860E-04
DAV:  10    -0.102339682978E+03   -0.85151E-05   -0.54689E-07   108   0.210E-03    0.767E-04
DAV:  11    -0.102339687348E+03   -0.43706E-05   -0.13660E-07   120   0.114E-03    0.532E-04
DAV:  12    -0.102339693338E+03   -0.59900E-05   -0.18004E-07   108   0.102E-03    0.233E-04
DAV:  13    -0.102339695296E+03   -0.19578E-05   -0.43559E-08   120   0.524E-04    0.236E-04
DAV:  14    -0.102339697591E+03   -0.22953E-05   -0.35591E-08   108   0.432E-04    0.752E-05
DAV:  15    -0.102339698590E+03   -0.99880E-06   -0.15142E-08   108   0.292E-04
  25 F= -.10233970E+03 E0= -.10233970E+03  d E =-.150247E-10
       N       E                     dE             d eps       ncg     rms          rms(c)
DAV:   1    -0.102337691847E+03    0.20057E-02   -0.16568E-01    96   0.128E+00    0.154E-01
DAV:   2    -0.102338960382E+03   -0.12685E-02   -0.13140E-02   132   0.392E-01    0.106E-01
DAV:   3    -0.102338905833E+03    0.54549E-04   -0.29992E-04   132   0.705E-02    0.612E-02
DAV:   4    -0.102338892588E+03    0.13245E-04   -0.15089E-04   132   0.502E-02    0.108E-02
DAV:   5    -0.102338887071E+03    0.55166E-05   -0.43485E-05   144   0.242E-02    0.870E-03
DAV:   6    -0.102338887456E+03   -0.38457E-06   -0.48524E-06   132   0.723E-03
  26 F= -.10233889E+03 E0= -.10233889E+03  d E =-.120251E-10
       N       E                     dE             d eps       ncg     rms          rms(c)
DAV:   1    -0.102336328693E+03    0.25584E-02   -0.33621E-01    96   0.172E+00    0.246E-01
DAV:   2    -0.102338778434E+03   -0.24497E-02   -0.25716E-02   132   0.529E-01    0.163E-01
DAV:   3    -0.102338646276E+03    0.13216E-03   -0.64277E-04   132   0.103E-01    0.886E-02
DAV:   4    -0.102338655768E+03   -0.94929E-05   -0.36507E-04   132   0.718E-02    0.159E-02
DAV:   5    -0.102338648618E+03    0.71504E-05   -0.80682E-05   132   0.321E-02    0.121E-02
DAV:   6    -0.102338646778E+03    0.18398E-05   -0.96060E-06   144   0.921E-03    0.849E-03
DAV:   7    -0.102338652668E+03   -0.58900E-05   -0.96625E-07   108   0.386E-03    0.360E-03
DAV:   8    -0.102338663267E+03   -0.10599E-04   -0.17848E-06   132   0.490E-03    0.124E-03
DAV:   9    -0.102338672575E+03   -0.93080E-05   -0.90328E-07   120   0.276E-03    0.144E-03
DAV:  10    -0.102338685348E+03   -0.12772E-04   -0.54998E-07   108   0.187E-03    0.666E-04
DAV:  11    -0.102338690393E+03   -0.50451E-05   -0.25250E-07   108   0.115E-03    0.518E-04
DAV:  12    -0.102338696115E+03   -0.57225E-05   -0.16508E-07   108   0.939E-04    0.252E-04
DAV:  13    -0.102338699181E+03   -0.30654E-05   -0.90570E-08   108   0.618E-04    0.165E-04
DAV:  14    -0.102338701383E+03   -0.22017E-05   -0.31485E-08   108   0.427E-04    0.116E-04
DAV:  15    -0.102338702364E+03   -0.98124E-06   -0.11201E-08   108   0.285E-04
  27 F= -.10233870E+03 E0= -.10233870E+03  d E =-.713216E-11
       N       E                     dE             d eps       ncg     rms          rms(c)
DAV:   1    -0.102339084997E+03   -0.38361E-03   -0.16955E-01    96   0.123E+00    0.161E-01
DAV:   2    -0.102340173982E+03   -0.10890E-02   -0.11474E-02   132   0.358E-01    0.106E-01
DAV:   3    -0.102340116750E+03    0.57232E-04   -0.29177E-04   132   0.692E-02    0.598E-02
DAV:   4    -0.102340113327E+03    0.34229E-05   -0.14566E-04   132   0.454E-02    0.123E-02
DAV:   5    -0.102340109462E+03    0.38648E-05   -0.28061E-05   144   0.191E-02    0.829E-03
DAV:   6    -0.102340110398E+03   -0.93627E-06   -0.37800E-06   132   0.631E-03
  28 F= -.10234011E+03 E0= -.10234011E+03  d E =-.697201E-11
       N       E                     dE             d eps       ncg     rms          rms(c)
DAV:   1    -0.102338284264E+03    0.18252E-02   -0.33575E-01    96   0.168E+00    0.193E-01
DAV:   2    -0.102339866776E+03   -0.15825E-02   -0.16455E-02   120   0.423E-01    0.105E-01
DAV:   3    -0.102339864973E+03    0.18035E-05   -0.56099E-04   144   0.904E-02    0.516E-02
DAV:   4    -0.102339890442E+03   -0.25469E-04   -0.12125E-04   132   0.429E-02    0.135E-02
DAV:   5    -0.102339888847E+03    0.15949E-05   -0.24306E-05   144   0.187E-02    0.817E-03
DAV:   6    -0.102339889604E+03   -0.75741E-06   -0.61196E-06   144   0.815E-03
  29 F= -.10233989E+03 E0= -.10233989E+03  d E =-.165726E-10
       N       E                     dE             d eps       ncg     rms          rms(c)
DAV:   1    -0.102339127058E+03    0.76179E-03   -0.16894E-01    96   0.121E+00    0.146E-01
DAV:   2    -0.102339894992E+03   -0.76793E-03   -0.80788E-03   132   0.297E-01    0.763E-02
DAV:   3    -0.102339887474E+03    0.75180E-05   -0.24007E-04   144   0.593E-02    0.383E-02
DAV:   4    -0.102339902376E+03   -0.14902E-04   -0.66009E-05   132   0.306E-02    0.107E-02
DAV:   5    -0.102339901949E+03    0.42755E-06   -0.11607E-05   132   0.133E-02    0.533E-03
DAV:   6    -0.102339902619E+03   -0.67070E-06   -0.30096E-06   144   0.578E-03
  30 F= -.10233990E+03 E0= -.10233990E+03  d E =-.614695E-11
       N       E                     dE             d eps       ncg     rms          rms(c)
DAV:   1    -0.102337837869E+03    0.20641E-02   -0.34293E-01    96   0.173E+00    0.260E-01
DAV:   2    -0.102339393574E+03   -0.15557E-02   -0.16948E-02   132   0.458E-01    0.122E-01
DAV:   3    -0.102339337314E+03    0.56260E-04   -0.51459E-04   144   0.891E-02    0.681E-02
DAV:   4    -0.102339349737E+03   -0.12424E-04   -0.19042E-04   132   0.519E-02    0.178E-02
DAV:   5    -0.102339344695E+03    0.50423E-05   -0.34356E-05   132   0.222E-02    0.100E-02
DAV:   6    -0.102339344203E+03    0.49214E-06   -0.56538E-06   132   0.806E-03
  31 F= -.10233934E+03 E0= -.10233934E+03  d E =-.155355E-10
       N       E                     dE             d eps       ncg     rms          rms(c)
DAV:   1    -0.102338685536E+03    0.65916E-03   -0.16752E-01    96   0.124E+00    0.166E-01
DAV:   2    -0.102339784525E+03   -0.10990E-02   -0.11610E-02   132   0.357E-01    0.909E-02
DAV:   3    -0.102339745091E+03    0.39434E-04   -0.33911E-04   144   0.719E-02    0.495E-02
DAV:   4    -0.102339755600E+03   -0.10510E-04   -0.11778E-04   132   0.414E-02    0.120E-02
DAV:   5    -0.102339755354E+03    0.24640E-06   -0.25123E-05   132   0.187E-02    0.751E-03
DAV:   6    -0.102339755643E+03   -0.28849E-06   -0.35671E-06   132   0.647E-03
  32 F= -.10233976E+03 E0= -.10233976E+03  d E =-.553386E-11
       N       E                     dE             d eps       ncg     rms          rms(c)
DAV:   1    -0.102337594727E+03    0.21606E-02   -0.33746E-01    96   0.170E+00    0.209E-01
DAV:   2    -0.102339469144E+03   -0.18744E-02   -0.19486E-02   120   0.469E-01    0.129E-01
DAV:   3    -0.102339421109E+03    0.48035E-04   -0.57052E-04   132   0.951E-02    0.710E-02
DAV:   4    -0.102339433321E+03   -0.12211E-04   -0.21222E-04   132   0.562E-02    0.155E-02
DAV:   5    -0.102339427234E+03    0.60871E-05   -0.46524E-05   132   0.251E-02    0.102E-02
DAV:   6    -0.102339426318E+03    0.91580E-06   -0.75097E-06   132   0.889E-03
  33 F= -.10233943E+03 E0= -.10233943E+03  d E =-.206158E-10
       N       E                     dE             d eps       ncg     rms          rms(c)
DAV:   1    -0.102338267937E+03    0.11593E-02   -0.16823E-01    96   0.120E+00    0.138E-01
DAV:   2    -0.102339054181E+03   -0.78624E-03   -0.81814E-03   120   0.301E-01    0.754E-02
DAV:   3    -0.102339053402E+03    0.77904E-06   -0.26897E-04   156   0.626E-02    0.386E-02
DAV:   4    -0.102339067906E+03   -0.14504E-04   -0.61841E-05   132   0.305E-02    0.100E-02
DAV:   5    -0.102339068973E+03   -0.10672E-05   -0.12750E-05   144   0.135E-02    0.593E-03
DAV:   6    -0.102339071346E+03   -0.23729E-05   -0.32307E-06   132   0.589E-03    0.311E-03
DAV:   7    -0.102339075222E+03   -0.38761E-05   -0.42414E-07   108   0.235E-03    0.119E-03
DAV:   8    -0.102339079498E+03   -0.42764E-05   -0.28640E-07   108   0.173E-03    0.493E-04
DAV:   9    -0.102339083352E+03   -0.38540E-05   -0.18071E-07   108   0.133E-03    0.354E-04
DAV:  10    -0.102339088020E+03   -0.46681E-05   -0.34533E-07   108   0.147E-03    0.180E-04
DAV:  11    -0.102339089039E+03   -0.10188E-05   -0.53775E-08   120   0.756E-04    0.167E-04
DAV:  12    -0.102339090166E+03   -0.11273E-05   -0.21158E-08   108   0.426E-04    0.115E-04
DAV:  13    -0.102339091435E+03   -0.12686E-05   -0.35494E-08   108   0.398E-04    0.575E-05
DAV:  14    -0.102339092187E+03   -0.75229E-06   -0.12965E-08   108   0.262E-04
  34 F= -.10233909E+03 E0= -.10233909E+03  d E =-.101767E-10
       N       E                     dE             d eps       ncg     rms          rms(c)
DAV:   1    -0.102336639248E+03    0.24522E-02   -0.33797E-01    96   0.175E+00    0.236E-01
DAV:   2    -0.102338931282E+03   -0.22920E-02   -0.24298E-02   132   0.513E-01    0.156E-01
DAV:   3    -0.102338790890E+03    0.14039E-03   -0.59662E-04   132   0.996E-02    0.848E-02
DAV:   4    -0.102338789202E+03    0.16879E-05   -0.34349E-04   132   0.685E-02    0.158E-02
DAV:   5    -0.102338782137E+03    0.70650E-05   -0.66311E-05   144   0.295E-02    0.119E-02
DAV:   6    -0.102338782087E+03    0.50021E-07   -0.89420E-06   132   0.913E-03
  35 F= -.10233878E+03 E0= -.10233878E+03  d E =-.946530E-11
       N       E                     dE             d eps       ncg     rms          rms(c)
DAV:   1    -0.102339184119E+03   -0.40198E-03   -0.16881E-01    96   0.122E+00    0.159E-01
DAV:   2    -0.102340136634E+03   -0.95251E-03   -0.98702E-03   132   0.335E-01    0.934E-02
DAV:   3    -0.102340117237E+03    0.19397E-04   -0.27414E-04   132   0.657E-02    0.509E-02
DAV:   4    -0.102340147383E+03   -0.30146E-04   -0.11293E-04   132   0.401E-02    0.121E-02
DAV:   5    -0.102340151907E+03   -0.45243E-05   -0.21016E-05   132   0.171E-02    0.733E-03
DAV:   6    -0.102340153838E+03   -0.19304E-05   -0.33371E-06   132   0.616E-03    0.469E-03
DAV:   7    -0.102340157133E+03   -0.32955E-05   -0.43910E-07   108   0.262E-03    0.150E-03
DAV:   8    -0.102340159544E+03   -0.24114E-05   -0.23412E-07   108   0.196E-03    0.505E-04
DAV:   9    -0.102340162380E+03   -0.28353E-05   -0.18600E-07   108   0.158E-03    0.446E-04
DAV:  10    -0.102340164810E+03   -0.24300E-05   -0.15241E-07   108   0.121E-03    0.282E-04
DAV:  11    -0.102340165572E+03   -0.76254E-06   -0.31197E-08   120   0.649E-04
  36 F= -.10234017E+03 E0= -.10234017E+03  d E =-.735438E-11
       N       E                     dE             d eps       ncg     rms          rms(c)
DAV:   1    -0.102338292870E+03    0.18719E-02   -0.34019E-01    96   0.169E+00    0.253E-01
DAV:   2    -0.102339665439E+03   -0.13726E-02   -0.15149E-02   132   0.426E-01    0.108E-01
DAV:   3    -0.102339633338E+03    0.32100E-04   -0.49952E-04   132   0.840E-02    0.587E-02
DAV:   4    -0.102339646528E+03   -0.13190E-04   -0.11893E-04   132   0.416E-02    0.171E-02
DAV:   5    -0.102339643768E+03    0.27599E-05   -0.24158E-05   132   0.194E-02    0.856E-03
DAV:   6    -0.102339644907E+03   -0.11390E-05   -0.51749E-06   132   0.779E-03    0.518E-03
DAV:   7    -0.102339648891E+03   -0.39841E-05   -0.38637E-07   108   0.233E-03    0.212E-03
DAV:   8    -0.102339653886E+03   -0.49948E-05   -0.37637E-07   108   0.243E-03    0.846E-04
DAV:   9    -0.102339660334E+03   -0.64481E-05   -0.38572E-07   108   0.240E-03    0.527E-04
DAV:  10    -0.102339665904E+03   -0.55701E-05   -0.41656E-07   108   0.197E-03    0.552E-04
DAV:  11    -0.102339667999E+03   -0.20948E-05   -0.90855E-08   108   0.110E-03    0.323E-04
DAV:  12    -0.102339669722E+03   -0.17226E-05   -0.42002E-08   108   0.582E-04    0.132E-04
DAV:  13    -0.102339670958E+03   -0.12360E-05   -0.21259E-08   108   0.364E-04    0.104E-04
DAV:  14    -0.102339672122E+03   -0.11647E-05   -0.23324E-08   108   0.339E-04    0.120E-04
DAV:  15    -0.102339672549E+03   -0.42667E-06   -0.25913E-10   108   0.191E-04
  37 F= -.10233967E+03 E0= -.10233967E+03  d E =-.121478E-10
       N       E                     dE             d eps       ncg     rms          rms(c)
DAV:   1    -0.102338925247E+03    0.74688E-03   -0.18269E-01    96   0.126E+00    0.160E-01
DAV:   2    -0.102339938986E+03   -0.10137E-02   -0.11284E-02   132   0.324E-01    0.734E-02
DAV:   3    -0.102339913180E+03    0.25806E-04   -0.26203E-04   144   0.576E-02    0.403E-02
DAV:   4    -0.102339909305E+03    0.38757E-05   -0.60186E-05   132   0.279E-02    0.107E-02
DAV:   5    -0.102339906723E+03    0.25813E-05   -0.93968E-06   132   0.121E-02    0.625E-03
DAV:   6    -0.102339906992E+03   -0.26867E-06   -0.22772E-06   120   0.573E-03
  38 F= -.10233991E+03 E0= -.10233991E+03  d E =-.217710E-10
       N       E                     dE             d eps       ncg     rms          rms(c)
DAV:   1    -0.102338734570E+03    0.11722E-02   -0.40676E-01    96   0.163E+00    0.180E-01
DAV:   2    -0.102340132200E+03   -0.13976E-02   -0.16528E-02   120   0.351E-01    0.905E-02
DAV:   3    -0.102340091692E+03    0.40509E-04   -0.32974E-04   144   0.640E-02    0.472E-02
DAV:   4    -0.102340068544E+03    0.23148E-04   -0.82833E-05   132   0.389E-02    0.101E-02
DAV:   5    -0.102340062366E+03    0.61782E-05   -0.22830E-05   132   0.185E-02    0.722E-03
DAV:   6    -0.102340063173E+03   -0.80704E-06   -0.42641E-06   132   0.682E-03
  39 F= -.10234006E+03 E0= -.10234006E+03  d E =-.164606E-10
       N       E                     dE             d eps       ncg     rms          rms(c)
DAV:   1    -0.102338390991E+03    0.16714E-02   -0.19872E-01    96   0.114E+00    0.139E-01
DAV:   2    -0.102339204640E+03   -0.81365E-03   -0.97919E-03   132   0.268E-01    0.826E-02
DAV:   3    -0.102339163203E+03    0.41437E-04   -0.16418E-04   132   0.453E-02    0.416E-02
DAV:   4    -0.102339151566E+03    0.11637E-04   -0.63116E-05   132   0.295E-02    0.807E-03
DAV:   5    -0.102339145491E+03    0.60749E-05   -0.11262E-05   132   0.125E-02    0.487E-03
DAV:   6    -0.102339144766E+03    0.72514E-06   -0.31296E-06   132   0.502E-03
  40 F= -.10233914E+03 E0= -.10233914E+03  d E =-.221740E-10
       N       E                     dE             d eps       ncg     rms          rms(c)
DAV:   1    -0.102338257342E+03    0.88815E-03   -0.40032E-01    96   0.163E+00    0.193E-01
DAV:   2    -0.102339816394E+03   -0.15591E-02   -0.18632E-02   120   0.363E-01    0.109E-01
DAV:   3    -0.102339747841E+03    0.68552E-04   -0.33133E-04   144   0.637E-02    0.572E-02
DAV:   4    -0.102339704855E+03    0.42986E-04   -0.11184E-04   132   0.406E-02    0.109E-02
DAV:   5    -0.102339693419E+03    0.11436E-04   -0.24470E-05   132   0.184E-02    0.691E-03
DAV:   6    -0.102339695498E+03   -0.20789E-05   -0.55356E-06   132   0.694E-03    0.399E-03
DAV:   7    -0.102339706401E+03   -0.10903E-04   -0.11507E-06   120   0.344E-03    0.164E-03
DAV:   8    -0.102339719873E+03   -0.13472E-04   -0.11911E-06   120   0.286E-03    0.968E-04
DAV:   9    -0.102339733540E+03   -0.13667E-04   -0.10601E-06   120   0.235E-03    0.665E-04
DAV:  10    -0.102339746085E+03   -0.12545E-04   -0.11534E-06   120   0.209E-03    0.339E-04
DAV:  11    -0.102339749094E+03   -0.30091E-05   -0.74226E-08   108   0.815E-04    0.236E-04
DAV:  12    -0.102339753656E+03   -0.45622E-05   -0.20552E-07   108   0.921E-04    0.123E-04
DAV:  13    -0.102339755083E+03   -0.14266E-05   -0.49952E-08   108   0.459E-04    0.960E-05
DAV:  14    -0.102339756202E+03   -0.11194E-05   -0.13126E-08   108   0.314E-04    0.379E-05
DAV:  15    -0.102339756613E+03   -0.41116E-06   -0.88894E-10   108   0.188E-04
  41 F= -.10233976E+03 E0= -.10233976E+03  d E =-.664636E-11
       N       E                     dE             d eps       ncg     rms          rms(c)
DAV:   1    -0.102339301749E+03    0.45445E-03   -0.19943E-01    96   0.116E+00    0.144E-01
DAV:   2    -0.102340069426E+03   -0.76768E-03   -0.94362E-03   132   0.263E-01    0.817E-02
DAV:   3    -0.102340010185E+03    0.59241E-04   -0.15833E-04   132   0.445E-02    0.416E-02
DAV:   4    -0.102339985164E+03    0.25021E-04   -0.60772E-05   132   0.293E-02    0.835E-03
DAV:   5    -0.102339978837E+03    0.63276E-05   -0.11858E-05   132   0.128E-02    0.497E-03
DAV:   6    -0.102339980139E+03   -0.13025E-05   -0.31266E-06   132   0.512E-03    0.280E-03
DAV:   7    -0.102339987393E+03   -0.72544E-05   -0.63486E-07   108   0.266E-03    0.123E-03
DAV:   8    -0.102339998968E+03   -0.11575E-04   -0.80829E-07   120   0.223E-03    0.792E-04
DAV:   9    -0.102340010906E+03   -0.11938E-04   -0.62643E-07   120   0.177E-03    0.517E-04
DAV:  10    -0.102340019945E+03   -0.90391E-05   -0.39575E-07   108   0.130E-03    0.248E-04
DAV:  11    -0.102340023677E+03   -0.37317E-05   -0.90303E-08   108   0.688E-04    0.163E-04
DAV:  12    -0.102340027842E+03   -0.41649E-05   -0.12259E-07    96   0.690E-04    0.909E-05
DAV:  13    -0.102340028974E+03   -0.11323E-05   -0.14613E-08   108   0.314E-04    0.585E-05
DAV:  14    -0.102340030098E+03   -0.11241E-05   -0.10206E-08    96   0.253E-04    0.322E-05
DAV:  15    -0.102340030486E+03   -0.38800E-06    0.26625E-09   108   0.137E-04
  42 F= -.10234003E+03 E0= -.10234003E+03  d E =-.662398E-11
       N       E                     dE             d eps       ncg     rms          rms(c)
DAV:   1    -0.102338497521E+03    0.15326E-02   -0.40781E-01    96   0.164E+00    0.217E-01
DAV:   2    -0.102339813789E+03   -0.13163E-02   -0.16074E-02   132   0.356E-01    0.926E-02
DAV:   3    -0.102339747249E+03    0.66540E-04   -0.30599E-04   132   0.606E-02    0.484E-02
DAV:   4    -0.102339719840E+03    0.27409E-04   -0.82194E-05   132   0.370E-02    0.116E-02
DAV:   5    -0.102339714604E+03    0.52364E-05   -0.20108E-05   132   0.173E-02    0.675E-03
DAV:   6    -0.102339717572E+03   -0.29676E-05   -0.42587E-06   132   0.689E-03    0.377E-03
DAV:   7    -0.102339725972E+03   -0.84002E-05   -0.59789E-07   108   0.285E-03    0.165E-03
DAV:   8    -0.102339737104E+03   -0.11132E-04   -0.83741E-07   120   0.277E-03    0.905E-04
DAV:   9    -0.102339749467E+03   -0.12363E-04   -0.81904E-07   120   0.252E-03    0.578E-04
DAV:  10    -0.102339759502E+03   -0.10035E-04   -0.75154E-07   120   0.204E-03    0.437E-04
DAV:  11    -0.102339762150E+03   -0.26487E-05   -0.65203E-08   108   0.882E-04    0.246E-04
DAV:  12    -0.102339765553E+03   -0.34029E-05   -0.97683E-08   108   0.708E-04    0.150E-04
DAV:  13    -0.102339767530E+03   -0.19764E-05   -0.55175E-08   108   0.476E-04    0.133E-04
DAV:  14    -0.102339768592E+03   -0.10623E-05   -0.12443E-08   108   0.277E-04    0.529E-05
DAV:  15    -0.102339769175E+03   -0.58314E-06   -0.22853E-09   108   0.196E-04
  43 F= -.10233977E+03 E0= -.10233977E+03  d E =-.186615E-10
       N       E                     dE             d eps       ncg     rms          rms(c)
DAV:   1    -0.102337900771E+03    0.18678E-02   -0.19592E-01    96   0.131E+00    0.157E-01
DAV:   2    -0.102338995494E+03   -0.10947E-02   -0.13302E-02   132   0.335E-01    0.802E-02
DAV:   3    -0.102338956102E+03    0.39392E-04   -0.25727E-04   144   0.520E-02    0.445E-02
DAV:   4    -0.102338930803E+03    0.25299E-04   -0.57135E-05   132   0.295E-02    0.998E-03
DAV:   5    -0.102338923132E+03    0.76718E-05   -0.13236E-05   144   0.138E-02    0.546E-03
DAV:   6    -0.102338923618E+03   -0.48689E-06   -0.27275E-06   132   0.629E-03
  44 F= -.10233892E+03 E0= -.10233892E+03  d E =-.131550E-10
       N       E                     dE             d eps       ncg     rms          rms(c)
DAV:   1    -0.102337470893E+03    0.14522E-02   -0.40345E-01    96   0.181E+00    0.205E-01
DAV:   2    -0.102339074849E+03   -0.16040E-02   -0.19179E-02   120   0.441E-01    0.120E-01
DAV:   3    -0.102338993840E+03    0.81008E-04   -0.27542E-04   132   0.562E-02    0.648E-02
DAV:   4    -0.102338917480E+03    0.76360E-04   -0.11216E-04   132   0.370E-02    0.108E-02
DAV:   5    -0.102338905881E+03    0.11599E-04   -0.16493E-05   132   0.162E-02    0.631E-03
DAV:   6    -0.102338917450E+03   -0.11569E-04   -0.10256E-05   132   0.106E-02    0.326E-03
DAV:   7    -0.102338941289E+03   -0.23840E-04   -0.42748E-06   132   0.657E-03    0.216E-03
DAV:   8    -0.102338967704E+03   -0.26414E-04   -0.18900E-06   108   0.346E-03    0.109E-03
DAV:   9    -0.102338994200E+03   -0.26496E-04   -0.26213E-06   120   0.348E-03    0.797E-04
DAV:  10    -0.102339013844E+03   -0.19643E-04   -0.18643E-06   120   0.272E-03    0.315E-04
DAV:  11    -0.102339020236E+03   -0.63927E-05   -0.28167E-07   108   0.123E-03    0.258E-04
DAV:  12    -0.102339024299E+03   -0.40627E-05   -0.16127E-07   108   0.822E-04    0.139E-04
DAV:  13    -0.102339026220E+03   -0.19206E-05   -0.54754E-08   108   0.495E-04    0.661E-05
DAV:  14    -0.102339027195E+03   -0.97516E-06   -0.96326E-09   108   0.296E-04
  45 F= -.10233903E+03 E0= -.10233903E+03  d E =-.101100E-10
       N       E                     dE             d eps       ncg     rms          rms(c)
DAV:   1    -0.102339433028E+03   -0.40681E-03   -0.20234E-01   120   0.130E+00    0.149E-01
DAV:   2    -0.102340251894E+03   -0.81887E-03   -0.98233E-03   132   0.309E-01    0.782E-02
DAV:   3    -0.102340214523E+03    0.37370E-04   -0.18696E-04   144   0.457E-02    0.419E-02
DAV:   4    -0.102340191336E+03    0.23188E-04   -0.46590E-05   132   0.280E-02    0.839E-03
DAV:   5    -0.102340185252E+03    0.60836E-05   -0.13244E-05   132   0.139E-02    0.531E-03
DAV:   6    -0.102340185992E+03   -0.73960E-06   -0.31131E-06   132   0.567E-03
  46 F= -.10234019E+03 E0= -.10234019E+03  d E =-.464535E-11
       N       E                     dE             d eps       ncg     rms          rms(c)
DAV:   1    -0.102338737246E+03    0.14480E-02   -0.40998E-01   120   0.174E+00    0.198E-01
DAV:   2    -0.102340160015E+03   -0.14228E-02   -0.16784E-02   120   0.371E-01    0.852E-02
DAV:   3    -0.102340149832E+03    0.10183E-04   -0.39072E-04   156   0.676E-02    0.452E-02
DAV:   4    -0.102340147702E+03    0.21299E-05   -0.63665E-05   132   0.396E-02    0.101E-02
DAV:   5    -0.102340149147E+03   -0.14448E-05   -0.30084E-05   132   0.207E-02    0.757E-03
DAV:   6    -0.102340150643E+03   -0.14966E-05   -0.31235E-06   144   0.588E-03    0.548E-03
DAV:   7    -0.102340154717E+03   -0.40733E-05   -0.61871E-07   108   0.322E-03    0.199E-03
DAV:   8    -0.102340159455E+03   -0.47385E-05   -0.75355E-07   108   0.318E-03    0.117E-03
DAV:   9    -0.102340168748E+03   -0.92929E-05   -0.72171E-07   108   0.346E-03    0.709E-04
DAV:  10    -0.102340172604E+03   -0.38559E-05   -0.39233E-07   108   0.200E-03    0.864E-04
DAV:  11    -0.102340173772E+03   -0.11685E-05   -0.37394E-08   108   0.797E-04    0.673E-04
DAV:  12    -0.102340176947E+03   -0.31747E-05   -0.73667E-08   108   0.765E-04    0.161E-04
DAV:  13    -0.102340179209E+03   -0.22614E-05   -0.67214E-08   108   0.610E-04    0.256E-04
DAV:  14    -0.102340180626E+03   -0.14171E-05   -0.22726E-08   108   0.419E-04    0.820E-05
DAV:  15    -0.102340181230E+03   -0.60478E-06   -0.66263E-09   108   0.245E-04
  47 F= -.10234018E+03 E0= -.10234018E+03  d E =-.278446E-10
       N       E                     dE             d eps       ncg     rms          rms(c)
DAV:   1    -0.102337965901E+03    0.22147E-02   -0.20420E-01    96   0.129E+00    0.147E-01
DAV:   2    -0.102338693927E+03   -0.72803E-03   -0.87944E-03   132   0.289E-01    0.715E-02
DAV:   3    -0.102338665370E+03    0.28557E-04   -0.18828E-04   144   0.469E-02    0.369E-02
DAV:   4    -0.102338652785E+03    0.12584E-04   -0.40621E-05   132   0.288E-02    0.816E-03
DAV:   5    -0.102338649078E+03    0.37068E-05   -0.14313E-05   144   0.144E-02    0.528E-03
DAV:   6    -0.102338649860E+03   -0.78207E-06   -0.24328E-06   132   0.509E-03
  48 F= -.10233865E+03 E0= -.10233865E+03  d E =-.129644E-10
       N       E                     dE             d eps       ncg     rms          rms(c)
DAV:   1    -0.102337253696E+03    0.13954E-02   -0.40426E-01    96   0.184E+00    0.215E-01
DAV:   2    -0.102338730735E+03   -0.14770E-02   -0.18072E-02   132   0.440E-01    0.126E-01
DAV:   3    -0.102338634753E+03    0.95982E-04   -0.30368E-04   132   0.615E-02    0.640E-02
DAV:   4    -0.102338579525E+03    0.55228E-04   -0.12328E-04   132   0.412E-02    0.112E-02
DAV:   5    -0.102338569733E+03    0.97923E-05   -0.22597E-05   132   0.179E-02    0.700E-03
DAV:   6    -0.102338580200E+03   -0.10467E-04   -0.10863E-05   132   0.928E-03    0.372E-03
DAV:   7    -0.102338600743E+03   -0.20543E-04   -0.16734E-06   120   0.428E-03    0.201E-03
DAV:   8    -0.102338632516E+03   -0.31773E-04   -0.34960E-06   120   0.415E-03    0.107E-03
DAV:   9    -0.102338651280E+03   -0.18764E-04   -0.14101E-06   120   0.266E-03    0.765E-04
DAV:  10    -0.102338669485E+03   -0.18205E-04   -0.16261E-06   120   0.248E-03    0.322E-04
DAV:  11    -0.102338676206E+03   -0.67205E-05   -0.28214E-07   108   0.117E-03    0.273E-04
DAV:  12    -0.102338681637E+03   -0.54311E-05   -0.33008E-07   108   0.108E-03    0.115E-04
DAV:  13    -0.102338682708E+03   -0.10708E-05   -0.30098E-08   120   0.412E-04    0.736E-05
DAV:  14    -0.102338683826E+03   -0.11186E-05   -0.15383E-08   108   0.325E-04    0.466E-05
DAV:  15    -0.102338684208E+03   -0.38177E-06   -0.36373E-10   108   0.176E-04
  49 F= -.10233868E+03 E0= -.10233868E+03  d E =-.763940E-11
       N       E                     dE             d eps       ncg     rms          rms(c)
DAV:   1    -0.102338788879E+03   -0.10505E-03   -0.20013E-01    96   0.132E+00    0.158E-01
DAV:   2    -0.102339893102E+03   -0.11042E-02   -0.13311E-02   132   0.347E-01    0.829E-02
DAV:   3    -0.102339846800E+03    0.46302E-04   -0.27182E-04   144   0.547E-02    0.468E-02
DAV:   4    -0.102339815740E+03    0.31060E-04   -0.63643E-05   132   0.328E-02    0.990E-03
DAV:   5    -0.102339805865E+03    0.98750E-05   -0.18770E-05   132   0.164E-02    0.672E-03
DAV:   6    -0.102339806437E+03   -0.57249E-06   -0.37641E-06   132   0.670E-03
  50 F= -.10233981E+03 E0= -.10233981E+03  d E =-.939335E-11
       N       E                     dE             d eps       ncg     rms          rms(c)
DAV:   1    -0.102338526133E+03    0.12797E-02   -0.41014E-01    96   0.170E+00    0.222E-01
DAV:   2    -0.102339910587E+03   -0.13845E-02   -0.16256E-02   120   0.375E-01    0.100E-01
DAV:   3    -0.102339873465E+03    0.37122E-04   -0.39106E-04   156   0.691E-02    0.528E-02
DAV:   4    -0.102339866249E+03    0.72157E-05   -0.87128E-05   132   0.410E-02    0.120E-02
DAV:   5    -0.102339864635E+03    0.16139E-05   -0.28666E-05   132   0.204E-02    0.840E-03
DAV:   6    -0.102339865637E+03   -0.10020E-05   -0.43611E-06   132   0.702E-03    0.528E-03
DAV:   7    -0.102339870014E+03   -0.43771E-05   -0.75685E-07   108   0.350E-03    0.221E-03
DAV:   8    -0.102339876639E+03   -0.66250E-05   -0.86632E-07   108   0.333E-03    0.991E-04
DAV:   9    -0.102339886923E+03   -0.10284E-04   -0.73139E-07   108   0.294E-03    0.644E-04
DAV:  10    -0.102339892728E+03   -0.58056E-05   -0.39290E-07   108   0.188E-03    0.498E-04
DAV:  11    -0.102339895535E+03   -0.28065E-05   -0.71242E-08   108   0.915E-04    0.344E-04
DAV:  12    -0.102339899329E+03   -0.37947E-05   -0.11589E-07   108   0.816E-04    0.199E-04
DAV:  13    -0.102339900494E+03   -0.11651E-05   -0.22683E-08   108   0.392E-04    0.193E-04
DAV:  14    -0.102339901835E+03   -0.13406E-05   -0.20338E-08   108   0.364E-04    0.649E-05
DAV:  15    -0.102339902431E+03   -0.59582E-06   -0.42816E-09   108   0.225E-04
  51 F= -.10233990E+03 E0= -.10233990E+03  d E =-.883396E-11
       N       E                     dE             d eps       ncg     rms          rms(c)
DAV:   1    -0.102338442357E+03    0.14595E-02   -0.20175E-01    96   0.125E+00    0.152E-01
DAV:   2    -0.102339260425E+03   -0.81807E-03   -0.99003E-03   132   0.293E-01    0.859E-02
DAV:   3    -0.102339203808E+03    0.56617E-04   -0.16209E-04   132   0.433E-02    0.465E-02
DAV:   4    -0.102339165484E+03    0.38323E-04   -0.57700E-05   120   0.279E-02    0.847E-03
DAV:   5    -0.102339160959E+03    0.45250E-05   -0.10668E-05   132   0.127E-02    0.503E-03
DAV:   6    -0.102339169032E+03   -0.80731E-05   -0.45424E-06   132   0.657E-03    0.272E-03
DAV:   7    -0.102339185155E+03   -0.16123E-04   -0.18557E-06   120   0.432E-03    0.141E-03
DAV:   8    -0.102339206223E+03   -0.21068E-04   -0.18316E-06   120   0.349E-03    0.861E-04
DAV:   9    -0.102339219642E+03   -0.13419E-04   -0.10662E-06   120   0.243E-03    0.641E-04
DAV:  10    -0.102339230350E+03   -0.10708E-04   -0.73721E-07   120   0.175E-03    0.297E-04
DAV:  11    -0.102339234710E+03   -0.43598E-05   -0.17679E-07   108   0.899E-04    0.239E-04
DAV:  12    -0.102339238631E+03   -0.39206E-05   -0.21489E-07   108   0.906E-04    0.116E-04
DAV:  13    -0.102339239597E+03   -0.96576E-06   -0.28669E-08   108   0.405E-04
  52 F= -.10233924E+03 E0= -.10233924E+03  d E =-.996146E-11
       N       E                     dE             d eps       ncg     rms          rms(c)
DAV:   1    -0.102337717827E+03    0.15208E-02   -0.40389E-01    96   0.172E+00    0.213E-01
DAV:   2    -0.102339318829E+03   -0.16010E-02   -0.19269E-02   132   0.422E-01    0.117E-01
DAV:   3    -0.102339220101E+03    0.98727E-04   -0.32947E-04   132   0.620E-02    0.619E-02
DAV:   4    -0.102339164269E+03    0.55833E-04   -0.10944E-04   132   0.385E-02    0.120E-02
DAV:   5    -0.102339150766E+03    0.13503E-04   -0.19560E-05   132   0.177E-02    0.694E-03
DAV:   6    -0.102339153788E+03   -0.30214E-05   -0.76402E-06   132   0.928E-03    0.381E-03
DAV:   7    -0.102339169568E+03   -0.15780E-04   -0.27024E-06   132   0.596E-03    0.186E-03
DAV:   8    -0.102339191815E+03   -0.22247E-04   -0.15201E-06   120   0.407E-03    0.122E-03
DAV:   9    -0.102339212796E+03   -0.20981E-04   -0.12931E-06   120   0.291E-03    0.805E-04
DAV:  10    -0.102339229916E+03   -0.17120E-04   -0.76364E-07   120   0.192E-03    0.412E-04
DAV:  11    -0.102339238273E+03   -0.83568E-05   -0.17771E-07   108   0.994E-04    0.280E-04
DAV:  12    -0.102339246763E+03   -0.84905E-05   -0.26350E-07   108   0.103E-03    0.157E-04
DAV:  13    -0.102339249052E+03   -0.22893E-05   -0.32860E-08   120   0.460E-04    0.885E-05
DAV:  14    -0.102339250785E+03   -0.17327E-05   -0.14294E-08   108   0.331E-04    0.488E-05
DAV:  15    -0.102339251360E+03   -0.57468E-06   -0.80545E-10   108   0.185E-04
  53 F= -.10233925E+03 E0= -.10233925E+03  d E =-.895745E-11
       N       E                     dE             d eps       ncg     rms          rms(c)
DAV:   1    -0.102337854418E+03    0.13964E-02   -0.20112E-01    96   0.121E+00    0.156E-01
DAV:   2    -0.102338724370E+03   -0.86995E-03   -0.10520E-02   132   0.312E-01    0.911E-02
DAV:   3    -0.102338665524E+03    0.58846E-04   -0.16413E-04   132   0.448E-02    0.492E-02
DAV:   4    -0.102338635166E+03    0.30358E-04   -0.73118E-05   132   0.318E-02    0.826E-03
DAV:   5    -0.102338629623E+03    0.55430E-05   -0.15416E-05   132   0.144E-02    0.536E-03
DAV:   6    -0.102338634142E+03   -0.45185E-05   -0.55117E-06   132   0.644E-03    0.315E-03
DAV:   7    -0.102338645775E+03   -0.11634E-04   -0.80951E-07   108   0.287E-03    0.159E-03
DAV:   8    -0.102338665239E+03   -0.19463E-04   -0.21140E-06   108   0.319E-03    0.920E-04
DAV:   9    -0.102338677501E+03   -0.12263E-04   -0.70109E-07   108   0.205E-03    0.668E-04
DAV:  10    -0.102338690414E+03   -0.12913E-04   -0.11667E-06   120   0.202E-03    0.271E-04
DAV:  11    -0.102338694891E+03   -0.44762E-05   -0.14091E-07   108   0.955E-04    0.240E-04
DAV:  12    -0.102338698122E+03   -0.32318E-05   -0.10095E-07    96   0.696E-04    0.139E-04
DAV:  13    -0.102338699513E+03   -0.13903E-05   -0.32311E-08   108   0.400E-04    0.904E-05
DAV:  14    -0.102338700374E+03   -0.86160E-06   -0.43097E-09   108   0.248E-04
  54 F= -.10233870E+03 E0= -.10233870E+03  d E =-.105346E-10
       N       E                     dE             d eps       ncg     rms          rms(c)
DAV:   1    -0.102336993796E+03    0.17057E-02   -0.39617E-01    96   0.167E+00    0.213E-01
DAV:   2    -0.102338733143E+03   -0.17393E-02   -0.21254E-02   132   0.414E-01    0.133E-01
DAV:   3    -0.102338614342E+03    0.11880E-03   -0.31532E-04   132   0.623E-02    0.727E-02
DAV:   4    -0.102338554229E+03    0.60113E-04   -0.15407E-04   132   0.454E-02    0.118E-02
DAV:   5    -0.102338548108E+03    0.61202E-05   -0.31160E-05   132   0.204E-02    0.770E-03
DAV:   6    -0.102338562562E+03   -0.14454E-04   -0.12104E-05   120   0.908E-03    0.428E-03
DAV:   7    -0.102338590466E+03   -0.27904E-04   -0.24378E-06   120   0.447E-03    0.219E-03
DAV:   8    -0.102338632165E+03   -0.41699E-04   -0.50214E-06   132   0.480E-03    0.132E-03
DAV:   9    -0.102338653299E+03   -0.21135E-04   -0.15391E-06   120   0.271E-03    0.954E-04
DAV:  10    -0.102338675496E+03   -0.22197E-04   -0.20670E-06   120   0.276E-03    0.406E-04
DAV:  11    -0.102338683424E+03   -0.79281E-05   -0.34294E-07   108   0.128E-03    0.332E-04
DAV:  12    -0.102338689179E+03   -0.57549E-05   -0.30704E-07   108   0.107E-03    0.142E-04
DAV:  13    -0.102338690764E+03   -0.15854E-05   -0.42532E-08   108   0.468E-04    0.996E-05
DAV:  14    -0.102338692218E+03   -0.14535E-05   -0.21158E-08    96   0.357E-04    0.511E-05
DAV:  15    -0.102338692633E+03   -0.41537E-06   -0.17377E-09   108   0.185E-04
  55 F= -.10233869E+03 E0= -.10233869E+03  d E =-.810730E-11
       N       E                     dE             d eps       ncg     rms          rms(c)
DAV:   1    -0.102338717174E+03   -0.24956E-04   -0.19743E-01    96   0.133E+00    0.146E-01
DAV:   2    -0.102339872354E+03   -0.11552E-02   -0.13775E-02   132   0.347E-01    0.841E-02
DAV:   3    -0.102339842186E+03    0.30168E-04   -0.22866E-04   144   0.484E-02    0.488E-02
DAV:   4    -0.102339816735E+03    0.25451E-04   -0.58847E-05   132   0.294E-02    0.832E-03
DAV:   5    -0.102339809925E+03    0.68091E-05   -0.12464E-05   132   0.129E-02    0.500E-03
DAV:   6    -0.102339812547E+03   -0.26213E-05   -0.38866E-06   120   0.635E-03    0.278E-03
DAV:   7    -0.102339823007E+03   -0.10460E-04   -0.15339E-06   120   0.394E-03    0.133E-03
DAV:   8    -0.102339839466E+03   -0.16460E-04   -0.95742E-07   108   0.260E-03    0.748E-04
DAV:   9    -0.102339851913E+03   -0.12447E-04   -0.83622E-07   108   0.205E-03    0.634E-04
DAV:  10    -0.102339864590E+03   -0.12676E-04   -0.81755E-07    96   0.185E-03    0.240E-04
DAV:  11    -0.102339868127E+03   -0.35371E-05   -0.12730E-07   108   0.823E-04    0.250E-04
DAV:  12    -0.102339871803E+03   -0.36763E-05   -0.98583E-08   108   0.718E-04    0.957E-05
DAV:  13    -0.102339873189E+03   -0.13854E-05   -0.32973E-08   108   0.421E-04    0.760E-05
DAV:  14    -0.102339874210E+03   -0.10217E-05   -0.92928E-09   108   0.283E-04    0.323E-05
DAV:  15    -0.102339874677E+03   -0.46684E-06   -0.26933E-10   108   0.189E-04
  56 F= -.10233987E+03 E0= -.10233987E+03  d E =-.622240E-11
       N       E                     dE             d eps       ncg     rms          rms(c)
DAV:   1    -0.102338300204E+03    0.15740E-02   -0.40711E-01    96   0.176E+00    0.192E-01
DAV:   2    -0.102339864231E+03   -0.15640E-02   -0.18589E-02   120   0.403E-01    0.990E-02
DAV:   3    -0.102339818226E+03    0.46004E-04   -0.38092E-04   156   0.660E-02    0.537E-02
DAV:   4    -0.102339787620E+03    0.30606E-04   -0.81513E-05   132   0.403E-02    0.103E-02
DAV:   5    -0.102339780123E+03    0.74974E-05   -0.29182E-05   132   0.205E-02    0.729E-03
DAV:   6    -0.102339780998E+03   -0.87492E-06   -0.53846E-06   132   0.762E-03
  57 F= -.10233978E+03 E0= -.10233978E+03  d E =-.227544E-10
       N       E                     dE             d eps       ncg     rms          rms(c)
DAV:   1    -0.102338452277E+03    0.13278E-02   -0.20568E-01   120   0.124E+00    0.138E-01
DAV:   2    -0.102339137460E+03   -0.68518E-03   -0.80262E-03   120   0.257E-01    0.609E-02
DAV:   3    -0.102339136487E+03    0.97348E-06   -0.19429E-04   156   0.483E-02    0.318E-02
DAV:   4    -0.102339142837E+03   -0.63506E-05   -0.34544E-05   132   0.281E-02    0.726E-03
DAV:   5    -0.102339147806E+03   -0.49691E-05   -0.14066E-05   132   0.141E-02    0.543E-03
DAV:   6    -0.102339150870E+03   -0.30635E-05   -0.13725E-06   120   0.392E-03    0.382E-03
DAV:   7    -0.102339157429E+03   -0.65586E-05   -0.48032E-07   108   0.253E-03    0.114E-03
DAV:   8    -0.102339162914E+03   -0.54850E-05   -0.37836E-07   108   0.213E-03    0.776E-04
DAV:   9    -0.102339172211E+03   -0.92972E-05   -0.53103E-07   108   0.260E-03    0.423E-04
DAV:  10    -0.102339174741E+03   -0.25306E-05   -0.19907E-07   108   0.135E-03    0.463E-04
DAV:  11    -0.102339176267E+03   -0.15257E-05   -0.22818E-08   108   0.574E-04    0.294E-04
DAV:  12    -0.102339179298E+03   -0.30306E-05   -0.75557E-08   108   0.647E-04    0.119E-04
DAV:  13    -0.102339180917E+03   -0.16197E-05   -0.31724E-08   108   0.405E-04    0.142E-04
DAV:  14    -0.102339181930E+03   -0.10121E-05   -0.97340E-09   108   0.264E-04    0.599E-05
DAV:  15    -0.102339182330E+03   -0.40030E-06    0.12952E-09   108   0.151E-04
  58 F= -.10233918E+03 E0= -.10233918E+03  d E =-.628798E-11
       N       E                     dE             d eps       ncg     rms          rms(c)
DAV:   1    -0.102337565116E+03    0.16168E-02   -0.40485E-01   120   0.179E+00    0.215E-01
DAV:   2    -0.102339233054E+03   -0.16679E-02   -0.20230E-02   132   0.450E-01    0.118E-01
DAV:   3    -0.102339141456E+03    0.91599E-04   -0.34862E-04   132   0.634E-02    0.636E-02
DAV:   4    -0.102339082638E+03    0.58818E-04   -0.12294E-04   132   0.426E-02    0.119E-02
DAV:   5    -0.102339077183E+03    0.54551E-05   -0.26752E-05   132   0.194E-02    0.785E-03
DAV:   6    -0.102339087995E+03   -0.10813E-04   -0.86803E-06   132   0.908E-03    0.424E-03
DAV:   7    -0.102339110682E+03   -0.22687E-04   -0.29213E-06   132   0.546E-03    0.211E-03
DAV:   8    -0.102339142346E+03   -0.31664E-04   -0.30280E-06   120   0.441E-03    0.118E-03
DAV:   9    -0.102339163463E+03   -0.21117E-04   -0.17882E-06   120   0.317E-03    0.936E-04
DAV:  10    -0.102339182692E+03   -0.19230E-04   -0.16966E-06   120   0.270E-03    0.371E-04
DAV:  11    -0.102339189446E+03   -0.67533E-05   -0.28890E-07   108   0.125E-03    0.339E-04
DAV:  12    -0.102339195206E+03   -0.57602E-05   -0.30214E-07   108   0.111E-03    0.138E-04
DAV:  13    -0.102339196816E+03   -0.16100E-05   -0.52258E-08   108   0.509E-04    0.102E-04
DAV:  14    -0.102339197916E+03   -0.11002E-05   -0.10586E-08   108   0.308E-04    0.469E-05
DAV:  15    -0.102339198433E+03   -0.51677E-06   -0.35221E-09   108   0.207E-04
  59 F= -.10233920E+03 E0= -.10233920E+03  d E =-.191446E-10
       N       E                     dE             d eps       ncg     rms          rms(c)
DAV:   1    -0.102338078502E+03    0.11194E-02   -0.20125E-01    96   0.132E+00    0.154E-01
DAV:   2    -0.102338871932E+03   -0.79343E-03   -0.97002E-03   120   0.318E-01    0.798E-02
DAV:   3    -0.102338827278E+03    0.44653E-04   -0.16977E-04   132   0.441E-02    0.426E-02
DAV:   4    -0.102338793835E+03    0.33443E-04   -0.44119E-05   132   0.245E-02    0.830E-03
DAV:   5    -0.102338786135E+03    0.77006E-05   -0.77362E-06   144   0.113E-02    0.484E-03
DAV:   6    -0.102338787380E+03   -0.12452E-05   -0.35694E-06   132   0.732E-03    0.232E-03
DAV:   7    -0.102338796175E+03   -0.87949E-05   -0.20219E-06   132   0.492E-03    0.151E-03
DAV:   8    -0.102338808757E+03   -0.12582E-04   -0.62346E-07   108   0.257E-03    0.812E-04
DAV:   9    -0.102338822050E+03   -0.13294E-04   -0.83958E-07   108   0.216E-03    0.566E-04
DAV:  10    -0.102338834008E+03   -0.11957E-04   -0.60468E-07   108   0.164E-03    0.260E-04
DAV:  11    -0.102338840508E+03   -0.65000E-05   -0.20716E-07   108   0.994E-04    0.206E-04
DAV:  12    -0.102338844285E+03   -0.37778E-05   -0.58362E-08   108   0.552E-04    0.105E-04
DAV:  13    -0.102338846108E+03   -0.18231E-05   -0.24881E-08   108   0.379E-04    0.515E-05
DAV:  14    -0.102338847040E+03   -0.93185E-06   -0.56769E-09   108   0.235E-04
  60 F= -.10233885E+03 E0= -.10233885E+03  d E =-.147694E-10
       N       E                     dE             d eps       ncg     rms          rms(c)
DAV:   1    -0.102337479042E+03    0.13671E-02   -0.40350E-01    96   0.185E+00    0.208E-01
DAV:   2    -0.102338875108E+03   -0.13961E-02   -0.17700E-02   132   0.429E-01    0.121E-01
DAV:   3    -0.102338761843E+03    0.11326E-03   -0.29986E-04   144   0.602E-02    0.603E-02
DAV:   4    -0.102338691249E+03    0.70594E-04   -0.88071E-05   132   0.355E-02    0.114E-02
DAV:   5    -0.102338688901E+03    0.23482E-05   -0.15579E-05   132   0.160E-02    0.659E-03
DAV:   6    -0.102338713891E+03   -0.24989E-04   -0.11240E-05   132   0.104E-02    0.337E-03
DAV:   7    -0.102338745435E+03   -0.31545E-04   -0.38624E-06   132   0.626E-03    0.220E-03
DAV:   8    -0.102338785481E+03   -0.40045E-04   -0.37356E-06   120   0.439E-03    0.104E-03
DAV:   9    -0.102338812479E+03   -0.26998E-04   -0.25833E-06   120   0.346E-03    0.833E-04
DAV:  10    -0.102338834218E+03   -0.21740E-04   -0.21256E-06   120   0.284E-03    0.319E-04
DAV:  11    -0.102338841211E+03   -0.69922E-05   -0.32097E-07   108   0.127E-03    0.269E-04
DAV:  12    -0.102338846034E+03   -0.48234E-05   -0.21703E-07   108   0.923E-04    0.105E-04
DAV:  13    -0.102338847358E+03   -0.13245E-05   -0.38635E-08   108   0.431E-04    0.657E-05
DAV:  14    -0.102338848531E+03   -0.11721E-05   -0.15099E-08   108   0.338E-04    0.445E-05
DAV:  15    -0.102338848815E+03   -0.28458E-06    0.20528E-09   108   0.155E-04
  61 F= -.10233885E+03 E0= -.10233885E+03  d E =-.657294E-11
       N       E                     dE             d eps       ncg     rms          rms(c)
DAV:   1    -0.102341784293E+03   -0.29358E-02   -0.23256E-01    96   0.162E+00    0.135E-01
DAV:   2    -0.102342201504E+03   -0.41721E-03   -0.61593E-03   132   0.256E-01    0.787E-02
DAV:   3    -0.102342141665E+03    0.59839E-04   -0.16576E-04   132   0.450E-02    0.346E-02
DAV:   4    -0.102342124802E+03    0.16862E-04   -0.59660E-05   132   0.266E-02    0.790E-03
DAV:   5    -0.102342121176E+03    0.36261E-05   -0.76837E-06   132   0.105E-02    0.545E-03
DAV:   6    -0.102342122503E+03   -0.13274E-05   -0.32603E-06   132   0.598E-03    0.208E-03
DAV:   7    -0.102342127044E+03   -0.45409E-05   -0.64340E-07   108   0.330E-03    0.124E-03
DAV:   8    -0.102342135459E+03   -0.84151E-05   -0.52419E-07   108   0.225E-03    0.702E-04
DAV:   9    -0.102342144798E+03   -0.93381E-05   -0.58218E-07   108   0.200E-03    0.390E-04
DAV:  10    -0.102342152654E+03   -0.78569E-05   -0.42503E-07   108   0.144E-03    0.316E-04
DAV:  11    -0.102342156227E+03   -0.35728E-05   -0.79001E-08   108   0.738E-04    0.158E-04
DAV:  12    -0.102342159119E+03   -0.28916E-05   -0.71073E-08   108   0.582E-04    0.110E-04
DAV:  13    -0.102342159673E+03   -0.55402E-06   -0.46831E-09   108   0.239E-04
  62 F= -.10234216E+03 E0= -.10234216E+03  d E =-.937331E-11
       N       E                     dE             d eps       ncg     rms          rms(c)
DAV:   1    -0.102342345664E+03   -0.18655E-03   -0.52809E-01    96   0.226E+00    0.173E-01
DAV:   2    -0.102342194214E+03    0.15145E-03   -0.24872E-03   120   0.159E-01    0.975E-02
DAV:   3    -0.102342055743E+03    0.13847E-03   -0.43272E-04   132   0.612E-02    0.180E-02
DAV:   4    -0.102342058947E+03   -0.32041E-05   -0.64832E-05   120   0.255E-02    0.105E-02
DAV:   5    -0.102342059727E+03   -0.78047E-06   -0.30406E-06   132   0.606E-03
  63 F= -.10234206E+03 E0= -.10234206E+03  d E =-.832718E-11
       N       E                     dE             d eps       ncg     rms          rms(c)
DAV:   1    -0.102341218980E+03    0.83997E-03   -0.27232E-01    96   0.160E+00    0.146E-01
DAV:   2    -0.102341178963E+03    0.40017E-04   -0.21461E-03   120   0.141E-01    0.803E-02
DAV:   3    -0.102341091098E+03    0.87866E-04   -0.28347E-04   132   0.451E-02    0.213E-02
DAV:   4    -0.102341089819E+03    0.12788E-05   -0.55717E-05   132   0.205E-02    0.861E-03
DAV:   5    -0.102341088095E+03    0.17241E-05   -0.29620E-06   120   0.653E-03    0.410E-03
DAV:   6    -0.102341088322E+03   -0.22745E-06   -0.25317E-06   132   0.518E-03
  64 F= -.10234109E+03 E0= -.10234109E+03  d E =-.109249E-10
       N       E                     dE             d eps       ncg     rms          rms(c)
DAV:   1    -0.102341281475E+03   -0.19338E-03   -0.53741E-01    96   0.222E+00    0.197E-01
DAV:   2    -0.102341124660E+03    0.15682E-03   -0.35222E-03   120   0.182E-01    0.108E-01
DAV:   3    -0.102340939614E+03    0.18505E-03   -0.53303E-04   120   0.589E-02    0.269E-02
DAV:   4    -0.102340929720E+03    0.98931E-05   -0.71212E-05   132   0.244E-02    0.117E-02
DAV:   5    -0.102340929256E+03    0.46405E-06   -0.61647E-06   132   0.894E-03
  65 F= -.10234093E+03 E0= -.10234093E+03  d E =-.737670E-11
       N       E                     dE             d eps       ncg     rms          rms(c)
DAV:   1    -0.102342284418E+03   -0.13547E-02   -0.27162E-01    96   0.159E+00    0.142E-01
DAV:   2    -0.102342236071E+03    0.48347E-04   -0.20550E-03   120   0.138E-01    0.783E-02
DAV:   3    -0.102342153980E+03    0.82091E-04   -0.29020E-04   132   0.477E-02    0.197E-02
DAV:   4    -0.102342157848E+03   -0.38679E-05   -0.62599E-05   132   0.227E-02    0.859E-03
DAV:   5    -0.102342157379E+03    0.46924E-06   -0.22543E-06   120   0.563E-03
  66 F= -.10234216E+03 E0= -.10234216E+03  d E =-.866934E-11
       N       E                     dE             d eps       ncg     rms          rms(c)
DAV:   1    -0.102342494803E+03   -0.33696E-03   -0.53479E-01    96   0.214E+00    0.171E-01
DAV:   2    -0.102342355338E+03    0.13947E-03   -0.27229E-03   132   0.157E-01    0.967E-02
DAV:   3    -0.102342216145E+03    0.13919E-03   -0.44368E-04   132   0.602E-02    0.176E-02
DAV:   4    -0.102342221928E+03   -0.57833E-05   -0.88757E-05   132   0.275E-02    0.977E-03
DAV:   5    -0.102342220926E+03    0.10021E-05   -0.22792E-06   132   0.529E-03    0.601E-03
DAV:   6    -0.102342221043E+03   -0.11730E-06   -0.23715E-06   132   0.481E-03
  67 F= -.10234222E+03 E0= -.10234222E+03  d E =-.987510E-11
       N       E                     dE             d eps       ncg     rms          rms(c)
DAV:   1    -0.102342753359E+03   -0.53243E-03   -0.26541E-01    96   0.157E+00    0.118E-01
DAV:   2    -0.102342737702E+03    0.15657E-04   -0.14359E-03   132   0.121E-01    0.686E-02
DAV:   3    -0.102342682713E+03    0.54989E-04   -0.14029E-04   132   0.355E-02    0.106E-02
DAV:   4    -0.102342684262E+03   -0.15488E-05   -0.22280E-05   132   0.146E-02    0.493E-03
DAV:   5    -0.102342684353E+03   -0.90479E-07   -0.52754E-07   108   0.281E-03
  68 F= -.10234268E+03 E0= -.10234268E+03  d E =-.936505E-11
       N       E                     dE             d eps       ncg     rms          rms(c)
DAV:   1    -0.102342851770E+03   -0.16751E-03   -0.52544E-01    96   0.225E+00    0.159E-01
DAV:   2    -0.102342740930E+03    0.11084E-03   -0.22542E-03   132   0.152E-01    0.924E-02
DAV:   3    -0.102342642913E+03    0.98017E-04   -0.35530E-04   132   0.617E-02    0.120E-02
DAV:   4    -0.102342649526E+03   -0.66135E-05   -0.63119E-05   132   0.261E-02    0.923E-03
DAV:   5    -0.102342649720E+03   -0.19388E-06   -0.15555E-06   120   0.446E-03
  69 F= -.10234265E+03 E0= -.10234265E+03  d E =-.944617E-11
       N       E                     dE             d eps       ncg     rms          rms(c)
DAV:   1    -0.102342733925E+03   -0.84399E-04   -0.26619E-01    96   0.159E+00    0.113E-01
DAV:   2    -0.102342670548E+03    0.63377E-04   -0.10632E-03   132   0.991E-02    0.651E-02
DAV:   3    -0.102342618813E+03    0.51735E-04   -0.17919E-04   132   0.378E-02    0.914E-03
DAV:   4    -0.102342620327E+03   -0.15143E-05   -0.25303E-05   132   0.155E-02    0.538E-03
DAV:   5    -0.102342620093E+03    0.23409E-06   -0.72476E-07   108   0.311E-03
  70 F= -.10234262E+03 E0= -.10234262E+03  d E =-.986591E-11
       N       E                     dE             d eps       ncg     rms          rms(c)
DAV:   1    -0.102342727681E+03   -0.10735E-03   -0.52995E-01    96   0.219E+00    0.162E-01
DAV:   2    -0.102342613731E+03    0.11395E-03   -0.22157E-03   132   0.143E-01    0.927E-02
DAV:   3    -0.102342499018E+03    0.11471E-03   -0.34868E-04   132   0.535E-02    0.145E-02
DAV:   4    -0.102342501406E+03   -0.23875E-05   -0.47154E-05   132   0.219E-02    0.810E-03
DAV:   5    -0.102342501486E+03   -0.79906E-07   -0.20811E-06   132   0.493E-03
  71 F= -.10234250E+03 E0= -.10234250E+03  d E =-.832298E-11
       N       E                     dE             d eps       ncg     rms          rms(c)
DAV:   1    -0.102340298270E+03    0.22031E-02   -0.26708E-01    96   0.155E+00    0.123E-01
DAV:   2    -0.102340229147E+03    0.69123E-04   -0.15076E-03   132   0.120E-01    0.694E-02
DAV:   3    -0.102340154364E+03    0.74783E-04   -0.22976E-04   132   0.435E-02    0.142E-02
DAV:   4    -0.102340157376E+03   -0.30119E-05   -0.45187E-05   132   0.200E-02    0.727E-03
DAV:   5    -0.102340158496E+03   -0.11203E-05   -0.11938E-06   108   0.413E-03    0.449E-03
DAV:   6    -0.102340162143E+03   -0.36472E-05   -0.18501E-06   120   0.441E-03    0.833E-04
DAV:   7    -0.102340164448E+03   -0.23052E-05   -0.51643E-07   108   0.232E-03    0.628E-04
DAV:   8    -0.102340167631E+03   -0.31828E-05   -0.18431E-07   108   0.116E-03    0.299E-04
DAV:   9    -0.102340169941E+03   -0.23099E-05   -0.11327E-07   108   0.797E-04    0.178E-04
DAV:  10    -0.102340172126E+03   -0.21846E-05   -0.12238E-07   108   0.706E-04    0.116E-04
DAV:  11    -0.102340173020E+03   -0.89496E-06   -0.32772E-08   108   0.405E-04
  72 F= -.10234017E+03 E0= -.10234017E+03  d E =-.836372E-11
       N       E                     dE             d eps       ncg     rms          rms(c)
DAV:   1    -0.102340330744E+03   -0.15862E-03   -0.54849E-01   108   0.222E+00    0.210E-01
DAV:   2    -0.102340221795E+03    0.10895E-03   -0.48359E-03   132   0.214E-01    0.118E-01
DAV:   3    -0.102339980000E+03    0.24180E-03   -0.69079E-04   132   0.730E-02    0.279E-02
DAV:   4    -0.102339979246E+03    0.75328E-06   -0.15120E-04   132   0.347E-02    0.139E-02
DAV:   5    -0.102339976718E+03    0.25281E-05   -0.51988E-06   132   0.871E-03    0.745E-03
DAV:   6    -0.102339978937E+03   -0.22189E-05   -0.55946E-06   132   0.860E-03    0.194E-03
DAV:   7    -0.102339983916E+03   -0.49789E-05   -0.21891E-06   132   0.456E-03    0.158E-03
DAV:   8    -0.102339990592E+03   -0.66756E-05   -0.33336E-07   108   0.157E-03    0.574E-04
DAV:   9    -0.102339995411E+03   -0.48199E-05   -0.22715E-07   108   0.111E-03    0.428E-04
DAV:  10    -0.102340001433E+03   -0.60216E-05   -0.28809E-07   108   0.119E-03    0.209E-04
[...]
DAV:   1    -0.102342318864E+03    0.32626E-03   -0.27106E-01    96   0.171E+00    0.139E-01
DAV:   2    -0.102342200595E+03    0.11827E-03   -0.14515E-03   132   0.126E-01    0.782E-02
DAV:   3    -0.102342122701E+03    0.77894E-04   -0.22366E-04   132   0.453E-02    0.174E-02
DAV:   4    -0.102342125782E+03   -0.30812E-05   -0.34744E-05   132   0.188E-02    0.616E-03
DAV:   5    -0.102342126398E+03   -0.61611E-06   -0.17218E-06   120   0.486E-03
 132 F= -.10234213E+03 E0= -.10234213E+03  d E =-.110412E-10
       N       E                     dE             d eps       ncg     rms          rms(c)
DAV:   1    -0.102342695728E+03   -0.56995E-03   -0.55012E-01    96   0.242E+00    0.223E-01
DAV:   2    -0.102342407621E+03    0.28811E-03   -0.33028E-03   132   0.193E-01    0.118E-01
DAV:   3    -0.102342224504E+03    0.18312E-03   -0.49078E-04   132   0.675E-02    0.359E-02
DAV:   4    -0.102342226291E+03   -0.17877E-05   -0.10791E-04   132   0.318E-02    0.119E-02
DAV:   5    -0.102342225279E+03    0.10118E-05   -0.58797E-06   132   0.963E-03    0.663E-03
DAV:   6    -0.102342226174E+03   -0.89461E-06   -0.31609E-06   132   0.613E-03
 133 F= -.10234223E+03 E0= -.10234223E+03  d E =-.812626E-11
       N       E                     dE             d eps       ncg     rms          rms(c)
DAV:   1    -0.102342220425E+03    0.48544E-05   -0.27641E-01    96   0.208E+00    0.160E-01
DAV:   2    -0.102342122237E+03    0.98188E-04   -0.20718E-03   132   0.170E-01    0.856E-02
DAV:   3    -0.102342030813E+03    0.91425E-04   -0.21977E-04   132   0.489E-02    0.277E-02
DAV:   4    -0.102342030347E+03    0.46594E-06   -0.58308E-05   132   0.243E-02    0.839E-03
DAV:   5    -0.102342029618E+03    0.72881E-06   -0.36235E-06   132   0.742E-03
 134 F= -.10234203E+03 E0= -.10234203E+03  d E =-.969454E-11
       N       E                     dE             d eps       ncg     rms          rms(c)
DAV:   1    -0.102342532818E+03   -0.50247E-03   -0.55282E-01    96   0.265E+00    0.231E-01
DAV:   2    -0.102342203827E+03    0.32899E-03   -0.32848E-03   132   0.200E-01    0.120E-01
DAV:   3    -0.102341996414E+03    0.20741E-03   -0.45672E-04   120   0.627E-02    0.374E-02
DAV:   4    -0.102341990848E+03    0.55658E-05   -0.10302E-04   132   0.309E-02    0.120E-02
DAV:   5    -0.102341991304E+03   -0.45580E-06   -0.61276E-06   132   0.101E-02
 135 F= -.10234199E+03 E0= -.10234199E+03  d E =-.870326E-11
       N       E                     dE             d eps       ncg     rms          rms(c)
DAV:   1    -0.102341350683E+03    0.64017E-03   -0.29014E-01    96   0.185E+00    0.208E-01
DAV:   2    -0.102341097556E+03    0.25313E-03   -0.23608E-03   132   0.175E-01    0.102E-01
DAV:   3    -0.102340955015E+03    0.14254E-03   -0.38204E-04   132   0.630E-02    0.358E-02
DAV:   4    -0.102340954639E+03    0.37570E-06   -0.10826E-04   132   0.329E-02    0.150E-02
DAV:   5    -0.102340953266E+03    0.13729E-05   -0.50151E-06   132   0.925E-03    0.617E-03
DAV:   6    -0.102340953348E+03   -0.81348E-07   -0.24288E-06   132   0.581E-03
 136 F= -.10234095E+03 E0= -.10234095E+03  d E =-.935335E-11
       N       E                     dE             d eps       ncg     rms          rms(c)
DAV:   1    -0.102341774675E+03   -0.82141E-03   -0.57225E-01    96   0.268E+00    0.272E-01
DAV:   2    -0.102341244980E+03    0.52969E-03   -0.46780E-03   132   0.245E-01    0.137E-01
DAV:   3    -0.102340950512E+03    0.29447E-03   -0.75467E-04   132   0.888E-02    0.461E-02
DAV:   4    -0.102340949716E+03    0.79628E-06   -0.19866E-04   132   0.454E-02    0.197E-02
DAV:   5    -0.102340949232E+03    0.48408E-06   -0.94022E-06   132   0.122E-02
 137 F= -.10234095E+03 E0= -.10234095E+03  d E =-.924795E-11
       N       E                     dE             d eps       ncg     rms          rms(c)
DAV:   1    -0.102342464138E+03   -0.15144E-02   -0.28859E-01    96   0.188E+00    0.204E-01
DAV:   2    -0.102342207030E+03    0.25711E-03   -0.23976E-03   132   0.180E-01    0.101E-01
DAV:   3    -0.102342064293E+03    0.14274E-03   -0.40741E-04   132   0.660E-02    0.342E-02
DAV:   4    -0.102342066219E+03   -0.19256E-05   -0.11302E-04   132   0.345E-02    0.146E-02
DAV:   5    -0.102342065307E+03    0.91119E-06   -0.47986E-06   132   0.921E-03
 138 F= -.10234207E+03 E0= -.10234207E+03  d E =-.101964E-10
       N       E                     dE             d eps       ncg     rms          rms(c)
DAV:   1    -0.102342575157E+03   -0.50894E-03   -0.54730E-01    96   0.269E+00    0.228E-01
DAV:   2    -0.102342273623E+03    0.30153E-03   -0.34383E-03   132   0.208E-01    0.120E-01
DAV:   3    -0.102342071894E+03    0.20173E-03   -0.47256E-04   132   0.680E-02    0.371E-02
DAV:   4    -0.102342073423E+03   -0.15284E-05   -0.10602E-04   132   0.326E-02    0.135E-02
DAV:   5    -0.102342073474E+03   -0.51634E-07   -0.60233E-06   132   0.978E-03
 139 F= -.10234207E+03 E0= -.10234207E+03  d E =-.871095E-11
       N       E                     dE             d eps       ncg     rms          rms(c)
DAV:   1    -0.102341957176E+03    0.11625E-03   -0.27657E-01    96   0.196E+00    0.169E-01
DAV:   2    -0.102341847907E+03    0.10927E-03   -0.18630E-03   120   0.150E-01    0.874E-02
DAV:   3    -0.102341756504E+03    0.91403E-04   -0.25546E-04   132   0.454E-02    0.281E-02
DAV:   4    -0.102341753268E+03    0.32360E-05   -0.43467E-05   132   0.194E-02    0.105E-02
DAV:   5    -0.102341751665E+03    0.16030E-05   -0.25723E-06   144   0.727E-03    0.506E-03
DAV:   6    -0.102341751644E+03    0.21160E-07   -0.22030E-06   132   0.567E-03
 140 F= -.10234175E+03 E0= -.10234175E+03  d E =-.943731E-11
       N       E                     dE             d eps       ncg     rms          rms(c)
DAV:   1    -0.102342308666E+03   -0.55700E-03   -0.55698E-01    96   0.254E+00    0.245E-01
DAV:   2    -0.102341951246E+03    0.35742E-03   -0.35070E-03   120   0.207E-01    0.124E-01
DAV:   3    -0.102341729203E+03    0.22204E-03   -0.51107E-04   132   0.663E-02    0.402E-02
DAV:   4    -0.102341720389E+03    0.88137E-05   -0.11092E-04   132   0.321E-02    0.131E-02
DAV:   5    -0.102341720564E+03   -0.17483E-06   -0.66168E-06   132   0.109E-02
 141 F= -.10234172E+03 E0= -.10234172E+03  d E =-.880376E-11
       N       E                     dE             d eps       ncg     rms          rms(c)
DAV:   1    -0.102340917877E+03    0.80251E-03   -0.27279E-01    96   0.187E+00    0.139E-01
DAV:   2    -0.102340778908E+03    0.13897E-03   -0.14141E-03   132   0.132E-01    0.785E-02
DAV:   3    -0.102340693523E+03    0.85385E-04   -0.26227E-04   132   0.510E-02    0.164E-02
DAV:   4    -0.102340698666E+03   -0.51432E-05   -0.48814E-05   132   0.231E-02    0.853E-03
DAV:   5    -0.102340699251E+03   -0.58499E-06   -0.12016E-06   120   0.431E-03
 142 F= -.10234070E+03 E0= -.10234070E+03  d E =-.874072E-11
       N       E                     dE             d eps       ncg     rms          rms(c)
DAV:   1    -0.102341457551E+03   -0.75889E-03   -0.58018E-01    96   0.262E+00    0.285E-01
DAV:   2    -0.102340916726E+03    0.54082E-03   -0.48874E-03   132   0.254E-01    0.142E-01
DAV:   3    -0.102340607686E+03    0.30904E-03   -0.83640E-04   132   0.954E-02    0.466E-02
DAV:   4    -0.102340610229E+03   -0.25423E-05   -0.23535E-04   132   0.490E-02    0.199E-02
DAV:   5    -0.102340607829E+03    0.24000E-05   -0.92771E-06   132   0.129E-02    0.834E-03
DAV:   6    -0.102340608178E+03   -0.34909E-06   -0.55547E-06   120   0.855E-03
 143 F= -.10234061E+03 E0= -.10234061E+03  d E =-.100215E-10
       N       E                     dE             d eps       ncg     rms          rms(c)
DAV:   1    -0.102342968252E+03   -0.23604E-02   -0.28114E-01    96   0.187E+00    0.168E-01
DAV:   2    -0.102342750890E+03    0.21736E-03   -0.18848E-03   132   0.157E-01    0.892E-02
DAV:   3    -0.102342638430E+03    0.11246E-03   -0.32232E-04   132   0.588E-02    0.254E-02
DAV:   4    -0.102342643052E+03   -0.46222E-05   -0.73624E-05   132   0.282E-02    0.115E-02
DAV:   5    -0.102342643225E+03   -0.17330E-06   -0.26762E-06   132   0.665E-03
 144 F= -.10234264E+03 E0= -.10234264E+03  d E =-.994571E-11
       N       E                     dE             d eps       ncg     rms          rms(c)
DAV:   1    -0.102343056562E+03   -0.41351E-03   -0.54066E-01    96   0.263E+00    0.200E-01
DAV:   2    -0.102342787704E+03    0.26886E-03   -0.28331E-03   132   0.189E-01    0.112E-01
DAV:   3    -0.102342619643E+03    0.16806E-03   -0.43347E-04   132   0.659E-02    0.240E-02
DAV:   4    -0.102342624224E+03   -0.45805E-05   -0.65503E-05   132   0.266E-02    0.980E-03
DAV:   5    -0.102342624693E+03   -0.46901E-06   -0.29892E-06   132   0.637E-03
 145 F= -.10234262E+03 E0= -.10234262E+03  d E =-.865669E-11
       N       E                     dE             d eps       ncg     rms          rms(c)
DAV:   1    -0.102341958517E+03    0.66571E-03   -0.27660E-01    96   0.198E+00    0.158E-01
DAV:   2    -0.102341821952E+03    0.13656E-03   -0.19970E-03   132   0.164E-01    0.856E-02
DAV:   3    -0.102341724663E+03    0.97289E-04   -0.27214E-04   132   0.552E-02    0.256E-02
DAV:   4    -0.102341728739E+03   -0.40762E-05   -0.71255E-05   132   0.271E-02    0.999E-03
DAV:   5    -0.102341728443E+03    0.29609E-06   -0.25006E-06   132   0.645E-03
 146 F= -.10234173E+03 E0= -.10234173E+03  d E =-.981011E-11
       N       E                     dE             d eps       ncg     rms          rms(c)
DAV:   1    -0.102342429763E+03   -0.70102E-03   -0.56123E-01    96   0.249E+00    0.239E-01
DAV:   2    -0.102341987596E+03    0.44217E-03   -0.37830E-03   132   0.203E-01    0.127E-01
DAV:   3    -0.102341742014E+03    0.24558E-03   -0.67729E-04   132   0.772E-02    0.366E-02
DAV:   4    -0.102341746039E+03   -0.40255E-05   -0.14296E-04   132   0.368E-02    0.167E-02
DAV:   5    -0.102341745284E+03    0.75569E-06   -0.55912E-06   132   0.867E-03
 147 F= -.10234175E+03 E0= -.10234175E+03  d E =-.880999E-11
       N       E                     dE             d eps       ncg     rms          rms(c)
DAV:   1    -0.102340951377E+03    0.79466E-03   -0.27224E-01    96   0.169E+00    0.141E-01
DAV:   2    -0.102340811203E+03    0.14017E-03   -0.13489E-03   120   0.117E-01    0.781E-02
DAV:   3    -0.102340723096E+03    0.88107E-04   -0.20900E-04   132   0.410E-02    0.196E-02
DAV:   4    -0.102340725017E+03   -0.19205E-05   -0.35297E-05   132   0.181E-02    0.657E-03
DAV:   5    -0.102340726383E+03   -0.13661E-05   -0.19423E-06   132   0.502E-03    0.420E-03
DAV:   6    -0.102340728684E+03   -0.23014E-05   -0.70163E-07   108   0.292E-03    0.987E-04
DAV:   7    -0.102340730341E+03   -0.16573E-05   -0.24020E-07   108   0.169E-03    0.590E-04
DAV:   8    -0.102340732642E+03   -0.23005E-05   -0.10198E-07   108   0.124E-03    0.262E-04
DAV:   9    -0.102340734851E+03   -0.22095E-05   -0.14187E-07   108   0.112E-03    0.223E-04
DAV:  10    -0.102340736671E+03   -0.18200E-05   -0.87626E-08   108   0.771E-04    0.139E-04
DAV:  11    -0.102340737342E+03   -0.67070E-06   -0.18972E-08   108   0.378E-04
 148 F= -.10234074E+03 E0= -.10234074E+03  d E =-.894852E-11
       N       E                     dE             d eps       ncg     rms          rms(c)
DAV:   1    -0.102341305124E+03   -0.56845E-03   -0.57704E-01    96   0.250E+00    0.292E-01
DAV:   2    -0.102340834964E+03    0.47016E-03   -0.43615E-03   132   0.211E-01    0.141E-01
DAV:   3    -0.102340542186E+03    0.29278E-03   -0.70400E-04   132   0.743E-02    0.516E-02
DAV:   4    -0.102340525916E+03    0.16270E-04   -0.18602E-04   144   0.395E-02    0.181E-02
DAV:   5    -0.102340522656E+03    0.32601E-05   -0.11734E-05   132   0.137E-02    0.696E-03
DAV:   6    -0.102340524446E+03   -0.17901E-05   -0.48667E-06   132   0.723E-03    0.310E-03
DAV:   7    -0.102340527068E+03   -0.26217E-05   -0.78256E-07   120   0.308E-03    0.122E-03
DAV:   8    -0.102340531463E+03   -0.43955E-05   -0.35305E-07   108   0.224E-03    0.770E-04
DAV:   9    -0.102340534644E+03   -0.31803E-05   -0.22772E-07   108   0.136E-03    0.696E-04
DAV:  10    -0.102340540404E+03   -0.57607E-05   -0.27621E-07   108   0.126E-03    0.276E-04
DAV:  11    -0.102340541934E+03   -0.15301E-05   -0.63826E-08   120   0.662E-04    0.218E-04
DAV:  12    -0.102340543316E+03   -0.13821E-05   -0.98399E-09   108   0.343E-04    0.112E-04
DAV:  13    -0.102340545512E+03   -0.21953E-05   -0.53223E-08   108   0.459E-04    0.802E-05
DAV:  14    -0.102340546098E+03   -0.58641E-06   -0.24665E-09   120   0.199E-04
 149 F= -.10234055E+03 E0= -.10234055E+03  d E =-.933879E-11
       N       E                     dE             d eps       ncg     rms          rms(c)
DAV:   1    -0.102342919190E+03   -0.23737E-02   -0.27813E-01    96   0.173E+00    0.169E-01
DAV:   2    -0.102342704565E+03    0.21462E-03   -0.17137E-03   132   0.140E-01    0.886E-02
DAV:   3    -0.102342593087E+03    0.11148E-03   -0.28563E-04   132   0.498E-02    0.257E-02
DAV:   4    -0.102342595033E+03   -0.19466E-05   -0.58710E-05   132   0.235E-02    0.103E-02
DAV:   5    -0.102342595931E+03   -0.89739E-06   -0.31034E-06   132   0.700E-03
 150 F= -.10234260E+03 E0= -.10234260E+03  d E =-.100057E-10
       N       E                     dE             d eps       ncg     rms          rms(c)
DAV:   1    -0.102343138187E+03   -0.54315E-03   -0.54217E-01    96   0.250E+00    0.201E-01
DAV:   2    -0.102342849661E+03    0.28853E-03   -0.27147E-03   132   0.170E-01    0.112E-01
DAV:   3    -0.102342671336E+03    0.17832E-03   -0.45903E-04   132   0.631E-02    0.235E-02
DAV:   4    -0.102342677800E+03   -0.64640E-05   -0.69253E-05   132   0.262E-02    0.863E-03
DAV:   5    -0.102342679123E+03   -0.13226E-05   -0.32559E-06   132   0.642E-03    0.575E-03
DAV:   6    -0.102342682501E+03   -0.33779E-05   -0.16077E-06   132   0.392E-03    0.112E-03
DAV:   7    -0.102342684733E+03   -0.22322E-05   -0.20034E-07   108   0.166E-03    0.810E-04
DAV:   8    -0.102342688271E+03   -0.35379E-05   -0.14497E-07   108   0.149E-03    0.374E-04
DAV:   9    -0.102342691416E+03   -0.31447E-05   -0.16808E-07   108   0.136E-03    0.295E-04
DAV:  10    -0.102342693888E+03   -0.24720E-05   -0.11886E-07   108   0.891E-04    0.173E-04
DAV:  11    -0.102342695121E+03   -0.12332E-05   -0.33767E-08   108   0.467E-04    0.124E-04
DAV:  12    -0.102342695900E+03   -0.77960E-06   -0.13324E-08   108   0.303E-04
 151 F= -.10234270E+03 E0= -.10234270E+03  d E =-.791292E-11
       N       E                     dE             d eps       ncg     rms          rms(c)
DAV:   1    -0.102340782396E+03    0.19127E-02   -0.28061E-01    96   0.179E+00    0.180E-01
DAV:   2    -0.102340542672E+03    0.23972E-03   -0.21761E-03   132   0.158E-01    0.901E-02
DAV:   3    -0.102340411678E+03    0.13099E-03   -0.35376E-04   132   0.572E-02    0.301E-02
DAV:   4    -0.102340415460E+03   -0.37822E-05   -0.94013E-05   132   0.294E-02    0.105E-02
DAV:   5    -0.102340416564E+03   -0.11037E-05   -0.46021E-06   132   0.782E-03    0.587E-03
DAV:   6    -0.102340418364E+03   -0.17999E-05   -0.15043E-06   120   0.418E-03    0.121E-03
DAV:   7    -0.102340419554E+03   -0.11905E-05   -0.32711E-07   108   0.212E-03    0.635E-04
DAV:   8    -0.102340421420E+03   -0.18653E-05   -0.90683E-08   108   0.111E-03    0.229E-04
DAV:   9    -0.102340422582E+03   -0.11621E-05   -0.41188E-08   108   0.705E-04    0.185E-04
DAV:  10    -0.102340424292E+03   -0.17103E-05   -0.63787E-08   108   0.664E-04    0.832E-05
DAV:  11    -0.102340424882E+03   -0.58984E-06   -0.16957E-08   108   0.397E-04
 152 F= -.10234042E+03 E0= -.10234042E+03  d E =-.926930E-11
       N       E                     dE             d eps       ncg     rms          rms(c)
DAV:   1    -0.102341170120E+03   -0.74583E-03   -0.58407E-01    96   0.249E+00    0.294E-01
DAV:   2    -0.102340584489E+03    0.58563E-03   -0.47912E-03   132   0.232E-01    0.146E-01
DAV:   3    -0.102340256828E+03    0.32766E-03   -0.90998E-04   132   0.902E-02    0.483E-02
DAV:   4    -0.102340256038E+03    0.78991E-06   -0.22821E-04   132   0.461E-02    0.215E-02
DAV:   5    -0.102340253725E+03    0.23130E-05   -0.98676E-06   132   0.123E-02    0.824E-03
DAV:   6    -0.102340255200E+03   -0.14754E-05   -0.53247E-06   132   0.822E-03    0.216E-03
DAV:   7    -0.102340257735E+03   -0.25350E-05   -0.13683E-06   132   0.392E-03    0.126E-03
DAV:   8    -0.102340261315E+03   -0.35799E-05   -0.15384E-07   108   0.107E-03    0.507E-04
DAV:   9    -0.102340264514E+03   -0.31984E-05   -0.14873E-07   108   0.109E-03    0.407E-04
DAV:  10    -0.102340269106E+03   -0.45923E-05   -0.27598E-07   108   0.141E-03    0.732E-04
DAV:  11    -0.102340270874E+03   -0.17678E-05   -0.75915E-08   108   0.811E-04    0.192E-04
DAV:  12    -0.102340271549E+03   -0.67490E-06   -0.68755E-09   120   0.366E-04
 153 F= -.10234027E+03 E0= -.10234027E+03  d E =-.936314E-11
       N       E                     dE             d eps       ncg     rms          rms(c)
DAV:   1    -0.102342983272E+03   -0.27124E-02   -0.28498E-01    96   0.178E+00    0.195E-01
DAV:   2    -0.102342724996E+03    0.25828E-03   -0.20184E-03   132   0.149E-01    0.960E-02
DAV:   3    -0.102342589117E+03    0.13588E-03   -0.31712E-04   132   0.499E-02    0.343E-02
DAV:   4    -0.102342584693E+03    0.44243E-05   -0.83858E-05   132   0.262E-02    0.115E-02
DAV:   5    -0.102342586413E+03   -0.17201E-05   -0.50137E-06   132   0.901E-03    0.519E-03
DAV:   6    -0.102342590305E+03   -0.38920E-05   -0.24809E-06   132   0.519E-03    0.155E-03
DAV:   7    -0.102342592759E+03   -0.24544E-05   -0.40971E-07   108   0.239E-03    0.840E-04
DAV:   8    -0.102342597625E+03   -0.48657E-05   -0.27093E-07   108   0.146E-03    0.469E-04
DAV:   9    -0.102342599324E+03   -0.16997E-05   -0.83520E-08   108   0.100E-03    0.410E-04
DAV:  10    -0.102342602767E+03   -0.34428E-05   -0.18098E-07   108   0.111E-03    0.270E-04
DAV:  11    -0.102342604251E+03   -0.14835E-05   -0.99534E-08   108   0.736E-04    0.151E-04
DAV:  12    -0.102342604876E+03   -0.62516E-06   -0.12616E-08   108   0.390E-04
 154 F= -.10234260E+03 E0= -.10234260E+03  d E =-.895977E-11
       N       E                     dE             d eps       ncg     rms          rms(c)
DAV:   1    -0.102343009703E+03   -0.40545E-03   -0.54942E-01    96   0.245E+00    0.204E-01
DAV:   2    -0.102342733608E+03    0.27610E-03   -0.27843E-03   120   0.168E-01    0.113E-01
DAV:   3    -0.102342542122E+03    0.19149E-03   -0.44428E-04   132   0.590E-02    0.283E-02
DAV:   4    -0.102342543804E+03   -0.16815E-05   -0.77805E-05   132   0.268E-02    0.905E-03
DAV:   5    -0.102342543142E+03    0.66242E-06   -0.38779E-06   132   0.717E-03
 155 F= -.10234254E+03 E0= -.10234254E+03  d E =-.100548E-10
       N       E                     dE             d eps       ncg     rms          rms(c)
DAV:   1    -0.102342268812E+03    0.27499E-03   -0.27321E-01    96   0.177E+00    0.147E-01
DAV:   2    -0.102342124454E+03    0.14436E-03   -0.15060E-03   132   0.129E-01    0.820E-02
DAV:   3    -0.102342037794E+03    0.86660E-04   -0.24883E-04   132   0.494E-02    0.180E-02
DAV:   4    -0.102342044504E+03   -0.67095E-05   -0.47998E-05   132   0.218E-02    0.800E-03
DAV:   5    -0.102342045404E+03   -0.90041E-06   -0.15998E-06   120   0.492E-03
 156 F= -.10234205E+03 E0= -.10234205E+03  d E =-.113714E-10
       N       E                     dE             d eps       ncg     rms          rms(c)
DAV:   1    -0.102342684009E+03   -0.63951E-03   -0.54782E-01    96   0.254E+00    0.230E-01
DAV:   2    -0.102342347398E+03    0.33661E-03   -0.31825E-03   132   0.186E-01    0.120E-01
DAV:   3    -0.102342143049E+03    0.20435E-03   -0.47871E-04   132   0.631E-02    0.361E-02
DAV:   4    -0.102342144383E+03   -0.13345E-05   -0.96315E-05   132   0.297E-02    0.115E-02
DAV:   5    -0.102342144868E+03   -0.48462E-06   -0.66470E-06   132   0.960E-03
 157 F= -.10234214E+03 E0= -.10234214E+03  d E =-.775333E-11
