       N       E                     dE             d eps       ncg     rms          rms(c)
DAV:   1     0.201503012824E+03    0.20150E+03   -0.10487E+04   116   0.546E+02
DAV:   2    -0.290839935807E+02   -0.23059E+03   -0.21605E+03   144   0.102E+02
DAV:   3    -0.103080865115E+03   -0.73997E+02   -0.73830E+02   112   0.542E+01
DAV:   4    -0.107253406597E+03   -0.41725E+01   -0.41581E+01   104   0.180E+01
DAV:   5    -0.107336534007E+03   -0.83127E-01   -0.83063E-01   136   0.279E+00    0.151E+01
DAV:   6    -0.104081866079E+03    0.32547E+01   -0.16113E+00   104   0.460E+00    0.877E+00
DAV:   7    -0.102379601555E+03    0.17023E+01   -0.41887E+00   112   0.683E+00    0.123E+00
DAV:   8    -0.102327799076E+03    0.51802E-01   -0.28693E-01   104   0.228E+00    0.628E-01
DAV:   9    -0.102292503932E+03    0.35295E-01   -0.75889E-02   120   0.793E-01    0.345E-01
DAV:  10    -0.102292057083E+03    0.44685E-03   -0.30585E-03   112   0.217E-01    0.163E-01
DAV:  11    -0.102291655894E+03    0.40119E-03   -0.59805E-03   104   0.226E-01    0.836E-02
DAV:  12    -0.102295674447E+03   -0.40186E-02   -0.11648E-03   112   0.102E-01    0.618E-02
DAV:  13    -0.102300431483E+03   -0.47570E-02   -0.20917E-03   112   0.119E-01    0.382E-02
DAV:  14    -0.102304734593E+03   -0.43031E-02   -0.36121E-04   112   0.572E-02    0.159E-02
DAV:  15    -0.102308627706E+03   -0.38931E-02   -0.41731E-04   112   0.551E-02    0.157E-02
DAV:  16    -0.102310260154E+03   -0.16324E-02   -0.12176E-04   112   0.311E-02    0.725E-03
DAV:  17    -0.102311242931E+03   -0.98278E-03   -0.81556E-05   104   0.223E-02    0.542E-03
DAV:  18    -0.102311560704E+03   -0.31777E-03   -0.11099E-05   104   0.864E-03    0.203E-03
DAV:  19    -0.102311707186E+03   -0.14648E-03   -0.54994E-06   104   0.614E-03    0.187E-03
DAV:  20    -0.102311762153E+03   -0.54967E-04   -0.10781E-06    88   0.357E-03    0.469E-04
DAV:  21    -0.102311787223E+03   -0.25069E-04   -0.69686E-07    80   0.225E-03    0.443E-04
DAV:  22    -0.102311797257E+03   -0.10035E-04   -0.21006E-07    80   0.135E-03    0.165E-04
DAV:  23    -0.102311800580E+03   -0.33229E-05   -0.87913E-08    88   0.787E-04    0.132E-04
DAV:  24    -0.102311803051E+03   -0.24704E-05   -0.35837E-08    80   0.498E-04    0.510E-05
DAV:  25    -0.102311803889E+03   -0.83829E-06   -0.12963E-08    80   0.310E-04
   1 F= -.10231180E+03 E0= -.10231180E+03  d E =-.102312E+03
       N       E                     dE             d eps       ncg     rms          rms(c)
DAV:   1    -0.102495834504E+03   -0.18403E+00   -0.90127E+00    84   0.126E+01    0.132E+00
DAV:   2    -0.102528649207E+03   -0.32815E-01   -0.41950E-01   120   0.262E+00    0.680E-01
DAV:   3    -0.102522739571E+03    0.59096E-02   -0.16922E-02   120   0.518E-01    0.335E-01
DAV:   4    -0.102521486054E+03    0.12535E-02   -0.78227E-03   112   0.306E-01    0.727E-02
DAV:   5    -0.102521319561E+03    0.16649E-03   -0.68031E-04   112   0.109E-01    0.451E-02
DAV:   6    -0.102521405355E+03   -0.85794E-04   -0.20695E-04   112   0.496E-02    0.231E-02
DAV:   7    -0.102521667442E+03   -0.26209E-03   -0.63597E-05   110   0.316E-02    0.968E-03
DAV:   8    -0.102521808252E+03   -0.14081E-03   -0.22311E-05   112   0.175E-02    0.868E-03
DAV:   9    -0.102521965186E+03   -0.15693E-03   -0.77822E-06   112   0.900E-03    0.500E-03
DAV:  10    -0.102522161641E+03   -0.19645E-03   -0.16410E-05   112   0.937E-03    0.294E-03
DAV:  11    -0.102522215159E+03   -0.53518E-04   -0.14848E-06    96   0.375E-03    0.163E-03
DAV:  12    -0.102522297722E+03   -0.82562E-04   -0.47787E-06   104   0.506E-03    0.791E-04
DAV:  13    -0.102522316499E+03   -0.18778E-04   -0.30829E-07    88   0.223E-03    0.750E-04
DAV:  14    -0.102522341035E+03   -0.24535E-04   -0.68682E-07    88   0.190E-03    0.386E-04
DAV:  15    -0.102522346311E+03   -0.52759E-05   -0.11182E-07    88   0.925E-04    0.473E-04
DAV:  16    -0.102522353441E+03   -0.71302E-05   -0.12973E-07    88   0.934E-04    0.229E-04
DAV:  17    -0.102522354390E+03   -0.94882E-06   -0.18354E-08    96   0.389E-04
   2 F= -.10252235E+03 E0= -.10252235E+03  d E =-.210551E+00
       N       E                     dE             d eps       ncg     rms          rms(c)
DAV:   1    -0.102530187177E+03   -0.78337E-02   -0.23394E-01    84   0.203E+00    0.200E-01
DAV:   2    -0.102530965360E+03   -0.77818E-03   -0.10746E-02   120   0.419E-01    0.114E-01
DAV:   3    -0.102530789979E+03    0.17538E-03   -0.47531E-04   120   0.862E-02    0.544E-02
DAV:   4    -0.102530745540E+03    0.44439E-04   -0.19573E-04   112   0.487E-02    0.138E-02
DAV:   5    -0.102530745295E+03    0.24517E-06   -0.16216E-05   110   0.170E-02    0.713E-03
DAV:   6    -0.102530759322E+03   -0.14027E-04   -0.65838E-06   104   0.872E-03    0.324E-03
DAV:   7    -0.102530781981E+03   -0.22659E-04   -0.20835E-06    88   0.519E-03    0.144E-03
DAV:   8    -0.102530792412E+03   -0.10431E-04   -0.73823E-07    88   0.305E-03    0.136E-03
DAV:   9    -0.102530804234E+03   -0.11822E-04   -0.63813E-07    88   0.215E-03    0.606E-04
DAV:  10    -0.102530814942E+03   -0.10708E-04   -0.81226E-07    88   0.202E-03    0.429E-04
DAV:  11    -0.102530817661E+03   -0.27194E-05   -0.10218E-07    88   0.895E-04    0.183E-04
DAV:  12    -0.102530821519E+03   -0.38577E-05   -0.21810E-07    88   0.105E-03    0.106E-04
DAV:  13    -0.102530822401E+03   -0.88252E-06   -0.33633E-08    88   0.490E-04
   3 F= -.10253082E+03 E0= -.10253082E+03  d E =-.219019E+00
       N       E                     dE             d eps       ncg     rms          rms(c)
DAV:   1    -0.102561367617E+03   -0.30546E-01   -0.60940E-01    88   0.341E+00    0.314E-01
DAV:   2    -0.102563693862E+03   -0.23262E-02   -0.31888E-02   120   0.665E-01    0.147E-01
DAV:   3    -0.102563473925E+03    0.21994E-03   -0.15288E-03   120   0.155E-01    0.790E-02
DAV:   4    -0.102563462372E+03    0.11553E-04   -0.39237E-04   112   0.752E-02    0.273E-02
DAV:   5    -0.102563458304E+03    0.40679E-05   -0.39238E-05   120   0.264E-02    0.137E-02
DAV:   6    -0.102563460193E+03   -0.18890E-05   -0.83390E-06   112   0.119E-02    0.656E-03
DAV:   7    -0.102563473859E+03   -0.13667E-04   -0.41473E-06   104   0.785E-03    0.198E-03
DAV:   8    -0.102563481368E+03   -0.75091E-05   -0.63963E-07    88   0.350E-03    0.140E-03
DAV:   9    -0.102563491729E+03   -0.10361E-04   -0.49523E-07    88   0.210E-03    0.575E-04
DAV:  10    -0.102563502900E+03   -0.11171E-04   -0.75596E-07    88   0.232E-03    0.629E-04
DAV:  11    -0.102563510583E+03   -0.76833E-05   -0.46403E-07    88   0.178E-03    0.205E-04
DAV:  12    -0.102563513688E+03   -0.31053E-05   -0.14754E-07    88   0.101E-03    0.224E-04
DAV:  13    -0.102563515393E+03   -0.17045E-05   -0.39605E-08    88   0.626E-04    0.980E-05
DAV:  14    -0.102563516941E+03   -0.15483E-05   -0.62927E-08    88   0.585E-04    0.773E-05
DAV:  15    -0.102563517203E+03   -0.26168E-06   -0.54343E-09    80   0.241E-04
   4 F= -.10256352E+03 E0= -.10256352E+03  d E =-.326948E-01
       N       E                     dE             d eps       ncg     rms          rms(c)
DAV:   1    -0.102568394213E+03   -0.48773E-02   -0.24785E-01    88   0.218E+00    0.199E-01
DAV:   2    -0.102569349272E+03   -0.95506E-03   -0.13082E-02   120   0.426E-01    0.948E-02
DAV:   3    -0.102569260478E+03    0.88794E-04   -0.63008E-04   120   0.100E-01    0.508E-02
DAV:   4    -0.102569256307E+03    0.41705E-05   -0.16084E-04   112   0.481E-02    0.180E-02
DAV:   5    -0.102569253479E+03    0.28280E-05   -0.15757E-05   120   0.168E-02    0.875E-03
DAV:   6    -0.102569253740E+03   -0.26041E-06   -0.33995E-06   104   0.764E-03
   5 F= -.10256925E+03 E0= -.10256925E+03  d E =-.384313E-01
       N       E                     dE             d eps       ncg     rms          rms(c)
DAV:   1    -0.102580462014E+03   -0.11209E-01   -0.35717E-01    86   0.278E+00    0.205E-01
DAV:   2    -0.102580754010E+03   -0.29200E-03   -0.11097E-02   112   0.402E-01    0.109E-01
DAV:   3    -0.102580600665E+03    0.15334E-03   -0.65987E-04   128   0.952E-02    0.586E-02
DAV:   4    -0.102580552298E+03    0.48367E-04   -0.15708E-04   112   0.441E-02    0.152E-02
DAV:   5    -0.102580550056E+03    0.22419E-05   -0.17787E-05   112   0.171E-02    0.964E-03
DAV:   6    -0.102580560879E+03   -0.10823E-04   -0.39421E-06   104   0.817E-03    0.316E-03
DAV:   7    -0.102580578507E+03   -0.17628E-04   -0.18173E-06   104   0.475E-03    0.180E-03
DAV:   8    -0.102580598669E+03   -0.20161E-04   -0.68950E-07    88   0.245E-03    0.986E-04
DAV:   9    -0.102580624336E+03   -0.25667E-04   -0.17175E-06    88   0.290E-03    0.720E-04
DAV:  10    -0.102580642588E+03   -0.18251E-04   -0.95069E-07    88   0.233E-03    0.362E-04
DAV:  11    -0.102580650271E+03   -0.76830E-05   -0.35898E-07    88   0.137E-03    0.210E-04
DAV:  12    -0.102580655387E+03   -0.51160E-05   -0.12984E-07    88   0.911E-04    0.146E-04
DAV:  13    -0.102580658216E+03   -0.28289E-05   -0.94562E-08    88   0.677E-04    0.830E-05
DAV:  14    -0.102580659315E+03   -0.10995E-05   -0.20858E-08    88   0.354E-04    0.323E-05
DAV:  15    -0.102580659770E+03   -0.45451E-06   -0.52003E-09    88   0.211E-04
   6 F= -.10258066E+03 E0= -.10258066E+03  d E =-.114060E-01
       N       E                     dE             d eps       ncg     rms          rms(c)
DAV:   1    -0.102581145060E+03   -0.48574E-03   -0.22101E-02    86   0.691E-01    0.509E-02
DAV:   2    -0.102581166235E+03   -0.21175E-04   -0.69485E-04   112   0.101E-01    0.273E-02
DAV:   3    -0.102581158136E+03    0.80993E-05   -0.40553E-05   128   0.236E-02    0.147E-02
DAV:   4    -0.102581155441E+03    0.26948E-05   -0.98154E-06   104   0.110E-02    0.380E-03
DAV:   5    -0.102581154382E+03    0.10588E-05   -0.96389E-07    88   0.423E-03    0.209E-03
DAV:   6    -0.102581154060E+03    0.32238E-06   -0.35125E-07    88   0.258E-03
   7 F= -.10258115E+03 E0= -.10258115E+03  d E =-.119003E-01
       N       E                     dE             d eps       ncg     rms          rms(c)
DAV:   1    -0.102585153146E+03   -0.39988E-02   -0.20045E-01    88   0.206E+00    0.152E-01
DAV:   2    -0.102585558422E+03   -0.40528E-03   -0.66010E-03   120   0.307E-01    0.801E-02
DAV:   3    -0.102585474577E+03    0.83845E-04   -0.34059E-04   120   0.727E-02    0.421E-02
DAV:   4    -0.102585469607E+03    0.49701E-05   -0.13573E-04   112   0.423E-02    0.106E-02
DAV:   5    -0.102585469358E+03    0.24888E-06   -0.14966E-05   112   0.158E-02    0.685E-03
DAV:   6    -0.102585470172E+03   -0.81366E-06   -0.18211E-06   104   0.504E-03
   8 F= -.10258547E+03 E0= -.10258547E+03  d E =-.431611E-02
       N       E                     dE             d eps       ncg     rms          rms(c)
DAV:   1    -0.102585507406E+03   -0.38048E-04   -0.20411E-03    88   0.208E-01    0.154E-02
DAV:   2    -0.102585513336E+03   -0.59293E-05   -0.70908E-05   120   0.318E-02    0.826E-03
DAV:   3    -0.102585513921E+03   -0.58508E-06   -0.34347E-06   120   0.737E-03
   9 F= -.10258551E+03 E0= -.10258551E+03  d E =-.435986E-02
       N       E                     dE             d eps       ncg     rms          rms(c)
DAV:   1    -0.102587277323E+03   -0.17640E-02   -0.56825E-02    84   0.110E+00    0.705E-02
DAV:   2    -0.102587323587E+03   -0.46264E-04   -0.12116E-03   120   0.139E-01    0.383E-02
DAV:   3    -0.102587298459E+03    0.25128E-04   -0.81276E-05   128   0.364E-02    0.178E-02
DAV:   4    -0.102587296994E+03    0.14652E-05   -0.27107E-05   120   0.195E-02    0.535E-03
DAV:   5    -0.102587297807E+03   -0.81277E-06   -0.23096E-06   112   0.694E-03
  10 F= -.10258730E+03 E0= -.10258730E+03  d E =-.178389E-02
       N       E                     dE             d eps       ncg     rms          rms(c)
DAV:   1    -0.102588140950E+03   -0.84396E-03   -0.13459E-01    84   0.169E+00    0.108E-01
DAV:   2    -0.102588254035E+03   -0.11309E-03   -0.28774E-03   120   0.214E-01    0.588E-02
DAV:   3    -0.102588193037E+03    0.60998E-04   -0.19106E-04   128   0.560E-02    0.275E-02
DAV:   4    -0.102588186718E+03    0.63188E-05   -0.63258E-05   120   0.299E-02    0.824E-03
DAV:   5    -0.102588187517E+03   -0.79870E-06   -0.58379E-06   112   0.109E-02
  11 F= -.10258819E+03 E0= -.10258819E+03  d E =-.267360E-02
       N       E                     dE             d eps       ncg     rms          rms(c)
DAV:   1    -0.102589253008E+03   -0.10663E-02   -0.41162E-02    84   0.904E-01    0.595E-02
DAV:   2    -0.102589338163E+03   -0.85155E-04   -0.12362E-03   120   0.143E-01    0.363E-02
DAV:   3    -0.102589323664E+03    0.14499E-04   -0.50945E-05   128   0.309E-02    0.178E-02
DAV:   4    -0.102589327423E+03   -0.37589E-05   -0.22703E-05   112   0.181E-02    0.429E-03
DAV:   5    -0.102589331078E+03   -0.36557E-05   -0.29023E-06    96   0.733E-03    0.220E-03
DAV:   6    -0.102589333498E+03   -0.24203E-05   -0.54378E-07    88   0.300E-03    0.133E-03
DAV:   7    -0.102589337615E+03   -0.41161E-05   -0.21408E-07    80   0.191E-03    0.349E-04
DAV:   8    -0.102589340487E+03   -0.28726E-05   -0.17073E-07    88   0.150E-03    0.381E-04
DAV:   9    -0.102589344132E+03   -0.36450E-05   -0.13781E-07    88   0.128E-03    0.180E-04
DAV:  10    -0.102589346099E+03   -0.19670E-05   -0.95232E-08    88   0.898E-04    0.164E-04
DAV:  11    -0.102589346970E+03   -0.87057E-06   -0.25897E-08    88   0.542E-04
  12 F= -.10258935E+03 E0= -.10258935E+03  d E =-.115945E-02
       N       E                     dE             d eps       ncg     rms          rms(c)
DAV:   1    -0.102589895302E+03   -0.54920E-03   -0.46070E-02    84   0.956E-01    0.628E-02
DAV:   2    -0.102589987519E+03   -0.92217E-04   -0.13756E-03   120   0.151E-01    0.385E-02
DAV:   3    -0.102589967969E+03    0.19551E-04   -0.56887E-05   128   0.324E-02    0.188E-02
DAV:   4    -0.102589966938E+03    0.10308E-05   -0.25476E-05   120   0.189E-02    0.451E-03
DAV:   5    -0.102589966873E+03    0.65274E-07   -0.30704E-06   112   0.729E-03
  13 F= -.10258997E+03 E0= -.10258997E+03  d E =-.177936E-02
       N       E                     dE             d eps       ncg     rms          rms(c)
DAV:   1    -0.102589137046E+03    0.82989E-03   -0.18419E-01    84   0.191E+00    0.126E-01
DAV:   2    -0.102589511690E+03   -0.37464E-03   -0.55205E-03   120   0.302E-01    0.770E-02
DAV:   3    -0.102589435558E+03    0.76132E-04   -0.22623E-04   128   0.647E-02    0.377E-02
DAV:   4    -0.102589432741E+03    0.28171E-05   -0.10127E-04   120   0.377E-02    0.906E-03
DAV:   5    -0.102589433368E+03   -0.62736E-06   -0.12368E-05   112   0.146E-02    0.468E-03
DAV:   6    -0.102589434464E+03   -0.10960E-05   -0.15955E-06    96   0.497E-03    0.276E-03
DAV:   7    -0.102589437649E+03   -0.31848E-05   -0.45168E-07    88   0.300E-03    0.666E-04
DAV:   8    -0.102589440160E+03   -0.25110E-05   -0.37019E-07    88   0.234E-03    0.655E-04
DAV:   9    -0.102589442817E+03   -0.26569E-05   -0.12232E-07    88   0.142E-03    0.315E-04
DAV:  10    -0.102589446703E+03   -0.38860E-05   -0.22210E-07    88   0.132E-03    0.247E-04
DAV:  11    -0.102589448364E+03   -0.16615E-05   -0.71891E-08    88   0.771E-04    0.270E-04
DAV:  12    -0.102589449536E+03   -0.11713E-05   -0.33313E-08    88   0.586E-04    0.101E-04
DAV:  13    -0.102589450431E+03   -0.89492E-06   -0.23059E-08    88   0.430E-04
  14 F= -.10258945E+03 E0= -.10258945E+03  d E =-.126291E-02
       N       E                     dE             d eps       ncg     rms          rms(c)
DAV:   1    -0.102589889981E+03   -0.44045E-03   -0.95018E-02    84   0.137E+00    0.904E-02
DAV:   2    -0.102590090109E+03   -0.20013E-03   -0.28392E-03   120   0.217E-01    0.553E-02
DAV:   3    -0.102590056261E+03    0.33849E-04   -0.11714E-04   128   0.465E-02    0.271E-02
DAV:   4    -0.102590057517E+03   -0.12562E-05   -0.52506E-05   112   0.272E-02    0.638E-03
DAV:   5    -0.102590057012E+03    0.50538E-06   -0.63835E-06   112   0.105E-02
  15 F= -.10259006E+03 E0= -.10259006E+03  d E =-.186949E-02
       N       E                     dE             d eps       ncg     rms          rms(c)
DAV:   1    -0.102591118018E+03   -0.10605E-02   -0.54573E-02    84   0.105E+00    0.775E-02
DAV:   2    -0.102591197275E+03   -0.79257E-04   -0.14481E-03   120   0.150E-01    0.410E-02
DAV:   3    -0.102591170054E+03    0.27221E-04   -0.80083E-05   128   0.369E-02    0.200E-02
DAV:   4    -0.102591168254E+03    0.18007E-05   -0.29336E-05   112   0.197E-02    0.641E-03
DAV:   5    -0.102591169374E+03   -0.11206E-05   -0.18717E-06    96   0.619E-03    0.337E-03
DAV:   6    -0.102591170931E+03   -0.15566E-05   -0.79418E-07    88   0.356E-03    0.125E-03
DAV:   7    -0.102591172715E+03   -0.17847E-05   -0.29269E-07    88   0.215E-03    0.419E-04
DAV:   8    -0.102591174039E+03   -0.13240E-05   -0.83381E-08    88   0.105E-03    0.325E-04
DAV:   9    -0.102591176012E+03   -0.19722E-05   -0.85494E-08    88   0.811E-04    0.139E-04
DAV:  10    -0.102591177177E+03   -0.11653E-05   -0.48549E-08    88   0.576E-04    0.104E-04
DAV:  11    -0.102591178005E+03   -0.82835E-06   -0.33022E-08    88   0.496E-04
  16 F= -.10259118E+03 E0= -.10259118E+03  d E =-.112099E-02
       N       E                     dE             d eps       ncg     rms          rms(c)
DAV:   1    -0.102591391409E+03   -0.21423E-03   -0.34412E-02    84   0.832E-01    0.617E-02
DAV:   2    -0.102591441377E+03   -0.49968E-04   -0.91115E-04   120   0.119E-01    0.324E-02
DAV:   3    -0.102591424565E+03    0.16812E-04   -0.50453E-05   128   0.294E-02    0.157E-02
DAV:   4    -0.102591423464E+03    0.11016E-05   -0.18376E-05   112   0.157E-02    0.509E-03
DAV:   5    -0.102591423799E+03   -0.33499E-06   -0.11421E-06    88   0.492E-03
  17 F= -.10259142E+03 E0= -.10259142E+03  d E =-.136679E-02
       N       E                     dE             d eps       ncg     rms          rms(c)
DAV:   1    -0.102591567389E+03   -0.14393E-03   -0.86542E-03    84   0.406E-01    0.344E-02
DAV:   2    -0.102591597823E+03   -0.30434E-04   -0.39549E-04   120   0.779E-02    0.194E-02
DAV:   3    -0.102591593955E+03    0.38680E-05   -0.13006E-05   120   0.153E-02    0.107E-02
DAV:   4    -0.102591593414E+03    0.54146E-06   -0.63004E-06   112   0.101E-02
  18 F= -.10259159E+03 E0= -.10259159E+03  d E =-.169615E-03
