       N       E                     dE             d eps       ncg     rms          rms(c)
DAV:   1     0.244719283930E+03    0.24472E+03   -0.10205E+04   120   0.484E+02
DAV:   2    -0.238096654930E+02   -0.26853E+03   -0.25376E+03   156   0.916E+01
DAV:   3    -0.103807606338E+03   -0.79998E+02   -0.79792E+02   120   0.551E+01
DAV:   4    -0.107645287923E+03   -0.38377E+01   -0.38238E+01   120   0.175E+01
DAV:   5    -0.107727716298E+03   -0.82428E-01   -0.82339E-01   168   0.288E+00    0.157E+01
DAV:   6    -0.104206090516E+03    0.35216E+01   -0.16095E+00   108   0.437E+00    0.904E+00
DAV:   7    -0.102395926066E+03    0.18102E+01   -0.43099E+00   120   0.639E+00    0.131E+00
DAV:   8    -0.102340995791E+03    0.54930E-01   -0.33544E-01   132   0.221E+00    0.694E-01
DAV:   9    -0.102307728549E+03    0.33267E-01   -0.61377E-02   144   0.674E-01    0.363E-01
DAV:  10    -0.102305940954E+03    0.17876E-02   -0.35179E-03   120   0.204E-01    0.150E-01
DAV:  11    -0.102304683892E+03    0.12571E-02   -0.63184E-03   120   0.214E-01    0.106E-01
DAV:  12    -0.102310111964E+03   -0.54281E-02   -0.15018E-03   108   0.105E-01    0.507E-02
DAV:  13    -0.102313675527E+03   -0.35636E-02   -0.19035E-03   120   0.106E-01    0.433E-02
DAV:  14    -0.102316664048E+03   -0.29885E-02   -0.16468E-04   144   0.424E-02    0.222E-02
DAV:  15    -0.102321901580E+03   -0.52375E-02   -0.59203E-04   108   0.583E-02    0.133E-02
DAV:  16    -0.102323391557E+03   -0.14900E-02   -0.85401E-05   132   0.265E-02    0.827E-03
DAV:  17    -0.102324815704E+03   -0.14241E-02   -0.13334E-04   108   0.244E-02    0.719E-03
DAV:  18    -0.102325078323E+03   -0.26262E-03   -0.67947E-06   132   0.653E-03    0.199E-03
DAV:  19    -0.102325343779E+03   -0.26546E-03   -0.12258E-05   108   0.756E-03    0.194E-03
DAV:  20    -0.102325402554E+03   -0.58774E-04   -0.99814E-07    96   0.304E-03    0.737E-04
DAV:  21    -0.102325436217E+03   -0.33664E-04   -0.83668E-07    84   0.218E-03    0.450E-04
DAV:  22    -0.102325447345E+03   -0.11127E-04   -0.23672E-07   108   0.117E-03    0.256E-04
DAV:  23    -0.102325451194E+03   -0.38493E-05   -0.68286E-08   108   0.619E-04    0.170E-04
DAV:  24    -0.102325455031E+03   -0.38372E-05   -0.62974E-08   108   0.591E-04    0.116E-04
DAV:  25    -0.102325455741E+03   -0.71013E-06   -0.72190E-09   108   0.292E-04
   1 F= -.10232546E+03 E0= -.10232546E+03  d E =-.208475E-10
       N       E                     dE             d eps       ncg     rms          rms(c)
DAV:   1    -0.102322226295E+03    0.32287E-02   -0.83273E-02   120   0.832E-01    0.126E-01
DAV:   2    -0.102322580380E+03   -0.35409E-03   -0.39734E-03   132   0.211E-01    0.563E-02
DAV:   3    -0.102322567603E+03    0.12777E-04   -0.14467E-04   132   0.450E-02    0.294E-02
DAV:   4    -0.102322570686E+03   -0.30829E-05   -0.35361E-05   132   0.223E-02    0.841E-03
DAV:   5    -0.102322569885E+03    0.80116E-06   -0.63565E-06   144   0.994E-03
   2 F= -.10232257E+03 E0= -.10232257E+03  d E =-.337822E-10
       N       E                     dE             d eps       ncg     rms          rms(c)
DAV:   1    -0.102320846757E+03    0.17239E-02   -0.32855E-01    96   0.165E+00    0.262E-01
DAV:   2    -0.102322213184E+03   -0.13664E-02   -0.15414E-02   132   0.416E-01    0.112E-01
DAV:   3    -0.102322166121E+03    0.47063E-04   -0.56048E-04   132   0.878E-02    0.597E-02
DAV:   4    -0.102322182201E+03   -0.16080E-04   -0.14219E-04   132   0.443E-02    0.165E-02
DAV:   5    -0.102322179336E+03    0.28651E-05   -0.25016E-05   144   0.195E-02    0.965E-03
DAV:   6    -0.102322179006E+03    0.32989E-06   -0.48607E-06   132   0.753E-03
   3 F= -.10232218E+03 E0= -.10232218E+03  d E =-.424631E-10
       N       E                     dE             d eps       ncg     rms          rms(c)
DAV:   1    -0.102321719359E+03    0.45998E-03   -0.16892E-01    96   0.117E+00    0.160E-01
DAV:   2    -0.102322475273E+03   -0.75591E-03   -0.81645E-03   132   0.296E-01    0.767E-02
DAV:   3    -0.102322461416E+03    0.13856E-04   -0.27821E-04   144   0.620E-02    0.397E-02
DAV:   4    -0.102322473515E+03   -0.12099E-04   -0.62766E-05   132   0.294E-02    0.112E-02
DAV:   5    -0.102322473225E+03    0.28982E-06   -0.10438E-05   132   0.127E-02    0.636E-03
DAV:   6    -0.102322473607E+03   -0.38107E-06   -0.27264E-06   132   0.565E-03
   4 F= -.10232247E+03 E0= -.10232247E+03  d E =-.503801E-10
       N       E                     dE             d eps       ncg     rms          rms(c)
DAV:   1    -0.102320823507E+03    0.16497E-02   -0.32690E-01    96   0.168E+00    0.238E-01
DAV:   2    -0.102322341475E+03   -0.15180E-02   -0.16451E-02   132   0.434E-01    0.112E-01
DAV:   3    -0.102322302101E+03    0.39374E-04   -0.54986E-04   144   0.896E-02    0.583E-02
DAV:   4    -0.102322317349E+03   -0.15248E-04   -0.14172E-04   132   0.447E-02    0.161E-02
DAV:   5    -0.102322312720E+03    0.46289E-05   -0.25617E-05   132   0.197E-02    0.929E-03
DAV:   6    -0.102322312049E+03    0.67070E-06   -0.57880E-06   132   0.826E-03
   5 F= -.10232231E+03 E0= -.10232231E+03  d E =-.408260E-10
       N       E                     dE             d eps       ncg     rms          rms(c)
DAV:   1    -0.102320040867E+03    0.22719E-02   -0.16357E-01    96   0.121E+00    0.161E-01
DAV:   2    -0.102320949903E+03   -0.90904E-03   -0.96736E-03   132   0.334E-01    0.919E-02
DAV:   3    -0.102320913583E+03    0.36320E-04   -0.28590E-04   132   0.669E-02    0.494E-02
DAV:   4    -0.102320921027E+03   -0.74439E-05   -0.10884E-04   132   0.392E-02    0.118E-02
DAV:   5    -0.102320919586E+03    0.14412E-05   -0.20497E-05   132   0.170E-02    0.739E-03
DAV:   6    -0.102320921530E+03   -0.19445E-05   -0.35228E-06   132   0.606E-03    0.468E-03
DAV:   7    -0.102320927392E+03   -0.58619E-05   -0.47256E-07    96   0.245E-03    0.155E-03
DAV:   8    -0.102320932775E+03   -0.53826E-05   -0.45859E-07   108   0.231E-03    0.680E-04
DAV:   9    -0.102320938354E+03   -0.55798E-05   -0.35695E-07   108   0.177E-03    0.565E-04
DAV:  10    -0.102320945407E+03   -0.70532E-05   -0.57079E-07   120   0.166E-03    0.495E-04
DAV:  11    -0.102320946543E+03   -0.11352E-05   -0.35260E-08   108   0.703E-04    0.320E-04
DAV:  12    -0.102320948200E+03   -0.16576E-05   -0.35450E-08   108   0.521E-04    0.155E-04
DAV:  13    -0.102320949713E+03   -0.15123E-05   -0.44483E-08   108   0.465E-04    0.104E-04
DAV:  14    -0.102320950663E+03   -0.95073E-06   -0.16705E-08   108   0.302E-04
   6 F= -.10232095E+03 E0= -.10232095E+03  d E =-.553558E-10
       N       E                     dE             d eps       ncg     rms          rms(c)
DAV:   1    -0.102319055006E+03    0.18947E-02   -0.33434E-01    96   0.170E+00    0.263E-01
DAV:   2    -0.102321377721E+03   -0.23227E-02   -0.25139E-02   120   0.527E-01    0.169E-01
DAV:   3    -0.102321208263E+03    0.16946E-03   -0.68145E-04   132   0.110E-01    0.880E-02
DAV:   4    -0.102321206773E+03    0.14898E-05   -0.44094E-04   132   0.757E-02    0.170E-02
DAV:   5    -0.102321197556E+03    0.92173E-05   -0.67402E-05   132   0.303E-02    0.125E-02
DAV:   6    -0.102321197893E+03   -0.33673E-06   -0.11247E-05   132   0.952E-03    0.787E-03
DAV:   7    -0.102321209328E+03   -0.11435E-04   -0.94470E-07   108   0.364E-03    0.336E-03
DAV:   8    -0.102321228251E+03   -0.18923E-04   -0.23712E-06   132   0.535E-03    0.153E-03
DAV:   9    -0.102321242235E+03   -0.13984E-04   -0.11606E-06   132   0.288E-03    0.177E-03
DAV:  10    -0.102321261526E+03   -0.19291E-04   -0.86758E-07   120   0.211E-03    0.900E-04
DAV:  11    -0.102321268039E+03   -0.65132E-05   -0.24461E-07   108   0.121E-03    0.560E-04
DAV:  12    -0.102321276453E+03   -0.84144E-05   -0.26316E-07   108   0.113E-03    0.273E-04
DAV:  13    -0.102321279779E+03   -0.33255E-05   -0.81575E-08   108   0.595E-04    0.222E-04
DAV:  14    -0.102321282247E+03   -0.24684E-05   -0.25168E-08   108   0.402E-04    0.107E-04
DAV:  15    -0.102321283499E+03   -0.12522E-05   -0.17455E-08   108   0.308E-04    0.841E-05
DAV:  16    -0.102321284176E+03   -0.67665E-06    0.15174E-09   108   0.190E-04
   7 F= -.10232128E+03 E0= -.10232128E+03  d E =-.374347E-10
       N       E                     dE             d eps       ncg     rms          rms(c)
DAV:   1    -0.102320154208E+03    0.11293E-02   -0.19126E-01    96   0.133E+00    0.189E-01
DAV:   2    -0.102321524369E+03   -0.13702E-02   -0.14273E-02   132   0.417E-01    0.120E-01
DAV:   3    -0.102321440444E+03    0.83925E-04   -0.38005E-04   132   0.840E-02    0.647E-02
DAV:   4    -0.102321440695E+03   -0.25045E-06   -0.22757E-04   132   0.585E-02    0.122E-02
DAV:   5    -0.102321435413E+03    0.52814E-05   -0.44207E-05   132   0.243E-02    0.984E-03
DAV:   6    -0.102321436277E+03   -0.86377E-06   -0.43957E-06   144   0.658E-03
   8 F= -.10232144E+03 E0= -.10232144E+03  d E =-.386305E-10
       N       E                     dE             d eps       ncg     rms          rms(c)
DAV:   1    -0.102319557996E+03    0.18774E-02   -0.33526E-01    96   0.174E+00    0.258E-01
DAV:   2    -0.102321515676E+03   -0.19577E-02   -0.20214E-02   132   0.471E-01    0.153E-01
DAV:   3    -0.102321447537E+03    0.68139E-04   -0.57227E-04   132   0.924E-02    0.786E-02
DAV:   4    -0.102321447948E+03   -0.41147E-06   -0.21621E-04   132   0.543E-02    0.156E-02
DAV:   5    -0.102321437671E+03    0.10277E-04   -0.35249E-05   144   0.227E-02    0.102E-02
DAV:   6    -0.102321437808E+03   -0.13674E-06   -0.71742E-06   132   0.926E-03
   9 F= -.10232144E+03 E0= -.10232144E+03  d E =-.504936E-10
       N       E                     dE             d eps       ncg     rms          rms(c)
DAV:   1    -0.102319660811E+03    0.17769E-02   -0.16845E-01    96   0.121E+00    0.186E-01
DAV:   2    -0.102320808186E+03   -0.11474E-02   -0.11534E-02   132   0.358E-01    0.117E-01
DAV:   3    -0.102320783241E+03    0.24945E-04   -0.29948E-04   144   0.694E-02    0.620E-02
DAV:   4    -0.102320802485E+03   -0.19244E-04   -0.16154E-04   120   0.465E-02    0.119E-02
DAV:   5    -0.102320797375E+03    0.51095E-05   -0.33610E-05   144   0.212E-02    0.843E-03
DAV:   6    -0.102320797924E+03   -0.54842E-06   -0.66608E-06   132   0.755E-03
  10 F= -.10232080E+03 E0= -.10232080E+03  d E =-.396399E-10
       N       E                     dE             d eps       ncg     rms          rms(c)
DAV:   1    -0.102317782669E+03    0.30147E-02   -0.34332E-01    96   0.170E+00    0.260E-01
DAV:   2    -0.102320497738E+03   -0.27151E-02   -0.27391E-02   132   0.524E-01    0.186E-01
DAV:   3    -0.102320350217E+03    0.14752E-03   -0.62703E-04   144   0.103E-01    0.979E-02
DAV:   4    -0.102320376890E+03   -0.26673E-04   -0.47904E-04   120   0.789E-02    0.181E-02
DAV:   5    -0.102320362553E+03    0.14337E-04   -0.10666E-04   132   0.358E-02    0.132E-02
DAV:   6    -0.102320359664E+03    0.28894E-05   -0.18233E-05   132   0.109E-02    0.784E-03
DAV:   7    -0.102320371356E+03   -0.11692E-04   -0.20684E-06   132   0.453E-03    0.315E-03
DAV:   8    -0.102320387714E+03   -0.16358E-04   -0.26513E-06   132   0.471E-03    0.137E-03
DAV:   9    -0.102320402998E+03   -0.15284E-04   -0.14292E-06   132   0.284E-03    0.141E-03
DAV:  10    -0.102320419023E+03   -0.16025E-04   -0.13725E-06   120   0.250E-03    0.417E-04
DAV:  11    -0.102320424036E+03   -0.50129E-05   -0.14684E-07   108   0.104E-03    0.275E-04
DAV:  12    -0.102320431133E+03   -0.70975E-05   -0.36312E-07    96   0.112E-03    0.180E-04
DAV:  13    -0.102320432758E+03   -0.16247E-05   -0.39197E-08   108   0.413E-04    0.163E-04
DAV:  14    -0.102320435149E+03   -0.23909E-05   -0.53350E-08    96   0.482E-04    0.635E-05
DAV:  15    -0.102320435780E+03   -0.63146E-06   -0.91732E-09   108   0.247E-04
  11 F= -.10232044E+03 E0= -.10232044E+03  d E =-.493768E-10
       N       E                     dE             d eps       ncg     rms          rms(c)
DAV:   1    -0.102320819489E+03   -0.38434E-03   -0.16927E-01    96   0.118E+00    0.185E-01
DAV:   2    -0.102322089348E+03   -0.12699E-02   -0.13055E-02   132   0.383E-01    0.125E-01
DAV:   3    -0.102322016216E+03    0.73132E-04   -0.30032E-04   132   0.722E-02    0.681E-02
DAV:   4    -0.102322016901E+03   -0.68493E-06   -0.21176E-04   132   0.560E-02    0.124E-02
DAV:   5    -0.102322011351E+03    0.55495E-05   -0.52947E-05   132   0.262E-02    0.937E-03
DAV:   6    -0.102322011826E+03   -0.47432E-06   -0.86935E-06   132   0.846E-03
  12 F= -.10232201E+03 E0= -.10232201E+03  d E =-.412599E-10
       N       E                     dE             d eps       ncg     rms          rms(c)
DAV:   1    -0.102320401896E+03    0.16095E-02   -0.33138E-01    96   0.167E+00    0.271E-01
DAV:   2    -0.102322016344E+03   -0.16144E-02   -0.17071E-02   132   0.427E-01    0.133E-01
DAV:   3    -0.102321989546E+03    0.26798E-04   -0.56422E-04   132   0.897E-02    0.709E-02
DAV:   4    -0.102322018990E+03   -0.29443E-04   -0.18064E-04   132   0.547E-02    0.156E-02
DAV:   5    -0.102322016193E+03    0.27965E-05   -0.44484E-05   144   0.255E-02    0.112E-02
DAV:   6    -0.102322015496E+03    0.69709E-06   -0.63447E-06   132   0.884E-03
  13 F= -.10232202E+03 E0= -.10232202E+03  d E =-.503360E-10
       N       E                     dE             d eps       ncg     rms          rms(c)
DAV:   1    -0.102319866630E+03    0.21496E-02   -0.16693E-01    96   0.129E+00    0.193E-01
DAV:   2    -0.102321148124E+03   -0.12815E-02   -0.13276E-02   132   0.406E-01    0.115E-01
DAV:   3    -0.102321090257E+03    0.57868E-04   -0.36417E-04   144   0.784E-02    0.657E-02
DAV:   4    -0.102321102363E+03   -0.12106E-04   -0.18984E-04   132   0.562E-02    0.133E-02
DAV:   5    -0.102321099625E+03    0.27376E-05   -0.51720E-05   132   0.267E-02    0.106E-02
DAV:   6    -0.102321097241E+03    0.23846E-05   -0.54953E-06   132   0.808E-03    0.716E-03
DAV:   7    -0.102321100535E+03   -0.32948E-05   -0.18344E-06   132   0.519E-03    0.275E-03
DAV:   8    -0.102321107301E+03   -0.67653E-05   -0.55976E-07   108   0.343E-03    0.787E-04
DAV:   9    -0.102321115463E+03   -0.81621E-05   -0.57687E-07   108   0.246E-03    0.108E-03
DAV:  10    -0.102321125785E+03   -0.10322E-04   -0.55347E-07   108   0.192E-03    0.386E-04
DAV:  11    -0.102321128636E+03   -0.28515E-05   -0.11909E-07   108   0.943E-04    0.277E-04
DAV:  12    -0.102321132493E+03   -0.38566E-05   -0.10252E-07   108   0.750E-04    0.125E-04
DAV:  13    -0.102321134763E+03   -0.22696E-05   -0.66258E-08   108   0.555E-04    0.139E-04
DAV:  14    -0.102321136248E+03   -0.14856E-05   -0.25943E-08   108   0.362E-04    0.998E-05
DAV:  15    -0.102321136912E+03   -0.66400E-06   -0.33738E-09   108   0.219E-04
  14 F= -.10232114E+03 E0= -.10232114E+03  d E =-.526781E-10
       N       E                     dE             d eps       ncg     rms          rms(c)
DAV:   1    -0.102318241061E+03    0.28952E-02   -0.34937E-01    96   0.180E+00    0.261E-01
DAV:   2    -0.102320756678E+03   -0.25156E-02   -0.25580E-02   132   0.564E-01    0.174E-01
DAV:   3    -0.102320629126E+03    0.12755E-03   -0.57716E-04   132   0.102E-01    0.945E-02
DAV:   4    -0.102320629478E+03   -0.35212E-06   -0.40187E-04   132   0.787E-02    0.170E-02
DAV:   5    -0.102320620875E+03    0.86034E-05   -0.97281E-05   132   0.364E-02    0.130E-02
DAV:   6    -0.102320624911E+03   -0.40361E-05   -0.17590E-05   132   0.122E-02    0.860E-03
DAV:   7    -0.102320645202E+03   -0.20291E-04   -0.24270E-06   132   0.550E-03    0.353E-03
DAV:   8    -0.102320670885E+03   -0.25683E-04   -0.25193E-06   132   0.458E-03    0.112E-03
DAV:   9    -0.102320695068E+03   -0.24183E-04   -0.25151E-06   132   0.380E-03    0.159E-03
DAV:  10    -0.102320714761E+03   -0.19693E-04   -0.15917E-06   120   0.286E-03    0.727E-04
DAV:  11    -0.102320721986E+03   -0.72253E-05   -0.32903E-07   108   0.137E-03    0.359E-04
DAV:  12    -0.102320728603E+03   -0.66167E-05   -0.32728E-07   108   0.114E-03    0.207E-04
DAV:  13    -0.102320730611E+03   -0.20079E-05   -0.61883E-08   108   0.532E-04    0.247E-04
DAV:  14    -0.102320732466E+03   -0.18550E-05   -0.39244E-08   108   0.466E-04    0.105E-04
DAV:  15    -0.102320732986E+03   -0.52000E-06   -0.42482E-09   108   0.243E-04
  15 F= -.10232073E+03 E0= -.10232073E+03  d E =-.402000E-10
       N       E                     dE             d eps       ncg     rms          rms(c)
DAV:   1    -0.102320326626E+03    0.40584E-03   -0.17551E-01    96   0.130E+00    0.187E-01
DAV:   2    -0.102321638846E+03   -0.13122E-02   -0.13316E-02   132   0.409E-01    0.129E-01
DAV:   3    -0.102321560701E+03    0.78146E-04   -0.29680E-04   144   0.742E-02    0.695E-02
DAV:   4    -0.102321562840E+03   -0.21394E-05   -0.23513E-04   132   0.591E-02    0.130E-02
DAV:   5    -0.102321555873E+03    0.69668E-05   -0.58776E-05   132   0.279E-02    0.947E-03
DAV:   6    -0.102321556965E+03   -0.10916E-05   -0.97726E-06   132   0.835E-03    0.545E-03
DAV:   7    -0.102321566718E+03   -0.97531E-05   -0.61842E-07   108   0.279E-03    0.265E-03
DAV:   8    -0.102321584026E+03   -0.17308E-04   -0.22485E-06   132   0.414E-03    0.102E-03
DAV:   9    -0.102321596269E+03   -0.12243E-04   -0.99853E-07   120   0.254E-03    0.119E-03
DAV:  10    -0.102321609300E+03   -0.13031E-04   -0.84591E-07    96   0.208E-03    0.413E-04
DAV:  11    -0.102321612656E+03   -0.33554E-05   -0.17138E-07   108   0.982E-04    0.259E-04
DAV:  12    -0.102321616699E+03   -0.40436E-05   -0.11313E-07    96   0.746E-04    0.129E-04
DAV:  13    -0.102321619160E+03   -0.24604E-05   -0.95232E-08   108   0.597E-04    0.134E-04
DAV:  14    -0.102321620374E+03   -0.12140E-05   -0.18354E-08   108   0.327E-04    0.960E-05
DAV:  15    -0.102321620968E+03   -0.59410E-06   -0.16728E-09   108   0.212E-04
  16 F= -.10232162E+03 E0= -.10232162E+03  d E =-.744954E-10
       N       E                     dE             d eps       ncg     rms          rms(c)
DAV:   1    -0.102319301173E+03    0.23192E-02   -0.34495E-01    96   0.181E+00    0.259E-01
DAV:   2    -0.102321308741E+03   -0.20076E-02   -0.20737E-02   120   0.507E-01    0.152E-01
DAV:   3    -0.102321229087E+03    0.79654E-04   -0.58227E-04   144   0.992E-02    0.777E-02
DAV:   4    -0.102321235198E+03   -0.61111E-05   -0.27648E-04   132   0.638E-02    0.158E-02
DAV:   5    -0.102321225045E+03    0.10153E-04   -0.56769E-05   132   0.284E-02    0.112E-02
DAV:   6    -0.102321224311E+03    0.73392E-06   -0.12115E-05   144   0.108E-02    0.682E-03
DAV:   7    -0.102321233785E+03   -0.94742E-05   -0.19076E-06   132   0.543E-03    0.275E-03
DAV:   8    -0.102321248554E+03   -0.14768E-04   -0.15786E-06   132   0.449E-03    0.119E-03
DAV:   9    -0.102321263954E+03   -0.15400E-04   -0.11217E-06   120   0.305E-03    0.138E-03
DAV:  10    -0.102321281517E+03   -0.17563E-04   -0.90095E-07   108   0.239E-03    0.481E-04
DAV:  11    -0.102321287706E+03   -0.61892E-05   -0.26013E-07   108   0.126E-03    0.301E-04
DAV:  12    -0.102321295255E+03   -0.75488E-05   -0.20068E-07    96   0.965E-04    0.160E-04
DAV:  13    -0.102321298285E+03   -0.30299E-05   -0.79652E-08   108   0.579E-04    0.180E-04
DAV:  14    -0.102321300616E+03   -0.23314E-05   -0.30265E-08   108   0.395E-04    0.909E-05
DAV:  15    -0.102321301518E+03   -0.90170E-06   -0.58681E-09   108   0.249E-04
  17 F= -.10232130E+03 E0= -.10232130E+03  d E =-.307600E-10
       N       E                     dE             d eps       ncg     rms          rms(c)
DAV:   1    -0.102320696715E+03    0.60390E-03   -0.17440E-01    96   0.129E+00    0.173E-01
DAV:   2    -0.102321756641E+03   -0.10599E-02   -0.10955E-02   132   0.365E-01    0.115E-01
DAV:   3    -0.102321710326E+03    0.46315E-04   -0.26169E-04   132   0.645E-02    0.605E-02
DAV:   4    -0.102321694983E+03    0.15343E-04   -0.12407E-04   132   0.408E-02    0.106E-02
DAV:   5    -0.102321691913E+03    0.30697E-05   -0.19971E-05   132   0.167E-02    0.712E-03
DAV:   6    -0.102321697716E+03   -0.58027E-05   -0.63931E-06   132   0.821E-03    0.414E-03
DAV:   7    -0.102321715665E+03   -0.17948E-04   -0.20673E-06   120   0.529E-03    0.154E-03
DAV:   8    -0.102321734075E+03   -0.18410E-04   -0.15160E-06   108   0.401E-03    0.102E-03
DAV:   9    -0.102321751859E+03   -0.17784E-04   -0.16333E-06   108   0.314E-03    0.931E-04
DAV:  10    -0.102321764885E+03   -0.13025E-04   -0.11117E-06   120   0.223E-03    0.334E-04
DAV:  11    -0.102321768088E+03   -0.32038E-05   -0.85451E-08   108   0.832E-04    0.209E-04
DAV:  12    -0.102321772672E+03   -0.45837E-05   -0.27640E-07   108   0.104E-03    0.140E-04
DAV:  13    -0.102321773578E+03   -0.90596E-06   -0.28132E-08   120   0.410E-04
  18 F= -.10232177E+03 E0= -.10232177E+03  d E =-.388316E-10
       N       E                     dE             d eps       ncg     rms          rms(c)
DAV:   1    -0.102319966054E+03    0.18066E-02   -0.32900E-01    96   0.173E+00    0.213E-01
DAV:   2    -0.102321899639E+03   -0.19336E-02   -0.19750E-02   132   0.491E-01    0.141E-01
DAV:   3    -0.102321851657E+03    0.47983E-04   -0.45597E-04   132   0.857E-02    0.738E-02
DAV:   4    -0.102321845683E+03    0.59736E-05   -0.17897E-04   132   0.539E-02    0.133E-02
DAV:   5    -0.102321835108E+03    0.10575E-04   -0.37095E-05   144   0.239E-02    0.884E-03
DAV:   6    -0.102321837352E+03   -0.22439E-05   -0.73441E-06   132   0.929E-03    0.566E-03
DAV:   7    -0.102321850856E+03   -0.13504E-04   -0.20201E-06   132   0.683E-03    0.188E-03
DAV:   8    -0.102321865639E+03   -0.14783E-04   -0.21848E-06   132   0.593E-03    0.193E-03
DAV:   9    -0.102321876895E+03   -0.11256E-04   -0.59708E-07   108   0.299E-03    0.139E-03
DAV:  10    -0.102321894164E+03   -0.17269E-04   -0.80451E-07   108   0.215E-03    0.556E-04
DAV:  11    -0.102321904235E+03   -0.10071E-04   -0.49999E-07   108   0.162E-03    0.491E-04
DAV:  12    -0.102321912251E+03   -0.80158E-05   -0.21328E-07   108   0.118E-03    0.320E-04
DAV:  13    -0.102321917087E+03   -0.48363E-05   -0.12600E-07   108   0.817E-04    0.342E-04
DAV:  14    -0.102321918906E+03   -0.18190E-05   -0.19568E-08   120   0.502E-04    0.115E-04
DAV:  15    -0.102321920759E+03   -0.18524E-05   -0.29281E-08   108   0.402E-04    0.170E-04
DAV:  16    -0.102321921270E+03   -0.51179E-06    0.60767E-10   120   0.237E-04
  19 F= -.10232192E+03 E0= -.10232192E+03  d E =-.561538E-10
       N       E                     dE             d eps       ncg     rms          rms(c)
DAV:   1    -0.102319937839E+03    0.19829E-02   -0.16473E-01    96   0.130E+00    0.161E-01
DAV:   2    -0.102321268589E+03   -0.13308E-02   -0.13783E-02   132   0.408E-01    0.112E-01
DAV:   3    -0.102321209225E+03    0.59364E-04   -0.31633E-04   144   0.723E-02    0.659E-02
DAV:   4    -0.102321189605E+03    0.19620E-04   -0.15416E-04   132   0.498E-02    0.110E-02
DAV:   5    -0.102321183606E+03    0.59994E-05   -0.39958E-05   132   0.231E-02    0.883E-03
DAV:   6    -0.102321183675E+03   -0.69184E-07   -0.45949E-06   132   0.760E-03
  20 F= -.10232118E+03 E0= -.10232118E+03  d E =-.447052E-10
       N       E                     dE             d eps       ncg     rms          rms(c)
DAV:   1    -0.102319161896E+03    0.20217E-02   -0.32991E-01    96   0.171E+00    0.261E-01
DAV:   2    -0.102321439037E+03   -0.22771E-02   -0.24345E-02   132   0.514E-01    0.163E-01
DAV:   3    -0.102321292554E+03    0.14648E-03   -0.65943E-04   132   0.105E-01    0.863E-02
DAV:   4    -0.102321313293E+03   -0.20738E-04   -0.41934E-04   132   0.725E-02    0.172E-02
DAV:   5    -0.102321306322E+03    0.69709E-05   -0.64114E-05   132   0.292E-02    0.123E-02
DAV:   6    -0.102321305478E+03    0.84378E-06   -0.10392E-05   132   0.944E-03    0.808E-03
DAV:   7    -0.102321312339E+03   -0.68612E-05   -0.10332E-06   120   0.375E-03    0.317E-03
DAV:   8    -0.102321322586E+03   -0.10247E-04   -0.14146E-06   120   0.432E-03    0.111E-03
DAV:   9    -0.102321332016E+03   -0.94294E-05   -0.82738E-07   120   0.245E-03    0.132E-03
DAV:  10    -0.102321346563E+03   -0.14548E-04   -0.72670E-07   108   0.194E-03    0.612E-04
DAV:  11    -0.102321350360E+03   -0.37964E-05   -0.18200E-07   108   0.995E-04    0.410E-04
DAV:  12    -0.102321356067E+03   -0.57076E-05   -0.16662E-07   108   0.928E-04    0.224E-04
DAV:  13    -0.102321358938E+03   -0.28711E-05   -0.98888E-08   108   0.621E-04    0.188E-04
DAV:  14    -0.102321360736E+03   -0.17982E-05   -0.23692E-08   108   0.390E-04    0.113E-04
DAV:  15    -0.102321361588E+03   -0.85148E-06   -0.68854E-09   108   0.258E-04
  21 F= -.10232136E+03 E0= -.10232136E+03  d E =-.401958E-10
       N       E                     dE             d eps       ncg     rms          rms(c)
DAV:   1    -0.102321326830E+03    0.33906E-04   -0.16792E-01    96   0.120E+00    0.161E-01
DAV:   2    -0.102322411685E+03   -0.10849E-02   -0.11519E-02   132   0.359E-01    0.105E-01
DAV:   3    -0.102322350525E+03    0.61160E-04   -0.31468E-04   132   0.719E-02    0.566E-02
DAV:   4    -0.102322350002E+03    0.52278E-06   -0.14934E-04   132   0.455E-02    0.123E-02
DAV:   5    -0.102322345631E+03    0.43712E-05   -0.26034E-05   132   0.188E-02    0.831E-03
DAV:   6    -0.102322346645E+03   -0.10142E-05   -0.43570E-06   132   0.663E-03    0.533E-03
DAV:   7    -0.102322353815E+03   -0.71700E-05   -0.63656E-07   108   0.299E-03    0.186E-03
DAV:   8    -0.102322361771E+03   -0.79562E-05   -0.74684E-07   120   0.279E-03    0.759E-04
DAV:   9    -0.102322369120E+03   -0.73488E-05   -0.47005E-07   108   0.198E-03    0.791E-04
DAV:  10    -0.102322378349E+03   -0.92293E-05   -0.81137E-07   120   0.187E-03    0.418E-04
DAV:  11    -0.102322380338E+03   -0.19884E-05   -0.60194E-08   108   0.784E-04    0.294E-04
DAV:  12    -0.102322382516E+03   -0.21781E-05   -0.56715E-08   108   0.574E-04    0.160E-04
DAV:  13    -0.102322384275E+03   -0.17597E-05   -0.50345E-08   108   0.477E-04    0.102E-04
DAV:  14    -0.102322385387E+03   -0.11117E-05   -0.23715E-08   108   0.337E-04    0.862E-05
DAV:  15    -0.102322385787E+03   -0.39999E-06   -0.53127E-10   108   0.182E-04
  22 F= -.10232239E+03 E0= -.10232239E+03  d E =-.529149E-10
       N       E                     dE             d eps       ncg     rms          rms(c)
DAV:   1    -0.102321071673E+03    0.13137E-02   -0.32974E-01    96   0.168E+00    0.241E-01
DAV:   2    -0.102322521676E+03   -0.14500E-02   -0.15937E-02   132   0.425E-01    0.110E-01
DAV:   3    -0.102322478079E+03    0.43597E-04   -0.53436E-04   132   0.874E-02    0.579E-02
DAV:   4    -0.102322488123E+03   -0.10045E-04   -0.12872E-04   132   0.434E-02    0.159E-02
DAV:   5    -0.102322485140E+03    0.29827E-05   -0.26072E-05   132   0.203E-02    0.923E-03
DAV:   6    -0.102322486006E+03   -0.86583E-06   -0.58030E-06   132   0.830E-03
  23 F= -.10232249E+03 E0= -.10232249E+03  d E =-.403350E-10
       N       E                     dE             d eps       ncg     rms          rms(c)
DAV:   1    -0.102321705610E+03    0.77953E-03   -0.16446E-01    96   0.119E+00    0.156E-01
DAV:   2    -0.102322471643E+03   -0.76603E-03   -0.82369E-03   132   0.298E-01    0.793E-02
DAV:   3    -0.102322457531E+03    0.14112E-04   -0.28283E-04   132   0.642E-02    0.405E-02
DAV:   4    -0.102322473805E+03   -0.16273E-04   -0.71727E-05   132   0.318E-02    0.112E-02
DAV:   5    -0.102322474801E+03   -0.99622E-06   -0.11249E-05   132   0.131E-02    0.656E-03
DAV:   6    -0.102322476071E+03   -0.12702E-05   -0.27795E-06   132   0.576E-03    0.372E-03
DAV:   7    -0.102322478533E+03   -0.24615E-05   -0.38019E-07   108   0.242E-03    0.122E-03
DAV:   8    -0.102322481066E+03   -0.25337E-05   -0.21721E-07   108   0.198E-03    0.558E-04
DAV:   9    -0.102322483543E+03   -0.24762E-05   -0.14091E-07   108   0.138E-03    0.410E-04
DAV:  10    -0.102322486676E+03   -0.31332E-05   -0.16223E-07   108   0.121E-03    0.264E-04
DAV:  11    -0.102322487443E+03   -0.76706E-06   -0.39088E-08   108   0.677E-04
  24 F= -.10232249E+03 E0= -.10232249E+03  d E =-.436571E-10
       N       E                     dE             d eps       ncg     rms          rms(c)
DAV:   1    -0.102320266913E+03    0.22198E-02   -0.33020E-01    96   0.167E+00    0.265E-01
DAV:   2    -0.102321856328E+03   -0.15894E-02   -0.17552E-02   132   0.451E-01    0.125E-01
DAV:   3    -0.102321783771E+03    0.72557E-04   -0.56764E-04   132   0.917E-02    0.694E-02
DAV:   4    -0.102321792074E+03   -0.83023E-05   -0.18592E-04   132   0.510E-02    0.182E-02
DAV:   5    -0.102321787760E+03    0.43136E-05   -0.33103E-05   132   0.219E-02    0.985E-03
DAV:   6    -0.102321788689E+03   -0.92944E-06   -0.54275E-06   144   0.802E-03
  25 F= -.10232179E+03 E0= -.10232179E+03  d E =-.454416E-10
       N       E                     dE             d eps       ncg     rms          rms(c)
DAV:   1    -0.102321179599E+03    0.60816E-03   -0.16914E-01    96   0.123E+00    0.163E-01
DAV:   2    -0.102322207291E+03   -0.10277E-02   -0.10835E-02   132   0.350E-01    0.874E-02
DAV:   3    -0.102322176674E+03    0.30617E-04   -0.31939E-04   144   0.703E-02    0.472E-02
DAV:   4    -0.102322191429E+03   -0.14755E-04   -0.10698E-04   132   0.397E-02    0.115E-02
DAV:   5    -0.102322192666E+03   -0.12370E-05   -0.22787E-05   132   0.178E-02    0.734E-03
DAV:   6    -0.102322193564E+03   -0.89841E-06   -0.31632E-06   144   0.605E-03
  26 F= -.10232219E+03 E0= -.10232219E+03  d E =-.250008E-10
       N       E                     dE             d eps       ncg     rms          rms(c)
DAV:   1    -0.102320504576E+03    0.16881E-02   -0.34174E-01    96   0.161E+00    0.199E-01
DAV:   2    -0.102322193774E+03   -0.16892E-02   -0.17483E-02   132   0.426E-01    0.120E-01
DAV:   3    -0.102322167408E+03    0.26366E-04   -0.49110E-04   144   0.850E-02    0.640E-02
DAV:   4    -0.102322180157E+03   -0.12749E-04   -0.15681E-04   132   0.475E-02    0.153E-02
DAV:   5    -0.102322173749E+03    0.64085E-05   -0.31141E-05   144   0.211E-02    0.787E-03
DAV:   6    -0.102322173807E+03   -0.57803E-07   -0.60439E-06   132   0.813E-03
  27 F= -.10232217E+03 E0= -.10232217E+03  d E =-.692507E-11
       N       E                     dE             d eps       ncg     rms          rms(c)
DAV:   1    -0.102320308941E+03    0.18648E-02   -0.17181E-01    96   0.117E+00    0.164E-01
DAV:   2    -0.102321421569E+03   -0.11126E-02   -0.11721E-02   132   0.334E-01    0.111E-01
DAV:   3    -0.102321369470E+03    0.52099E-04   -0.30128E-04   132   0.685E-02    0.536E-02
DAV:   4    -0.102321381514E+03   -0.12045E-04   -0.17411E-04   132   0.439E-02    0.109E-02
DAV:   5    -0.102321376048E+03    0.54661E-05   -0.23918E-05   144   0.172E-02    0.700E-03
DAV:   6    -0.102321374979E+03    0.10694E-05   -0.48299E-06   144   0.593E-03    0.389E-03
DAV:   7    -0.102321377597E+03   -0.26181E-05   -0.38860E-07   108   0.228E-03    0.157E-03
DAV:   8    -0.102321382344E+03   -0.47473E-05   -0.66427E-07   120   0.255E-03    0.774E-04
DAV:   9    -0.102321387992E+03   -0.56477E-05   -0.35656E-07   108   0.161E-03    0.715E-04
DAV:  10    -0.102321394677E+03   -0.66849E-05   -0.40023E-07   108   0.132E-03    0.333E-04
DAV:  11    -0.102321396699E+03   -0.20221E-05   -0.52482E-08   120   0.624E-04    0.200E-04
DAV:  12    -0.102321399770E+03   -0.30718E-05   -0.73595E-08   108   0.590E-04    0.108E-04
DAV:  13    -0.102321401326E+03   -0.15558E-05   -0.34161E-08   120   0.378E-04    0.112E-04
DAV:  14    -0.102321402468E+03   -0.11416E-05   -0.11534E-08   108   0.271E-04    0.612E-05
DAV:  15    -0.102321402925E+03   -0.45705E-06    0.40357E-10   120   0.168E-04
  28 F= -.10232140E+03 E0= -.10232140E+03  d E =-.780626E-10
       N       E                     dE             d eps       ncg     rms          rms(c)
DAV:   1    -0.102319649363E+03    0.17531E-02   -0.34427E-01    96   0.160E+00    0.224E-01
DAV:   2    -0.102321761720E+03   -0.21124E-02   -0.22145E-02   132   0.459E-01    0.148E-01
DAV:   3    -0.102321666099E+03    0.95621E-04   -0.55526E-04   144   0.886E-02    0.844E-02
DAV:   4    -0.102321659580E+03    0.65193E-05   -0.24272E-04   132   0.539E-02    0.171E-02
DAV:   5    -0.102321653625E+03    0.59544E-05   -0.42670E-05   144   0.227E-02    0.971E-03
DAV:   6    -0.102321657101E+03   -0.34760E-05   -0.65156E-06   120   0.797E-03    0.606E-03
DAV:   7    -0.102321673862E+03   -0.16761E-04   -0.24037E-06   132   0.475E-03    0.188E-03
DAV:   8    -0.102321688610E+03   -0.14749E-04   -0.88863E-07   120   0.273E-03    0.113E-03
DAV:   9    -0.102321708533E+03   -0.19922E-04   -0.16145E-06   132   0.280E-03    0.848E-04
DAV:  10    -0.102321721085E+03   -0.12552E-04   -0.95156E-07   132   0.202E-03    0.451E-04
DAV:  11    -0.102321727430E+03   -0.63452E-05   -0.26143E-07   120   0.115E-03    0.267E-04
DAV:  12    -0.102321732153E+03   -0.47231E-05   -0.20584E-07   120   0.876E-04    0.138E-04
DAV:  13    -0.102321734163E+03   -0.20101E-05   -0.54579E-08   120   0.471E-04    0.131E-04
DAV:  14    -0.102321735411E+03   -0.12478E-05   -0.16458E-08   108   0.320E-04    0.613E-05
DAV:  15    -0.102321735915E+03   -0.50368E-06   -0.17764E-09   120   0.196E-04
  29 F= -.10232174E+03 E0= -.10232174E+03  d E =-.390429E-10
       N       E                     dE             d eps       ncg     rms          rms(c)
DAV:   1    -0.102321167291E+03    0.56812E-03   -0.17238E-01    96   0.115E+00    0.164E-01
DAV:   2    -0.102322253013E+03   -0.10857E-02   -0.11569E-02   132   0.334E-01    0.108E-01
DAV:   3    -0.102322190794E+03    0.62219E-04   -0.29347E-04   132   0.675E-02    0.532E-02
DAV:   4    -0.102322190203E+03    0.59129E-06   -0.15534E-04   132   0.432E-02    0.105E-02
DAV:   5    -0.102322184744E+03    0.54589E-05   -0.25331E-05   144   0.179E-02    0.716E-03
DAV:   6    -0.102322185213E+03   -0.46906E-06   -0.49315E-06   132   0.621E-03
  30 F= -.10232219E+03 E0= -.10232219E+03  d E =-.345501E-10
       N       E                     dE             d eps       ncg     rms          rms(c)
DAV:   1    -0.102320561284E+03    0.16235E-02   -0.34073E-01    96   0.163E+00    0.199E-01
DAV:   2    -0.102322204357E+03   -0.16431E-02   -0.17008E-02   132   0.433E-01    0.119E-01
DAV:   3    -0.102322193059E+03    0.11298E-04   -0.47776E-04   144   0.846E-02    0.635E-02
DAV:   4    -0.102322221329E+03   -0.28270E-04   -0.14886E-04   132   0.472E-02    0.155E-02
DAV:   5    -0.102322217245E+03    0.40849E-05   -0.28191E-05   144   0.208E-02    0.825E-03
DAV:   6    -0.102322216390E+03    0.85444E-06   -0.60830E-06   144   0.833E-03
  31 F= -.10232222E+03 E0= -.10232222E+03  d E =-.763425E-10
       N       E                     dE             d eps       ncg     rms          rms(c)
DAV:   1    -0.102321100402E+03    0.11168E-02   -0.16858E-01    96   0.125E+00    0.151E-01
DAV:   2    -0.102322203819E+03   -0.11034E-02   -0.11199E-02   132   0.358E-01    0.908E-02
DAV:   3    -0.102322187455E+03    0.16364E-04   -0.29450E-04   144   0.680E-02    0.503E-02
DAV:   4    -0.102322205741E+03   -0.18286E-04   -0.11245E-04   132   0.418E-02    0.112E-02
DAV:   5    -0.102322206551E+03   -0.80984E-06   -0.25820E-05   144   0.190E-02    0.759E-03
DAV:   6    -0.102322207546E+03   -0.99558E-06   -0.33138E-06   132   0.621E-03
  32 F= -.10232221E+03 E0= -.10232221E+03  d E =-.403425E-10
       N       E                     dE             d eps       ncg     rms          rms(c)
DAV:   1    -0.102320169519E+03    0.20370E-02   -0.33688E-01    96   0.172E+00    0.225E-01
DAV:   2    -0.102322049423E+03   -0.18799E-02   -0.19078E-02   132   0.475E-01    0.131E-01
DAV:   3    -0.102322024668E+03    0.24755E-04   -0.48288E-04   132   0.887E-02    0.703E-02
DAV:   4    -0.102322044868E+03   -0.20200E-04   -0.19857E-04   132   0.586E-02    0.141E-02
DAV:   5    -0.102322038306E+03    0.65620E-05   -0.51544E-05   132   0.272E-02    0.103E-02
DAV:   6    -0.102322036877E+03    0.14291E-05   -0.74467E-06   132   0.899E-03    0.682E-03
DAV:   7    -0.102322039893E+03   -0.30159E-05   -0.10919E-06   108   0.452E-03    0.277E-03
DAV:   8    -0.102322044802E+03   -0.49091E-05   -0.14864E-06   132   0.465E-03    0.125E-03
DAV:   9    -0.102322052367E+03   -0.75649E-05   -0.57506E-07   108   0.303E-03    0.827E-04
DAV:  10    -0.102322059363E+03   -0.69964E-05   -0.45312E-07   108   0.218E-03    0.574E-04
DAV:  11    -0.102322062752E+03   -0.33887E-05   -0.15174E-07   108   0.127E-03    0.495E-04
DAV:  12    -0.102322065942E+03   -0.31904E-05   -0.65940E-08   108   0.699E-04    0.251E-04
DAV:  13    -0.102322068835E+03   -0.28931E-05   -0.87317E-08   108   0.621E-04    0.155E-04
DAV:  14    -0.102322070265E+03   -0.14299E-05   -0.21584E-08   108   0.344E-04    0.110E-04
DAV:  15    -0.102322071487E+03   -0.12220E-05   -0.23826E-08   108   0.338E-04    0.529E-05
DAV:  16    -0.102322071882E+03   -0.39425E-06    0.87192E-10   120   0.170E-04
  33 F= -.10232207E+03 E0= -.10232207E+03  d E =-.589827E-10
       N       E                     dE             d eps       ncg     rms          rms(c)
DAV:   1    -0.102320273301E+03    0.17982E-02   -0.17071E-01    96   0.130E+00    0.163E-01
DAV:   2    -0.102321394853E+03   -0.11216E-02   -0.11470E-02   132   0.378E-01    0.113E-01
DAV:   3    -0.102321350261E+03    0.44591E-04   -0.24918E-04   132   0.653E-02    0.605E-02
DAV:   4    -0.102321336410E+03    0.13851E-04   -0.13542E-04   132   0.441E-02    0.107E-02
DAV:   5    -0.102321332986E+03    0.34247E-05   -0.26135E-05   132   0.190E-02    0.744E-03
DAV:   6    -0.102321337519E+03   -0.45337E-05   -0.65654E-06   132   0.794E-03    0.456E-03
DAV:   7    -0.102321352445E+03   -0.14926E-04   -0.14714E-06   120   0.450E-03    0.183E-03
DAV:   8    -0.102321370501E+03   -0.18056E-04   -0.17071E-06   120   0.423E-03    0.979E-04
DAV:   9    -0.102321386840E+03   -0.16338E-04   -0.16684E-06   108   0.328E-03    0.109E-03
DAV:  10    -0.102321398980E+03   -0.12140E-04   -0.90575E-07   108   0.231E-03    0.345E-04
DAV:  11    -0.102321402262E+03   -0.32816E-05   -0.20270E-07   108   0.103E-03    0.229E-04
DAV:  12    -0.102321406191E+03   -0.39290E-05   -0.18013E-07   108   0.920E-04    0.158E-04
DAV:  13    -0.102321407621E+03   -0.14301E-05   -0.62257E-08   108   0.533E-04    0.143E-04
DAV:  14    -0.102321408769E+03   -0.11479E-05   -0.27411E-08   108   0.395E-04    0.491E-05
DAV:  15    -0.102321409106E+03   -0.33702E-06   -0.10913E-09   120   0.206E-04
  34 F= -.10232141E+03 E0= -.10232141E+03  d E =-.594059E-10
       N       E                     dE             d eps       ncg     rms          rms(c)
DAV:   1    -0.102319300879E+03    0.21079E-02   -0.34333E-01    96   0.181E+00    0.257E-01
DAV:   2    -0.102321261589E+03   -0.19607E-02   -0.20373E-02   120   0.502E-01    0.154E-01
DAV:   3    -0.102321179618E+03    0.81971E-04   -0.52465E-04   132   0.915E-02    0.775E-02
DAV:   4    -0.102321168303E+03    0.11315E-04   -0.22976E-04   132   0.563E-02    0.152E-02
DAV:   5    -0.102321155857E+03    0.12446E-04   -0.38339E-05   144   0.237E-02    0.991E-03
DAV:   6    -0.102321156731E+03   -0.87422E-06   -0.96637E-06   132   0.104E-02
  35 F= -.10232116E+03 E0= -.10232116E+03  d E =-.350745E-10
       N       E                     dE             d eps       ncg     rms          rms(c)
DAV:   1    -0.102319627338E+03    0.15285E-02   -0.17686E-01    96   0.127E+00    0.183E-01
DAV:   2    -0.102320901804E+03   -0.12745E-02   -0.12729E-02   132   0.401E-01    0.126E-01
DAV:   3    -0.102320863775E+03    0.38029E-04   -0.27803E-04   144   0.715E-02    0.693E-02
DAV:   4    -0.102320899484E+03   -0.35708E-04   -0.21982E-04   132   0.582E-02    0.126E-02
DAV:   5    -0.102320897947E+03    0.15370E-05   -0.55638E-05   132   0.273E-02    0.953E-03
DAV:   6    -0.102320897574E+03    0.37308E-06   -0.10115E-05   132   0.932E-03    0.629E-03
DAV:   7    -0.102320902985E+03   -0.54111E-05   -0.14285E-06   132   0.425E-03    0.258E-03
DAV:   8    -0.102320911565E+03   -0.85799E-05   -0.65433E-07   108   0.263E-03    0.723E-04
DAV:   9    -0.102320920528E+03   -0.89632E-05   -0.77360E-07   108   0.218E-03    0.884E-04
DAV:  10    -0.102320930566E+03   -0.10038E-04   -0.56832E-07    96   0.180E-03    0.423E-04
DAV:  11    -0.102320933377E+03   -0.28110E-05   -0.91310E-08   108   0.764E-04    0.217E-04
DAV:  12    -0.102320936224E+03   -0.28470E-05   -0.62800E-08    84   0.561E-04    0.954E-05
DAV:  13    -0.102320938092E+03   -0.18677E-05   -0.47876E-08   108   0.450E-04    0.108E-04
DAV:  14    -0.102320939198E+03   -0.11061E-05   -0.16921E-08   108   0.299E-04    0.796E-05
DAV:  15    -0.102320939707E+03   -0.50953E-06   -0.46924E-10   108   0.189E-04
  36 F= -.10232094E+03 E0= -.10232094E+03  d E =-.683940E-10
       N       E                     dE             d eps       ncg     rms          rms(c)
DAV:   1    -0.102318015623E+03    0.29236E-02   -0.34998E-01    96   0.182E+00    0.247E-01
DAV:   2    -0.102320602704E+03   -0.25871E-02   -0.26327E-02   132   0.571E-01    0.178E-01
DAV:   3    -0.102320472748E+03    0.12996E-03   -0.57932E-04   132   0.104E-01    0.937E-02
DAV:   4    -0.102320473658E+03   -0.90923E-06   -0.41984E-04   132   0.794E-02    0.176E-02
DAV:   5    -0.102320464831E+03    0.88267E-05   -0.93423E-05   132   0.359E-02    0.129E-02
DAV:   6    -0.102320471568E+03   -0.67369E-05   -0.18609E-05   144   0.120E-02    0.757E-03
DAV:   7    -0.102320496294E+03   -0.24726E-04   -0.21764E-06   132   0.501E-03    0.325E-03
DAV:   8    -0.102320528839E+03   -0.32545E-04   -0.37861E-06   132   0.553E-03    0.124E-03
DAV:   9    -0.102320554434E+03   -0.25595E-04   -0.29506E-06   132   0.406E-03    0.180E-03
DAV:  10    -0.102320574474E+03   -0.20039E-04   -0.15959E-06   120   0.298E-03    0.571E-04
DAV:  11    -0.102320580787E+03   -0.63136E-05   -0.28077E-07   108   0.132E-03    0.330E-04
DAV:  12    -0.102320588058E+03   -0.72712E-05   -0.38933E-07   108   0.123E-03    0.216E-04
DAV:  13    -0.102320589741E+03   -0.16831E-05   -0.58998E-08   108   0.512E-04    0.259E-04
DAV:  14    -0.102320591701E+03   -0.19594E-05   -0.41937E-08   108   0.486E-04    0.770E-05
DAV:  15    -0.102320592232E+03   -0.53078E-06   -0.66916E-09   108   0.265E-04
  37 F= -.10232059E+03 E0= -.10232059E+03  d E =-.321600E-10
       N       E                     dE             d eps       ncg     rms          rms(c)
DAV:   1    -0.102319734500E+03    0.85720E-03   -0.18204E-01    96   0.136E+00    0.166E-01
DAV:   2    -0.102321264846E+03   -0.15303E-02   -0.16660E-02   132   0.437E-01    0.116E-01
DAV:   3    -0.102321199310E+03    0.65536E-04   -0.30196E-04   144   0.686E-02    0.705E-02
DAV:   4    -0.102321177606E+03    0.21704E-04   -0.17350E-04   132   0.543E-02    0.107E-02
DAV:   5    -0.102321171410E+03    0.61959E-05   -0.52639E-05   132   0.268E-02    0.824E-03
DAV:   6    -0.102321168066E+03    0.33443E-05   -0.59742E-06   144   0.826E-03    0.559E-03
DAV:   7    -0.102321175388E+03   -0.73218E-05   -0.30434E-06   132   0.595E-03    0.205E-03
DAV:   8    -0.102321191405E+03   -0.16017E-04   -0.13570E-06   108   0.405E-03    0.125E-03
DAV:   9    -0.102321204646E+03   -0.13240E-04   -0.68564E-07   108   0.257E-03    0.130E-03
DAV:  10    -0.102321218910E+03   -0.14265E-04   -0.81235E-07    96   0.201E-03    0.298E-04
DAV:  11    -0.102321224094E+03   -0.51835E-05   -0.18171E-07   108   0.949E-04    0.312E-04
DAV:  12    -0.102321229057E+03   -0.49630E-05   -0.99666E-08   108   0.737E-04    0.121E-04
DAV:  13    -0.102321231113E+03   -0.20561E-05   -0.42498E-08   108   0.451E-04    0.103E-04
DAV:  14    -0.102321232636E+03   -0.15234E-05   -0.12172E-08   108   0.319E-04    0.753E-05
DAV:  15    -0.102321233450E+03   -0.81355E-06   -0.67176E-09   108   0.239E-04
  38 F= -.10232123E+03 E0= -.10232123E+03  d E =-.514457E-10
       N       E                     dE             d eps       ncg     rms          rms(c)
DAV:   1    -0.102319689166E+03    0.15435E-02   -0.40063E-01   108   0.188E+00    0.217E-01
DAV:   2    -0.102321354377E+03   -0.16652E-02   -0.20279E-02   132   0.468E-01    0.128E-01
DAV:   3    -0.102321244133E+03    0.11024E-03   -0.38675E-04   144   0.685E-02    0.659E-02
DAV:   4    -0.102321190432E+03    0.53702E-04   -0.11781E-04   132   0.417E-02    0.118E-02
DAV:   5    -0.102321181801E+03    0.86307E-05   -0.23403E-05   132   0.182E-02    0.716E-03
DAV:   6    -0.102321195438E+03   -0.13637E-04   -0.10034E-05   132   0.910E-03    0.404E-03
DAV:   7    -0.102321221171E+03   -0.25733E-04   -0.20744E-06   108   0.433E-03    0.198E-03
DAV:   8    -0.102321256337E+03   -0.35166E-04   -0.37401E-06   120   0.436E-03    0.126E-03
DAV:   9    -0.102321278723E+03   -0.22387E-04   -0.16801E-06   120   0.293E-03    0.928E-04
DAV:  10    -0.102321299762E+03   -0.21039E-04   -0.18296E-06   120   0.270E-03    0.378E-04
DAV:  11    -0.102321305900E+03   -0.61372E-05   -0.18625E-07   108   0.109E-03    0.356E-04
DAV:  12    -0.102321312875E+03   -0.69757E-05   -0.34615E-07    96   0.121E-03    0.156E-04
DAV:  13    -0.102321314103E+03   -0.12278E-05   -0.43783E-08   108   0.502E-04    0.115E-04
DAV:  14    -0.102321315415E+03   -0.13122E-05   -0.12623E-08    96   0.347E-04    0.472E-05
DAV:  15    -0.102321316218E+03   -0.80305E-06   -0.10148E-08   108   0.270E-04
  39 F= -.10232132E+03 E0= -.10232132E+03  d E =-.412968E-10
       N       E                     dE             d eps       ncg     rms          rms(c)
DAV:   1    -0.102320768356E+03    0.54706E-03   -0.20204E-01    96   0.133E+00    0.150E-01
DAV:   2    -0.102321531671E+03   -0.76332E-03   -0.93055E-03   132   0.308E-01    0.795E-02
DAV:   3    -0.102321489555E+03    0.42116E-04   -0.18888E-04   144   0.470E-02    0.412E-02
DAV:   4    -0.102321463936E+03    0.25620E-04   -0.41965E-05   132   0.254E-02    0.887E-03
DAV:   5    -0.102321455908E+03    0.80275E-05   -0.86212E-06   132   0.120E-02    0.485E-03
DAV:   6    -0.102321457053E+03   -0.11452E-05   -0.29938E-06   120   0.656E-03    0.259E-03
DAV:   7    -0.102321464438E+03   -0.73847E-05   -0.14080E-06   120   0.461E-03    0.130E-03
DAV:   8    -0.102321476206E+03   -0.11768E-04   -0.71591E-07   108   0.303E-03    0.787E-04
DAV:   9    -0.102321487253E+03   -0.11047E-04   -0.70317E-07   108   0.223E-03    0.540E-04
DAV:  10    -0.102321497439E+03   -0.10185E-04   -0.45981E-07   108   0.154E-03    0.263E-04
DAV:  11    -0.102321502402E+03   -0.49635E-05   -0.12908E-07   108   0.836E-04    0.214E-04
DAV:  12    -0.102321506981E+03   -0.45791E-05   -0.99894E-08   108   0.696E-04    0.943E-05
DAV:  13    -0.102321508339E+03   -0.13581E-05   -0.21227E-08   108   0.379E-04    0.659E-05
DAV:  14    -0.102321509401E+03   -0.10622E-05   -0.58052E-09   108   0.258E-04    0.306E-05
DAV:  15    -0.102321509880E+03   -0.47826E-06    0.36502E-10   108   0.176E-04
  40 F= -.10232151E+03 E0= -.10232151E+03  d E =-.362637E-10
       N       E                     dE             d eps       ncg     rms          rms(c)
DAV:   1    -0.102320334510E+03    0.11749E-02   -0.40675E-01    96   0.195E+00    0.219E-01
DAV:   2    -0.102321861799E+03   -0.15273E-02   -0.18713E-02   132   0.438E-01    0.117E-01
DAV:   3    -0.102321766087E+03    0.95712E-04   -0.37359E-04   144   0.659E-02    0.611E-02
DAV:   4    -0.102321695641E+03    0.70446E-04   -0.83778E-05   132   0.349E-02    0.125E-02
DAV:   5    -0.102321687918E+03    0.77232E-05   -0.14841E-05   132   0.160E-02    0.678E-03
DAV:   6    -0.102321705945E+03   -0.18027E-04   -0.79277E-06   132   0.103E-02    0.345E-03
DAV:   7    -0.102321735782E+03   -0.29837E-04   -0.47048E-06   132   0.705E-03    0.203E-03
DAV:   8    -0.102321770381E+03   -0.34599E-04   -0.29134E-06   120   0.451E-03    0.110E-03
DAV:   9    -0.102321794376E+03   -0.23995E-04   -0.20835E-06   120   0.339E-03    0.789E-04
DAV:  10    -0.102321814582E+03   -0.20206E-04   -0.18909E-06   120   0.281E-03    0.341E-04
DAV:  11    -0.102321820642E+03   -0.60596E-05   -0.23507E-07   108   0.119E-03    0.266E-04
DAV:  12    -0.102321826288E+03   -0.56464E-05   -0.28850E-07   108   0.107E-03    0.123E-04
DAV:  13    -0.102321827493E+03   -0.12047E-05   -0.41647E-08   120   0.473E-04    0.897E-05
DAV:  14    -0.102321828453E+03   -0.95999E-06   -0.11658E-08   108   0.335E-04
  41 F= -.10232183E+03 E0= -.10232183E+03  d E =-.600213E-10
       N       E                     dE             d eps       ncg     rms          rms(c)
DAV:   1    -0.102321667800E+03    0.15969E-03   -0.20166E-01    96   0.132E+00    0.154E-01
DAV:   2    -0.102322438597E+03   -0.77080E-03   -0.92311E-03   132   0.295E-01    0.730E-02
DAV:   3    -0.102322407761E+03    0.30836E-04   -0.20403E-04   144   0.488E-02    0.384E-02
DAV:   4    -0.102322395272E+03    0.12489E-04   -0.45922E-05   132   0.294E-02    0.904E-03
DAV:   5    -0.102322391271E+03    0.40014E-05   -0.14841E-05   132   0.147E-02    0.565E-03
DAV:   6    -0.102322391738E+03   -0.46668E-06   -0.25616E-06   132   0.525E-03
  42 F= -.10232239E+03 E0= -.10232239E+03  d E =-.337988E-10
       N       E                     dE             d eps       ncg     rms          rms(c)
DAV:   1    -0.102320792007E+03    0.15993E-02   -0.40874E-01    96   0.187E+00    0.218E-01
DAV:   2    -0.102322307161E+03   -0.15152E-02   -0.18085E-02   132   0.422E-01    0.998E-02
DAV:   3    -0.102322257033E+03    0.50128E-04   -0.39721E-04   132   0.686E-02    0.525E-02
DAV:   4    -0.102322240953E+03    0.16080E-04   -0.92092E-05   132   0.401E-02    0.127E-02
DAV:   5    -0.102322237255E+03    0.36982E-05   -0.26317E-05   144   0.199E-02    0.801E-03
DAV:   6    -0.102322239673E+03   -0.24185E-05   -0.44809E-06   132   0.751E-03    0.478E-03
DAV:   7    -0.102322247019E+03   -0.73457E-05   -0.80128E-07   108   0.425E-03    0.167E-03
DAV:   8    -0.102322256264E+03   -0.92450E-05   -0.94025E-07   108   0.382E-03    0.112E-03
DAV:   9    -0.102322272438E+03   -0.16174E-04   -0.13399E-06   120   0.373E-03    0.541E-04
DAV:  10    -0.102322278929E+03   -0.64911E-05   -0.41786E-07   108   0.208E-03    0.571E-04
DAV:  11    -0.102322281191E+03   -0.22615E-05   -0.59216E-08   120   0.823E-04    0.456E-04
DAV:  12    -0.102322287264E+03   -0.60731E-05   -0.20681E-07   108   0.106E-03    0.210E-04
DAV:  13    -0.102322288758E+03   -0.14944E-05   -0.39985E-08   108   0.511E-04    0.238E-04
DAV:  14    -0.102322290239E+03   -0.14806E-05   -0.18502E-08   108   0.392E-04    0.513E-05
DAV:  15    -0.102322291155E+03   -0.91615E-06   -0.12869E-08   108   0.293E-04
  43 F= -.10232229E+03 E0= -.10232229E+03  d E =-.683153E-10
       N       E                     dE             d eps       ncg     rms          rms(c)
DAV:   1    -0.102321435537E+03    0.85470E-03   -0.19947E-01    96   0.135E+00    0.158E-01
DAV:   2    -0.102322437023E+03   -0.10015E-02   -0.11926E-02   132   0.322E-01    0.733E-02
DAV:   3    -0.102322400970E+03    0.36053E-04   -0.27942E-04   144   0.557E-02    0.404E-02
DAV:   4    -0.102322379198E+03    0.21772E-04   -0.52510E-05   132   0.310E-02    0.101E-02
DAV:   5    -0.102322373946E+03    0.52516E-05   -0.16555E-05   132   0.157E-02    0.607E-03
DAV:   6    -0.102322375051E+03   -0.11049E-05   -0.24481E-06   132   0.576E-03    0.389E-03
DAV:   7    -0.102322380975E+03   -0.59236E-05   -0.66889E-07   108   0.342E-03    0.137E-03
DAV:   8    -0.102322388661E+03   -0.76860E-05   -0.70468E-07   108   0.297E-03    0.903E-04
DAV:   9    -0.102322400170E+03   -0.11510E-04   -0.74273E-07   108   0.252E-03    0.442E-04
DAV:  10    -0.102322405943E+03   -0.57728E-05   -0.37836E-07   108   0.157E-03    0.394E-04
DAV:  11    -0.102322409113E+03   -0.31694E-05   -0.78212E-08   108   0.808E-04    0.205E-04
DAV:  12    -0.102322412369E+03   -0.32562E-05   -0.11437E-07   108   0.739E-04    0.142E-04
DAV:  13    -0.102322413685E+03   -0.13159E-05   -0.27932E-08   108   0.385E-04    0.103E-04
DAV:  14    -0.102322414783E+03   -0.10986E-05   -0.20290E-08   108   0.328E-04    0.324E-05
DAV:  15    -0.102322415223E+03   -0.43942E-06   -0.22060E-09   108   0.193E-04
  44 F= -.10232242E+03 E0= -.10232242E+03  d E =-.273436E-10
       N       E                     dE             d eps       ncg     rms          rms(c)
DAV:   1    -0.102320724921E+03    0.16899E-02   -0.40305E-01    96   0.170E+00    0.219E-01
DAV:   2    -0.102322173192E+03   -0.14483E-02   -0.17432E-02   120   0.375E-01    0.100E-01
DAV:   3    -0.102322095162E+03    0.78031E-04   -0.36479E-04   144   0.672E-02    0.527E-02
DAV:   4    -0.102322064499E+03    0.30663E-04   -0.99908E-05   120   0.396E-02    0.119E-02
DAV:   5    -0.102322058873E+03    0.56254E-05   -0.22505E-05   132   0.184E-02    0.736E-03
DAV:   6    -0.102322062429E+03   -0.35559E-05   -0.47963E-06   132   0.736E-03    0.405E-03
DAV:   7    -0.102322072649E+03   -0.10220E-04   -0.10052E-06   120   0.352E-03    0.162E-03
DAV:   8    -0.102322084818E+03   -0.12169E-04   -0.79478E-07   120   0.273E-03    0.876E-04
DAV:   9    -0.102322098467E+03   -0.13649E-04   -0.95242E-07   120   0.252E-03    0.584E-04
DAV:  10    -0.102322110176E+03   -0.11710E-04   -0.10206E-06   120   0.222E-03    0.311E-04
DAV:  11    -0.102322113260E+03   -0.30831E-05   -0.85194E-08   108   0.956E-04    0.231E-04
DAV:  12    -0.102322116705E+03   -0.34454E-05   -0.11963E-07   108   0.769E-04    0.123E-04
DAV:  13    -0.102322118332E+03   -0.16270E-05   -0.46068E-08   108   0.455E-04    0.974E-05
DAV:  14    -0.102322119301E+03   -0.96933E-06   -0.10145E-08   108   0.277E-04
  45 F= -.10232212E+03 E0= -.10232212E+03  d E =-.580157E-11
       N       E                     dE             d eps       ncg     rms          rms(c)
DAV:   1    -0.102321207754E+03    0.91058E-03   -0.20500E-01    96   0.121E+00    0.135E-01
DAV:   2    -0.102321802788E+03   -0.59503E-03   -0.72248E-03   120   0.243E-01    0.603E-02
DAV:   3    -0.102321776446E+03    0.26342E-04   -0.17312E-04   144   0.460E-02    0.307E-02
DAV:   4    -0.102321767711E+03    0.87356E-05   -0.38668E-05   132   0.259E-02    0.807E-03
DAV:   5    -0.102321765929E+03    0.17814E-05   -0.95525E-06   132   0.120E-02    0.520E-03
DAV:   6    -0.102321766397E+03   -0.46802E-06   -0.18016E-06   120   0.478E-03
  46 F= -.10232177E+03 E0= -.10232177E+03  d E =-.279821E-10
       N       E                     dE             d eps       ncg     rms          rms(c)
DAV:   1    -0.102320385648E+03    0.13803E-02   -0.39856E-01    96   0.167E+00    0.197E-01
DAV:   2    -0.102321987157E+03   -0.16015E-02   -0.19323E-02   120   0.373E-01    0.114E-01
DAV:   3    -0.102321891333E+03    0.95824E-04   -0.35657E-04   144   0.677E-02    0.586E-02
DAV:   4    -0.102321855977E+03    0.35355E-04   -0.12418E-04   132   0.417E-02    0.113E-02
DAV:   5    -0.102321844654E+03    0.11323E-04   -0.22856E-05   132   0.178E-02    0.719E-03
DAV:   6    -0.102321845288E+03   -0.63442E-06   -0.61186E-06   132   0.723E-03
  47 F= -.10232185E+03 E0= -.10232185E+03  d E =-.442482E-11
       N       E                     dE             d eps       ncg     rms          rms(c)
DAV:   1    -0.102321996006E+03   -0.15135E-03   -0.20378E-01    96   0.118E+00    0.138E-01
DAV:   2    -0.102322734614E+03   -0.73861E-03   -0.86001E-03   120   0.255E-01    0.689E-02
DAV:   3    -0.102322721953E+03    0.12661E-04   -0.18836E-04   144   0.478E-02    0.359E-02
DAV:   4    -0.102322730510E+03   -0.85577E-05   -0.48791E-05   132   0.278E-02    0.810E-03
DAV:   5    -0.102322732644E+03   -0.21336E-05   -0.10801E-05   132   0.127E-02    0.524E-03
DAV:   6    -0.102322734157E+03   -0.15128E-05   -0.21359E-06   132   0.502E-03    0.290E-03
DAV:   7    -0.102322736460E+03   -0.23037E-05   -0.38240E-07   108   0.243E-03    0.100E-03
DAV:   8    -0.102322738489E+03   -0.20281E-05   -0.21550E-07   108   0.175E-03    0.527E-04
DAV:   9    -0.102322741846E+03   -0.33579E-05   -0.21623E-07   108   0.157E-03    0.257E-04
DAV:  10    -0.102322744105E+03   -0.22590E-05   -0.15731E-07   108   0.112E-03    0.202E-04
DAV:  11    -0.102322745300E+03   -0.11949E-05   -0.29660E-08   108   0.572E-04    0.149E-04
DAV:  12    -0.102322746685E+03   -0.13843E-05   -0.40544E-08   108   0.471E-04    0.695E-05
DAV:  13    -0.102322747187E+03   -0.50277E-06   -0.78401E-09   108   0.247E-04
  48 F= -.10232275E+03 E0= -.10232275E+03  d E =-.323554E-10
       N       E                     dE             d eps       ncg     rms          rms(c)
DAV:   1    -0.102321414907E+03    0.13318E-02   -0.40999E-01    96   0.172E+00    0.215E-01
DAV:   2    -0.102322627569E+03   -0.12127E-02   -0.14788E-02   132   0.357E-01    0.868E-02
DAV:   3    -0.102322571007E+03    0.56563E-04   -0.34247E-04   132   0.648E-02    0.451E-02
DAV:   4    -0.102322554967E+03    0.16040E-04   -0.74169E-05   132   0.367E-02    0.127E-02
DAV:   5    -0.102322552186E+03    0.27804E-05   -0.20523E-05   132   0.182E-02    0.764E-03
DAV:   6    -0.102322553262E+03   -0.10760E-05   -0.38189E-06   132   0.697E-03    0.448E-03
DAV:   7    -0.102322556875E+03   -0.36125E-05   -0.32431E-07   108   0.240E-03    0.189E-03
DAV:   8    -0.102322561945E+03   -0.50708E-05   -0.38187E-07   108   0.261E-03    0.842E-04
DAV:   9    -0.102322569605E+03   -0.76591E-05   -0.50963E-07   108   0.266E-03    0.530E-04
DAV:  10    -0.102322574903E+03   -0.52982E-05   -0.43131E-07   108   0.199E-03    0.565E-04
DAV:  11    -0.102322576890E+03   -0.19875E-05   -0.71803E-08   108   0.103E-03    0.275E-04
DAV:  12    -0.102322578867E+03   -0.19766E-05   -0.47721E-08   108   0.619E-04    0.154E-04
DAV:  13    -0.102322579998E+03   -0.11315E-05   -0.18917E-08   108   0.365E-04    0.154E-04
DAV:  14    -0.102322581137E+03   -0.11381E-05   -0.23929E-08   108   0.337E-04    0.804E-05
DAV:  15    -0.102322581460E+03   -0.32325E-06    0.14855E-09   108   0.163E-04
  49 F= -.10232258E+03 E0= -.10232258E+03  d E =-.921382E-10
       N       E                     dE             d eps       ncg     rms          rms(c)
DAV:   1    -0.102320555051E+03    0.20261E-02   -0.19215E-01    96   0.132E+00    0.150E-01
DAV:   2    -0.102321331453E+03   -0.77640E-03   -0.97364E-03   132   0.303E-01    0.762E-02
DAV:   3    -0.102321284922E+03    0.46531E-04   -0.19958E-04   132   0.471E-02    0.422E-02
DAV:   4    -0.102321253291E+03    0.31631E-04   -0.53296E-05   144   0.285E-02    0.925E-03
DAV:   5    -0.102321246242E+03    0.70490E-05   -0.11647E-05   144   0.135E-02    0.589E-03
DAV:   6    -0.102321246653E+03   -0.41062E-06   -0.28390E-06   120   0.662E-03
  50 F= -.10232125E+03 E0= -.10232125E+03  d E =-.917697E-10
       N       E                     dE             d eps       ncg     rms          rms(c)
DAV:   1    -0.102320141941E+03    0.11043E-02   -0.40452E-01    96   0.174E+00    0.206E-01
DAV:   2    -0.102321677357E+03   -0.15354E-02   -0.18482E-02   120   0.414E-01    0.119E-01
DAV:   3    -0.102321603298E+03    0.74059E-04   -0.28331E-04   132   0.564E-02    0.628E-02
DAV:   4    -0.102321530324E+03    0.72974E-04   -0.11023E-04   132   0.362E-02    0.108E-02
DAV:   5    -0.102321518559E+03    0.11765E-04   -0.17046E-05   144   0.161E-02    0.631E-03
DAV:   6    -0.102321528385E+03   -0.98262E-05   -0.96762E-06   120   0.100E-02    0.333E-03
DAV:   7    -0.102321550490E+03   -0.22105E-04   -0.34711E-06   132   0.602E-03    0.203E-03
DAV:   8    -0.102321575904E+03   -0.25414E-04   -0.20545E-06   120   0.357E-03    0.103E-03
DAV:   9    -0.102321598085E+03   -0.22182E-04   -0.20522E-06   108   0.309E-03    0.764E-04
DAV:  10    -0.102321617201E+03   -0.19116E-04   -0.19156E-06   120   0.265E-03    0.346E-04
DAV:  11    -0.102321622903E+03   -0.57021E-05   -0.22576E-07   108   0.111E-03    0.221E-04
DAV:  12    -0.102321627317E+03   -0.44140E-05   -0.22661E-07   108   0.928E-04    0.151E-04
DAV:  13    -0.102321628514E+03   -0.11970E-05   -0.26622E-08   108   0.407E-04    0.636E-05
DAV:  14    -0.102321629423E+03   -0.90890E-06   -0.11601E-08   108   0.307E-04
  51 F= -.10232163E+03 E0= -.10232163E+03  d E =-.306979E-10
       N       E                     dE             d eps       ncg     rms          rms(c)
DAV:   1    -0.102321853989E+03   -0.22548E-03   -0.20203E-01    96   0.120E+00    0.133E-01
DAV:   2    -0.102322694885E+03   -0.84090E-03   -0.10118E-02   120   0.284E-01    0.751E-02
DAV:   3    -0.102322663918E+03    0.30967E-04   -0.18150E-04   156   0.449E-02    0.404E-02
DAV:   4    -0.102322640766E+03    0.23152E-04   -0.41172E-05   132   0.274E-02    0.729E-03
DAV:   5    -0.102322634807E+03    0.59590E-05   -0.13354E-05   132   0.139E-02    0.506E-03
DAV:   6    -0.102322635676E+03   -0.86942E-06   -0.30337E-06   132   0.551E-03
  52 F= -.10232264E+03 E0= -.10232264E+03  d E =-.938678E-10
       N       E                     dE             d eps       ncg     rms          rms(c)
DAV:   1    -0.102321067636E+03    0.15672E-02   -0.40887E-01   120   0.162E+00    0.200E-01
DAV:   2    -0.102322638217E+03   -0.15706E-02   -0.18272E-02   132   0.350E-01    0.880E-02
DAV:   3    -0.102322620402E+03    0.17814E-04   -0.36903E-04   144   0.640E-02    0.470E-02
DAV:   4    -0.102322619957E+03    0.44488E-06   -0.66140E-05   132   0.398E-02    0.108E-02
DAV:   5    -0.102322621603E+03   -0.16456E-05   -0.30569E-05   132   0.210E-02    0.762E-03
DAV:   6    -0.102322623251E+03   -0.16475E-05   -0.32593E-06   132   0.588E-03    0.545E-03
DAV:   7    -0.102322627338E+03   -0.40878E-05   -0.60060E-07   108   0.316E-03    0.197E-03
DAV:   8    -0.102322631918E+03   -0.45795E-05   -0.75257E-07   108   0.327E-03    0.121E-03
DAV:   9    -0.102322641352E+03   -0.94340E-05   -0.73390E-07   108   0.356E-03    0.798E-04
DAV:  10    -0.102322644415E+03   -0.30632E-05   -0.36825E-07   108   0.194E-03    0.919E-04
DAV:  11    -0.102322645508E+03   -0.10934E-05   -0.32241E-08   120   0.736E-04    0.677E-04
DAV:  12    -0.102322648779E+03   -0.32711E-05   -0.89729E-08   108   0.814E-04    0.131E-04
DAV:  13    -0.102322650597E+03   -0.18173E-05   -0.49688E-08   108   0.537E-04    0.238E-04
DAV:  14    -0.102322651999E+03   -0.14020E-05   -0.21886E-08   108   0.363E-04    0.958E-05
DAV:  15    -0.102322652674E+03   -0.67524E-06   -0.93887E-09   108   0.248E-04
  53 F= -.10232265E+03 E0= -.10232265E+03  d E =-.595001E-10
       N       E                     dE             d eps       ncg     rms          rms(c)
DAV:   1    -0.102320248860E+03    0.24031E-02   -0.20318E-01   120   0.118E+00    0.138E-01
DAV:   2    -0.102321071137E+03   -0.82228E-03   -0.98082E-03   132   0.275E-01    0.700E-02
DAV:   3    -0.102321046867E+03    0.24269E-04   -0.17948E-04   144   0.451E-02    0.370E-02
DAV:   4    -0.102321033552E+03    0.13316E-04   -0.39055E-05   132   0.286E-02    0.748E-03
DAV:   5    -0.102321029291E+03    0.42606E-05   -0.14848E-05   132   0.146E-02    0.526E-03
DAV:   6    -0.102321029675E+03   -0.38346E-06   -0.24371E-06   132   0.494E-03
  54 F= -.10232103E+03 E0= -.10232103E+03  d E =-.738324E-10
       N       E                     dE             d eps       ncg     rms          rms(c)
DAV:   1    -0.102319786418E+03    0.12429E-02   -0.40314E-01   120   0.172E+00    0.206E-01
DAV:   2    -0.102321386182E+03   -0.15998E-02   -0.19378E-02   120   0.422E-01    0.128E-01
DAV:   3    -0.102321287541E+03    0.98640E-04   -0.29924E-04   132   0.607E-02    0.655E-02
DAV:   4    -0.102321233682E+03    0.53859E-04   -0.13820E-04   132   0.429E-02    0.112E-02
DAV:   5    -0.102321223450E+03    0.10232E-04   -0.24867E-05   132   0.186E-02    0.703E-03
DAV:   6    -0.102321234194E+03   -0.10745E-04   -0.11470E-05   132   0.923E-03    0.379E-03
DAV:   7    -0.102321255139E+03   -0.20945E-04   -0.15747E-06   120   0.404E-03    0.199E-03
DAV:   8    -0.102321287205E+03   -0.32065E-04   -0.37658E-06   108   0.433E-03    0.115E-03
DAV:   9    -0.102321305042E+03   -0.17837E-04   -0.12934E-06   120   0.261E-03    0.816E-04
DAV:  10    -0.102321324507E+03   -0.19466E-04   -0.18507E-06   108   0.264E-03    0.340E-04
DAV:  11    -0.102321330125E+03   -0.56175E-05   -0.19796E-07   108   0.106E-03    0.314E-04
DAV:  12    -0.102321335908E+03   -0.57829E-05   -0.32577E-07    96   0.113E-03    0.125E-04
DAV:  13    -0.102321336984E+03   -0.10763E-05   -0.38878E-08   108   0.461E-04    0.944E-05
DAV:  14    -0.102321338084E+03   -0.11003E-05   -0.12616E-08    84   0.328E-04    0.486E-05
DAV:  15    -0.102321338596E+03   -0.51157E-06   -0.34919E-09   108   0.217E-04
  55 F= -.10232134E+03 E0= -.10232134E+03  d E =-.358946E-10
       N       E                     dE             d eps       ncg     rms          rms(c)
DAV:   1    -0.102321208861E+03    0.12922E-03   -0.19860E-01    96   0.136E+00    0.159E-01
DAV:   2    -0.102322349203E+03   -0.11403E-02   -0.13871E-02   132   0.362E-01    0.852E-02
DAV:   3    -0.102322297935E+03    0.51267E-04   -0.27885E-04   144   0.564E-02    0.486E-02
DAV:   4    -0.102322262741E+03    0.35195E-04   -0.68467E-05   132   0.345E-02    0.101E-02
DAV:   5    -0.102322251922E+03    0.10819E-04   -0.21632E-05   132   0.175E-02    0.693E-03
DAV:   6    -0.102322252591E+03   -0.66897E-06   -0.39900E-06   132   0.668E-03
  56 F= -.10232225E+03 E0= -.10232225E+03  d E =-.390048E-10
       N       E                     dE             d eps       ncg     rms          rms(c)
DAV:   1    -0.102320481751E+03    0.17702E-02   -0.40604E-01   108   0.187E+00    0.220E-01
DAV:   2    -0.102322126989E+03   -0.16452E-02   -0.19263E-02   132   0.441E-01    0.105E-01
DAV:   3    -0.102322085462E+03    0.41527E-04   -0.40621E-04   132   0.693E-02    0.560E-02
DAV:   4    -0.102322078967E+03    0.64951E-05   -0.10476E-04   144   0.419E-02    0.130E-02
DAV:   5    -0.102322075720E+03    0.32472E-05   -0.26849E-05   144   0.197E-02    0.797E-03
DAV:   6    -0.102322077206E+03   -0.14865E-05   -0.48157E-06   132   0.755E-03    0.451E-03
DAV:   7    -0.102322082718E+03   -0.55121E-05   -0.91704E-07   108   0.400E-03    0.175E-03
DAV:   8    -0.102322090084E+03   -0.73662E-05   -0.81481E-07   108   0.334E-03    0.958E-04
DAV:   9    -0.102322101573E+03   -0.11488E-04   -0.92334E-07   120   0.301E-03    0.594E-04
DAV:  10    -0.102322108032E+03   -0.64597E-05   -0.34930E-07   108   0.181E-03    0.401E-04
DAV:  11    -0.102322110392E+03   -0.23591E-05   -0.64393E-08   108   0.821E-04    0.323E-04
DAV:  12    -0.102322115108E+03   -0.47165E-05   -0.15728E-07   108   0.893E-04    0.171E-04
DAV:  13    -0.102322116132E+03   -0.10241E-05   -0.23897E-08   108   0.399E-04    0.154E-04
DAV:  14    -0.102322117457E+03   -0.13250E-05   -0.18181E-08    96   0.350E-04    0.472E-05
DAV:  15    -0.102322118151E+03   -0.69432E-06   -0.68266E-09   108   0.247E-04
  57 F= -.10232212E+03 E0= -.10232212E+03  d E =-.573164E-10
       N       E                     dE             d eps       ncg     rms          rms(c)
DAV:   1    -0.102320931819E+03    0.11856E-02   -0.20428E-01    96   0.131E+00    0.151E-01
DAV:   2    -0.102321638214E+03   -0.70640E-03   -0.84336E-03   144   0.269E-01    0.650E-02
DAV:   3    -0.102321616919E+03    0.21296E-04   -0.20572E-04   132   0.484E-02    0.339E-02
DAV:   4    -0.102321610648E+03    0.62708E-05   -0.39976E-05   132   0.284E-02    0.931E-03
DAV:   5    -0.102321608918E+03    0.17294E-05   -0.14548E-05   132   0.148E-02    0.569E-03
DAV:   6    -0.102321609096E+03   -0.17738E-06   -0.17735E-06   120   0.453E-03
  58 F= -.10232161E+03 E0= -.10232161E+03  d E =-.323715E-10
       N       E                     dE             d eps       ncg     rms          rms(c)
DAV:   1    -0.102320287113E+03    0.13218E-02   -0.40565E-01    96   0.191E+00    0.219E-01
DAV:   2    -0.102321884337E+03   -0.15972E-02   -0.19153E-02   132   0.448E-01    0.117E-01
DAV:   3    -0.102321801150E+03    0.83187E-04   -0.39275E-04   144   0.684E-02    0.612E-02
DAV:   4    -0.102321752056E+03    0.49094E-04   -0.10065E-04   132   0.397E-02    0.121E-02
DAV:   5    -0.102321743907E+03    0.81492E-05   -0.21596E-05   132   0.180E-02    0.737E-03
DAV:   6    -0.102321753032E+03   -0.91255E-05   -0.73581E-06   132   0.876E-03    0.407E-03
DAV:   7    -0.102321772142E+03   -0.19110E-04   -0.23449E-06   120   0.508E-03    0.194E-03
DAV:   8    -0.102321797121E+03   -0.24979E-04   -0.23377E-06   120   0.407E-03    0.109E-03
DAV:   9    -0.102321815408E+03   -0.18286E-04   -0.16012E-06   120   0.307E-03    0.857E-04
DAV:  10    -0.102321831724E+03   -0.16317E-04   -0.15195E-06   120   0.258E-03    0.340E-04
DAV:  11    -0.102321836975E+03   -0.52506E-05   -0.20373E-07   108   0.111E-03    0.308E-04
DAV:  12    -0.102321842277E+03   -0.53020E-05   -0.30301E-07    96   0.110E-03    0.127E-04
DAV:  13    -0.102321843463E+03   -0.11856E-05   -0.44659E-08   120   0.475E-04    0.955E-05
DAV:  14    -0.102321844521E+03   -0.10582E-05   -0.13211E-08   108   0.324E-04    0.424E-05
DAV:  15    -0.102321845051E+03   -0.53026E-06   -0.61559E-09   108   0.228E-04
  59 F= -.10232185E+03 E0= -.10232185E+03  d E =-.694299E-10
       N       E                     dE             d eps       ncg     rms          rms(c)
DAV:   1    -0.102320377466E+03    0.14671E-02   -0.20155E-01    96   0.136E+00    0.152E-01
DAV:   2    -0.102321176758E+03   -0.79929E-03   -0.97343E-03   132   0.320E-01    0.809E-02
DAV:   3    -0.102321130838E+03    0.45921E-04   -0.18376E-04   144   0.460E-02    0.423E-02
DAV:   4    -0.102321100562E+03    0.30276E-04   -0.41330E-05   132   0.246E-02    0.884E-03
DAV:   5    -0.102321091940E+03    0.86214E-05   -0.76275E-06   132   0.116E-02    0.461E-03
DAV:   6    -0.102321093644E+03   -0.17041E-05   -0.30749E-06   120   0.720E-03    0.240E-03
DAV:   7    -0.102321102710E+03   -0.90657E-05   -0.18176E-06   120   0.528E-03    0.132E-03
DAV:   8    -0.102321116407E+03   -0.13697E-04   -0.82708E-07   108   0.324E-03    0.774E-04
DAV:   9    -0.102321128173E+03   -0.11766E-04   -0.70781E-07   108   0.218E-03    0.509E-04
DAV:  10    -0.102321139164E+03   -0.10991E-04   -0.49850E-07   108   0.156E-03    0.262E-04
DAV:  11    -0.102321143789E+03   -0.46257E-05   -0.11687E-07   108   0.827E-04    0.183E-04
DAV:  12    -0.102321148683E+03   -0.48934E-05   -0.11970E-07   108   0.735E-04    0.928E-05
DAV:  13    -0.102321149821E+03   -0.11378E-05   -0.16890E-08   120   0.371E-04    0.628E-05
DAV:  14    -0.102321150783E+03   -0.96227E-06   -0.52706E-09   108   0.258E-04
  60 F= -.10232115E+03 E0= -.10232115E+03  d E =-.518584E-10
       N       E                     dE             d eps       ncg     rms          rms(c)
DAV:   1    -0.102319987269E+03    0.11626E-02   -0.40258E-01    96   0.192E+00    0.211E-01
DAV:   2    -0.102321559948E+03   -0.15727E-02   -0.19303E-02   132   0.459E-01    0.127E-01
DAV:   3    -0.102321441503E+03    0.11844E-03   -0.32095E-04   132   0.640E-02    0.664E-02
DAV:   4    -0.102321371574E+03    0.69928E-04   -0.12212E-04   132   0.406E-02    0.121E-02
DAV:   5    -0.102321366507E+03    0.50676E-05   -0.17692E-05   132   0.169E-02    0.736E-03
DAV:   6    -0.102321386704E+03   -0.20197E-04   -0.11280E-05   132   0.110E-02    0.363E-03
DAV:   7    -0.102321418173E+03   -0.31468E-04   -0.48130E-06   132   0.688E-03    0.225E-03
DAV:   8    -0.102321456952E+03   -0.38780E-04   -0.35118E-06   108   0.444E-03    0.112E-03
DAV:   9    -0.102321485031E+03   -0.28079E-04   -0.27207E-06   120   0.358E-03    0.845E-04
DAV:  10    -0.102321507258E+03   -0.22227E-04   -0.22327E-06   120   0.292E-03    0.374E-04
DAV:  11    -0.102321514111E+03   -0.68528E-05   -0.30539E-07   108   0.129E-03    0.252E-04
DAV:  12    -0.102321518873E+03   -0.47622E-05   -0.23389E-07   108   0.974E-04    0.160E-04
DAV:  13    -0.102321520465E+03   -0.15924E-05   -0.42556E-08   108   0.495E-04    0.685E-05
DAV:  14    -0.102321521492E+03   -0.10268E-05   -0.13172E-08   108   0.341E-04    0.569E-05
DAV:  15    -0.102321521842E+03   -0.34961E-06    0.15085E-09   108   0.175E-04
  61 F= -.10232152E+03 E0= -.10232152E+03  d E =-.398258E-10
       N       E                     dE             d eps       ncg     rms          rms(c)
DAV:   1    -0.102324256903E+03   -0.27354E-02   -0.23729E-01    96   0.175E+00    0.157E-01
DAV:   2    -0.102324617920E+03   -0.36102E-03   -0.62324E-03   120   0.263E-01    0.878E-02
DAV:   3    -0.102324537802E+03    0.80118E-04   -0.21710E-04   132   0.537E-02    0.379E-02
DAV:   4    -0.102324520920E+03    0.16882E-04   -0.74848E-05   132   0.302E-02    0.945E-03
DAV:   5    -0.102324516907E+03    0.40126E-05   -0.81244E-06   132   0.112E-02    0.642E-03
DAV:   6    -0.102324517787E+03   -0.87941E-06   -0.33881E-06   132   0.672E-03
  62 F= -.10232452E+03 E0= -.10232452E+03  d E =-.570076E-10
       N       E                     dE             d eps       ncg     rms          rms(c)
DAV:   1    -0.102325006824E+03   -0.48992E-03   -0.54865E-01    96   0.278E+00    0.229E-01
DAV:   2    -0.102324708039E+03    0.29878E-03   -0.36817E-03   132   0.215E-01    0.122E-01
DAV:   3    -0.102324498839E+03    0.20920E-03   -0.50400E-04   132   0.709E-02    0.366E-02
DAV:   4    -0.102324504824E+03   -0.59858E-05   -0.11245E-04   132   0.331E-02    0.124E-02
DAV:   5    -0.102324509155E+03   -0.43301E-05   -0.69556E-06   132   0.103E-02    0.666E-03
DAV:   6    -0.102324515630E+03   -0.64756E-05   -0.31629E-06   132   0.607E-03    0.161E-03
DAV:   7    -0.102324519476E+03   -0.38462E-05   -0.46172E-07   108   0.267E-03    0.911E-04
DAV:   8    -0.102324524883E+03   -0.54070E-05   -0.19159E-07   108   0.139E-03    0.348E-04
DAV:   9    -0.102324528573E+03   -0.36900E-05   -0.11771E-07   108   0.101E-03    0.287E-04
DAV:  10    -0.102324533136E+03   -0.45631E-05   -0.19354E-07   108   0.104E-03    0.131E-04
DAV:  11    -0.102324534579E+03   -0.14430E-05   -0.55291E-08   108   0.605E-04    0.104E-04
DAV:  12    -0.102324535342E+03   -0.76293E-06   -0.71316E-09   108   0.310E-04
  63 F= -.10232454E+03 E0= -.10232454E+03  d E =-.385841E-10
       N       E                     dE             d eps       ncg     rms          rms(c)
DAV:   1    -0.102323915212E+03    0.61937E-03   -0.29071E-01    96   0.193E+00    0.211E-01
DAV:   2    -0.102323659497E+03    0.25572E-03   -0.23325E-03   132   0.177E-01    0.103E-01
DAV:   3    -0.102323506137E+03    0.15336E-03   -0.40838E-04   132   0.644E-02    0.356E-02
DAV:   4    -0.102323500152E+03    0.59854E-05   -0.11395E-04   132   0.332E-02    0.142E-02
DAV:   5    -0.102323498316E+03    0.18353E-05   -0.52367E-06   132   0.993E-03    0.524E-03
DAV:   6    -0.102323499430E+03   -0.11135E-05   -0.30558E-06   132   0.647E-03    0.186E-03
DAV:   7    -0.102323501115E+03   -0.16853E-05   -0.67166E-07   108   0.313E-03    0.923E-04
DAV:   8    -0.102323503841E+03   -0.27262E-05   -0.18563E-07   108   0.152E-03    0.412E-04
DAV:   9    -0.102323505920E+03   -0.20782E-05   -0.12449E-07   108   0.123E-03    0.416E-04
DAV:  10    -0.102323509377E+03   -0.34579E-05   -0.20025E-07   108   0.119E-03    0.251E-04
DAV:  11    -0.102323510329E+03   -0.95178E-06   -0.37042E-08   120   0.632E-04
  64 F= -.10232351E+03 E0= -.10232351E+03  d E =-.442583E-10
       N       E                     dE             d eps       ncg     rms          rms(c)
DAV:   1    -0.102323978603E+03   -0.46923E-03   -0.56862E-01    96   0.277E+00    0.279E-01
DAV:   2    -0.102323486460E+03    0.49214E-03   -0.42127E-03   132   0.234E-01    0.136E-01
DAV:   3    -0.102323202416E+03    0.28404E-03   -0.70240E-04   132   0.784E-02    0.475E-02
DAV:   4    -0.102323187779E+03    0.14637E-04   -0.16003E-04   144   0.393E-02    0.178E-02
DAV:   5    -0.102323190340E+03   -0.25614E-05   -0.92362E-06   132   0.132E-02    0.692E-03
DAV:   6    -0.102323197114E+03   -0.67739E-05   -0.52774E-06   132   0.799E-03    0.242E-03
DAV:   7    -0.102323202006E+03   -0.48919E-05   -0.91351E-07   120   0.363E-03    0.121E-03
DAV:   8    -0.102323210496E+03   -0.84898E-05   -0.51691E-07   108   0.227E-03    0.564E-04
DAV:   9    -0.102323214489E+03   -0.39932E-05   -0.25968E-07   108   0.155E-03    0.566E-04
DAV:  10    -0.102323221574E+03   -0.70853E-05   -0.49843E-07   108   0.174E-03    0.306E-04
DAV:  11    -0.102323223516E+03   -0.19419E-05   -0.14592E-07   108   0.963E-04    0.230E-04
DAV:  12    -0.102323224595E+03   -0.10786E-05   -0.22704E-08   108   0.521E-04    0.127E-04
DAV:  13    -0.102323225901E+03   -0.13062E-05   -0.42172E-08   108   0.491E-04    0.144E-04
DAV:  14    -0.102323226519E+03   -0.61822E-06   -0.14246E-08   108   0.299E-04
  65 F= -.10232323E+03 E0= -.10232323E+03  d E =-.450214E-10
       N       E                     dE             d eps       ncg     rms          rms(c)
DAV:   1    -0.102325060579E+03   -0.18347E-02   -0.28947E-01    96   0.194E+00    0.205E-01
DAV:   2    -0.102324787119E+03    0.27346E-03   -0.24004E-03   132   0.186E-01    0.101E-01
DAV:   3    -0.102324635916E+03    0.15120E-03   -0.44038E-04   132   0.697E-02    0.342E-02
DAV:   4    -0.102324634880E+03    0.10362E-05   -0.11752E-04   132   0.359E-02    0.152E-02
DAV:   5    -0.102324633989E+03    0.89091E-06   -0.45140E-06   132   0.891E-03
  66 F= -.10232463E+03 E0= -.10232463E+03  d E =-.417382E-10
       N       E                     dE             d eps       ncg     rms          rms(c)
DAV:   1    -0.102325121405E+03   -0.48652E-03   -0.55703E-01    96   0.277E+00    0.221E-01
DAV:   2    -0.102324761541E+03    0.35986E-03   -0.37369E-03   132   0.212E-01    0.121E-01
DAV:   3    -0.102324536132E+03    0.22541E-03   -0.64037E-04   132   0.823E-02    0.317E-02
DAV:   4    -0.102324544532E+03   -0.84000E-05   -0.13986E-04   132   0.398E-02    0.154E-02
DAV:   5    -0.102324544108E+03    0.42364E-06   -0.43491E-06   132   0.811E-03
  67 F= -.10232454E+03 E0= -.10232454E+03  d E =-.516966E-10
       N       E                     dE             d eps       ncg     rms          rms(c)
DAV:   1    -0.102325155139E+03   -0.61061E-03   -0.27480E-01    96   0.195E+00    0.149E-01
DAV:   2    -0.102325085773E+03    0.69366E-04   -0.18586E-03   132   0.156E-01    0.850E-02
DAV:   3    -0.102325001622E+03    0.84151E-04   -0.18145E-04   132   0.447E-02    0.194E-02
DAV:   4    -0.102325002936E+03   -0.13138E-05   -0.34236E-05   132   0.189E-02    0.638E-03
DAV:   5    -0.102325003095E+03   -0.15830E-06   -0.10701E-06   108   0.438E-03
  68 F= -.10232500E+03 E0= -.10232500E+03  d E =-.488399E-10
       N       E                     dE             d eps       ncg     rms          rms(c)
DAV:   1    -0.102325669112E+03   -0.66618E-03   -0.54309E-01    96   0.268E+00    0.202E-01
DAV:   2    -0.102325384011E+03    0.28510E-03   -0.28933E-03   120   0.196E-01    0.113E-01
DAV:   3    -0.102325213338E+03    0.17067E-03   -0.48200E-04   132   0.721E-02    0.245E-02
DAV:   4    -0.102325222618E+03   -0.92798E-05   -0.93824E-05   132   0.315E-02    0.101E-02
DAV:   5    -0.102325222695E+03   -0.77517E-07   -0.33298E-06   132   0.682E-03
  69 F= -.10232522E+03 E0= -.10232522E+03  d E =-.446344E-10
       N       E                     dE             d eps       ncg     rms          rms(c)
DAV:   1    -0.102325218973E+03    0.36453E-05   -0.27502E-01    96   0.190E+00    0.143E-01
DAV:   2    -0.102325075361E+03    0.14361E-03   -0.14503E-03   132   0.130E-01    0.800E-02
DAV:   3    -0.102324986935E+03    0.88426E-04   -0.24625E-04   132   0.476E-02    0.178E-02
DAV:   4    -0.102324988762E+03   -0.18271E-05   -0.38797E-05   132   0.203E-02    0.648E-03
DAV:   5    -0.102324988394E+03    0.36881E-06   -0.14270E-06   120   0.461E-03
  70 F= -.10232499E+03 E0= -.10232499E+03  d E =-.446041E-10
       N       E                     dE             d eps       ncg     rms          rms(c)
DAV:   1    -0.102325489072E+03   -0.50031E-03   -0.54773E-01    96   0.263E+00    0.205E-01
DAV:   2    -0.102325215941E+03    0.27313E-03   -0.29336E-03   120   0.186E-01    0.114E-01
DAV:   3    -0.102325027609E+03    0.18833E-03   -0.46801E-04   132   0.664E-02    0.267E-02
DAV:   4    -0.102325029435E+03   -0.18250E-05   -0.75941E-05   132   0.285E-02    0.980E-03
DAV:   5    -0.102325029472E+03   -0.37077E-07   -0.37366E-06   132   0.741E-03
  71 F= -.10232503E+03 E0= -.10232503E+03  d E =-.429555E-10
[...]
DAV:  10    -0.102323177105E+03   -0.50918E-05   -0.39469E-07   108   0.146E-03    0.354E-04
DAV:  11    -0.102323178370E+03   -0.12650E-05   -0.81698E-08   108   0.764E-04    0.259E-04
DAV:  12    -0.102323178855E+03   -0.48506E-06   -0.61703E-09   108   0.339E-04
 129 F= -.10232318E+03 E0= -.10232318E+03  d E =-.391341E-10
       N       E                     dE             d eps       ncg     rms          rms(c)
DAV:   1    -0.102325460757E+03   -0.22824E-02   -0.28238E-01    96   0.165E+00    0.186E-01
DAV:   2    -0.102325258281E+03    0.20248E-03   -0.20663E-03   132   0.155E-01    0.928E-02
DAV:   3    -0.102325139282E+03    0.11900E-03   -0.32950E-04   132   0.538E-02    0.315E-02
DAV:   4    -0.102325136831E+03    0.24514E-05   -0.75623E-05   132   0.260E-02    0.114E-02
DAV:   5    -0.102325135776E+03    0.10547E-05   -0.33695E-06   132   0.825E-03    0.481E-03
DAV:   6    -0.102325136650E+03   -0.87400E-06   -0.23963E-06   132   0.539E-03
 130 F= -.10232514E+03 E0= -.10232514E+03  d E =-.496155E-10
       N       E                     dE             d eps       ncg     rms          rms(c)
DAV:   1    -0.102325504232E+03   -0.36846E-03   -0.54022E-01    96   0.241E+00    0.195E-01
DAV:   2    -0.102325284209E+03    0.22002E-03   -0.29167E-03   132   0.183E-01    0.111E-01
DAV:   3    -0.102325130399E+03    0.15381E-03   -0.43772E-04   132   0.649E-02    0.236E-02
DAV:   4    -0.102325137121E+03   -0.67219E-05   -0.67204E-05   132   0.267E-02    0.957E-03
DAV:   5    -0.102325137706E+03   -0.58499E-06   -0.28096E-06   132   0.609E-03
 131 F= -.10232514E+03 E0= -.10232514E+03  d E =-.478230E-10
       N       E                     dE             d eps       ncg     rms          rms(c)
DAV:   1    -0.102324884549E+03    0.25257E-03   -0.27084E-01    96   0.164E+00    0.140E-01
DAV:   2    -0.102324769145E+03    0.11540E-03   -0.15327E-03   132   0.131E-01    0.784E-02
DAV:   3    -0.102324692941E+03    0.76204E-04   -0.21372E-04   132   0.445E-02    0.185E-02
DAV:   4    -0.102324695973E+03   -0.30321E-05   -0.34075E-05   132   0.185E-02    0.671E-03
DAV:   5    -0.102324696528E+03   -0.55500E-06   -0.15669E-06   120   0.475E-03
 132 F= -.10232470E+03 E0= -.10232470E+03  d E =-.455171E-10
       N       E                     dE             d eps       ncg     rms          rms(c)
DAV:   1    -0.102325069080E+03   -0.37311E-03   -0.55109E-01    96   0.232E+00    0.224E-01
DAV:   2    -0.102324775293E+03    0.29379E-03   -0.32928E-03   120   0.189E-01    0.118E-01
DAV:   3    -0.102324594597E+03    0.18070E-03   -0.46747E-04   132   0.663E-02    0.357E-02
DAV:   4    -0.102324596483E+03   -0.18862E-05   -0.10323E-04   132   0.311E-02    0.119E-02
DAV:   5    -0.102324595492E+03    0.99102E-06   -0.53034E-06   132   0.936E-03
 133 F= -.10232460E+03 E0= -.10232460E+03  d E =-.458247E-10
       N       E                     dE             d eps       ncg     rms          rms(c)
DAV:   1    -0.102324799744E+03   -0.20326E-03   -0.27642E-01    96   0.192E+00    0.161E-01
DAV:   2    -0.102324697508E+03    0.10224E-03   -0.20392E-03   120   0.160E-01    0.859E-02
DAV:   3    -0.102324607511E+03    0.89997E-04   -0.21650E-04   132   0.469E-02    0.283E-02
DAV:   4    -0.102324607031E+03    0.48009E-06   -0.57967E-05   132   0.235E-02    0.824E-03
DAV:   5    -0.102324606367E+03    0.66439E-06   -0.35282E-06   132   0.727E-03
 134 F= -.10232461E+03 E0= -.10232461E+03  d E =-.477268E-10
       N       E                     dE             d eps       ncg     rms          rms(c)
DAV:   1    -0.102324824959E+03   -0.21793E-03   -0.55335E-01    96   0.228E+00    0.232E-01
DAV:   2    -0.102324514024E+03    0.31093E-03   -0.34392E-03   132   0.180E-01    0.122E-01
DAV:   3    -0.102324297017E+03    0.21701E-03   -0.48723E-04   132   0.615E-02    0.375E-02
DAV:   4    -0.102324291941E+03    0.50753E-05   -0.10163E-04   144   0.292E-02    0.119E-02
DAV:   5    -0.102324292202E+03   -0.26077E-06   -0.58928E-06   132   0.955E-03
 135 F= -.10232429E+03 E0= -.10232429E+03  d E =-.423460E-10
       N       E                     dE             d eps       ncg     rms          rms(c)
DAV:   1    -0.102323751351E+03    0.54059E-03   -0.28991E-01   108   0.165E+00    0.208E-01
DAV:   2    -0.102323484643E+03    0.26671E-03   -0.23224E-03   120   0.156E-01    0.103E-01
DAV:   3    -0.102323343717E+03    0.14093E-03   -0.42680E-04   132   0.594E-02    0.344E-02
DAV:   4    -0.102323345184E+03   -0.14670E-05   -0.11288E-04   132   0.306E-02    0.149E-02
DAV:   5    -0.102323343670E+03    0.15148E-05   -0.42766E-06   132   0.854E-03    0.540E-03
DAV:   6    -0.102323343812E+03   -0.14256E-06   -0.28962E-06   132   0.567E-03
 136 F= -.10232334E+03 E0= -.10232334E+03  d E =-.456947E-10
       N       E                     dE             d eps       ncg     rms          rms(c)
DAV:   1    -0.102324415302E+03   -0.10716E-02   -0.57189E-01    96   0.224E+00    0.269E-01
DAV:   2    -0.102323894772E+03    0.52053E-03   -0.45624E-03   132   0.215E-01    0.138E-01
DAV:   3    -0.102323598216E+03    0.29656E-03   -0.81015E-04   132   0.817E-02    0.449E-02
DAV:   4    -0.102323598786E+03   -0.57091E-06   -0.19402E-04   132   0.409E-02    0.198E-02
DAV:   5    -0.102323598147E+03    0.63947E-06   -0.75484E-06   132   0.104E-02
 137 F= -.10232360E+03 E0= -.10232360E+03  d E =-.439913E-10
       N       E                     dE             d eps       ncg     rms          rms(c)
DAV:   1    -0.102325052645E+03   -0.14539E-02   -0.28822E-01    96   0.166E+00    0.201E-01
DAV:   2    -0.102324781911E+03    0.27073E-03   -0.22578E-03   132   0.155E-01    0.101E-01
DAV:   3    -0.102324639964E+03    0.14195E-03   -0.42664E-04   132   0.605E-02    0.326E-02
DAV:   4    -0.102324643020E+03   -0.30557E-05   -0.11174E-04   132   0.311E-02    0.145E-02
DAV:   5    -0.102324642013E+03    0.10069E-05   -0.39174E-06   132   0.817E-03    0.569E-03
DAV:   6    -0.102324642225E+03   -0.21189E-06   -0.27922E-06   132   0.571E-03
 138 F= -.10232464E+03 E0= -.10232464E+03  d E =-.459851E-10
       N       E                     dE             d eps       ncg     rms          rms(c)
DAV:   1    -0.102325022779E+03   -0.38077E-03   -0.54724E-01    96   0.231E+00    0.225E-01
DAV:   2    -0.102324720082E+03    0.30270E-03   -0.34300E-03   120   0.195E-01    0.121E-01
DAV:   3    -0.102324514391E+03    0.20569E-03   -0.49836E-04   132   0.667E-02    0.344E-02
DAV:   4    -0.102324516926E+03   -0.25344E-05   -0.97024E-05   132   0.303E-02    0.128E-02
DAV:   5    -0.102324517238E+03   -0.31219E-06   -0.51654E-06   132   0.881E-03
 139 F= -.10232452E+03 E0= -.10232452E+03  d E =-.428730E-10
       N       E                     dE             d eps       ncg     rms          rms(c)
DAV:   1    -0.102324418663E+03    0.98263E-04   -0.27618E-01    96   0.167E+00    0.166E-01
DAV:   2    -0.102324299073E+03    0.11959E-03   -0.18217E-03   108   0.134E-01    0.874E-02
DAV:   3    -0.102324209548E+03    0.89525E-04   -0.26513E-04   132   0.432E-02    0.264E-02
DAV:   4    -0.102324207276E+03    0.22722E-05   -0.38714E-05   144   0.176E-02    0.104E-02
DAV:   5    -0.102324205645E+03    0.16305E-05   -0.24723E-06   132   0.689E-03    0.496E-03
DAV:   6    -0.102324205631E+03    0.14157E-07   -0.21595E-06   132   0.526E-03
 140 F= -.10232421E+03 E0= -.10232421E+03  d E =-.474174E-10
       N       E                     dE             d eps       ncg     rms          rms(c)
DAV:   1    -0.102324843129E+03   -0.63748E-03   -0.55585E-01    96   0.223E+00    0.242E-01
DAV:   2    -0.102324485322E+03    0.35781E-03   -0.34715E-03   132   0.182E-01    0.125E-01
DAV:   3    -0.102324261566E+03    0.22376E-03   -0.53925E-04   132   0.637E-02    0.387E-02
DAV:   4    -0.102324254495E+03    0.70712E-05   -0.10479E-04   144   0.298E-02    0.134E-02
DAV:   5    -0.102324254474E+03    0.20651E-07   -0.58592E-06   132   0.993E-03
 141 F= -.10232425E+03 E0= -.10232425E+03  d E =-.424790E-10
       N       E                     dE             d eps       ncg     rms          rms(c)
DAV:   1    -0.102323474122E+03    0.78037E-03   -0.27227E-01    96   0.153E+00    0.138E-01
DAV:   2    -0.102323339519E+03    0.13460E-03   -0.14793E-03   132   0.119E-01    0.784E-02
DAV:   3    -0.102323255745E+03    0.83773E-04   -0.25388E-04   132   0.471E-02    0.158E-02
DAV:   4    -0.102323260470E+03   -0.47246E-05   -0.44497E-05   132   0.210E-02    0.822E-03
DAV:   5    -0.102323261037E+03   -0.56703E-06   -0.10573E-06   132   0.397E-03
 142 F= -.10232326E+03 E0= -.10232326E+03  d E =-.442062E-10
       N       E                     dE             d eps       ncg     rms          rms(c)
DAV:   1    -0.102323822579E+03   -0.56211E-03   -0.58083E-01    96   0.223E+00    0.291E-01
DAV:   2    -0.102323275934E+03    0.54665E-03   -0.48753E-03   132   0.220E-01    0.142E-01
DAV:   3    -0.102322966633E+03    0.30930E-03   -0.82113E-04   132   0.829E-02    0.484E-02
DAV:   4    -0.102322967866E+03   -0.12328E-05   -0.22879E-04   132   0.427E-02    0.185E-02
DAV:   5    -0.102322965714E+03    0.21514E-05   -0.90428E-06   132   0.118E-02    0.777E-03
DAV:   6    -0.102322966057E+03   -0.34316E-06   -0.49594E-06   132   0.728E-03
 143 F= -.10232297E+03 E0= -.10232297E+03  d E =-.462785E-10
       N       E                     dE             d eps       ncg     rms          rms(c)
DAV:   1    -0.102325488472E+03   -0.25228E-02   -0.28119E-01    96   0.153E+00    0.169E-01
DAV:   2    -0.102325260489E+03    0.22798E-03   -0.18126E-03   132   0.138E-01    0.897E-02
DAV:   3    -0.102325146709E+03    0.11378E-03   -0.33679E-04   132   0.554E-02    0.251E-02
DAV:   4    -0.102325151814E+03   -0.51046E-05   -0.75805E-05   132   0.265E-02    0.116E-02
DAV:   5    -0.102325151841E+03   -0.26962E-07   -0.24536E-06   132   0.620E-03
 144 F= -.10232515E+03 E0= -.10232515E+03  d E =-.470510E-10
       N       E                     dE             d eps       ncg     rms          rms(c)
DAV:   1    -0.102325569481E+03   -0.41767E-03   -0.54098E-01    96   0.224E+00    0.199E-01
DAV:   2    -0.102325275145E+03    0.29434E-03   -0.25788E-03   132   0.164E-01    0.112E-01
DAV:   3    -0.102325109357E+03    0.16579E-03   -0.43685E-04   132   0.645E-02    0.220E-02
DAV:   4    -0.102325114945E+03   -0.55881E-05   -0.67451E-05   132   0.266E-02    0.103E-02
DAV:   5    -0.102325115350E+03   -0.40469E-06   -0.27465E-06   144   0.600E-03
 145 F= -.10232512E+03 E0= -.10232512E+03  d E =-.427495E-10
       N       E                     dE             d eps       ncg     rms          rms(c)
DAV:   1    -0.102324463420E+03    0.65152E-03   -0.27016E-01    96   0.194E+00    0.134E-01
DAV:   2    -0.102324399182E+03    0.64238E-04   -0.18323E-03   132   0.158E-01    0.759E-02
DAV:   3    -0.102324324920E+03    0.74262E-04   -0.21892E-04   132   0.506E-02    0.181E-02
DAV:   4    -0.102324328442E+03   -0.35219E-05   -0.51220E-05   132   0.235E-02    0.793E-03
DAV:   5    -0.102324328247E+03    0.19500E-06   -0.13674E-06   108   0.492E-03
 146 F= -.10232433E+03 E0= -.10232433E+03  d E =-.457875E-10
       N       E                     dE             d eps       ncg     rms          rms(c)
DAV:   1    -0.102324622069E+03   -0.29363E-03   -0.53582E-01    96   0.268E+00    0.180E-01
DAV:   2    -0.102324500809E+03    0.12126E-03   -0.33177E-03   132   0.205E-01    0.100E-01
DAV:   3    -0.102324344721E+03    0.15609E-03   -0.45452E-04   132   0.698E-02    0.227E-02
DAV:   4    -0.102324348228E+03   -0.35068E-05   -0.10317E-04   132   0.329E-02    0.106E-02
DAV:   5    -0.102324347230E+03    0.99790E-06   -0.27497E-06   132   0.629E-03
 147 F= -.10232435E+03 E0= -.10232435E+03  d E =-.446393E-10
       N       E                     dE             d eps       ncg     rms          rms(c)
DAV:   1    -0.102323283906E+03    0.10643E-02   -0.26342E-01    96   0.187E+00    0.111E-01
DAV:   2    -0.102323224181E+03    0.59726E-04   -0.10487E-03   132   0.114E-01    0.637E-02
DAV:   3    -0.102323168485E+03    0.55695E-04   -0.16265E-04   132   0.402E-02    0.104E-02
DAV:   4    -0.102323171444E+03   -0.29593E-05   -0.25280E-05   132   0.168E-02    0.569E-03
DAV:   5    -0.102323172770E+03   -0.13254E-05   -0.92925E-07   108   0.358E-03    0.382E-03
DAV:   6    -0.102323176116E+03   -0.33464E-05   -0.84450E-07    96   0.340E-03    0.725E-04
DAV:   7    -0.102323177986E+03   -0.18696E-05   -0.32863E-07   108   0.195E-03    0.635E-04
DAV:   8    -0.102323181208E+03   -0.32223E-05   -0.18970E-07    96   0.157E-03    0.270E-04
DAV:   9    -0.102323183252E+03   -0.20440E-05   -0.15191E-07   108   0.110E-03    0.229E-04
DAV:  10    -0.102323185129E+03   -0.18771E-05   -0.68988E-08   108   0.737E-04    0.136E-04
DAV:  11    -0.102323186140E+03   -0.10111E-05   -0.39706E-08   108   0.445E-04    0.823E-05
DAV:  12    -0.102323186746E+03   -0.60527E-06   -0.10721E-08   108   0.279E-04
 148 F= -.10232319E+03 E0= -.10232319E+03  d E =-.428559E-10
       N       E                     dE             d eps       ncg     rms          rms(c)
DAV:   1    -0.102323633001E+03   -0.44686E-03   -0.54135E-01    96   0.268E+00    0.204E-01
DAV:   2    -0.102323563174E+03    0.69827E-04   -0.43433E-03   120   0.235E-01    0.110E-01
DAV:   3    -0.102323371791E+03    0.19138E-03   -0.49263E-04   132   0.679E-02    0.317E-02
DAV:   4    -0.102323363968E+03    0.78233E-05   -0.12017E-04   132   0.320E-02    0.126E-02
DAV:   5    -0.102323361731E+03    0.22369E-05   -0.49353E-06   132   0.965E-03    0.712E-03
DAV:   6    -0.102323363849E+03   -0.21181E-05   -0.49700E-06   132   0.898E-03    0.186E-03
DAV:   7    -0.102323367567E+03   -0.37186E-05   -0.21236E-06   132   0.487E-03    0.175E-03
DAV:   8    -0.102323372364E+03   -0.47970E-05   -0.20597E-07   108   0.138E-03    0.696E-04
DAV:   9    -0.102323378310E+03   -0.59452E-05   -0.39809E-07   108   0.167E-03    0.553E-04
DAV:  10    -0.102323384389E+03   -0.60794E-05   -0.36556E-07   108   0.168E-03    0.318E-04
DAV:  11    -0.102323387509E+03   -0.31201E-05   -0.12107E-07   108   0.944E-04    0.278E-04
DAV:  12    -0.102323388846E+03   -0.13367E-05   -0.10868E-08   120   0.460E-04    0.123E-04
DAV:  13    -0.102323390985E+03   -0.21392E-05   -0.44652E-08   108   0.478E-04    0.818E-05
DAV:  14    -0.102323391428E+03   -0.44332E-06   -0.29379E-10   120   0.215E-04
 149 F= -.10232339E+03 E0= -.10232339E+03  d E =-.456340E-10
       N       E                     dE             d eps       ncg     rms          rms(c)
DAV:   1    -0.102325248052E+03   -0.18571E-02   -0.26594E-01    96   0.192E+00    0.127E-01
DAV:   2    -0.102325185487E+03    0.62565E-04   -0.15404E-03   132   0.143E-01    0.713E-02
DAV:   3    -0.102325112899E+03    0.72588E-04   -0.20415E-04   132   0.459E-02    0.164E-02
DAV:   4    -0.102325113740E+03   -0.84111E-06   -0.44167E-05   132   0.213E-02    0.766E-03
DAV:   5    -0.102325114038E+03   -0.29808E-06   -0.13986E-06   108   0.483E-03
 150 F= -.10232511E+03 E0= -.10232511E+03  d E =-.520043E-10
       N       E                     dE             d eps       ncg     rms          rms(c)
DAV:   1    -0.102325407123E+03   -0.29338E-03   -0.52536E-01    96   0.263E+00    0.159E-01
DAV:   2    -0.102325281770E+03    0.12535E-03   -0.20657E-03   132   0.164E-01    0.920E-02
DAV:   3    -0.102325177268E+03    0.10450E-03   -0.34532E-04   132   0.604E-02    0.125E-02
DAV:   4    -0.102325183577E+03   -0.63092E-05   -0.53286E-05   132   0.245E-02    0.827E-03
DAV:   5    -0.102325184708E+03   -0.11311E-05   -0.17832E-06   120   0.459E-03    0.602E-03
DAV:   6    -0.102325188485E+03   -0.37769E-05   -0.13053E-06   108   0.403E-03    0.107E-03
DAV:   7    -0.102325190837E+03   -0.23522E-05   -0.53632E-07   108   0.242E-03    0.110E-03
DAV:   8    -0.102325193743E+03   -0.29058E-05   -0.14982E-07   108   0.168E-03    0.379E-04
DAV:   9    -0.102325197608E+03   -0.38645E-05   -0.28513E-07   108   0.184E-03    0.567E-04
DAV:  10    -0.102325199227E+03   -0.16196E-05   -0.98449E-08   108   0.106E-03    0.239E-04
DAV:  11    -0.102325200325E+03   -0.10981E-05   -0.33692E-08   108   0.487E-04    0.279E-04
DAV:  12    -0.102325201285E+03   -0.95992E-06   -0.26208E-08   108   0.411E-04
 151 F= -.10232520E+03 E0= -.10232520E+03  d E =-.378170E-10
       N       E                     dE             d eps       ncg     rms          rms(c)
DAV:   1    -0.102323146722E+03    0.20536E-02   -0.26669E-01   108   0.202E+00    0.130E-01
DAV:   2    -0.102323103684E+03    0.43037E-04   -0.19618E-03   132   0.165E-01    0.711E-02
DAV:   3    -0.102323025278E+03    0.78406E-04   -0.21512E-04   132   0.504E-02    0.198E-02
DAV:   4    -0.102323027083E+03   -0.18048E-05   -0.68221E-05   132   0.257E-02    0.784E-03
DAV:   5    -0.102323027252E+03   -0.16858E-06   -0.25783E-06   132   0.595E-03
 152 F= -.10232303E+03 E0= -.10232303E+03  d E =-.417234E-10
       N       E                     dE             d eps       ncg     rms          rms(c)
DAV:   1    -0.102323271893E+03   -0.24481E-03   -0.54493E-01   120   0.273E+00    0.208E-01
DAV:   2    -0.102323231424E+03    0.40469E-04   -0.51450E-03   132   0.255E-01    0.114E-01
DAV:   3    -0.102323023679E+03    0.20775E-03   -0.52818E-04   132   0.763E-02    0.332E-02
DAV:   4    -0.102323023706E+03   -0.27682E-07   -0.17663E-04   120   0.399E-02    0.129E-02
DAV:   5    -0.102323021498E+03    0.22086E-05   -0.50415E-06   132   0.946E-03    0.818E-03
DAV:   6    -0.102323021733E+03   -0.23544E-06   -0.57950E-06   108   0.974E-03
 153 F= -.10232302E+03 E0= -.10232302E+03  d E =-.501517E-10
       N       E                     dE             d eps       ncg     rms          rms(c)
DAV:   1    -0.102325122365E+03   -0.21009E-02   -0.26874E-01   108   0.194E+00    0.140E-01
DAV:   2    -0.102325071065E+03    0.51300E-04   -0.19651E-03   132   0.160E-01    0.758E-02
DAV:   3    -0.102324997808E+03    0.73257E-04   -0.23684E-04   132   0.448E-02    0.211E-02
DAV:   4    -0.102324996711E+03    0.10973E-05   -0.43052E-05   132   0.199E-02    0.837E-03
DAV:   5    -0.102324995843E+03    0.86755E-06   -0.25768E-06   120   0.665E-03
 154 F= -.10232500E+03 E0= -.10232500E+03  d E =-.451113E-10
       N       E                     dE             d eps       ncg     rms          rms(c)
DAV:   1    -0.102325414705E+03   -0.41799E-03   -0.53149E-01    96   0.273E+00    0.160E-01
DAV:   2    -0.102325314531E+03    0.10017E-03   -0.21187E-03   132   0.162E-01    0.921E-02
DAV:   3    -0.102325207953E+03    0.10658E-03   -0.34205E-04   132   0.570E-02    0.148E-02
DAV:   4    -0.102325210931E+03   -0.29782E-05   -0.50115E-05   132   0.237E-02    0.748E-03
DAV:   5    -0.102325210311E+03    0.62008E-06   -0.19088E-06   132   0.499E-03
 155 F= -.10232521E+03 E0= -.10232521E+03  d E =-.439768E-10
       N       E                     dE             d eps       ncg     rms          rms(c)
DAV:   1    -0.102324699595E+03    0.51134E-03   -0.26448E-01    96   0.187E+00    0.116E-01
DAV:   2    -0.102324633202E+03    0.66393E-04   -0.10938E-03   132   0.124E-01    0.664E-02
DAV:   3    -0.102324585511E+03    0.47691E-04   -0.18458E-04   144   0.462E-02    0.956E-03
DAV:   4    -0.102324589533E+03   -0.40217E-05   -0.34897E-05   132   0.197E-02    0.645E-03
DAV:   5    -0.102324589853E+03   -0.32025E-06   -0.74768E-07   108   0.339E-03
 156 F= -.10232459E+03 E0= -.10232459E+03  d E =-.536140E-10
       N       E                     dE             d eps       ncg     rms          rms(c)
DAV:   1    -0.102324939383E+03   -0.34985E-03   -0.52655E-01    96   0.271E+00    0.174E-01
DAV:   2    -0.102324823208E+03    0.11618E-03   -0.26483E-03   132   0.191E-01    0.968E-02
DAV:   3    -0.102324696891E+03    0.12632E-03   -0.36732E-04   132   0.593E-02    0.209E-02
DAV:   4    -0.102324697950E+03   -0.10587E-05   -0.56550E-05   144   0.242E-02    0.974E-03
DAV:   5    -0.102324698173E+03   -0.22345E-06   -0.31435E-06   132   0.632E-03
 157 F= -.10232470E+03 E0= -.10232470E+03  d E =-.359687E-10
