       N       E                     dE             d eps       ncg     rms          rms(c)
DAV:   1     0.201203937699E+03    0.20120E+03   -0.10490E+04   116   0.546E+02
DAV:   2    -0.273737097392E+02   -0.22858E+03   -0.21418E+03   136   0.103E+02
DAV:   3    -0.102788847934E+03   -0.75415E+02   -0.75239E+02   112   0.557E+01
DAV:   4    -0.107115395150E+03   -0.43265E+01   -0.43102E+01   104   0.187E+01
DAV:   5    -0.107198275975E+03   -0.82881E-01   -0.82816E-01   128   0.289E+00    0.151E+01
DAV:   6    -0.103960677919E+03    0.32376E+01   -0.16007E+00    96   0.459E+00    0.875E+00
DAV:   7    -0.102263707362E+03    0.16970E+01   -0.41421E+00   104   0.678E+00    0.123E+00
DAV:   8    -0.102212291209E+03    0.51416E-01   -0.27312E-01   104   0.223E+00    0.623E-01
DAV:   9    -0.102176742786E+03    0.35548E-01   -0.78114E-02   120   0.798E-01    0.346E-01
DAV:  10    -0.102176805541E+03   -0.62754E-04   -0.29889E-03   112   0.221E-01    0.165E-01
DAV:  11    -0.102176355273E+03    0.45027E-03   -0.69523E-03   104   0.244E-01    0.820E-02
DAV:  12    -0.102180539370E+03   -0.41841E-02   -0.90939E-04    96   0.946E-02    0.583E-02
DAV:  13    -0.102185142091E+03   -0.46027E-02   -0.19660E-03   104   0.113E-01    0.353E-02
DAV:  14    -0.102189207806E+03   -0.40657E-02   -0.35347E-04   112   0.537E-02    0.160E-02
DAV:  15    -0.102193555035E+03   -0.43472E-02   -0.49442E-04   112   0.589E-02    0.151E-02
DAV:  16    -0.102194888014E+03   -0.13330E-02   -0.80407E-05   112   0.254E-02    0.669E-03
DAV:  17    -0.102195933881E+03   -0.10459E-02   -0.85670E-05   104   0.224E-02    0.390E-03
DAV:  18    -0.102196225735E+03   -0.29185E-03   -0.88483E-06   104   0.808E-03    0.199E-03
DAV:  19    -0.102196409586E+03   -0.18385E-03   -0.79477E-06    96   0.722E-03    0.186E-03
DAV:  20    -0.102196463192E+03   -0.53606E-04   -0.98821E-07    88   0.347E-03    0.576E-04
DAV:  21    -0.102196493876E+03   -0.30684E-04   -0.91516E-07    80   0.251E-03    0.465E-04
DAV:  22    -0.102196502310E+03   -0.84340E-05   -0.17510E-07    88   0.122E-03    0.218E-04
DAV:  23    -0.102196507063E+03   -0.47527E-05   -0.12355E-07    80   0.874E-04    0.146E-04
DAV:  24    -0.102196509347E+03   -0.22844E-05   -0.34022E-08    80   0.491E-04    0.506E-05
DAV:  25    -0.102196510226E+03   -0.87895E-06   -0.15459E-08    80   0.325E-04
   1 F= -.10219651E+03 E0= -.10219651E+03  d E =-.102197E+03
       N       E                     dE             d eps       ncg     rms          rms(c)
DAV:   1    -0.102370826416E+03   -0.17432E+00   -0.80258E+00    84   0.119E+01    0.127E+00
DAV:   2    -0.102402420202E+03   -0.31594E-01   -0.39422E-01   120   0.255E+00    0.645E-01
DAV:   3    -0.102396877093E+03    0.55431E-02   -0.15837E-02   120   0.516E-01    0.321E-01
DAV:   4    -0.102395843260E+03    0.10338E-02   -0.81553E-03   112   0.323E-01    0.740E-02
DAV:   5    -0.102395669473E+03    0.17379E-03   -0.75631E-04   112   0.117E-01    0.465E-02
DAV:   6    -0.102395714184E+03   -0.44711E-04   -0.17619E-04   112   0.479E-02    0.251E-02
DAV:   7    -0.102395898614E+03   -0.18443E-03   -0.56369E-05   112   0.327E-02    0.812E-03
DAV:   8    -0.102396010872E+03   -0.11226E-03   -0.24561E-05   112   0.198E-02    0.875E-03
DAV:   9    -0.102396104706E+03   -0.93834E-04   -0.51353E-06   112   0.855E-03    0.635E-03
DAV:  10    -0.102396310406E+03   -0.20570E-03   -0.18944E-05   112   0.102E-02    0.370E-03
DAV:  11    -0.102396348027E+03   -0.37621E-04   -0.10351E-06    88   0.363E-03    0.234E-03
DAV:  12    -0.102396438949E+03   -0.90921E-04   -0.57824E-06   104   0.656E-03    0.191E-03
DAV:  13    -0.102396454490E+03   -0.15541E-04   -0.61973E-07    88   0.331E-03    0.686E-04
DAV:  14    -0.102396475584E+03   -0.21094E-04   -0.39620E-07    88   0.191E-03    0.621E-04
DAV:  15    -0.102396492510E+03   -0.16927E-04   -0.45136E-07    88   0.162E-03    0.564E-04
DAV:  16    -0.102396500180E+03   -0.76692E-05   -0.12946E-07    88   0.924E-04    0.156E-04
DAV:  17    -0.102396502101E+03   -0.19213E-05   -0.31337E-08    88   0.477E-04    0.297E-04
DAV:  18    -0.102396503787E+03   -0.16864E-05   -0.25911E-08    78   0.510E-04    0.702E-05
DAV:  19    -0.102396504268E+03   -0.48067E-06   -0.97514E-09    88   0.277E-04
   2 F= -.10239650E+03 E0= -.10239650E+03  d E =-.199994E+00
       N       E                     dE             d eps       ncg     rms          rms(c)
DAV:   1    -0.102400880964E+03   -0.43772E-02   -0.13538E-01    84   0.155E+00    0.155E-01
DAV:   2    -0.102401374688E+03   -0.49372E-03   -0.65958E-03   120   0.329E-01    0.868E-02
DAV:   3    -0.102401265710E+03    0.10898E-03   -0.28835E-04   120   0.694E-02    0.419E-02
DAV:   4    -0.102401241298E+03    0.24413E-04   -0.13748E-04   112   0.420E-02    0.111E-02
DAV:   5    -0.102401238722E+03    0.25760E-05   -0.11809E-05   112   0.148E-02    0.610E-03
DAV:   6    -0.102401244414E+03   -0.56920E-05   -0.36788E-06   112   0.686E-03    0.296E-03
DAV:   7    -0.102401255233E+03   -0.10819E-04   -0.10621E-06    80   0.431E-03    0.974E-04
DAV:   8    -0.102401261169E+03   -0.59359E-05   -0.59537E-07    88   0.293E-03    0.118E-03
DAV:   9    -0.102401266640E+03   -0.54713E-05   -0.24095E-07    88   0.170E-03    0.626E-04
DAV:  10    -0.102401275447E+03   -0.88068E-05   -0.75879E-07    80   0.195E-03    0.506E-04
DAV:  11    -0.102401276591E+03   -0.11442E-05   -0.66277E-08    88   0.747E-04    0.235E-04
DAV:  12    -0.102401279772E+03   -0.31807E-05   -0.17308E-07    78   0.101E-03    0.118E-04
DAV:  13    -0.102401280726E+03   -0.95420E-06   -0.46632E-08    88   0.547E-04
   3 F= -.10240128E+03 E0= -.10240128E+03  d E =-.204770E+00
       N       E                     dE             d eps       ncg     rms          rms(c)
DAV:   1    -0.102431144530E+03   -0.29865E-01   -0.74227E-01    84   0.363E+00    0.361E-01
DAV:   2    -0.102434883005E+03   -0.37385E-02   -0.44930E-02   120   0.796E-01    0.170E-01
DAV:   3    -0.102434602068E+03    0.28094E-03   -0.20160E-03   128   0.183E-01    0.911E-02
DAV:   4    -0.102434603753E+03   -0.16847E-05   -0.57243E-04   112   0.922E-02    0.315E-02
DAV:   5    -0.102434601467E+03    0.22864E-05   -0.58601E-05   112   0.321E-02    0.166E-02
DAV:   6    -0.102434601666E+03   -0.19926E-06   -0.92729E-06   120   0.129E-02
   4 F= -.10243460E+03 E0= -.10243460E+03  d E =-.333209E-01
       N       E                     dE             d eps       ncg     rms          rms(c)
DAV:   1    -0.102436382933E+03   -0.17815E-02   -0.77787E-02    84   0.118E+00    0.113E-01
DAV:   2    -0.102436784297E+03   -0.40136E-03   -0.48090E-03   120   0.261E-01    0.557E-02
DAV:   3    -0.102436756275E+03    0.28022E-04   -0.21780E-04   120   0.604E-02    0.301E-02
DAV:   4    -0.102436760424E+03   -0.41488E-05   -0.62404E-05   112   0.307E-02    0.107E-02
DAV:   5    -0.102436765296E+03   -0.48713E-05   -0.66776E-06   112   0.109E-02    0.559E-03
DAV:   6    -0.102436769508E+03   -0.42123E-05   -0.10660E-06    88   0.461E-03    0.288E-03
DAV:   7    -0.102436777284E+03   -0.77766E-05   -0.11343E-06    88   0.418E-03    0.746E-04
DAV:   8    -0.102436782343E+03   -0.50581E-05   -0.35027E-07    88   0.240E-03    0.727E-04
DAV:   9    -0.102436785985E+03   -0.36422E-05   -0.12629E-07    88   0.120E-03    0.367E-04
DAV:  10    -0.102436793047E+03   -0.70627E-05   -0.48677E-07    88   0.165E-03    0.299E-04
DAV:  11    -0.102436794221E+03   -0.11737E-05   -0.65595E-08    88   0.725E-04    0.185E-04
DAV:  12    -0.102436795608E+03   -0.13873E-05   -0.49300E-08    88   0.577E-04    0.753E-05
DAV:  13    -0.102436796303E+03   -0.69462E-06   -0.22264E-08    88   0.374E-04
   5 F= -.10243680E+03 E0= -.10243680E+03  d E =-.355156E-01
       N       E                     dE             d eps       ncg     rms          rms(c)
DAV:   1    -0.102448038209E+03   -0.11243E-01   -0.28913E-01    84   0.252E+00    0.183E-01
DAV:   2    -0.102448339192E+03   -0.30098E-03   -0.84200E-03   120   0.362E-01    0.995E-02
DAV:   3    -0.102448226045E+03    0.11315E-03   -0.44455E-04   120   0.795E-02    0.521E-02
DAV:   4    -0.102448197247E+03    0.28798E-04   -0.13074E-04   112   0.386E-02    0.139E-02
DAV:   5    -0.102448193062E+03    0.41849E-05   -0.10547E-05   112   0.135E-02    0.875E-03
DAV:   6    -0.102448195964E+03   -0.29014E-05   -0.37493E-06   104   0.795E-03    0.268E-03
DAV:   7    -0.102448205480E+03   -0.95164E-05   -0.13176E-06    80   0.445E-03    0.148E-03
DAV:   8    -0.102448217603E+03   -0.12123E-04   -0.60827E-07    80   0.234E-03    0.812E-04
DAV:   9    -0.102448230540E+03   -0.12937E-04   -0.65872E-07    88   0.198E-03    0.490E-04
DAV:  10    -0.102448242506E+03   -0.11966E-04   -0.75029E-07    80   0.191E-03    0.279E-04
DAV:  11    -0.102448248555E+03   -0.60495E-05   -0.28565E-07    88   0.124E-03    0.194E-04
DAV:  12    -0.102448250921E+03   -0.23660E-05   -0.62532E-08    88   0.662E-04    0.114E-04
DAV:  13    -0.102448252327E+03   -0.14061E-05   -0.37200E-08    88   0.464E-04    0.633E-05
DAV:  14    -0.102448252987E+03   -0.65998E-06   -0.11411E-08    88   0.279E-04
   6 F= -.10244825E+03 E0= -.10244825E+03  d E =-.114567E-01
       N       E                     dE             d eps       ncg     rms          rms(c)
DAV:   1    -0.102449768180E+03   -0.15159E-02   -0.77775E-02    84   0.131E+00    0.951E-02
DAV:   2    -0.102449853820E+03   -0.85640E-04   -0.22882E-03   120   0.189E-01    0.518E-02
DAV:   3    -0.102449825431E+03    0.28390E-04   -0.11927E-04   120   0.412E-02    0.272E-02
DAV:   4    -0.102449817925E+03    0.75056E-05   -0.35318E-05   104   0.200E-02    0.722E-03
DAV:   5    -0.102449815921E+03    0.20040E-05   -0.27392E-06   104   0.701E-03    0.444E-03
DAV:   6    -0.102449816000E+03   -0.79560E-07   -0.10773E-06    88   0.439E-03
   7 F= -.10244982E+03 E0= -.10244982E+03  d E =-.130197E-01
       N       E                     dE             d eps       ncg     rms          rms(c)
DAV:   1    -0.102453880963E+03   -0.40650E-02   -0.22320E-01    84   0.218E+00    0.160E-01
DAV:   2    -0.102454329976E+03   -0.44901E-03   -0.72459E-03   120   0.336E-01    0.875E-02
DAV:   3    -0.102454239096E+03    0.90880E-04   -0.37868E-04   120   0.795E-02    0.454E-02
DAV:   4    -0.102454240185E+03   -0.10898E-05   -0.16103E-04   120   0.488E-02    0.114E-02
DAV:   5    -0.102454241607E+03   -0.14220E-05   -0.20893E-05   112   0.188E-02    0.786E-03
DAV:   6    -0.102454242245E+03   -0.63726E-06   -0.17405E-06   104   0.491E-03
   8 F= -.10245424E+03 E0= -.10245424E+03  d E =-.442624E-02
       N       E                     dE             d eps       ncg     rms          rms(c)
DAV:   1    -0.102454251484E+03   -0.98770E-05   -0.40250E-04    96   0.924E-02    0.711E-03
DAV:   2    -0.102454253910E+03   -0.24259E-05   -0.14870E-05   120   0.151E-02    0.383E-03
DAV:   3    -0.102454255103E+03   -0.11929E-05   -0.55099E-07    80   0.344E-03    0.209E-03
DAV:   4    -0.102454257383E+03   -0.22796E-05   -0.49322E-07    80   0.295E-03    0.427E-04
DAV:   5    -0.102454259110E+03   -0.17270E-05   -0.17042E-07    88   0.172E-03    0.341E-04
DAV:   6    -0.102454260327E+03   -0.12170E-05   -0.57910E-08    88   0.901E-04    0.272E-04
DAV:   7    -0.102454262504E+03   -0.21774E-05   -0.86156E-08    88   0.786E-04    0.918E-05
DAV:   8    -0.102454263368E+03   -0.86401E-06   -0.29903E-08    88   0.480E-04
   9 F= -.10245426E+03 E0= -.10245426E+03  d E =-.444737E-02
       N       E                     dE             d eps       ncg     rms          rms(c)
DAV:   1    -0.102456100875E+03   -0.18384E-02   -0.58707E-02    84   0.112E+00    0.721E-02
DAV:   2    -0.102456162073E+03   -0.61198E-04   -0.13485E-03   120   0.146E-01    0.390E-02
DAV:   3    -0.102456139496E+03    0.22577E-04   -0.78464E-05   128   0.349E-02    0.192E-02
DAV:   4    -0.102456134598E+03    0.48981E-05   -0.23019E-05   120   0.186E-02    0.469E-03
DAV:   5    -0.102456133487E+03    0.11109E-05   -0.25716E-06   104   0.751E-03    0.308E-03
DAV:   6    -0.102456133543E+03   -0.56312E-07   -0.72073E-07    88   0.430E-03
  10 F= -.10245613E+03 E0= -.10245613E+03  d E =-.187018E-02
       N       E                     dE             d eps       ncg     rms          rms(c)
DAV:   1    -0.102456912409E+03   -0.77892E-03   -0.13318E-01    84   0.169E+00    0.109E-01
DAV:   2    -0.102457051827E+03   -0.13942E-03   -0.30821E-03   120   0.221E-01    0.588E-02
DAV:   3    -0.102456998553E+03    0.53274E-04   -0.17881E-04   128   0.527E-02    0.291E-02
DAV:   4    -0.102456987230E+03    0.11323E-04   -0.52564E-05   120   0.284E-02    0.711E-03
DAV:   5    -0.102456985981E+03    0.12483E-05   -0.65045E-06   120   0.116E-02    0.498E-03
DAV:   6    -0.102456987436E+03   -0.14545E-05   -0.14008E-06    88   0.597E-03    0.268E-03
DAV:   7    -0.102456991905E+03   -0.44693E-05   -0.59231E-07    88   0.457E-03    0.776E-04
DAV:   8    -0.102456996361E+03   -0.44558E-05   -0.50627E-07    88   0.313E-03    0.858E-04
DAV:   9    -0.102457003904E+03   -0.75434E-05   -0.39493E-07    88   0.234E-03    0.282E-04
DAV:  10    -0.102457007709E+03   -0.38043E-05   -0.25621E-07    88   0.161E-03    0.301E-04
DAV:  11    -0.102457010386E+03   -0.26774E-05   -0.96021E-08    88   0.106E-03    0.178E-04
DAV:  12    -0.102457012893E+03   -0.25072E-05   -0.10441E-07    88   0.790E-04    0.125E-04
DAV:  13    -0.102457013906E+03   -0.10127E-05   -0.27187E-08    88   0.418E-04    0.728E-05
DAV:  14    -0.102457014845E+03   -0.93864E-06   -0.26732E-08    88   0.366E-04
  11 F= -.10245701E+03 E0= -.10245701E+03  d E =-.275148E-02
       N       E                     dE             d eps       ncg     rms          rms(c)
DAV:   1    -0.102458152185E+03   -0.11383E-02   -0.50219E-02    84   0.101E+00    0.640E-02
DAV:   2    -0.102458228411E+03   -0.76227E-04   -0.12924E-03   120   0.145E-01    0.381E-02
DAV:   3    -0.102458209154E+03    0.19257E-04   -0.63157E-05   128   0.340E-02    0.183E-02
DAV:   4    -0.102458208344E+03    0.81071E-06   -0.25287E-05   120   0.192E-02    0.484E-03
DAV:   5    -0.102458208325E+03    0.19089E-07   -0.27148E-06    96   0.709E-03
  12 F= -.10245821E+03 E0= -.10245821E+03  d E =-.119348E-02
       N       E                     dE             d eps       ncg     rms          rms(c)
DAV:   1    -0.102458658285E+03   -0.44994E-03   -0.11567E-01    84   0.154E+00    0.974E-02
DAV:   2    -0.102458835998E+03   -0.17771E-03   -0.29917E-03   120   0.221E-01    0.578E-02
DAV:   3    -0.102458792040E+03    0.43958E-04   -0.14489E-04   128   0.517E-02    0.279E-02
DAV:   4    -0.102458790589E+03    0.14513E-05   -0.58257E-05   120   0.293E-02    0.735E-03
DAV:   5    -0.102458791155E+03   -0.56563E-06   -0.67413E-06   112   0.109E-02
  13 F= -.10245879E+03 E0= -.10245879E+03  d E =-.177631E-02
       N       E                     dE             d eps       ncg     rms          rms(c)
DAV:   1    -0.102459969431E+03   -0.11788E-02   -0.78182E-02    84   0.126E+00    0.917E-02
DAV:   2    -0.102460086943E+03   -0.11751E-03   -0.20228E-03   120   0.175E-01    0.482E-02
DAV:   3    -0.102460056744E+03    0.30200E-04   -0.10416E-04   128   0.414E-02    0.238E-02
DAV:   4    -0.102460056761E+03   -0.16981E-07   -0.37979E-05   120   0.221E-02    0.698E-03
DAV:   5    -0.102460058172E+03   -0.14110E-05   -0.28512E-06    96   0.733E-03    0.377E-03
DAV:   6    -0.102460059572E+03   -0.14006E-05   -0.87686E-07    88   0.359E-03    0.147E-03
DAV:   7    -0.102460061243E+03   -0.16709E-05   -0.28245E-07    88   0.205E-03    0.394E-04
DAV:   8    -0.102460062567E+03   -0.13241E-05   -0.91952E-08    88   0.107E-03    0.317E-04
DAV:   9    -0.102460064318E+03   -0.17508E-05   -0.64790E-08    88   0.838E-04    0.135E-04
DAV:  10    -0.102460065516E+03   -0.11980E-05   -0.47530E-08    88   0.591E-04    0.124E-04
DAV:  11    -0.102460066173E+03   -0.65716E-06   -0.19626E-08    88   0.416E-04
  14 F= -.10246007E+03 E0= -.10246007E+03  d E =-.127502E-02
       N       E                     dE             d eps       ncg     rms          rms(c)
DAV:   1    -0.102460248322E+03   -0.18281E-03   -0.29627E-02    84   0.774E-01    0.560E-02
DAV:   2    -0.102460290216E+03   -0.41894E-04   -0.76347E-04   120   0.108E-01    0.296E-02
DAV:   3    -0.102460276847E+03    0.13369E-04   -0.39360E-05   128   0.254E-02    0.147E-02
DAV:   4    -0.102460275469E+03    0.13780E-05   -0.14406E-05   120   0.135E-02    0.427E-03
DAV:   5    -0.102460275626E+03   -0.15680E-06   -0.98875E-07    80   0.447E-03
  15 F= -.10246028E+03 E0= -.10246028E+03  d E =-.148447E-02
       N       E                     dE             d eps       ncg     rms          rms(c)
DAV:   1    -0.102460469621E+03   -0.19415E-03   -0.92747E-03    84   0.422E-01    0.380E-02
DAV:   2    -0.102460508191E+03   -0.38570E-04   -0.48382E-04   112   0.853E-02    0.202E-02
DAV:   3    -0.102460503419E+03    0.47727E-05   -0.16641E-05   120   0.174E-02    0.113E-02
DAV:   4    -0.102460502450E+03    0.96890E-06   -0.76190E-06   112   0.114E-02
  16 F= -.10246050E+03 E0= -.10246050E+03  d E =-.226824E-03
       N       E                     dE             d eps       ncg     rms          rms(c)
DAV:   1    -0.102460503216E+03    0.20276E-06   -0.39353E-05   104   0.276E-02    0.382E-03
DAV:   2    -0.102460503467E+03   -0.25138E-06   -0.26633E-06   104   0.626E-03
  17 F= -.10246050E+03 E0= -.10246050E+03  d E =-.227841E-03
       N       E                     dE             d eps       ncg     rms          rms(c)
DAV:   1    -0.102460593421E+03   -0.90205E-04   -0.34593E-03    84   0.262E-01    0.222E-02
DAV:   2    -0.102460604572E+03   -0.11150E-04   -0.17033E-04   120   0.504E-02    0.122E-02
DAV:   3    -0.102460602708E+03    0.18641E-05   -0.59611E-06   120   0.986E-03    0.686E-03
DAV:   4    -0.102460601748E+03    0.95933E-06   -0.17092E-06    96   0.592E-03
  18 F= -.10246060E+03 E0= -.10246060E+03  d E =-.982811E-04
