       N       E                     dE             d eps       ncg     rms          rms(c)
DAV:   1     0.243826472971E+03    0.24383E+03   -0.10212E+04   120   0.484E+02
DAV:   2    -0.239138437907E+02   -0.26774E+03   -0.25313E+03   156   0.916E+01
DAV:   3    -0.103582638697E+03   -0.79669E+02   -0.79463E+02   120   0.550E+01
DAV:   4    -0.107410952532E+03   -0.38283E+01   -0.38140E+01   120   0.176E+01
DAV:   5    -0.107491758650E+03   -0.80806E-01   -0.80719E-01   156   0.287E+00    0.155E+01
DAV:   6    -0.104029689796E+03    0.34621E+01   -0.15788E+00   120   0.429E+00    0.899E+00
DAV:   7    -0.102239555096E+03    0.17901E+01   -0.42136E+00   120   0.627E+00    0.130E+00
DAV:   8    -0.102186013604E+03    0.53541E-01   -0.31124E-01   132   0.213E+00    0.679E-01
DAV:   9    -0.102151743514E+03    0.34270E-01   -0.63611E-02   144   0.672E-01    0.360E-01
DAV:  10    -0.102150871628E+03    0.87189E-03   -0.30047E-03   132   0.184E-01    0.163E-01
DAV:  11    -0.102150192036E+03    0.67959E-03   -0.55374E-03   120   0.198E-01    0.100E-01
DAV:  12    -0.102153436970E+03   -0.32449E-02   -0.12672E-03   132   0.913E-02    0.668E-02
DAV:  13    -0.102159044329E+03   -0.56074E-02   -0.20738E-03   120   0.108E-01    0.394E-02
DAV:  14    -0.102161560720E+03   -0.25164E-02   -0.18984E-04   132   0.377E-02    0.254E-02
DAV:  15    -0.102167518988E+03   -0.59583E-02   -0.76331E-04   108   0.677E-02    0.203E-02
DAV:  16    -0.102168319641E+03   -0.80065E-03   -0.40871E-05   132   0.227E-02    0.956E-03
DAV:  17    -0.102169927369E+03   -0.16077E-02   -0.18823E-04   120   0.288E-02    0.623E-03
DAV:  18    -0.102170014436E+03   -0.87068E-04   -0.33882E-06   132   0.592E-03    0.297E-03
DAV:  19    -0.102170292650E+03   -0.27821E-03   -0.10224E-05   120   0.680E-03    0.185E-03
DAV:  20    -0.102170352063E+03   -0.59413E-04   -0.10527E-06   108   0.265E-03    0.104E-03
DAV:  21    -0.102170389674E+03   -0.37611E-04   -0.87453E-07   108   0.209E-03    0.777E-04
DAV:  22    -0.102170400477E+03   -0.10803E-04   -0.27032E-07   108   0.110E-03    0.495E-04
DAV:  23    -0.102170403879E+03   -0.34020E-05   -0.41055E-08   108   0.530E-04    0.223E-04
DAV:  24    -0.102170407400E+03   -0.35210E-05   -0.47083E-08   108   0.494E-04    0.142E-04
DAV:  25    -0.102170408357E+03   -0.95647E-06   -0.81803E-09   108   0.263E-04
   1 F= -.10217041E+03 E0= -.10217041E+03  d E =-.118720E-10
       N       E                     dE             d eps       ncg     rms          rms(c)
DAV:   1    -0.102167006372E+03    0.34010E-02   -0.82207E-02    96   0.819E-01    0.128E-01
DAV:   2    -0.102167331483E+03   -0.32511E-03   -0.37227E-03   132   0.204E-01    0.555E-02
DAV:   3    -0.102167320668E+03    0.10815E-04   -0.14033E-04   144   0.439E-02    0.290E-02
DAV:   4    -0.102167323615E+03   -0.29469E-05   -0.30964E-05   132   0.214E-02    0.812E-03
DAV:   5    -0.102167322952E+03    0.66293E-06   -0.64748E-06   132   0.995E-03
   2 F= -.10216732E+03 E0= -.10216732E+03  d E =-.114882E-10
       N       E                     dE             d eps       ncg     rms          rms(c)
DAV:   1    -0.102166031339E+03    0.12923E-02   -0.32751E-01    96   0.165E+00    0.265E-01
DAV:   2    -0.102167366840E+03   -0.13355E-02   -0.15159E-02   132   0.414E-01    0.111E-01
DAV:   3    -0.102167325818E+03    0.41022E-04   -0.56686E-04   144   0.882E-02    0.604E-02
DAV:   4    -0.102167340769E+03   -0.14951E-04   -0.12824E-04   132   0.431E-02    0.172E-02
DAV:   5    -0.102167338366E+03    0.24029E-05   -0.26479E-05   132   0.200E-02    0.993E-03
DAV:   6    -0.102167337846E+03    0.51977E-06   -0.50333E-06   132   0.786E-03
   3 F= -.10216734E+03 E0= -.10216734E+03  d E =-.140973E-10
       N       E                     dE             d eps       ncg     rms          rms(c)
DAV:   1    -0.102166729907E+03    0.60846E-03   -0.16439E-01    96   0.115E+00    0.157E-01
DAV:   2    -0.102167459315E+03   -0.72941E-03   -0.78849E-03   132   0.286E-01    0.768E-02
DAV:   3    -0.102167447191E+03    0.12124E-04   -0.27466E-04   132   0.616E-02    0.393E-02
DAV:   4    -0.102167459386E+03   -0.12195E-04   -0.59248E-05   132   0.290E-02    0.111E-02
DAV:   5    -0.102167459217E+03    0.16864E-06   -0.99075E-06   132   0.124E-02
   4 F= -.10216746E+03 E0= -.10216746E+03  d E =-.117887E-10
       N       E                     dE             d eps       ncg     rms          rms(c)
DAV:   1    -0.102165796995E+03    0.16624E-02   -0.32475E-01    96   0.161E+00    0.237E-01
DAV:   2    -0.102167303684E+03   -0.15067E-02   -0.16329E-02   132   0.418E-01    0.112E-01
DAV:   3    -0.102167268595E+03    0.35089E-04   -0.55040E-04   132   0.887E-02    0.584E-02
DAV:   4    -0.102167284663E+03   -0.16068E-04   -0.13485E-04   132   0.436E-02    0.161E-02
DAV:   5    -0.102167280402E+03    0.42617E-05   -0.24185E-05   132   0.191E-02    0.919E-03
DAV:   6    -0.102167279657E+03    0.74413E-06   -0.52785E-06   132   0.785E-03
   5 F= -.10216728E+03 E0= -.10216728E+03  d E =-.183366E-10
       N       E                     dE             d eps       ncg     rms          rms(c)
DAV:   1    -0.102164937115E+03    0.23433E-02   -0.16276E-01    96   0.116E+00    0.163E-01
DAV:   2    -0.102165858783E+03   -0.92167E-03   -0.98136E-03   132   0.320E-01    0.928E-02
DAV:   3    -0.102165822127E+03    0.36656E-04   -0.28827E-04   132   0.660E-02    0.505E-02
DAV:   4    -0.102165828019E+03   -0.58923E-05   -0.10397E-04   132   0.383E-02    0.117E-02
DAV:   5    -0.102165826502E+03    0.15169E-05   -0.20852E-05   132   0.170E-02    0.739E-03
DAV:   6    -0.102165827969E+03   -0.14666E-05   -0.33421E-06   132   0.593E-03    0.483E-03
DAV:   7    -0.102165833548E+03   -0.55789E-05   -0.54925E-07   108   0.265E-03    0.166E-03
DAV:   8    -0.102165838868E+03   -0.53197E-05   -0.46351E-07   120   0.222E-03    0.658E-04
DAV:   9    -0.102165844432E+03   -0.55645E-05   -0.29297E-07   108   0.164E-03    0.547E-04
DAV:  10    -0.102165851437E+03   -0.70047E-05   -0.61849E-07   120   0.163E-03    0.415E-04
DAV:  11    -0.102165852667E+03   -0.12302E-05   -0.36371E-08   108   0.713E-04    0.313E-04
DAV:  12    -0.102165854527E+03   -0.18596E-05   -0.49384E-08   108   0.557E-04    0.163E-04
DAV:  13    -0.102165855847E+03   -0.13200E-05   -0.33415E-08   108   0.399E-04    0.903E-05
DAV:  14    -0.102165856800E+03   -0.95361E-06   -0.14244E-08   108   0.279E-04
   6 F= -.10216586E+03 E0= -.10216586E+03  d E =-.157655E-10
       N       E                     dE             d eps       ncg     rms          rms(c)
DAV:   1    -0.102164068132E+03    0.17877E-02   -0.33202E-01    96   0.163E+00    0.265E-01
DAV:   2    -0.102166340241E+03   -0.22721E-02   -0.24708E-02   120   0.507E-01    0.168E-01
DAV:   3    -0.102166176483E+03    0.16376E-03   -0.67168E-04   132   0.108E-01    0.868E-02
DAV:   4    -0.102166179479E+03   -0.29961E-05   -0.42680E-04   120   0.713E-02    0.168E-02
DAV:   5    -0.102166169567E+03    0.99122E-05   -0.59744E-05   132   0.280E-02    0.126E-02
DAV:   6    -0.102166170028E+03   -0.46148E-06   -0.12142E-05   132   0.943E-03    0.785E-03
DAV:   7    -0.102166181319E+03   -0.11290E-04   -0.97312E-07    96   0.357E-03    0.332E-03
DAV:   8    -0.102166200052E+03   -0.18734E-04   -0.19692E-06   132   0.480E-03    0.136E-03
DAV:   9    -0.102166214650E+03   -0.14597E-04   -0.11679E-06   132   0.269E-03    0.162E-03
DAV:  10    -0.102166234013E+03   -0.19363E-04   -0.85295E-07   120   0.205E-03    0.775E-04
DAV:  11    -0.102166240081E+03   -0.60681E-05   -0.21486E-07   108   0.110E-03    0.514E-04
DAV:  12    -0.102166248366E+03   -0.82848E-05   -0.25313E-07   108   0.108E-03    0.229E-04
DAV:  13    -0.102166251446E+03   -0.30808E-05   -0.80896E-08   108   0.582E-04    0.234E-04
DAV:  14    -0.102166253788E+03   -0.23414E-05   -0.23075E-08   108   0.399E-04    0.943E-05
DAV:  15    -0.102166254895E+03   -0.11076E-05   -0.14720E-08   108   0.291E-04    0.663E-05
DAV:  16    -0.102166255551E+03   -0.65568E-06    0.14687E-09   108   0.182E-04
   7 F= -.10216626E+03 E0= -.10216626E+03  d E =-.105926E-10
       N       E                     dE             d eps       ncg     rms          rms(c)
DAV:   1    -0.102164933114E+03    0.13218E-02   -0.18971E-01    96   0.135E+00    0.192E-01
DAV:   2    -0.102166342824E+03   -0.14097E-02   -0.14640E-02   120   0.426E-01    0.120E-01
DAV:   3    -0.102166259877E+03    0.82946E-04   -0.38971E-04   144   0.855E-02    0.667E-02
DAV:   4    -0.102166258070E+03    0.18076E-05   -0.22272E-04   132   0.594E-02    0.119E-02
DAV:   5    -0.102166253445E+03    0.46250E-05   -0.49251E-05   132   0.256E-02    0.103E-02
DAV:   6    -0.102166253709E+03   -0.26391E-06   -0.45464E-06   132   0.685E-03
   8 F= -.10216625E+03 E0= -.10216625E+03  d E =-.113945E-10
       N       E                     dE             d eps       ncg     rms          rms(c)
DAV:   1    -0.102164642031E+03    0.16114E-02   -0.33489E-01    96   0.180E+00    0.258E-01
DAV:   2    -0.102166650881E+03   -0.20089E-02   -0.20694E-02   132   0.496E-01    0.154E-01
DAV:   3    -0.102166579156E+03    0.71725E-04   -0.55162E-04   132   0.925E-02    0.816E-02
DAV:   4    -0.102166577162E+03    0.19940E-05   -0.22175E-04   132   0.570E-02    0.153E-02
DAV:   5    -0.102166567438E+03    0.97246E-05   -0.40840E-05   144   0.242E-02    0.105E-02
DAV:   6    -0.102166566379E+03    0.10583E-05   -0.72737E-06   132   0.997E-03    0.617E-03
DAV:   7    -0.102166577927E+03   -0.11547E-04   -0.35560E-06   144   0.800E-03    0.200E-03
DAV:   8    -0.102166593089E+03   -0.15162E-04   -0.17247E-06   120   0.540E-03    0.172E-03
DAV:   9    -0.102166603031E+03   -0.99417E-05   -0.56623E-07   108   0.260E-03    0.158E-03
DAV:  10    -0.102166620038E+03   -0.17007E-04   -0.75953E-07   108   0.199E-03    0.470E-04
DAV:  11    -0.102166628282E+03   -0.82444E-05   -0.52178E-07   108   0.166E-03    0.661E-04
DAV:  12    -0.102166633467E+03   -0.51842E-05   -0.12707E-07    96   0.119E-03    0.374E-04
DAV:  13    -0.102166639153E+03   -0.56867E-05   -0.19820E-07   108   0.101E-03    0.446E-04
DAV:  14    -0.102166640869E+03   -0.17157E-05   -0.27796E-08   120   0.504E-04    0.202E-04
DAV:  15    -0.102166642882E+03   -0.20135E-05   -0.36562E-08    96   0.552E-04    0.226E-04
DAV:  16    -0.102166643351E+03   -0.46819E-06   -0.16376E-09   120   0.297E-04
   9 F= -.10216664E+03 E0= -.10216664E+03  d E =-.116947E-10
       N       E                     dE             d eps       ncg     rms          rms(c)
DAV:   1    -0.102164632156E+03    0.20107E-02   -0.16913E-01    96   0.127E+00    0.182E-01
DAV:   2    -0.102165729846E+03   -0.10977E-02   -0.11345E-02   132   0.377E-01    0.116E-01
DAV:   3    -0.102165676018E+03    0.53829E-04   -0.27568E-04   132   0.695E-02    0.631E-02
DAV:   4    -0.102165671040E+03    0.49778E-05   -0.16222E-04   132   0.496E-02    0.112E-02
DAV:   5    -0.102165666779E+03    0.42608E-05   -0.37240E-05   132   0.225E-02    0.872E-03
DAV:   6    -0.102165668681E+03   -0.19015E-05   -0.75812E-06   132   0.863E-03    0.556E-03
DAV:   7    -0.102165679158E+03   -0.10477E-04   -0.16963E-06   132   0.462E-03    0.217E-03
DAV:   8    -0.102165692219E+03   -0.13061E-04   -0.10131E-06   120   0.307E-03    0.851E-04
DAV:   9    -0.102165706613E+03   -0.14395E-04   -0.13840E-06   132   0.285E-03    0.100E-03
DAV:  10    -0.102165719273E+03   -0.12660E-04   -0.11278E-06   120   0.236E-03    0.425E-04
DAV:  11    -0.102165723365E+03   -0.40921E-05   -0.16574E-07   108   0.102E-03    0.214E-04
DAV:  12    -0.102165727162E+03   -0.37970E-05   -0.17311E-07    96   0.833E-04    0.152E-04
DAV:  13    -0.102165728551E+03   -0.13892E-05   -0.37089E-08   108   0.414E-04    0.117E-04
DAV:  14    -0.102165729610E+03   -0.10581E-05   -0.13820E-08    96   0.305E-04    0.491E-05
DAV:  15    -0.102165729996E+03   -0.38684E-06    0.13818E-10   108   0.170E-04
  10 F= -.10216573E+03 E0= -.10216573E+03  d E =-.130768E-10
       N       E                     dE             d eps       ncg     rms          rms(c)
DAV:   1    -0.102163137317E+03    0.25923E-02   -0.34778E-01    96   0.178E+00    0.265E-01
DAV:   2    -0.102165485749E+03   -0.23484E-02   -0.24092E-02   132   0.529E-01    0.182E-01
DAV:   3    -0.102165332212E+03    0.15354E-03   -0.62415E-04   144   0.107E-01    0.879E-02
DAV:   4    -0.102165350697E+03   -0.18485E-04   -0.45474E-04   120   0.778E-02    0.184E-02
DAV:   5    -0.102165337012E+03    0.13685E-04   -0.73230E-05   132   0.311E-02    0.124E-02
DAV:   6    -0.102165340200E+03   -0.31877E-05   -0.18871E-05   132   0.117E-02    0.610E-03
DAV:   7    -0.102165357840E+03   -0.17641E-04   -0.18966E-06   132   0.449E-03    0.261E-03
DAV:   8    -0.102165385314E+03   -0.27473E-04   -0.31636E-06   132   0.474E-03    0.149E-03
DAV:   9    -0.102165406442E+03   -0.21129E-04   -0.15919E-06   132   0.297E-03    0.136E-03
DAV:  10    -0.102165426614E+03   -0.20172E-04   -0.15320E-06   120   0.266E-03    0.407E-04
DAV:  11    -0.102165435027E+03   -0.84125E-05   -0.28225E-07   108   0.128E-03    0.329E-04
DAV:  12    -0.102165441533E+03   -0.65061E-05   -0.26984E-07    96   0.101E-03    0.203E-04
DAV:  13    -0.102165443890E+03   -0.23571E-05   -0.38656E-08   108   0.436E-04    0.109E-04
DAV:  14    -0.102165445915E+03   -0.20251E-05   -0.31786E-08    96   0.388E-04    0.548E-05
DAV:  15    -0.102165446630E+03   -0.71484E-06   -0.36753E-09   108   0.206E-04
  11 F= -.10216545E+03 E0= -.10216545E+03  d E =-.123609E-10
       N       E                     dE             d eps       ncg     rms          rms(c)
DAV:   1    -0.102165774483E+03   -0.32857E-03   -0.17066E-01    96   0.128E+00    0.188E-01
DAV:   2    -0.102167034203E+03   -0.12597E-02   -0.12931E-02   132   0.397E-01    0.124E-01
DAV:   3    -0.102166962620E+03    0.71583E-04   -0.30606E-04   156   0.732E-02    0.679E-02
DAV:   4    -0.102166962153E+03    0.46730E-06   -0.20596E-04   132   0.562E-02    0.122E-02
DAV:   5    -0.102166957165E+03    0.49879E-05   -0.54255E-05   132   0.267E-02    0.965E-03
DAV:   6    -0.102166957235E+03   -0.70743E-07   -0.86839E-06   132   0.875E-03
  12 F= -.10216696E+03 E0= -.10216696E+03  d E =-.120787E-10
       N       E                     dE             d eps       ncg     rms          rms(c)
DAV:   1    -0.102165240305E+03    0.17169E-02   -0.33111E-01    96   0.176E+00    0.270E-01
DAV:   2    -0.102166974612E+03   -0.17343E-02   -0.18163E-02   132   0.464E-01    0.133E-01
DAV:   3    -0.102166937947E+03    0.36665E-04   -0.57063E-04   132   0.928E-02    0.720E-02
DAV:   4    -0.102166967585E+03   -0.29638E-04   -0.20172E-04   132   0.577E-02    0.157E-02
DAV:   5    -0.102166964393E+03    0.31921E-05   -0.49202E-05   132   0.268E-02    0.117E-02
DAV:   6    -0.102166963775E+03    0.61806E-06   -0.66104E-06   132   0.906E-03
  13 F= -.10216696E+03 E0= -.10216696E+03  d E =-.141507E-10
       N       E                     dE             d eps       ncg     rms          rms(c)
DAV:   1    -0.102164817100E+03    0.21473E-02   -0.16543E-01    96   0.127E+00    0.192E-01
DAV:   2    -0.102166108663E+03   -0.12916E-02   -0.13388E-02   132   0.393E-01    0.115E-01
DAV:   3    -0.102166050539E+03    0.58124E-04   -0.36259E-04   144   0.774E-02    0.666E-02
DAV:   4    -0.102166062367E+03   -0.11829E-04   -0.19413E-04   132   0.560E-02    0.128E-02
DAV:   5    -0.102166059491E+03    0.28757E-05   -0.54904E-05   132   0.273E-02    0.106E-02
DAV:   6    -0.102166057069E+03    0.24227E-05   -0.57346E-06   132   0.811E-03    0.736E-03
DAV:   7    -0.102166060131E+03   -0.30624E-05   -0.18505E-06   120   0.517E-03    0.282E-03
DAV:   8    -0.102166066507E+03   -0.63761E-05   -0.60992E-07   108   0.364E-03    0.811E-04
DAV:   9    -0.102166073775E+03   -0.72678E-05   -0.56977E-07   108   0.245E-03    0.106E-03
DAV:  10    -0.102166083896E+03   -0.10121E-04   -0.49630E-07   108   0.183E-03    0.323E-04
DAV:  11    -0.102166086933E+03   -0.30373E-05   -0.13995E-07   108   0.983E-04    0.305E-04
DAV:  12    -0.102166090540E+03   -0.36071E-05   -0.86948E-08   108   0.740E-04    0.165E-04
DAV:  13    -0.102166093401E+03   -0.28609E-05   -0.96112E-08   108   0.648E-04    0.130E-04
DAV:  14    -0.102166094616E+03   -0.12146E-05   -0.17871E-08   108   0.331E-04    0.965E-05
DAV:  15    -0.102166095472E+03   -0.85628E-06   -0.79273E-09   108   0.254E-04
  14 F= -.10216610E+03 E0= -.10216610E+03  d E =-.126985E-10
       N       E                     dE             d eps       ncg     rms          rms(c)
DAV:   1    -0.102163519645E+03    0.25750E-02   -0.34234E-01    96   0.178E+00    0.265E-01
DAV:   2    -0.102165802197E+03   -0.22826E-02   -0.23557E-02   132   0.540E-01    0.171E-01
DAV:   3    -0.102165684479E+03    0.11772E-03   -0.61122E-04   144   0.104E-01    0.891E-02
DAV:   4    -0.102165691218E+03   -0.67385E-05   -0.37220E-04   120   0.736E-02    0.175E-02
DAV:   5    -0.102165682507E+03    0.87110E-05   -0.76634E-05   132   0.323E-02    0.125E-02
DAV:   6    -0.102165687098E+03   -0.45910E-05   -0.16912E-05   132   0.118E-02    0.743E-03
DAV:   7    -0.102165706429E+03   -0.19331E-04   -0.24887E-06   132   0.544E-03    0.292E-03
DAV:   8    -0.102165730263E+03   -0.23834E-04   -0.21720E-06   132   0.413E-03    0.112E-03
DAV:   9    -0.102165754327E+03   -0.24064E-04   -0.24178E-06   132   0.362E-03    0.145E-03
DAV:  10    -0.102165773221E+03   -0.18894E-04   -0.15147E-06   132   0.278E-03    0.501E-04
DAV:  11    -0.102165780231E+03   -0.70100E-05   -0.31016E-07   108   0.132E-03    0.276E-04
DAV:  12    -0.102165786769E+03   -0.65385E-05   -0.32992E-07   108   0.113E-03    0.177E-04
DAV:  13    -0.102165788683E+03   -0.19137E-05   -0.60348E-08   108   0.496E-04    0.155E-04
DAV:  14    -0.102165790380E+03   -0.16972E-05   -0.30334E-08   108   0.407E-04    0.521E-05
DAV:  15    -0.102165790839E+03   -0.45902E-06   -0.36994E-09   108   0.211E-04
  15 F= -.10216579E+03 E0= -.10216579E+03  d E =-.131535E-10
       N       E                     dE             d eps       ncg     rms          rms(c)
DAV:   1    -0.102165233677E+03    0.55670E-03   -0.17293E-01    96   0.126E+00    0.182E-01
DAV:   2    -0.102166460603E+03   -0.12269E-02   -0.12549E-02   132   0.385E-01    0.129E-01
DAV:   3    -0.102166382442E+03    0.78162E-04   -0.31098E-04   144   0.760E-02    0.635E-02
DAV:   4    -0.102166388181E+03   -0.57390E-05   -0.22536E-04   120   0.556E-02    0.126E-02
DAV:   5    -0.102166379653E+03    0.85279E-05   -0.43133E-05   132   0.237E-02    0.878E-03
DAV:   6    -0.102166381652E+03   -0.19990E-05   -0.84553E-06   132   0.774E-03    0.449E-03
DAV:   7    -0.102166392316E+03   -0.10665E-04   -0.69012E-07   108   0.281E-03    0.202E-03
DAV:   8    -0.102166408009E+03   -0.15693E-04   -0.23362E-06   132   0.410E-03    0.130E-03
DAV:   9    -0.102166422742E+03   -0.14733E-04   -0.94705E-07    96   0.268E-03    0.589E-04
DAV:  10    -0.102166432460E+03   -0.97180E-05   -0.82940E-07   108   0.187E-03    0.377E-04
DAV:  11    -0.102166436730E+03   -0.42699E-05   -0.13745E-07   108   0.859E-04    0.207E-04
DAV:  12    -0.102166440832E+03   -0.41013E-05   -0.15297E-07    96   0.807E-04    0.109E-04
DAV:  13    -0.102166442121E+03   -0.12893E-05   -0.27311E-08   108   0.394E-04    0.101E-04
DAV:  14    -0.102166443486E+03   -0.13648E-05   -0.23463E-08    96   0.354E-04    0.429E-05
DAV:  15    -0.102166443842E+03   -0.35611E-06    0.10706E-09   120   0.172E-04
  16 F= -.10216644E+03 E0= -.10216644E+03  d E =-.133179E-10
       N       E                     dE             d eps       ncg     rms          rms(c)
DAV:   1    -0.102164431948E+03    0.20115E-02   -0.33680E-01    96   0.180E+00    0.262E-01
DAV:   2    -0.102166472142E+03   -0.20402E-02   -0.21215E-02   132   0.513E-01    0.156E-01
DAV:   3    -0.102166375854E+03    0.96288E-04   -0.55124E-04   132   0.968E-02    0.823E-02
DAV:   4    -0.102166380342E+03   -0.44871E-05   -0.29025E-04   132   0.661E-02    0.163E-02
DAV:   5    -0.102166370465E+03    0.98770E-05   -0.64798E-05   144   0.300E-02    0.119E-02
DAV:   6    -0.102166368591E+03    0.18737E-05   -0.11741E-05   132   0.111E-02    0.737E-03
DAV:   7    -0.102166377357E+03   -0.87663E-05   -0.24976E-06   132   0.597E-03    0.288E-03
DAV:   8    -0.102166391072E+03   -0.13715E-04   -0.13906E-06   132   0.437E-03    0.120E-03
DAV:   9    -0.102166406185E+03   -0.15113E-04   -0.90355E-07   108   0.290E-03    0.123E-03
DAV:  10    -0.102166423308E+03   -0.17123E-04   -0.11122E-06   120   0.244E-03    0.590E-04
DAV:  11    -0.102166432014E+03   -0.87068E-05   -0.28570E-07   108   0.135E-03    0.264E-04
DAV:  12    -0.102166437588E+03   -0.55736E-05   -0.15083E-07   108   0.823E-04    0.232E-04
DAV:  13    -0.102166440808E+03   -0.32196E-05   -0.52970E-08   108   0.501E-04    0.157E-04
DAV:  14    -0.102166442897E+03   -0.20890E-05   -0.26620E-08    96   0.379E-04    0.498E-05
DAV:  15    -0.102166443687E+03   -0.79042E-06   -0.42309E-09   108   0.214E-04
  17 F= -.10216644E+03 E0= -.10216644E+03  d E =-.114949E-10
       N       E                     dE             d eps       ncg     rms          rms(c)
DAV:   1    -0.102165544612E+03    0.89828E-03   -0.17027E-01    96   0.130E+00    0.182E-01
DAV:   2    -0.102166588501E+03   -0.10439E-02   -0.10871E-02   120   0.368E-01    0.116E-01
DAV:   3    -0.102166535638E+03    0.52863E-04   -0.26744E-04   132   0.671E-02    0.616E-02
DAV:   4    -0.102166520738E+03    0.14900E-04   -0.14178E-04   132   0.441E-02    0.112E-02
DAV:   5    -0.102166516724E+03    0.40142E-05   -0.21301E-05   132   0.175E-02    0.828E-03
DAV:   6    -0.102166520955E+03   -0.42317E-05   -0.66814E-06   132   0.898E-03    0.449E-03
DAV:   7    -0.102166537300E+03   -0.16345E-04   -0.28479E-06   120   0.609E-03    0.159E-03
DAV:   8    -0.102166553437E+03   -0.16137E-04   -0.11045E-06   108   0.346E-03    0.107E-03
DAV:   9    -0.102166570404E+03   -0.16966E-04   -0.12666E-06   120   0.270E-03    0.738E-04
DAV:  10    -0.102166583919E+03   -0.13515E-04   -0.12104E-06   108   0.225E-03    0.428E-04
DAV:  11    -0.102166588580E+03   -0.46608E-05   -0.17160E-07   108   0.109E-03    0.252E-04
DAV:  12    -0.102166593061E+03   -0.44811E-05   -0.29683E-07    84   0.108E-03    0.158E-04
DAV:  13    -0.102166594045E+03   -0.98389E-06   -0.24452E-08   120   0.419E-04
  18 F= -.10216659E+03 E0= -.10216659E+03  d E =-.128929E-10
       N       E                     dE             d eps       ncg     rms          rms(c)
DAV:   1    -0.102164872085E+03    0.17210E-02   -0.33274E-01    96   0.180E+00    0.264E-01
DAV:   2    -0.102166755567E+03   -0.18835E-02   -0.19717E-02   132   0.486E-01    0.145E-01
DAV:   3    -0.102166680559E+03    0.75008E-04   -0.55186E-04   132   0.918E-02    0.772E-02
DAV:   4    -0.102166675745E+03    0.48146E-05   -0.21546E-04   132   0.576E-02    0.154E-02
DAV:   5    -0.102166666187E+03    0.95580E-05   -0.45284E-05   144   0.259E-02    0.111E-02
DAV:   6    -0.102166666502E+03   -0.31556E-06   -0.70165E-06   132   0.922E-03
  19 F= -.10216667E+03 E0= -.10216667E+03  d E =-.128029E-10
       N       E                     dE             d eps       ncg     rms          rms(c)
DAV:   1    -0.102164932687E+03    0.17335E-02   -0.16516E-01    96   0.131E+00    0.177E-01
DAV:   2    -0.102166280672E+03   -0.13480E-02   -0.13691E-02   132   0.406E-01    0.113E-01
DAV:   3    -0.102166238534E+03    0.42138E-04   -0.33015E-04   132   0.738E-02    0.661E-02
DAV:   4    -0.102166256109E+03   -0.17575E-04   -0.16390E-04   132   0.515E-02    0.112E-02
DAV:   5    -0.102166257013E+03   -0.90456E-06   -0.43394E-05   132   0.241E-02    0.934E-03
DAV:   6    -0.102166258586E+03   -0.15727E-05   -0.43698E-06   132   0.727E-03    0.654E-03
DAV:   7    -0.102166265883E+03   -0.72968E-05   -0.13990E-06   120   0.508E-03    0.216E-03
DAV:   8    -0.102166272307E+03   -0.64247E-05   -0.10023E-06    96   0.405E-03    0.946E-04
DAV:   9    -0.102166279536E+03   -0.72284E-05   -0.56762E-07   108   0.243E-03    0.792E-04
DAV:  10    -0.102166286756E+03   -0.72202E-05   -0.49035E-07   108   0.171E-03    0.344E-04
DAV:  11    -0.102166289175E+03   -0.24193E-05   -0.10626E-07   108   0.894E-04    0.301E-04
DAV:  12    -0.102166292252E+03   -0.30770E-05   -0.12255E-07   108   0.786E-04    0.143E-04
DAV:  13    -0.102166293750E+03   -0.14976E-05   -0.55588E-08   108   0.517E-04    0.108E-04
DAV:  14    -0.102166294892E+03   -0.11421E-05   -0.31135E-08   108   0.394E-04    0.863E-05
DAV:  15    -0.102166295247E+03   -0.35510E-06   -0.13042E-09   108   0.208E-04
  20 F= -.10216630E+03 E0= -.10216630E+03  d E =-.152045E-10
       N       E                     dE             d eps       ncg     rms          rms(c)
DAV:   1    -0.102163918227E+03    0.23767E-02   -0.33583E-01    96   0.172E+00    0.248E-01
DAV:   2    -0.102166310361E+03   -0.23921E-02   -0.25359E-02   120   0.535E-01    0.161E-01
DAV:   3    -0.102166163244E+03    0.14712E-03   -0.64828E-04   132   0.106E-01    0.880E-02
DAV:   4    -0.102166153769E+03    0.94743E-05   -0.37061E-04   132   0.737E-02    0.162E-02
DAV:   5    -0.102166147297E+03    0.64724E-05   -0.86285E-05   132   0.334E-02    0.127E-02
DAV:   6    -0.102166146870E+03    0.42719E-06   -0.10623E-05   132   0.971E-03    0.880E-03
DAV:   7    -0.102166157152E+03   -0.10282E-04   -0.11371E-06   108   0.418E-03    0.376E-03
DAV:   8    -0.102166174302E+03   -0.17150E-04   -0.20539E-06   132   0.523E-03    0.131E-03
DAV:   9    -0.102166189161E+03   -0.14859E-04   -0.12166E-06   120   0.308E-03    0.159E-03
DAV:  10    -0.102166207128E+03   -0.17967E-04   -0.76072E-07   108   0.217E-03    0.734E-04
DAV:  11    -0.102166213538E+03   -0.64093E-05   -0.30767E-07   108   0.127E-03    0.527E-04
DAV:  12    -0.102166220894E+03   -0.73562E-05   -0.20527E-07   108   0.103E-03    0.262E-04
DAV:  13    -0.102166224642E+03   -0.37480E-05   -0.10604E-07   108   0.661E-04    0.187E-04
DAV:  14    -0.102166227359E+03   -0.27174E-05   -0.39856E-08   108   0.469E-04    0.130E-04
DAV:  15    -0.102166228355E+03   -0.99595E-06   -0.95096E-09   108   0.282E-04
  21 F= -.10216623E+03 E0= -.10216623E+03  d E =-.127820E-10
       N       E                     dE             d eps       ncg     rms          rms(c)
DAV:   1    -0.102166231472E+03   -0.41124E-05   -0.16904E-01    96   0.123E+00    0.160E-01
DAV:   2    -0.102167305239E+03   -0.10738E-02   -0.11330E-02   120   0.352E-01    0.105E-01
DAV:   3    -0.102167254125E+03    0.51113E-04   -0.30179E-04   132   0.704E-02    0.604E-02
DAV:   4    -0.102167250203E+03    0.39222E-05   -0.14233E-04   132   0.450E-02    0.122E-02
DAV:   5    -0.102167246788E+03    0.34151E-05   -0.30432E-05   132   0.198E-02    0.863E-03
DAV:   6    -0.102167247492E+03   -0.70352E-06   -0.41229E-06   132   0.654E-03
  22 F= -.10216725E+03 E0= -.10216725E+03  d E =-.201039E-10
       N       E                     dE             d eps       ncg     rms          rms(c)
DAV:   1    -0.102166091549E+03    0.11552E-02   -0.33553E-01    96   0.162E+00    0.191E-01
DAV:   2    -0.102167638042E+03   -0.15465E-02   -0.16057E-02   132   0.426E-01    0.105E-01
DAV:   3    -0.102167631412E+03    0.66302E-05   -0.49181E-04   144   0.865E-02    0.504E-02
DAV:   4    -0.102167656386E+03   -0.24974E-04   -0.11499E-04   132   0.422E-02    0.139E-02
DAV:   5    -0.102167654674E+03    0.17119E-05   -0.21203E-05   132   0.179E-02    0.746E-03
DAV:   6    -0.102167655804E+03   -0.11307E-05   -0.60739E-06   132   0.815E-03    0.381E-03
DAV:   7    -0.102167658625E+03   -0.28203E-05   -0.53903E-07   108   0.285E-03    0.145E-03
DAV:   8    -0.102167662171E+03   -0.35464E-05   -0.34936E-07   108   0.246E-03    0.739E-04
DAV:   9    -0.102167666893E+03   -0.47222E-05   -0.28458E-07   108   0.199E-03    0.396E-04
DAV:  10    -0.102167671295E+03   -0.44014E-05   -0.31911E-07   108   0.180E-03    0.252E-04
DAV:  11    -0.102167673170E+03   -0.18755E-05   -0.93895E-08   108   0.105E-03    0.230E-04
DAV:  12    -0.102167674495E+03   -0.13249E-05   -0.25263E-08   108   0.479E-04    0.147E-04
DAV:  13    -0.102167675987E+03   -0.14920E-05   -0.34016E-08   108   0.407E-04    0.707E-05
DAV:  14    -0.102167676957E+03   -0.96981E-06   -0.18970E-08   108   0.303E-04
  23 F= -.10216768E+03 E0= -.10216768E+03  d E =-.152423E-10
       N       E                     dE             d eps       ncg     rms          rms(c)
DAV:   1    -0.102166349643E+03    0.13263E-02   -0.16890E-01    96   0.122E+00    0.148E-01
DAV:   2    -0.102167120355E+03   -0.77071E-03   -0.81997E-03   120   0.298E-01    0.761E-02
DAV:   3    -0.102167109615E+03    0.10740E-04   -0.28051E-04   144   0.634E-02    0.391E-02
DAV:   4    -0.102167116747E+03   -0.71321E-05   -0.63388E-05   132   0.312E-02    0.102E-02
DAV:   5    -0.102167115249E+03    0.14976E-05   -0.12809E-05   132   0.138E-02    0.593E-03
DAV:   6    -0.102167115822E+03   -0.57253E-06   -0.29971E-06   132   0.591E-03
  24 F= -.10216712E+03 E0= -.10216712E+03  d E =-.100414E-10
       N       E                     dE             d eps       ncg     rms          rms(c)
DAV:   1    -0.102165450353E+03    0.16649E-02   -0.34287E-01    96   0.173E+00    0.265E-01
DAV:   2    -0.102167011493E+03   -0.15611E-02   -0.16949E-02   132   0.460E-01    0.123E-01
DAV:   3    -0.102166957176E+03    0.54317E-04   -0.52495E-04   132   0.900E-02    0.703E-02
DAV:   4    -0.102166970590E+03   -0.13414E-04   -0.17968E-04   132   0.514E-02    0.184E-02
DAV:   5    -0.102166966204E+03    0.43857E-05   -0.34203E-05   132   0.222E-02    0.994E-03
DAV:   6    -0.102166966299E+03   -0.95024E-07   -0.55526E-06   132   0.814E-03
  25 F= -.10216697E+03 E0= -.10216697E+03  d E =-.154965E-10
       N       E                     dE             d eps       ncg     rms          rms(c)
DAV:   1    -0.102165826357E+03    0.11398E-02   -0.16772E-01    96   0.125E+00    0.167E-01
DAV:   2    -0.102166939305E+03   -0.11129E-02   -0.11766E-02   132   0.360E-01    0.917E-02
DAV:   3    -0.102166898299E+03    0.41007E-04   -0.33598E-04   144   0.724E-02    0.501E-02
DAV:   4    -0.102166909015E+03   -0.10716E-04   -0.12153E-04   132   0.419E-02    0.120E-02
DAV:   5    -0.102166909123E+03   -0.10862E-06   -0.24316E-05   132   0.185E-02    0.783E-03
DAV:   6    -0.102166909392E+03   -0.26905E-06   -0.35349E-06   132   0.655E-03
  26 F= -.10216691E+03 E0= -.10216691E+03  d E =-.160658E-10
       N       E                     dE             d eps       ncg     rms          rms(c)
DAV:   1    -0.102165242277E+03    0.16668E-02   -0.33749E-01    96   0.169E+00    0.210E-01
DAV:   2    -0.102167132637E+03   -0.18904E-02   -0.19658E-02   120   0.476E-01    0.131E-01
DAV:   3    -0.102167085325E+03    0.47312E-04   -0.57114E-04   144   0.952E-02    0.733E-02
DAV:   4    -0.102167096945E+03   -0.11621E-04   -0.20861E-04   132   0.563E-02    0.158E-02
DAV:   5    -0.102167090930E+03    0.60154E-05   -0.46807E-05   132   0.251E-02    0.104E-02
DAV:   6    -0.102167089860E+03    0.10703E-05   -0.72750E-06   144   0.891E-03    0.651E-03
DAV:   7    -0.102167095349E+03   -0.54889E-05   -0.13877E-06   120   0.421E-03    0.222E-03
DAV:   8    -0.102167101034E+03   -0.56853E-05   -0.41516E-07   108   0.240E-03    0.861E-04
DAV:   9    -0.102167108357E+03   -0.73236E-05   -0.53186E-07   108   0.207E-03    0.714E-04
DAV:  10    -0.102167118533E+03   -0.10176E-04   -0.98884E-07   120   0.222E-03    0.382E-04
DAV:  11    -0.102167120912E+03   -0.23789E-05   -0.90005E-08   108   0.991E-04    0.282E-04
DAV:  12    -0.102167123138E+03   -0.22254E-05   -0.63237E-08   108   0.587E-04    0.168E-04
DAV:  13    -0.102167125174E+03   -0.20359E-05   -0.61793E-08   108   0.515E-04    0.100E-04
DAV:  14    -0.102167126383E+03   -0.12099E-05   -0.31653E-08   108   0.373E-04    0.844E-05
DAV:  15    -0.102167126799E+03   -0.41587E-06   -0.15053E-10   108   0.173E-04
  27 F= -.10216713E+03 E0= -.10216713E+03  d E =-.172659E-10
       N       E                     dE             d eps       ncg     rms          rms(c)
DAV:   1    -0.102165508893E+03    0.16175E-02   -0.16771E-01    96   0.119E+00    0.138E-01
DAV:   2    -0.102166296596E+03   -0.78770E-03   -0.82775E-03   120   0.299E-01    0.750E-02
DAV:   3    -0.102166289377E+03    0.72187E-05   -0.27774E-04   144   0.634E-02    0.389E-02
DAV:   4    -0.102166295022E+03   -0.56445E-05   -0.56745E-05   132   0.302E-02    0.100E-02
DAV:   5    -0.102166292475E+03    0.25467E-05   -0.13018E-05   132   0.139E-02    0.572E-03
DAV:   6    -0.102166292719E+03   -0.24385E-06   -0.32025E-06   132   0.592E-03
  28 F= -.10216629E+03 E0= -.10216629E+03  d E =-.163804E-10
       N       E                     dE             d eps       ncg     rms          rms(c)
DAV:   1    -0.102164365210E+03    0.19273E-02   -0.33653E-01    96   0.169E+00    0.238E-01
DAV:   2    -0.102166620180E+03   -0.22550E-02   -0.23791E-02   120   0.523E-01    0.155E-01
DAV:   3    -0.102166501797E+03    0.11838E-03   -0.62681E-04   132   0.105E-01    0.845E-02
DAV:   4    -0.102166506716E+03   -0.49187E-05   -0.34150E-04   132   0.701E-02    0.162E-02
DAV:   5    -0.102166499906E+03    0.68094E-05   -0.69328E-05   132   0.309E-02    0.123E-02
DAV:   6    -0.102166498242E+03    0.16644E-05   -0.97894E-06   132   0.966E-03    0.819E-03
DAV:   7    -0.102166505103E+03   -0.68616E-05   -0.12725E-06   108   0.426E-03    0.316E-03
DAV:   8    -0.102166515911E+03   -0.10808E-04   -0.11549E-06   120   0.393E-03    0.103E-03
DAV:   9    -0.102166526636E+03   -0.10725E-04   -0.83924E-07   120   0.256E-03    0.128E-03
DAV:  10    -0.102166542330E+03   -0.15694E-04   -0.76653E-07   108   0.207E-03    0.517E-04
DAV:  11    -0.102166546440E+03   -0.41100E-05   -0.19847E-07   108   0.105E-03    0.414E-04
DAV:  12    -0.102166552002E+03   -0.55627E-05   -0.13716E-07   108   0.872E-04    0.246E-04
DAV:  13    -0.102166555787E+03   -0.37846E-05   -0.13023E-07   108   0.704E-04    0.173E-04
DAV:  14    -0.102166557783E+03   -0.19961E-05   -0.25833E-08   108   0.398E-04    0.118E-04
DAV:  15    -0.102166558747E+03   -0.96350E-06   -0.73074E-09   108   0.261E-04
  29 F= -.10216656E+03 E0= -.10216656E+03  d E =-.114393E-10
       N       E                     dE             d eps       ncg     rms          rms(c)
DAV:   1    -0.102166527319E+03    0.30464E-04   -0.16861E-01    96   0.121E+00    0.159E-01
DAV:   2    -0.102167446289E+03   -0.91897E-03   -0.97446E-03   120   0.333E-01    0.913E-02
DAV:   3    -0.102167412848E+03    0.33441E-04   -0.29213E-04   144   0.684E-02    0.493E-02
DAV:   4    -0.102167415140E+03   -0.22922E-05   -0.10257E-04   132   0.391E-02    0.112E-02
DAV:   5    -0.102167412264E+03    0.28755E-05   -0.20714E-05   132   0.171E-02    0.736E-03
DAV:   6    -0.102167413183E+03   -0.91870E-06   -0.36142E-06   132   0.632E-03
  30 F= -.10216741E+03 E0= -.10216741E+03  d E =-.105939E-10
       N       E                     dE             d eps       ncg     rms          rms(c)
DAV:   1    -0.102165866487E+03    0.15458E-02   -0.34020E-01    96   0.171E+00    0.257E-01
DAV:   2    -0.102167239976E+03   -0.13735E-02   -0.15053E-02   132   0.428E-01    0.108E-01
DAV:   3    -0.102167216057E+03    0.23918E-04   -0.50820E-04   132   0.849E-02    0.604E-02
DAV:   4    -0.102167236235E+03   -0.20177E-04   -0.11586E-04   132   0.414E-02    0.173E-02
DAV:   5    -0.102167235936E+03    0.29839E-06   -0.24487E-05   132   0.193E-02    0.874E-03
DAV:   6    -0.102167237342E+03   -0.14057E-05   -0.50605E-06   144   0.774E-03    0.546E-03
DAV:   7    -0.102167241382E+03   -0.40397E-05   -0.41790E-07    96   0.241E-03    0.230E-03
DAV:   8    -0.102167246423E+03   -0.50409E-05   -0.41928E-07   108   0.253E-03    0.863E-04
DAV:   9    -0.102167251332E+03   -0.49096E-05   -0.28454E-07   108   0.207E-03    0.581E-04
DAV:  10    -0.102167257463E+03   -0.61303E-05   -0.39984E-07   108   0.205E-03    0.555E-04
DAV:  11    -0.102167259064E+03   -0.16011E-05   -0.10905E-07   108   0.114E-03    0.460E-04
DAV:  12    -0.102167260232E+03   -0.11680E-05   -0.23527E-08   108   0.535E-04    0.241E-04
DAV:  13    -0.102167261939E+03   -0.17072E-05   -0.44868E-08   108   0.497E-04    0.932E-05
DAV:  14    -0.102167263000E+03   -0.10606E-05   -0.24674E-08   108   0.364E-04    0.173E-04
DAV:  15    -0.102167263546E+03   -0.54636E-06   -0.29712E-09   108   0.234E-04
  31 F= -.10216726E+03 E0= -.10216726E+03  d E =-.163750E-10
       N       E                     dE             d eps       ncg     rms          rms(c)
DAV:   1    -0.102166061490E+03    0.12015E-02   -0.16738E-01    96   0.124E+00    0.164E-01
DAV:   2    -0.102167117153E+03   -0.10557E-02   -0.10995E-02   132   0.341E-01    0.841E-02
DAV:   3    -0.102167089291E+03    0.27862E-04   -0.27978E-04   144   0.637E-02    0.464E-02
DAV:   4    -0.102167093501E+03   -0.42096E-05   -0.89862E-05   132   0.342E-02    0.111E-02
DAV:   5    -0.102167091717E+03    0.17836E-05   -0.15842E-05   144   0.150E-02    0.714E-03
DAV:   6    -0.102167091937E+03   -0.21912E-06   -0.27011E-06   132   0.583E-03
  32 F= -.10216709E+03 E0= -.10216709E+03  d E =-.189477E-10
       N       E                     dE             d eps       ncg     rms          rms(c)
DAV:   1    -0.102165423815E+03    0.16679E-02   -0.34351E-01    96   0.162E+00    0.202E-01
DAV:   2    -0.102167131413E+03   -0.17076E-02   -0.17647E-02   120   0.436E-01    0.121E-01
DAV:   3    -0.102167112869E+03    0.18544E-04   -0.55954E-04   156   0.915E-02    0.653E-02
DAV:   4    -0.102167124632E+03   -0.11763E-04   -0.16251E-04   132   0.502E-02    0.145E-02
DAV:   5    -0.102167119329E+03    0.53035E-05   -0.36494E-05   144   0.226E-02    0.937E-03
DAV:   6    -0.102167119004E+03    0.32468E-06   -0.62436E-06   144   0.832E-03
  33 F= -.10216712E+03 E0= -.10216712E+03  d E =-.167654E-10
       N       E                     dE             d eps       ncg     rms          rms(c)
DAV:   1    -0.102165399033E+03    0.17203E-02   -0.17245E-01    96   0.119E+00    0.168E-01
DAV:   2    -0.102166575364E+03   -0.11763E-02   -0.12257E-02   132   0.346E-01    0.112E-01
DAV:   3    -0.102166519554E+03    0.55810E-04   -0.29460E-04   132   0.676E-02    0.592E-02
DAV:   4    -0.102166530938E+03   -0.11384E-04   -0.17884E-04   132   0.463E-02    0.113E-02
DAV:   5    -0.102166526610E+03    0.43282E-05   -0.33878E-05   144   0.202E-02    0.816E-03
DAV:   6    -0.102166525470E+03    0.11405E-05   -0.51470E-06   144   0.614E-03    0.528E-03
DAV:   7    -0.102166527633E+03   -0.21637E-05   -0.41917E-07   108   0.240E-03    0.222E-03
DAV:   8    -0.102166532091E+03   -0.44579E-05   -0.63524E-07   120   0.273E-03    0.744E-04
DAV:   9    -0.102166536738E+03   -0.46466E-05   -0.41877E-07   120   0.171E-03    0.855E-04
DAV:  10    -0.102166543113E+03   -0.63757E-05   -0.25549E-07   108   0.124E-03    0.441E-04
DAV:  11    -0.102166545680E+03   -0.25666E-05   -0.11212E-07   120   0.723E-04    0.350E-04
DAV:  12    -0.102166548911E+03   -0.32308E-05   -0.79205E-08   108   0.645E-04    0.141E-04
DAV:  13    -0.102166550462E+03   -0.15513E-05   -0.38322E-08   120   0.420E-04    0.131E-04
DAV:  14    -0.102166551555E+03   -0.10928E-05   -0.81312E-09   108   0.264E-04    0.892E-05
DAV:  15    -0.102166552288E+03   -0.73349E-06   -0.61484E-09   108   0.227E-04
  34 F= -.10216655E+03 E0= -.10216655E+03  d E =-.163960E-10
       N       E                     dE             d eps       ncg     rms          rms(c)
DAV:   1    -0.102164496265E+03    0.20553E-02   -0.34507E-01    96   0.163E+00    0.222E-01
DAV:   2    -0.102166577218E+03   -0.20810E-02   -0.21768E-02   132   0.472E-01    0.148E-01
DAV:   3    -0.102166481391E+03    0.95827E-04   -0.55851E-04   144   0.913E-02    0.843E-02
DAV:   4    -0.102166475477E+03    0.59140E-05   -0.23626E-04   132   0.563E-02    0.172E-02
DAV:   5    -0.102166469992E+03    0.54850E-05   -0.43415E-05   144   0.238E-02    0.991E-03
DAV:   6    -0.102166473050E+03   -0.30583E-05   -0.59849E-06   132   0.824E-03    0.639E-03
DAV:   7    -0.102166489411E+03   -0.16361E-04   -0.23967E-06   132   0.501E-03    0.207E-03
DAV:   8    -0.102166504308E+03   -0.14897E-04   -0.10311E-06   120   0.319E-03    0.121E-03
DAV:   9    -0.102166524504E+03   -0.20196E-04   -0.16329E-06   132   0.299E-03    0.901E-04
DAV:  10    -0.102166536967E+03   -0.12463E-04   -0.95600E-07   120   0.205E-03    0.481E-04
DAV:  11    -0.102166542242E+03   -0.52751E-05   -0.16883E-07   120   0.104E-03    0.295E-04
DAV:  12    -0.102166547482E+03   -0.52397E-05   -0.25913E-07   108   0.981E-04    0.152E-04
DAV:  13    -0.102166549121E+03   -0.16390E-05   -0.37487E-08   120   0.431E-04    0.151E-04
DAV:  14    -0.102166550578E+03   -0.14567E-05   -0.25589E-08    96   0.366E-04    0.799E-05
DAV:  15    -0.102166551107E+03   -0.52996E-06   -0.21847E-09   120   0.205E-04
  35 F= -.10216655E+03 E0= -.10216655E+03  d E =-.167926E-10
       N       E                     dE             d eps       ncg     rms          rms(c)
DAV:   1    -0.102165853916E+03    0.69666E-03   -0.17185E-01    96   0.119E+00    0.164E-01
DAV:   2    -0.102167022435E+03   -0.11685E-02   -0.12339E-02   132   0.339E-01    0.109E-01
DAV:   3    -0.102166953987E+03    0.68448E-04   -0.29536E-04   132   0.672E-02    0.568E-02
DAV:   4    -0.102166952211E+03    0.17752E-05   -0.17834E-04   132   0.459E-02    0.111E-02
DAV:   5    -0.102166947340E+03    0.48715E-05   -0.32004E-05   144   0.197E-02    0.800E-03
DAV:   6    -0.102166947183E+03    0.15653E-06   -0.51025E-06   132   0.631E-03
  36 F= -.10216695E+03 E0= -.10216695E+03  d E =-.259116E-10
       N       E                     dE             d eps       ncg     rms          rms(c)
DAV:   1    -0.102165691459E+03    0.12559E-02   -0.34295E-01    96   0.158E+00    0.203E-01
DAV:   2    -0.102167316059E+03   -0.16246E-02   -0.16808E-02   132   0.428E-01    0.121E-01
DAV:   3    -0.102167305017E+03    0.11042E-04   -0.45669E-04   144   0.829E-02    0.689E-02
DAV:   4    -0.102167332441E+03   -0.27424E-04   -0.14397E-04   132   0.476E-02    0.153E-02
DAV:   5    -0.102167329662E+03    0.27800E-05   -0.33213E-05   144   0.212E-02    0.829E-03
DAV:   6    -0.102167328441E+03    0.12202E-05   -0.50226E-06   144   0.756E-03    0.519E-03
DAV:   7    -0.102167331803E+03   -0.33617E-05   -0.10452E-06   132   0.366E-03    0.176E-03
DAV:   8    -0.102167335752E+03   -0.39489E-05   -0.24680E-07   108   0.214E-03    0.782E-04
DAV:   9    -0.102167343027E+03   -0.72751E-05   -0.49930E-07   108   0.236E-03    0.607E-04
DAV:  10    -0.102167349452E+03   -0.64247E-05   -0.51822E-07   108   0.195E-03    0.338E-04
DAV:  11    -0.102167351855E+03   -0.24031E-05   -0.10385E-07   108   0.101E-03    0.327E-04
DAV:  12    -0.102167353007E+03   -0.11517E-05   -0.12422E-08   120   0.410E-04    0.180E-04
DAV:  13    -0.102167355738E+03   -0.27315E-05   -0.11065E-07   108   0.696E-04    0.154E-04
DAV:  14    -0.102167356126E+03   -0.38824E-06   -0.68686E-09   120   0.281E-04
  37 F= -.10216736E+03 E0= -.10216736E+03  d E =-.161566E-10
       N       E                     dE             d eps       ncg     rms          rms(c)
DAV:   1    -0.102165280771E+03    0.20750E-02   -0.17619E-01    96   0.124E+00    0.147E-01
DAV:   2    -0.102166242048E+03   -0.96128E-03   -0.11063E-02   132   0.342E-01    0.891E-02
DAV:   3    -0.102166202800E+03    0.39247E-04   -0.23889E-04   144   0.576E-02    0.480E-02
DAV:   4    -0.102166191106E+03    0.11694E-04   -0.78779E-05   132   0.354E-02    0.950E-03
DAV:   5    -0.102166185335E+03    0.57705E-05   -0.17092E-05   132   0.157E-02    0.556E-03
DAV:   6    -0.102166187102E+03   -0.17665E-05   -0.40224E-06   132   0.621E-03    0.367E-03
DAV:   7    -0.102166194743E+03   -0.76411E-05   -0.56986E-07   108   0.272E-03    0.144E-03
DAV:   8    -0.102166204356E+03   -0.96134E-05   -0.76675E-07   108   0.263E-03    0.872E-04
DAV:   9    -0.102166215257E+03   -0.10900E-04   -0.70515E-07   108   0.228E-03    0.640E-04
DAV:  10    -0.102166225061E+03   -0.98046E-05   -0.63795E-07   108   0.185E-03    0.452E-04
DAV:  11    -0.102166227687E+03   -0.26258E-05   -0.80043E-08   108   0.874E-04    0.281E-04
DAV:  12    -0.102166231278E+03   -0.35911E-05   -0.99929E-08   108   0.812E-04    0.159E-04
DAV:  13    -0.102166232999E+03   -0.17204E-05   -0.53614E-08   108   0.512E-04    0.165E-04
DAV:  14    -0.102166234247E+03   -0.12487E-05   -0.15802E-08   108   0.325E-04    0.585E-05
DAV:  15    -0.102166234761E+03   -0.51349E-06   -0.26994E-09   108   0.209E-04
  38 F= -.10216623E+03 E0= -.10216623E+03  d E =-.125889E-10
       N       E                     dE             d eps       ncg     rms          rms(c)
DAV:   1    -0.102164726796E+03    0.15075E-02   -0.40183E-01    96   0.176E+00    0.217E-01
DAV:   2    -0.102166259833E+03   -0.15330E-02   -0.18840E-02   132   0.419E-01    0.128E-01
DAV:   3    -0.102166143089E+03    0.11674E-03   -0.30801E-04   132   0.633E-02    0.661E-02
DAV:   4    -0.102166087974E+03    0.55115E-04   -0.13065E-04   120   0.433E-02    0.116E-02
DAV:   5    -0.102166082065E+03    0.59084E-05   -0.25410E-05   132   0.191E-02    0.779E-03
DAV:   6    -0.102166095028E+03   -0.12963E-04   -0.10186E-05   132   0.882E-03    0.430E-03
DAV:   7    -0.102166119191E+03   -0.24163E-04   -0.17786E-06   108   0.407E-03    0.208E-03
DAV:   8    -0.102166154543E+03   -0.35351E-04   -0.37246E-06   120   0.436E-03    0.132E-03
DAV:   9    -0.102166179258E+03   -0.24715E-04   -0.19327E-06   108   0.312E-03    0.819E-04
DAV:  10    -0.102166198542E+03   -0.19285E-04   -0.16022E-06   120   0.255E-03    0.406E-04
DAV:  11    -0.102166206919E+03   -0.83766E-05   -0.30567E-07   108   0.130E-03    0.298E-04
DAV:  12    -0.102166212371E+03   -0.54522E-05   -0.28289E-07   108   0.104E-03    0.143E-04
DAV:  13    -0.102166213975E+03   -0.16038E-05   -0.32679E-08   108   0.454E-04    0.832E-05
DAV:  14    -0.102166215310E+03   -0.13352E-05   -0.16474E-08   108   0.343E-04    0.643E-05
DAV:  15    -0.102166215883E+03   -0.57311E-06   -0.23335E-09   108   0.204E-04
  39 F= -.10216622E+03 E0= -.10216622E+03  d E =-.138933E-10
       N       E                     dE             d eps       ncg     rms          rms(c)
DAV:   1    -0.102165862853E+03    0.35246E-03   -0.20258E-01    96   0.126E+00    0.150E-01
DAV:   2    -0.102166621968E+03   -0.75911E-03   -0.92452E-03   132   0.285E-01    0.797E-02
DAV:   3    -0.102166578031E+03    0.43937E-04   -0.16947E-04   144   0.437E-02    0.412E-02
DAV:   4    -0.102166552127E+03    0.25904E-04   -0.40023E-05   132   0.247E-02    0.865E-03
DAV:   5    -0.102166544201E+03    0.79266E-05   -0.85130E-06   132   0.119E-02    0.482E-03
DAV:   6    -0.102166545317E+03   -0.11163E-05   -0.30249E-06   120   0.638E-03    0.248E-03
DAV:   7    -0.102166552601E+03   -0.72843E-05   -0.13836E-06   120   0.437E-03    0.133E-03
DAV:   8    -0.102166564603E+03   -0.12002E-04   -0.69530E-07   108   0.287E-03    0.757E-04
DAV:   9    -0.102166575198E+03   -0.10595E-04   -0.71653E-07   120   0.215E-03    0.550E-04
DAV:  10    -0.102166584508E+03   -0.93102E-05   -0.32277E-07   108   0.138E-03    0.271E-04
DAV:  11    -0.102166590345E+03   -0.58370E-05   -0.20177E-07   108   0.902E-04    0.215E-04
DAV:  12    -0.102166594233E+03   -0.38873E-05   -0.62023E-08   108   0.570E-04    0.946E-05
DAV:  13    -0.102166596581E+03   -0.23488E-05   -0.40731E-08   108   0.442E-04    0.605E-05
DAV:  14    -0.102166597691E+03   -0.11096E-05   -0.73640E-09   108   0.260E-04    0.331E-05
DAV:  15    -0.102166598210E+03   -0.51865E-06    0.75664E-10   108   0.178E-04
  40 F= -.10216660E+03 E0= -.10216660E+03  d E =-.171506E-10
       N       E                     dE             d eps       ncg     rms          rms(c)
DAV:   1    -0.102165133659E+03    0.14640E-02   -0.40521E-01    96   0.175E+00    0.219E-01
DAV:   2    -0.102166637165E+03   -0.15035E-02   -0.18557E-02   132   0.407E-01    0.117E-01
DAV:   3    -0.102166538405E+03    0.98760E-04   -0.33360E-04   144   0.611E-02    0.605E-02
DAV:   4    -0.102166468414E+03    0.69992E-04   -0.80357E-05   132   0.342E-02    0.121E-02
DAV:   5    -0.102166461922E+03    0.64918E-05   -0.14748E-05   132   0.159E-02    0.668E-03
DAV:   6    -0.102166480543E+03   -0.18621E-04   -0.78307E-06   132   0.974E-03    0.348E-03
DAV:   7    -0.102166510730E+03   -0.30187E-04   -0.44079E-06   120   0.660E-03    0.205E-03
DAV:   8    -0.102166543490E+03   -0.32760E-04   -0.25712E-06   120   0.404E-03    0.111E-03
DAV:   9    -0.102166569179E+03   -0.25689E-04   -0.23265E-06   120   0.338E-03    0.782E-04
DAV:  10    -0.102166589060E+03   -0.19881E-04   -0.18477E-06   120   0.271E-03    0.335E-04
DAV:  11    -0.102166596391E+03   -0.73309E-05   -0.34469E-07   108   0.133E-03    0.273E-04
DAV:  12    -0.102166600978E+03   -0.45873E-05   -0.21432E-07   108   0.910E-04    0.124E-04
DAV:  13    -0.102166602323E+03   -0.13449E-05   -0.40542E-08   108   0.444E-04    0.775E-05
DAV:  14    -0.102166603271E+03   -0.94791E-06   -0.11645E-08    96   0.316E-04
  41 F= -.10216660E+03 E0= -.10216660E+03  d E =-.113519E-10
       N       E                     dE             d eps       ncg     rms          rms(c)
DAV:   1    -0.102166797855E+03   -0.19553E-03   -0.20339E-01    96   0.125E+00    0.152E-01
DAV:   2    -0.102167507680E+03   -0.70982E-03   -0.85723E-03   144   0.274E-01    0.726E-02
DAV:   3    -0.102167474950E+03    0.32729E-04   -0.18120E-04   144   0.460E-02    0.370E-02
DAV:   4    -0.102167462396E+03    0.12555E-04   -0.42917E-05   132   0.284E-02    0.889E-03
DAV:   5    -0.102167458339E+03    0.40567E-05   -0.13035E-05   132   0.139E-02    0.544E-03
DAV:   6    -0.102167458975E+03   -0.63647E-06   -0.24936E-06   132   0.516E-03
  42 F= -.10216746E+03 E0= -.10216746E+03  d E =-.869262E-11
       N       E                     dE             d eps       ncg     rms          rms(c)
DAV:   1    -0.102165802915E+03    0.16554E-02   -0.40940E-01    96   0.173E+00    0.220E-01
DAV:   2    -0.102167161164E+03   -0.13582E-02   -0.16302E-02   132   0.368E-01    0.997E-02
DAV:   3    -0.102167104782E+03    0.56382E-04   -0.32584E-04   132   0.615E-02    0.524E-02
DAV:   4    -0.102167086904E+03    0.17878E-04   -0.85656E-05   132   0.388E-02    0.120E-02
DAV:   5    -0.102167083296E+03    0.36079E-05   -0.24837E-05   144   0.192E-02    0.778E-03
DAV:   6    -0.102167085679E+03   -0.23832E-05   -0.43569E-06   132   0.724E-03    0.469E-03
DAV:   7    -0.102167092834E+03   -0.71550E-05   -0.78120E-07   108   0.398E-03    0.178E-03
DAV:   8    -0.102167102426E+03   -0.95917E-05   -0.10526E-06   120   0.388E-03    0.122E-03
DAV:   9    -0.102167118167E+03   -0.15741E-04   -0.11436E-06   120   0.332E-03    0.545E-04
DAV:  10    -0.102167124240E+03   -0.60723E-05   -0.31998E-07   108   0.178E-03    0.560E-04
DAV:  11    -0.102167128779E+03   -0.45389E-05   -0.11198E-07   108   0.953E-04    0.274E-04
DAV:  12    -0.102167133682E+03   -0.49035E-05   -0.15734E-07   108   0.856E-04    0.262E-04
DAV:  13    -0.102167135014E+03   -0.13314E-05   -0.19782E-08   120   0.395E-04    0.158E-04
DAV:  14    -0.102167137010E+03   -0.19962E-05   -0.45063E-08    96   0.434E-04    0.609E-05
DAV:  15    -0.102167137473E+03   -0.46341E-06   -0.60314E-10   108   0.199E-04
  43 F= -.10216714E+03 E0= -.10216714E+03  d E =-.303807E-10
       N       E                     dE             d eps       ncg     rms          rms(c)
DAV:   1    -0.102165364316E+03    0.17727E-02   -0.20234E-01    96   0.136E+00    0.155E-01
DAV:   2    -0.102166313182E+03   -0.94887E-03   -0.11349E-02   132   0.335E-01    0.806E-02
DAV:   3    -0.102166271427E+03    0.41756E-04   -0.21831E-04   144   0.490E-02    0.456E-02
DAV:   4    -0.102166239562E+03    0.31865E-04   -0.54599E-05   132   0.294E-02    0.890E-03
DAV:   5    -0.102166230774E+03    0.87880E-05   -0.13735E-05   132   0.147E-02    0.565E-03
DAV:   6    -0.102166231291E+03   -0.51674E-06   -0.35674E-06   132   0.736E-03
  44 F= -.10216623E+03 E0= -.10216623E+03  d E =-.124365E-10
       N       E                     dE             d eps       ncg     rms          rms(c)
DAV:   1    -0.102165032071E+03    0.11987E-02   -0.40640E-01   108   0.188E+00    0.217E-01
DAV:   2    -0.102166613425E+03   -0.15814E-02   -0.18705E-02   120   0.436E-01    0.123E-01
DAV:   3    -0.102166534492E+03    0.78933E-04   -0.31047E-04   132   0.618E-02    0.654E-02
DAV:   4    -0.102166466847E+03    0.67645E-04   -0.11609E-04   132   0.379E-02    0.114E-02
DAV:   5    -0.102166454317E+03    0.12530E-04   -0.17197E-05   144   0.162E-02    0.679E-03
DAV:   6    -0.102166462913E+03   -0.85962E-05   -0.87903E-06   132   0.101E-02    0.337E-03
DAV:   7    -0.102166484883E+03   -0.21969E-04   -0.43131E-06   120   0.661E-03    0.203E-03
DAV:   8    -0.102166509439E+03   -0.24557E-04   -0.18143E-06   108   0.358E-03    0.109E-03
DAV:   9    -0.102166532083E+03   -0.22643E-04   -0.20419E-06   120   0.315E-03    0.741E-04
DAV:  10    -0.102166549518E+03   -0.17435E-04   -0.15771E-06   108   0.251E-03    0.362E-04
DAV:  11    -0.102166557091E+03   -0.75732E-05   -0.42444E-07   108   0.141E-03    0.238E-04
DAV:  12    -0.102166560525E+03   -0.34339E-05   -0.15123E-07   108   0.814E-04    0.161E-04
DAV:  13    -0.102166562168E+03   -0.16427E-05   -0.51306E-08   108   0.519E-04    0.625E-05
DAV:  14    -0.102166562939E+03   -0.77095E-06   -0.91645E-09   108   0.299E-04
  45 F= -.10216656E+03 E0= -.10216656E+03  d E =-.142052E-10
       N       E                     dE             d eps       ncg     rms          rms(c)
DAV:   1    -0.102166795933E+03   -0.23376E-03   -0.20314E-01    96   0.131E+00    0.155E-01
DAV:   2    -0.102167610575E+03   -0.81464E-03   -0.97588E-03   132   0.307E-01    0.789E-02
DAV:   3    -0.102167569301E+03    0.41275E-04   -0.18087E-04   144   0.461E-02    0.423E-02
DAV:   4    -0.102167546966E+03    0.22335E-04   -0.48133E-05   132   0.283E-02    0.872E-03
DAV:   5    -0.102167540620E+03    0.63460E-05   -0.13456E-05   132   0.140E-02    0.541E-03
DAV:   6    -0.102167541444E+03   -0.82393E-06   -0.31853E-06   132   0.569E-03
  46 F= -.10216754E+03 E0= -.10216754E+03  d E =-.116461E-10
       N       E                     dE             d eps       ncg     rms          rms(c)
DAV:   1    -0.102166076104E+03    0.14645E-02   -0.41192E-01    96   0.185E+00    0.225E-01
DAV:   2    -0.102167520926E+03   -0.14448E-02   -0.17053E-02   144   0.379E-01    0.927E-02
DAV:   3    -0.102167485074E+03    0.35852E-04   -0.38916E-04   144   0.666E-02    0.487E-02
DAV:   4    -0.102167482566E+03    0.25075E-05   -0.73745E-05   132   0.398E-02    0.127E-02
DAV:   5    -0.102167483534E+03   -0.96745E-06   -0.29945E-05   132   0.211E-02    0.797E-03
DAV:   6    -0.102167485073E+03   -0.15388E-05   -0.38590E-06   132   0.674E-03    0.533E-03
DAV:   7    -0.102167488747E+03   -0.36746E-05   -0.56527E-07   108   0.307E-03    0.193E-03
DAV:   8    -0.102167493025E+03   -0.42776E-05   -0.62523E-07   108   0.299E-03    0.104E-03
DAV:   9    -0.102167501893E+03   -0.88681E-05   -0.69157E-07   108   0.349E-03    0.663E-04
DAV:  10    -0.102167505050E+03   -0.31570E-05   -0.36706E-07   108   0.194E-03    0.839E-04
DAV:  11    -0.102167506070E+03   -0.10197E-05   -0.33484E-08   120   0.746E-04    0.661E-04
DAV:  12    -0.102167508828E+03   -0.27584E-05   -0.62078E-08   108   0.708E-04    0.171E-04
DAV:  13    -0.102167510994E+03   -0.21658E-05   -0.65788E-08   108   0.627E-04    0.287E-04
DAV:  14    -0.102167512150E+03   -0.11558E-05   -0.15151E-08   108   0.396E-04    0.763E-05
DAV:  15    -0.102167512802E+03   -0.65198E-06   -0.89876E-09   108   0.259E-04
  47 F= -.10216751E+03 E0= -.10216751E+03  d E =-.214497E-10
       N       E                     dE             d eps       ncg     rms          rms(c)
DAV:   1    -0.102165387382E+03    0.21248E-02   -0.20512E-01    96   0.131E+00    0.157E-01
DAV:   2    -0.102166111147E+03   -0.72376E-03   -0.86919E-03   144   0.293E-01    0.732E-02
DAV:   3    -0.102166075114E+03    0.36033E-04   -0.17631E-04   144   0.461E-02    0.382E-02
DAV:   4    -0.102166062184E+03    0.12929E-04   -0.47023E-05   132   0.293E-02    0.861E-03
DAV:   5    -0.102166058107E+03    0.40777E-05   -0.14989E-05   132   0.147E-02    0.533E-03
DAV:   6    -0.102166058556E+03   -0.44967E-06   -0.26436E-06   132   0.542E-03
  48 F= -.10216606E+03 E0= -.10216606E+03  d E =-.132112E-10
       N       E                     dE             d eps       ncg     rms          rms(c)
DAV:   1    -0.102164690110E+03    0.13680E-02   -0.40372E-01   108   0.191E+00    0.215E-01
DAV:   2    -0.102166275827E+03   -0.15857E-02   -0.18952E-02   132   0.451E-01    0.130E-01
DAV:   3    -0.102166169977E+03    0.10585E-03   -0.29292E-04   132   0.624E-02    0.676E-02
DAV:   4    -0.102166116583E+03    0.53394E-04   -0.14290E-04   132   0.442E-02    0.114E-02
DAV:   5    -0.102166104320E+03    0.12263E-04   -0.27356E-05   132   0.196E-02    0.708E-03
DAV:   6    -0.102166113578E+03   -0.92573E-05   -0.10694E-05   132   0.911E-03    0.401E-03
DAV:   7    -0.102166134118E+03   -0.20540E-04   -0.16185E-06   120   0.409E-03    0.200E-03
DAV:   8    -0.102166163568E+03   -0.29450E-04   -0.33499E-06   108   0.427E-03    0.116E-03
DAV:   9    -0.102166183363E+03   -0.19796E-04   -0.15593E-06   120   0.285E-03    0.786E-04
DAV:  10    -0.102166200620E+03   -0.17256E-04   -0.15420E-06   108   0.248E-03    0.348E-04
DAV:  11    -0.102166207073E+03   -0.64530E-05   -0.24367E-07   108   0.115E-03    0.282E-04
DAV:  12    -0.102166212387E+03   -0.53145E-05   -0.31161E-07    96   0.108E-03    0.128E-04
DAV:  13    -0.102166213580E+03   -0.11925E-05   -0.36204E-08   108   0.450E-04    0.834E-05
DAV:  14    -0.102166214792E+03   -0.12124E-05   -0.18032E-08    84   0.349E-04    0.509E-05
DAV:  15    -0.102166215188E+03   -0.39563E-06   -0.17468E-09   108   0.193E-04
  49 F= -.10216622E+03 E0= -.10216622E+03  d E =-.152794E-10
       N       E                     dE             d eps       ncg     rms          rms(c)
DAV:   1    -0.102166480388E+03   -0.26560E-03   -0.20206E-01    96   0.134E+00    0.156E-01
DAV:   2    -0.102167434817E+03   -0.95443E-03   -0.11533E-02   132   0.343E-01    0.827E-02
DAV:   3    -0.102167383615E+03    0.51203E-04   -0.22837E-04   132   0.531E-02    0.463E-02
DAV:   4    -0.102167352372E+03    0.31243E-04   -0.73497E-05   132   0.349E-02    0.896E-03
DAV:   5    -0.102167344146E+03    0.82262E-05   -0.20442E-05   132   0.171E-02    0.684E-03
DAV:   6    -0.102167344849E+03   -0.70300E-06   -0.44057E-06   132   0.706E-03
  50 F= -.10216734E+03 E0= -.10216734E+03  d E =-.120610E-10
       N       E                     dE             d eps       ncg     rms          rms(c)
DAV:   1    -0.102165877850E+03    0.14663E-02   -0.41079E-01   108   0.175E+00    0.222E-01
DAV:   2    -0.102167269326E+03   -0.13915E-02   -0.16350E-02   132   0.376E-01    0.100E-01
DAV:   3    -0.102167224105E+03    0.45221E-04   -0.32442E-04   132   0.638E-02    0.532E-02
DAV:   4    -0.102167217007E+03    0.70975E-05   -0.94958E-05   132   0.428E-02    0.123E-02
DAV:   5    -0.102167215241E+03    0.17669E-05   -0.31101E-05   132   0.213E-02    0.870E-03
DAV:   6    -0.102167216202E+03   -0.96177E-06   -0.46228E-06   132   0.709E-03
  51 F= -.10216722E+03 E0= -.10216722E+03  d E =-.188893E-10
       N       E                     dE             d eps       ncg     rms          rms(c)
DAV:   1    -0.102166060476E+03    0.11548E-02   -0.20194E-01    96   0.121E+00    0.152E-01
DAV:   2    -0.102166906124E+03   -0.84565E-03   -0.99412E-03   120   0.289E-01    0.864E-02
DAV:   3    -0.102166871114E+03    0.35010E-04   -0.15944E-04   132   0.435E-02    0.469E-02
DAV:   4    -0.102166842083E+03    0.29031E-04   -0.60636E-05   120   0.275E-02    0.838E-03
DAV:   5    -0.102166834971E+03    0.71124E-05   -0.98532E-06   144   0.120E-02    0.502E-03
DAV:   6    -0.102166838125E+03   -0.31537E-05   -0.37843E-06   120   0.611E-03    0.257E-03
DAV:   7    -0.102166848694E+03   -0.10569E-04   -0.16139E-06   120   0.396E-03    0.131E-03
DAV:   8    -0.102166862648E+03   -0.13954E-04   -0.10292E-06   108   0.276E-03    0.746E-04
DAV:   9    -0.102166873620E+03   -0.10972E-04   -0.82397E-07   120   0.207E-03    0.553E-04
DAV:  10    -0.102166883004E+03   -0.93837E-05   -0.68585E-07   120   0.161E-03    0.254E-04
DAV:  11    -0.102166886356E+03   -0.33517E-05   -0.12619E-07   108   0.775E-04    0.200E-04
DAV:  12    -0.102166889653E+03   -0.32976E-05   -0.18134E-07   108   0.832E-04    0.114E-04
DAV:  13    -0.102166890390E+03   -0.73622E-06   -0.22493E-08   120   0.373E-04
  52 F= -.10216689E+03 E0= -.10216689E+03  d E =-.102937E-10
       N       E                     dE             d eps       ncg     rms          rms(c)
DAV:   1    -0.102164989418E+03    0.19002E-02   -0.40491E-01    96   0.174E+00    0.218E-01
DAV:   2    -0.102166517262E+03   -0.15278E-02   -0.18492E-02   120   0.393E-01    0.116E-01
DAV:   3    -0.102166419707E+03    0.97556E-04   -0.31387E-04   132   0.610E-02    0.614E-02
DAV:   4    -0.102166362170E+03    0.57537E-04   -0.10010E-04   132   0.373E-02    0.117E-02
DAV:   5    -0.102166348983E+03    0.13187E-04   -0.19352E-05   132   0.174E-02    0.694E-03
DAV:   6    -0.102166351927E+03   -0.29439E-05   -0.72483E-06   132   0.880E-03    0.378E-03
DAV:   7    -0.102166367447E+03   -0.15520E-04   -0.25211E-06   132   0.563E-03    0.188E-03
DAV:   8    -0.102166390090E+03   -0.22642E-04   -0.15335E-06   120   0.400E-03    0.122E-03
DAV:   9    -0.102166410391E+03   -0.20301E-04   -0.12349E-06   120   0.284E-03    0.829E-04
DAV:  10    -0.102166427540E+03   -0.17149E-04   -0.68400E-07   108   0.186E-03    0.400E-04
DAV:  11    -0.102166436326E+03   -0.87863E-05   -0.29513E-07   108   0.110E-03    0.297E-04
DAV:  12    -0.102166444759E+03   -0.84328E-05   -0.22596E-07   108   0.965E-04    0.144E-04
DAV:  13    -0.102166447247E+03   -0.24874E-05   -0.42341E-08   108   0.481E-04    0.107E-04
DAV:  14    -0.102166449209E+03   -0.19627E-05   -0.19530E-08   108   0.341E-04    0.478E-05
DAV:  15    -0.102166449903E+03   -0.69343E-06   -0.14342E-09   108   0.204E-04
  53 F= -.10216645E+03 E0= -.10216645E+03  d E =-.202662E-10
       N       E                     dE             d eps       ncg     rms          rms(c)
DAV:   1    -0.102165198651E+03    0.12506E-02   -0.20137E-01   108   0.118E+00    0.155E-01
DAV:   2    -0.102166087215E+03   -0.88856E-03   -0.10684E-02   132   0.304E-01    0.922E-02
DAV:   3    -0.102166025802E+03    0.61413E-04   -0.15000E-04   132   0.432E-02    0.509E-02
DAV:   4    -0.102165993757E+03    0.32045E-04   -0.74523E-05   132   0.324E-02    0.826E-03
DAV:   5    -0.102165988131E+03    0.56260E-05   -0.16761E-05   132   0.150E-02    0.558E-03
DAV:   6    -0.102165992221E+03   -0.40899E-05   -0.53706E-06   132   0.638E-03    0.326E-03
DAV:   7    -0.102166003896E+03   -0.11674E-04   -0.91287E-07   108   0.298E-03    0.162E-03
DAV:   8    -0.102166023665E+03   -0.19769E-04   -0.22110E-06   108   0.328E-03    0.986E-04
DAV:   9    -0.102166036686E+03   -0.13021E-04   -0.76314E-07   108   0.213E-03    0.674E-04
DAV:  10    -0.102166049187E+03   -0.12502E-04   -0.11028E-06   108   0.197E-03    0.263E-04
DAV:  11    -0.102166054157E+03   -0.49699E-05   -0.16792E-07   108   0.981E-04    0.239E-04
DAV:  12    -0.102166057217E+03   -0.30596E-05   -0.95525E-08   108   0.662E-04    0.130E-04
DAV:  13    -0.102166058621E+03   -0.14042E-05   -0.29986E-08   108   0.389E-04    0.801E-05
DAV:  14    -0.102166059481E+03   -0.86008E-06   -0.47221E-09   108   0.242E-04
  54 F= -.10216606E+03 E0= -.10216606E+03  d E =-.164639E-10
       N       E                     dE             d eps       ncg     rms          rms(c)
DAV:   1    -0.102164548766E+03    0.15099E-02   -0.39782E-01   108   0.169E+00    0.214E-01
DAV:   2    -0.102166249224E+03   -0.17005E-02   -0.20790E-02   132   0.409E-01    0.133E-01
DAV:   3    -0.102166126107E+03    0.12312E-03   -0.28846E-04   132   0.608E-02    0.736E-02
DAV:   4    -0.102166064439E+03    0.61668E-04   -0.15754E-04   120   0.466E-02    0.116E-02
DAV:   5    -0.102166059088E+03    0.53512E-05   -0.33987E-05   132   0.214E-02    0.795E-03
DAV:   6    -0.102166072958E+03   -0.13870E-04   -0.11805E-05   132   0.888E-03    0.457E-03
DAV:   7    -0.102166100853E+03   -0.27895E-04   -0.22254E-06   120   0.427E-03    0.223E-03
DAV:   8    -0.102166141819E+03   -0.40967E-04   -0.49690E-06   120   0.486E-03    0.142E-03
DAV:   9    -0.102166164522E+03   -0.22703E-04   -0.17308E-06   120   0.289E-03    0.965E-04
DAV:  10    -0.102166185426E+03   -0.20904E-04   -0.18593E-06   108   0.266E-03    0.403E-04
DAV:  11    -0.102166194066E+03   -0.86401E-05   -0.37319E-07   108   0.134E-03    0.336E-04
DAV:  12    -0.102166199732E+03   -0.56657E-05   -0.30060E-07   108   0.103E-03    0.149E-04
DAV:  13    -0.102166201586E+03   -0.18544E-05   -0.50466E-08   108   0.479E-04    0.911E-05
DAV:  14    -0.102166203116E+03   -0.15298E-05   -0.22942E-08   108   0.361E-04    0.633E-05
DAV:  15    -0.102166203524E+03   -0.40825E-06   -0.10905E-09   120   0.178E-04
  55 F= -.10216620E+03 E0= -.10216620E+03  d E =-.100361E-10
       N       E                     dE             d eps       ncg     rms          rms(c)
DAV:   1    -0.102166226036E+03   -0.22921E-04   -0.19971E-01   120   0.135E+00    0.156E-01
DAV:   2    -0.102167254565E+03   -0.10285E-02   -0.12226E-02   132   0.344E-01    0.858E-02
DAV:   3    -0.102167215733E+03    0.38832E-04   -0.21131E-04   132   0.489E-02    0.492E-02
DAV:   4    -0.102167190049E+03    0.25684E-04   -0.76907E-05   144   0.318E-02    0.883E-03
DAV:   5    -0.102167183669E+03    0.63804E-05   -0.13618E-05   132   0.132E-02    0.572E-03
DAV:   6    -0.102167185816E+03   -0.21472E-05   -0.44685E-06   132   0.656E-03    0.285E-03
DAV:   7    -0.102167195531E+03   -0.97149E-05   -0.11883E-06   108   0.359E-03    0.133E-03
DAV:   8    -0.102167210740E+03   -0.15209E-04   -0.92104E-07   108   0.250E-03    0.787E-04
DAV:   9    -0.102167222602E+03   -0.11862E-04   -0.72883E-07   108   0.189E-03    0.609E-04
DAV:  10    -0.102167235186E+03   -0.12584E-04   -0.80222E-07    96   0.175E-03    0.273E-04
DAV:  11    -0.102167238726E+03   -0.35396E-05   -0.12267E-07   108   0.775E-04    0.218E-04
DAV:  12    -0.102167242776E+03   -0.40501E-05   -0.11944E-07    96   0.736E-04    0.983E-05
DAV:  13    -0.102167244243E+03   -0.14672E-05   -0.38013E-08   108   0.424E-04    0.833E-05
DAV:  14    -0.102167245267E+03   -0.10239E-05   -0.99876E-09   108   0.271E-04    0.317E-05
DAV:  15    -0.102167245709E+03   -0.44183E-06    0.46027E-10   108   0.174E-04
  56 F= -.10216725E+03 E0= -.10216725E+03  d E =-.136008E-10
       N       E                     dE             d eps       ncg     rms          rms(c)
DAV:   1    -0.102165607436E+03    0.16378E-02   -0.40933E-01   108   0.185E+00    0.224E-01
DAV:   2    -0.102167177030E+03   -0.15696E-02   -0.18655E-02   132   0.417E-01    0.104E-01
DAV:   3    -0.102167109185E+03    0.67844E-04   -0.36563E-04   144   0.654E-02    0.558E-02
DAV:   4    -0.102167079936E+03    0.29249E-04   -0.93196E-05   132   0.409E-02    0.123E-02
DAV:   5    -0.102167072187E+03    0.77491E-05   -0.29934E-05   132   0.208E-02    0.773E-03
DAV:   6    -0.102167073053E+03   -0.86634E-06   -0.55210E-06   132   0.799E-03
  57 F= -.10216707E+03 E0= -.10216707E+03  d E =-.211219E-10
       N       E                     dE             d eps       ncg     rms          rms(c)
DAV:   1    -0.102165850926E+03    0.12213E-02   -0.20633E-01    96   0.130E+00    0.155E-01
DAV:   2    -0.102166555187E+03   -0.70426E-03   -0.82975E-03   144   0.265E-01    0.647E-02
DAV:   3    -0.102166541796E+03    0.13390E-04   -0.18925E-04   144   0.464E-02    0.339E-02
DAV:   4    -0.102166546108E+03   -0.43120E-05   -0.37291E-05   132   0.279E-02    0.889E-03
DAV:   5    -0.102166550496E+03   -0.43873E-05   -0.14367E-05   132   0.144E-02    0.554E-03
DAV:   6    -0.102166553570E+03   -0.30746E-05   -0.16829E-06   120   0.441E-03    0.379E-03
DAV:   7    -0.102166559690E+03   -0.61203E-05   -0.44344E-07   108   0.235E-03    0.116E-03
DAV:   8    -0.102166564933E+03   -0.52427E-05   -0.35409E-07   108   0.203E-03    0.771E-04
DAV:   9    -0.102166574343E+03   -0.94095E-05   -0.57043E-07   108   0.265E-03    0.448E-04
DAV:  10    -0.102166576589E+03   -0.22467E-05   -0.19182E-07   108   0.135E-03    0.553E-04
DAV:  11    -0.102166577903E+03   -0.13136E-05   -0.21207E-08   120   0.550E-04    0.365E-04
DAV:  12    -0.102166580670E+03   -0.27669E-05   -0.62670E-08   108   0.611E-04    0.110E-04
DAV:  13    -0.102166582382E+03   -0.17119E-05   -0.34344E-08   108   0.442E-04    0.193E-04
DAV:  14    -0.102166583440E+03   -0.10581E-05   -0.10949E-08   108   0.294E-04    0.618E-05
DAV:  15    -0.102166583823E+03   -0.38319E-06    0.13443E-09   120   0.160E-04
  58 F= -.10216658E+03 E0= -.10216658E+03  d E =-.113612E-10
       N       E                     dE             d eps       ncg     rms          rms(c)
DAV:   1    -0.102165070965E+03    0.15125E-02   -0.40567E-01   120   0.189E+00    0.221E-01
DAV:   2    -0.102166754371E+03   -0.16834E-02   -0.20275E-02   120   0.448E-01    0.119E-01
DAV:   3    -0.102166657044E+03    0.97327E-04   -0.35645E-04   144   0.652E-02    0.642E-02
DAV:   4    -0.102166601709E+03    0.55335E-04   -0.10802E-04   120   0.411E-02    0.122E-02
DAV:   5    -0.102166594930E+03    0.67785E-05   -0.26255E-05   132   0.192E-02    0.778E-03
DAV:   6    -0.102166605417E+03   -0.10486E-04   -0.77845E-06   132   0.866E-03    0.452E-03
DAV:   7    -0.102166628591E+03   -0.23174E-04   -0.27902E-06   132   0.518E-03    0.205E-03
DAV:   8    -0.102166659113E+03   -0.30522E-04   -0.30796E-06   120   0.450E-03    0.130E-03
DAV:   9    -0.102166679599E+03   -0.20486E-04   -0.17378E-06   120   0.316E-03    0.987E-04
DAV:  10    -0.102166697238E+03   -0.17640E-04   -0.14723E-06   120   0.256E-03    0.387E-04
DAV:  11    -0.102166703939E+03   -0.67009E-05   -0.28070E-07   108   0.123E-03    0.353E-04
DAV:  12    -0.102166710042E+03   -0.61027E-05   -0.34393E-07    96   0.116E-03    0.150E-04
DAV:  13    -0.102166711456E+03   -0.14138E-05   -0.44871E-08   120   0.482E-04    0.107E-04
DAV:  14    -0.102166712690E+03   -0.12345E-05   -0.15109E-08    84   0.332E-04    0.461E-05
DAV:  15    -0.102166713289E+03   -0.59876E-06   -0.76581E-09   108   0.235E-04
  59 F= -.10216671E+03 E0= -.10216671E+03  d E =-.172287E-10
       N       E                     dE             d eps       ncg     rms          rms(c)
DAV:   1    -0.102165421151E+03    0.12915E-02   -0.20285E-01    96   0.133E+00    0.156E-01
DAV:   2    -0.102166212548E+03   -0.79140E-03   -0.96039E-03   132   0.316E-01    0.808E-02
DAV:   3    -0.102166163806E+03    0.48742E-04   -0.16207E-04   132   0.441E-02    0.430E-02
DAV:   4    -0.102166132315E+03    0.31492E-04   -0.48812E-05   132   0.260E-02    0.857E-03
DAV:   5    -0.102166124393E+03    0.79222E-05   -0.82400E-06   132   0.119E-02    0.491E-03
DAV:   6    -0.102166125669E+03   -0.12764E-05   -0.35309E-06   132   0.742E-03    0.249E-03
DAV:   7    -0.102166134360E+03   -0.86912E-05   -0.19079E-06   120   0.517E-03    0.138E-03
DAV:   8    -0.102166146861E+03   -0.12501E-04   -0.70996E-07   108   0.295E-03    0.839E-04
DAV:   9    -0.102166159686E+03   -0.12825E-04   -0.80835E-07   120   0.219E-03    0.525E-04
DAV:  10    -0.102166170611E+03   -0.10925E-04   -0.47208E-07   108   0.154E-03    0.297E-04
DAV:  11    -0.102166175382E+03   -0.47703E-05   -0.14444E-07   108   0.859E-04    0.185E-04
DAV:  12    -0.102166180397E+03   -0.50153E-05   -0.12241E-07    96   0.763E-04    0.115E-04
DAV:  13    -0.102166181646E+03   -0.12489E-05   -0.19300E-08   120   0.381E-04    0.777E-05
DAV:  14    -0.102166182743E+03   -0.10971E-05   -0.76256E-09   108   0.275E-04    0.349E-05
DAV:  15    -0.102166183300E+03   -0.55694E-06   -0.55142E-10   108   0.190E-04
  60 F= -.10216618E+03 E0= -.10216618E+03  d E =-.129617E-10
       N       E                     dE             d eps       ncg     rms          rms(c)
DAV:   1    -0.102164963249E+03    0.12195E-02   -0.40491E-01   108   0.193E+00    0.214E-01
DAV:   2    -0.102166430834E+03   -0.14676E-02   -0.18125E-02   132   0.440E-01    0.125E-01
DAV:   3    -0.102166309512E+03    0.12132E-03   -0.30518E-04   144   0.617E-02    0.638E-02
DAV:   4    -0.102166242007E+03    0.67506E-04   -0.10322E-04   132   0.381E-02    0.119E-02
DAV:   5    -0.102166237003E+03    0.50038E-05   -0.17671E-05   132   0.168E-02    0.686E-03
DAV:   6    -0.102166258626E+03   -0.21623E-04   -0.10627E-05   120   0.102E-02    0.362E-03
DAV:   7    -0.102166290874E+03   -0.32248E-04   -0.41111E-06   108   0.631E-03    0.207E-03
DAV:   8    -0.102166329630E+03   -0.38756E-04   -0.37888E-06   108   0.461E-03    0.112E-03
DAV:   9    -0.102166355629E+03   -0.25999E-04   -0.24193E-06   120   0.343E-03    0.804E-04
DAV:  10    -0.102166375974E+03   -0.20345E-04   -0.18600E-06   120   0.271E-03    0.437E-04
DAV:  11    -0.102166382654E+03   -0.66805E-05   -0.27210E-07   108   0.120E-03    0.254E-04
DAV:  12    -0.102166387982E+03   -0.53273E-05   -0.29592E-07   108   0.110E-03    0.190E-04
DAV:  13    -0.102166389484E+03   -0.15029E-05   -0.37736E-08   108   0.523E-04    0.761E-05
DAV:  14    -0.102166390592E+03   -0.11076E-05   -0.16347E-08    96   0.364E-04    0.630E-05
DAV:  15    -0.102166390867E+03   -0.27543E-06    0.22878E-09   108   0.166E-04
  61 F= -.10216639E+03 E0= -.10216639E+03  d E =-.140762E-10
       N       E                     dE             d eps       ncg     rms          rms(c)
DAV:   1    -0.102169321790E+03   -0.29312E-02   -0.23325E-01    96   0.163E+00    0.138E-01
DAV:   2    -0.102169724253E+03   -0.40246E-03   -0.59204E-03   132   0.259E-01    0.794E-02
DAV:   3    -0.102169663621E+03    0.60632E-04   -0.16473E-04   144   0.455E-02    0.348E-02
DAV:   4    -0.102169646925E+03    0.16696E-04   -0.53618E-05   132   0.259E-02    0.760E-03
DAV:   5    -0.102169642964E+03    0.39610E-05   -0.72202E-06   132   0.105E-02    0.511E-03
DAV:   6    -0.102169644290E+03   -0.13262E-05   -0.30077E-06   132   0.593E-03    0.222E-03
DAV:   7    -0.102169648864E+03   -0.45740E-05   -0.70452E-07   108   0.347E-03    0.119E-03
DAV:   8    -0.102169656756E+03   -0.78920E-05   -0.51486E-07   108   0.231E-03    0.752E-04
DAV:   9    -0.102169665791E+03   -0.90349E-05   -0.53314E-07   108   0.196E-03    0.376E-04
DAV:  10    -0.102169673259E+03   -0.74676E-05   -0.40300E-07   108   0.143E-03    0.321E-04
DAV:  11    -0.102169677709E+03   -0.44499E-05   -0.11844E-07   108   0.871E-04    0.144E-04
DAV:  12    -0.102169679778E+03   -0.20692E-05   -0.43991E-08   108   0.504E-04    0.116E-04
DAV:  13    -0.102169680516E+03   -0.73826E-06   -0.38409E-09   108   0.247E-04
  62 F= -.10216968E+03 E0= -.10216968E+03  d E =-.124993E-10
       N       E                     dE             d eps       ncg     rms          rms(c)
DAV:   1    -0.102169694806E+03   -0.15029E-04   -0.52810E-01    96   0.213E+00    0.172E-01
DAV:   2    -0.102169550791E+03    0.14402E-03   -0.26309E-03   132   0.164E-01    0.975E-02
DAV:   3    -0.102169414415E+03    0.13638E-03   -0.41836E-04   132   0.606E-02    0.174E-02
DAV:   4    -0.102169417457E+03   -0.30412E-05   -0.60100E-05   120   0.248E-02    0.102E-02
DAV:   5    -0.102169418372E+03   -0.91523E-06   -0.28404E-06   132   0.586E-03
  63 F= -.10216942E+03 E0= -.10216942E+03  d E =-.101816E-10
       N       E                     dE             d eps       ncg     rms          rms(c)
DAV:   1    -0.102168730222E+03    0.68723E-03   -0.27189E-01    96   0.153E+00    0.147E-01
DAV:   2    -0.102168727435E+03    0.27869E-05   -0.24635E-03   132   0.135E-01    0.804E-02
DAV:   3    -0.102168638904E+03    0.88531E-04   -0.24699E-04   132   0.417E-02    0.244E-02
DAV:   4    -0.102168636021E+03    0.28829E-05   -0.59167E-05   132   0.202E-02    0.798E-03
DAV:   5    -0.102168634463E+03    0.15578E-05   -0.30548E-06   132   0.658E-03    0.412E-03
DAV:   6    -0.102168634631E+03   -0.16794E-06   -0.22256E-06   132   0.494E-03
  64 F= -.10216863E+03 E0= -.10216863E+03  d E =-.152121E-10
       N       E                     dE             d eps       ncg     rms          rms(c)
DAV:   1    -0.102168617818E+03    0.16645E-04   -0.53724E-01    96   0.212E+00    0.196E-01
DAV:   2    -0.102168458116E+03    0.15970E-03   -0.34959E-03   120   0.175E-01    0.108E-01
DAV:   3    -0.102168274602E+03    0.18351E-03   -0.53983E-04   120   0.590E-02    0.252E-02
DAV:   4    -0.102168265729E+03    0.88729E-05   -0.66492E-05   132   0.239E-02    0.116E-02
DAV:   5    -0.102168265258E+03    0.47116E-06   -0.60589E-06   132   0.860E-03
  65 F= -.10216827E+03 E0= -.10216827E+03  d E =-.866188E-11
       N       E                     dE             d eps       ncg     rms          rms(c)
DAV:   1    -0.102169857082E+03   -0.15914E-02   -0.27151E-01    96   0.149E+00    0.143E-01
DAV:   2    -0.102169803446E+03    0.53636E-04   -0.20432E-03   132   0.131E-01    0.781E-02
DAV:   3    -0.102169723333E+03    0.80113E-04   -0.27856E-04   132   0.457E-02    0.201E-02
DAV:   4    -0.102169726514E+03   -0.31811E-05   -0.56701E-05   120   0.215E-02    0.802E-03
DAV:   5    -0.102169726098E+03    0.41562E-06   -0.23141E-06   132   0.559E-03
  66 F= -.10216973E+03 E0= -.10216973E+03  d E =-.114782E-10
       N       E                     dE             d eps       ncg     rms          rms(c)
DAV:   1    -0.102169821627E+03   -0.95113E-04   -0.53480E-01    96   0.204E+00    0.169E-01
DAV:   2    -0.102169666523E+03    0.15510E-03   -0.26282E-03   132   0.150E-01    0.968E-02
DAV:   3    -0.102169529697E+03    0.13683E-03   -0.45212E-04   132   0.593E-02    0.167E-02
DAV:   4    -0.102169534211E+03   -0.45146E-05   -0.74268E-05   132   0.253E-02    0.900E-03
DAV:   5    -0.102169533326E+03    0.88566E-06   -0.22917E-06   132   0.531E-03
  67 F= -.10216953E+03 E0= -.10216953E+03  d E =-.126129E-10
       N       E                     dE             d eps       ncg     rms          rms(c)
DAV:   1    -0.102170124852E+03   -0.59064E-03   -0.26535E-01    96   0.155E+00    0.118E-01
DAV:   2    -0.102170102018E+03    0.22834E-04   -0.13718E-03   132   0.117E-01    0.684E-02
DAV:   3    -0.102170048096E+03    0.53921E-04   -0.14564E-04   132   0.356E-02    0.967E-03
DAV:   4    -0.102170049794E+03   -0.16977E-05   -0.21031E-05   132   0.144E-02    0.498E-03
DAV:   5    -0.102170049895E+03   -0.10140E-06   -0.49045E-07   108   0.272E-03
  68 F= -.10217005E+03 E0= -.10217005E+03  d E =-.127748E-10
       N       E                     dE             d eps       ncg     rms          rms(c)
DAV:   1    -0.102170377763E+03   -0.32797E-03   -0.52545E-01    96   0.216E+00    0.159E-01
DAV:   2    -0.102170254099E+03    0.12366E-03   -0.20865E-03   132   0.149E-01    0.923E-02
DAV:   3    -0.102170155500E+03    0.98599E-04   -0.36697E-04   132   0.628E-02    0.114E-02
DAV:   4    -0.102170161969E+03   -0.64700E-05   -0.64384E-05   132   0.265E-02    0.942E-03
DAV:   5    -0.102170162151E+03   -0.18103E-06   -0.16444E-06   120   0.456E-03
  69 F= -.10217016E+03 E0= -.10217016E+03  d E =-.127842E-10
       N       E                     dE             d eps       ncg     rms          rms(c)
DAV:   1    -0.102170049733E+03    0.11224E-03   -0.26582E-01    96   0.152E+00    0.113E-01
DAV:   2    -0.102169986352E+03    0.63382E-04   -0.10764E-03   132   0.990E-02    0.650E-02
DAV:   3    -0.102169935060E+03    0.51292E-04   -0.17944E-04   132   0.377E-02    0.918E-03
DAV:   4    -0.102169936652E+03   -0.15923E-05   -0.25801E-05   132   0.155E-02    0.550E-03
DAV:   5    -0.102169936408E+03    0.24400E-06   -0.69570E-07   108   0.304E-03
  70 F= -.10216994E+03 E0= -.10216994E+03  d E =-.138127E-10
       N       E                     dE             d eps       ncg     rms          rms(c)
DAV:   1    -0.102170303331E+03   -0.36668E-03   -0.52934E-01    96   0.211E+00    0.161E-01
[...]
DAV:  11    -0.102168159113E+03   -0.12483E-05   -0.79652E-08   108   0.742E-04    0.254E-04
DAV:  12    -0.102168159650E+03   -0.53737E-06   -0.60164E-09   108   0.340E-04
 129 F= -.10216816E+03 E0= -.10216816E+03  d E =-.106324E-10
       N       E                     dE             d eps       ncg     rms          rms(c)
DAV:   1    -0.102170466448E+03   -0.23073E-02   -0.28276E-01    96   0.166E+00    0.188E-01
DAV:   2    -0.102170271898E+03    0.19455E-03   -0.21159E-03   132   0.154E-01    0.935E-02
DAV:   3    -0.102170150081E+03    0.12182E-03   -0.34318E-04   132   0.539E-02    0.322E-02
DAV:   4    -0.102170147251E+03    0.28305E-05   -0.80209E-05   132   0.263E-02    0.111E-02
DAV:   5    -0.102170146173E+03    0.10778E-05   -0.39437E-06   132   0.841E-03    0.483E-03
DAV:   6    -0.102170147056E+03   -0.88320E-06   -0.24223E-06   132   0.535E-03
 130 F= -.10217015E+03 E0= -.10217015E+03  d E =-.140537E-10
       N       E                     dE             d eps       ncg     rms          rms(c)
DAV:   1    -0.102170388665E+03   -0.24249E-03   -0.54172E-01    96   0.235E+00    0.197E-01
DAV:   2    -0.102170160526E+03    0.22814E-03   -0.28554E-03   132   0.174E-01    0.112E-01
DAV:   3    -0.102169998921E+03    0.16161E-03   -0.45967E-04   132   0.644E-02    0.242E-02
DAV:   4    -0.102170006201E+03   -0.72809E-05   -0.71432E-05   132   0.269E-02    0.914E-03
DAV:   5    -0.102170006977E+03   -0.77526E-06   -0.32457E-06   132   0.651E-03
 131 F= -.10217001E+03 E0= -.10217001E+03  d E =-.139370E-10
       N       E                     dE             d eps       ncg     rms          rms(c)
DAV:   1    -0.102169801928E+03    0.20427E-03   -0.27098E-01    96   0.167E+00    0.140E-01
DAV:   2    -0.102169684829E+03    0.11710E-03   -0.15147E-03   132   0.127E-01    0.787E-02
DAV:   3    -0.102169606620E+03    0.78209E-04   -0.22312E-04   132   0.453E-02    0.182E-02
DAV:   4    -0.102169609989E+03   -0.33685E-05   -0.35055E-05   132   0.188E-02    0.666E-03
DAV:   5    -0.102169610530E+03   -0.54114E-06   -0.16893E-06   120   0.488E-03
 132 F= -.10216961E+03 E0= -.10216961E+03  d E =-.127909E-10
       N       E                     dE             d eps       ncg     rms          rms(c)
DAV:   1    -0.102170036594E+03   -0.42661E-03   -0.55040E-01    96   0.228E+00    0.225E-01
DAV:   2    -0.102169743305E+03    0.29329E-03   -0.33030E-03   132   0.193E-01    0.119E-01
DAV:   3    -0.102169556808E+03    0.18650E-03   -0.50877E-04   132   0.689E-02    0.367E-02
DAV:   4    -0.102169558636E+03   -0.18275E-05   -0.10736E-04   132   0.319E-02    0.126E-02
DAV:   5    -0.102169557726E+03    0.90933E-06   -0.56131E-06   132   0.939E-03
 133 F= -.10216956E+03 E0= -.10216956E+03  d E =-.122530E-10
       N       E                     dE             d eps       ncg     rms          rms(c)
DAV:   1    -0.102169763366E+03   -0.20473E-03   -0.27606E-01    96   0.202E+00    0.161E-01
DAV:   2    -0.102169672469E+03    0.90897E-04   -0.21611E-03   132   0.170E-01    0.861E-02
DAV:   3    -0.102169581728E+03    0.90740E-04   -0.22285E-04   132   0.485E-02    0.287E-02
DAV:   4    -0.102169581209E+03    0.51941E-06   -0.59859E-05   132   0.245E-02    0.851E-03
DAV:   5    -0.102169580500E+03    0.70860E-06   -0.38408E-06   132   0.766E-03
 134 F= -.10216958E+03 E0= -.10216958E+03  d E =-.131239E-10
       N       E                     dE             d eps       ncg     rms          rms(c)
DAV:   1    -0.102169790804E+03   -0.20959E-03   -0.55262E-01    96   0.260E+00    0.232E-01
DAV:   2    -0.102169476564E+03    0.31424E-03   -0.33918E-03   120   0.200E-01    0.121E-01
DAV:   3    -0.102169262134E+03    0.21443E-03   -0.47038E-04   132   0.639E-02    0.383E-02
DAV:   4    -0.102169256882E+03    0.52528E-05   -0.10895E-04   132   0.317E-02    0.125E-02
DAV:   5    -0.102169257138E+03   -0.25615E-06   -0.65585E-06   132   0.105E-02
 135 F= -.10216926E+03 E0= -.10216926E+03  d E =-.110261E-10
       N       E                     dE             d eps       ncg     rms          rms(c)
DAV:   1    -0.102168868420E+03    0.38846E-03   -0.28982E-01    96   0.187E+00    0.208E-01
DAV:   2    -0.102168628751E+03    0.23967E-03   -0.24877E-03   132   0.176E-01    0.103E-01
DAV:   3    -0.102168484745E+03    0.14401E-03   -0.39822E-04   132   0.642E-02    0.358E-02
DAV:   4    -0.102168485651E+03   -0.90612E-06   -0.12326E-04   132   0.345E-02    0.149E-02
DAV:   5    -0.102168484015E+03    0.16366E-05   -0.52807E-06   132   0.990E-03    0.575E-03
DAV:   6    -0.102168484211E+03   -0.19641E-06   -0.30358E-06   132   0.618E-03
 136 F= -.10216848E+03 E0= -.10216848E+03  d E =-.122290E-10
       N       E                     dE             d eps       ncg     rms          rms(c)
DAV:   1    -0.102169144432E+03   -0.66042E-03   -0.57234E-01   108   0.261E+00    0.270E-01
DAV:   2    -0.102168618706E+03    0.52573E-03   -0.45885E-03   132   0.243E-01    0.137E-01
DAV:   3    -0.102168321651E+03    0.29706E-03   -0.79597E-04   132   0.914E-02    0.455E-02
DAV:   4    -0.102168322520E+03   -0.86917E-06   -0.21081E-04   132   0.466E-02    0.206E-02
DAV:   5    -0.102168321744E+03    0.77591E-06   -0.76444E-06   132   0.115E-02
 137 F= -.10216832E+03 E0= -.10216832E+03  d E =-.120400E-10
       N       E                     dE             d eps       ncg     rms          rms(c)
DAV:   1    -0.102170046729E+03   -0.17242E-02   -0.28818E-01    96   0.187E+00    0.205E-01
DAV:   2    -0.102169802410E+03    0.24432E-03   -0.24144E-03   132   0.176E-01    0.101E-01
DAV:   3    -0.102169659085E+03    0.14333E-03   -0.39555E-04   132   0.648E-02    0.350E-02
DAV:   4    -0.102169660696E+03   -0.16115E-05   -0.12292E-04   132   0.347E-02    0.138E-02
DAV:   5    -0.102169659777E+03    0.91955E-06   -0.49461E-06   132   0.929E-03
 138 F= -.10216966E+03 E0= -.10216966E+03  d E =-.133822E-10
       N       E                     dE             d eps       ncg     rms          rms(c)
DAV:   1    -0.102169925866E+03   -0.26517E-03   -0.54703E-01    96   0.258E+00    0.227E-01
DAV:   2    -0.102169628285E+03    0.29758E-03   -0.33545E-03   132   0.204E-01    0.120E-01
DAV:   3    -0.102169425153E+03    0.20313E-03   -0.47093E-04   132   0.672E-02    0.368E-02
DAV:   4    -0.102169426392E+03   -0.12394E-05   -0.10363E-04   132   0.320E-02    0.127E-02
DAV:   5    -0.102169426584E+03   -0.19169E-06   -0.57883E-06   132   0.952E-03
 139 F= -.10216943E+03 E0= -.10216943E+03  d E =-.112483E-10
       N       E                     dE             d eps       ncg     rms          rms(c)
DAV:   1    -0.102169546551E+03   -0.12016E-03   -0.27631E-01    96   0.189E+00    0.167E-01
DAV:   2    -0.102169436317E+03    0.11023E-03   -0.18514E-03   120   0.146E-01    0.871E-02
DAV:   3    -0.102169346201E+03    0.90116E-04   -0.25706E-04   132   0.448E-02    0.274E-02
DAV:   4    -0.102169343487E+03    0.27139E-05   -0.40491E-05   132   0.187E-02    0.103E-02
DAV:   5    -0.102169341876E+03    0.16105E-05   -0.25109E-06   132   0.726E-03    0.495E-03
DAV:   6    -0.102169341875E+03    0.10282E-08   -0.22212E-06   132   0.568E-03
 140 F= -.10216934E+03 E0= -.10216934E+03  d E =-.132724E-10
       N       E                     dE             d eps       ncg     rms          rms(c)
DAV:   1    -0.102169640265E+03   -0.29839E-03   -0.55621E-01    96   0.253E+00    0.244E-01
DAV:   2    -0.102169271497E+03    0.36877E-03   -0.34135E-03   132   0.199E-01    0.124E-01
DAV:   3    -0.102169051607E+03    0.21989E-03   -0.51980E-04   132   0.653E-02    0.398E-02
DAV:   4    -0.102169043480E+03    0.81268E-05   -0.10811E-04   132   0.312E-02    0.132E-02
DAV:   5    -0.102169043547E+03   -0.66555E-07   -0.66496E-06   132   0.108E-02
 141 F= -.10216904E+03 E0= -.10216904E+03  d E =-.105752E-10
       N       E                     dE             d eps       ncg     rms          rms(c)
DAV:   1    -0.102168234189E+03    0.80929E-03   -0.27265E-01    96   0.180E+00    0.139E-01
DAV:   2    -0.102168096255E+03    0.13793E-03   -0.14419E-03   132   0.131E-01    0.783E-02
DAV:   3    -0.102168010777E+03    0.85478E-04   -0.25266E-04   132   0.504E-02    0.164E-02
DAV:   4    -0.102168015693E+03   -0.49163E-05   -0.46983E-05   132   0.224E-02    0.850E-03
DAV:   5    -0.102168016269E+03   -0.57574E-06   -0.11424E-06   132   0.428E-03
 142 F= -.10216802E+03 E0= -.10216802E+03  d E =-.116955E-10
       N       E                     dE             d eps       ncg     rms          rms(c)
DAV:   1    -0.102169006509E+03   -0.99082E-03   -0.58077E-01    96   0.261E+00    0.285E-01
DAV:   2    -0.102168452421E+03    0.55409E-03   -0.47689E-03   132   0.246E-01    0.142E-01
DAV:   3    -0.102168142399E+03    0.31002E-03   -0.85823E-04   132   0.945E-02    0.464E-02
DAV:   4    -0.102168145869E+03   -0.34694E-05   -0.23618E-04   132   0.483E-02    0.207E-02
DAV:   5    -0.102168143541E+03    0.23274E-05   -0.81615E-06   132   0.121E-02    0.882E-03
DAV:   6    -0.102168143598E+03   -0.56867E-07   -0.57509E-06   120   0.882E-03
 143 F= -.10216814E+03 E0= -.10216814E+03  d E =-.127596E-10
       N       E                     dE             d eps       ncg     rms          rms(c)
DAV:   1    -0.102170338045E+03   -0.21945E-02   -0.28107E-01    96   0.181E+00    0.168E-01
DAV:   2    -0.102170118024E+03    0.22002E-03   -0.18661E-03   132   0.153E-01    0.894E-02
DAV:   3    -0.102170004871E+03    0.11315E-03   -0.33681E-04   132   0.590E-02    0.250E-02
DAV:   4    -0.102170010231E+03   -0.53603E-05   -0.77424E-05   132   0.284E-02    0.119E-02
DAV:   5    -0.102170010379E+03   -0.14837E-06   -0.24625E-06   132   0.643E-03
 144 F= -.10217001E+03 E0= -.10217001E+03  d E =-.127422E-10
       N       E                     dE             d eps       ncg     rms          rms(c)
DAV:   1    -0.102170573915E+03   -0.56368E-03   -0.54042E-01    96   0.253E+00    0.199E-01
DAV:   2    -0.102170305767E+03    0.26815E-03   -0.27955E-03   132   0.180E-01    0.112E-01
DAV:   3    -0.102170137307E+03    0.16846E-03   -0.43646E-04   144   0.658E-02    0.236E-02
DAV:   4    -0.102170142249E+03   -0.49421E-05   -0.67484E-05   132   0.269E-02    0.992E-03
DAV:   5    -0.102170142692E+03   -0.44283E-06   -0.30918E-06   132   0.653E-03
 145 F= -.10217014E+03 E0= -.10217014E+03  d E =-.115286E-10
       N       E                     dE             d eps       ncg     rms          rms(c)
DAV:   1    -0.102169498608E+03    0.64364E-03   -0.27003E-01    96   0.199E+00    0.134E-01
DAV:   2    -0.102169437830E+03    0.60778E-04   -0.18342E-03   132   0.156E-01    0.760E-02
DAV:   3    -0.102169363565E+03    0.74265E-04   -0.22519E-04   132   0.495E-02    0.181E-02
DAV:   4    -0.102169366789E+03   -0.32240E-05   -0.47723E-05   132   0.225E-02    0.761E-03
DAV:   5    -0.102169366648E+03    0.14170E-06   -0.14217E-06   108   0.494E-03
 146 F= -.10216937E+03 E0= -.10216937E+03  d E =-.137973E-10
       N       E                     dE             d eps       ncg     rms          rms(c)
DAV:   1    -0.102169499401E+03   -0.13261E-03   -0.53581E-01    96   0.254E+00    0.176E-01
DAV:   2    -0.102169372207E+03    0.12719E-03   -0.32529E-03   132   0.189E-01    0.101E-01
DAV:   3    -0.102169215429E+03    0.15678E-03   -0.48753E-04   132   0.659E-02    0.195E-02
DAV:   4    -0.102169219247E+03   -0.38179E-05   -0.94923E-05   132   0.302E-02    0.106E-02
DAV:   5    -0.102169218234E+03    0.10126E-05   -0.24837E-06   132   0.557E-03    0.681E-03
DAV:   6    -0.102169219007E+03   -0.77310E-06   -0.26803E-06   132   0.565E-03
 147 F= -.10216922E+03 E0= -.10216922E+03  d E =-.106693E-10
       N       E                     dE             d eps       ncg     rms          rms(c)
DAV:   1    -0.102168213893E+03    0.10043E-02   -0.26347E-01    96   0.174E+00    0.112E-01
DAV:   2    -0.102168152651E+03    0.61242E-04   -0.10365E-03   120   0.104E-01    0.637E-02
DAV:   3    -0.102168097434E+03    0.55217E-04   -0.16155E-04   132   0.372E-02    0.108E-02
DAV:   4    -0.102168099787E+03   -0.23531E-05   -0.21751E-05   132   0.150E-02    0.547E-03
DAV:   5    -0.102168101173E+03   -0.13868E-05   -0.90868E-07   108   0.347E-03    0.348E-03
DAV:   6    -0.102168104203E+03   -0.30298E-05   -0.73517E-07    96   0.306E-03    0.657E-04
DAV:   7    -0.102168106016E+03   -0.18128E-05   -0.26754E-07   108   0.173E-03    0.602E-04
DAV:   8    -0.102168109451E+03   -0.34345E-05   -0.22110E-07    96   0.162E-03    0.226E-04
DAV:   9    -0.102168111053E+03   -0.16028E-05   -0.12115E-07   108   0.961E-04    0.227E-04
DAV:  10    -0.102168112650E+03   -0.15962E-05   -0.43271E-08   108   0.597E-04    0.136E-04
DAV:  11    -0.102168113897E+03   -0.12471E-05   -0.54395E-08   108   0.472E-04    0.784E-05
DAV:  12    -0.102168114428E+03   -0.53185E-06   -0.83867E-09   108   0.247E-04
 148 F= -.10216811E+03 E0= -.10216811E+03  d E =-.108667E-10
       N       E                     dE             d eps       ncg     rms          rms(c)
DAV:   1    -0.102168606589E+03   -0.49269E-03   -0.54126E-01    96   0.255E+00    0.203E-01
DAV:   2    -0.102168542783E+03    0.63806E-04   -0.43071E-03   120   0.207E-01    0.111E-01
DAV:   3    -0.102168348530E+03    0.19425E-03   -0.45216E-04   132   0.597E-02    0.332E-02
DAV:   4    -0.102168338147E+03    0.10383E-04   -0.10876E-04   132   0.288E-02    0.107E-02
DAV:   5    -0.102168335731E+03    0.24159E-05   -0.60461E-06   132   0.997E-03    0.530E-03
DAV:   6    -0.102168338296E+03   -0.25649E-05   -0.42541E-06   132   0.718E-03    0.178E-03
DAV:   7    -0.102168342465E+03   -0.41692E-05   -0.11765E-06   120   0.372E-03    0.129E-03
DAV:   8    -0.102168348178E+03   -0.57131E-05   -0.33755E-07   108   0.181E-03    0.560E-04
DAV:   9    -0.102168353204E+03   -0.50257E-05   -0.30175E-07   108   0.155E-03    0.378E-04
DAV:  10    -0.102168359890E+03   -0.66863E-05   -0.39891E-07   108   0.137E-03    0.201E-04
DAV:  11    -0.102168362249E+03   -0.23589E-05   -0.68939E-08   108   0.694E-04    0.156E-04
DAV:  12    -0.102168364233E+03   -0.19831E-05   -0.29048E-08   108   0.401E-04    0.931E-05
DAV:  13    -0.102168365700E+03   -0.14677E-05   -0.28711E-08   108   0.344E-04    0.530E-05
DAV:  14    -0.102168366438E+03   -0.73785E-06   -0.26894E-09   108   0.195E-04
 149 F= -.10216837E+03 E0= -.10216837E+03  d E =-.128605E-10
       N       E                     dE             d eps       ncg     rms          rms(c)
DAV:   1    -0.102170155351E+03   -0.17897E-02   -0.26606E-01    96   0.178E+00    0.126E-01
DAV:   2    -0.102170075416E+03    0.79936E-04   -0.14095E-03   132   0.127E-01    0.712E-02
DAV:   3    -0.102170004115E+03    0.71301E-04   -0.20841E-04   132   0.432E-02    0.148E-02
DAV:   4    -0.102170004516E+03   -0.40164E-06   -0.32823E-05   132   0.182E-02    0.704E-03
DAV:   5    -0.102170004934E+03   -0.41763E-06   -0.13234E-06   108   0.446E-03
 150 F= -.10217000E+03 E0= -.10217000E+03  d E =-.124242E-10
       N       E                     dE             d eps       ncg     rms          rms(c)
DAV:   1    -0.102170418310E+03   -0.41379E-03   -0.52517E-01    96   0.250E+00    0.159E-01
DAV:   2    -0.102170296150E+03    0.12216E-03   -0.21157E-03   120   0.152E-01    0.916E-02
DAV:   3    -0.102170193312E+03    0.10284E-03   -0.34300E-04   132   0.577E-02    0.132E-02
DAV:   4    -0.102170199397E+03   -0.60846E-05   -0.51497E-05   132   0.232E-02    0.825E-03
DAV:   5    -0.102170200531E+03   -0.11339E-05   -0.17486E-06   120   0.458E-03    0.598E-03
DAV:   6    -0.102170204314E+03   -0.37832E-05   -0.15049E-06   120   0.408E-03    0.106E-03
DAV:   7    -0.102170206529E+03   -0.22150E-05   -0.39698E-07   108   0.210E-03    0.105E-03
DAV:   8    -0.102170209202E+03   -0.26735E-05   -0.11087E-07   108   0.141E-03    0.473E-04
DAV:   9    -0.102170213332E+03   -0.41300E-05   -0.25974E-07   108   0.186E-03    0.552E-04
DAV:  10    -0.102170214701E+03   -0.13687E-05   -0.91556E-08   108   0.996E-04    0.224E-04
DAV:  11    -0.102170216006E+03   -0.13050E-05   -0.38172E-08   108   0.513E-04    0.252E-04
DAV:  12    -0.102170217118E+03   -0.11124E-05   -0.36349E-08   108   0.438E-04    0.651E-05
DAV:  13    -0.102170217787E+03   -0.66867E-06   -0.14324E-08   108   0.281E-04
 151 F= -.10217022E+03 E0= -.10217022E+03  d E =-.102309E-10
       N       E                     dE             d eps       ncg     rms          rms(c)
DAV:   1    -0.102167960263E+03    0.22569E-02   -0.26668E-01    96   0.180E+00    0.129E-01
DAV:   2    -0.102167909715E+03    0.50548E-04   -0.18945E-03   132   0.145E-01    0.712E-02
DAV:   3    -0.102167831610E+03    0.78106E-04   -0.21845E-04   132   0.472E-02    0.187E-02
DAV:   4    -0.102167832467E+03   -0.85780E-06   -0.53241E-05   120   0.223E-02    0.689E-03
DAV:   5    -0.102167832792E+03   -0.32464E-06   -0.23171E-06   132   0.557E-03
 152 F= -.10216783E+03 E0= -.10216783E+03  d E =-.105358E-10
       N       E                     dE             d eps       ncg     rms          rms(c)
DAV:   1    -0.102168448794E+03   -0.61633E-03   -0.54559E-01   108   0.256E+00    0.203E-01
DAV:   2    -0.102168326515E+03    0.12228E-03   -0.43111E-03   132   0.222E-01    0.114E-01
DAV:   3    -0.102168119645E+03    0.20687E-03   -0.59773E-04   132   0.723E-02    0.273E-02
DAV:   4    -0.102168119640E+03    0.58285E-08   -0.12809E-04   120   0.335E-02    0.118E-02
DAV:   5    -0.102168117257E+03    0.23831E-05   -0.48018E-06   132   0.850E-03    0.631E-03
DAV:   6    -0.102168117892E+03   -0.63567E-06   -0.44496E-06   120   0.765E-03
 153 F= -.10216812E+03 E0= -.10216812E+03  d E =-.151430E-10
       N       E                     dE             d eps       ncg     rms          rms(c)
DAV:   1    -0.102170135487E+03   -0.20182E-02   -0.26887E-01    96   0.179E+00    0.139E-01
DAV:   2    -0.102170077965E+03    0.57521E-04   -0.18848E-03   120   0.140E-01    0.761E-02
DAV:   3    -0.102170003431E+03    0.74535E-04   -0.22392E-04   132   0.410E-02    0.210E-02
DAV:   4    -0.102170001779E+03    0.16520E-05   -0.39029E-05   132   0.184E-02    0.753E-03
DAV:   5    -0.102170000972E+03    0.80643E-06   -0.27109E-06   132   0.622E-03
 154 F= -.10217000E+03 E0= -.10217000E+03  d E =-.108112E-10
       N       E                     dE             d eps       ncg     rms          rms(c)
DAV:   1    -0.102170316869E+03   -0.31509E-03   -0.53078E-01    96   0.252E+00    0.160E-01
DAV:   2    -0.102170217135E+03    0.99734E-04   -0.21263E-03   132   0.149E-01    0.919E-02
DAV:   3    -0.102170111170E+03    0.10596E-03   -0.33425E-04   132   0.526E-02    0.148E-02
DAV:   4    -0.102170113808E+03   -0.26381E-05   -0.45934E-05   132   0.214E-02    0.740E-03
DAV:   5    -0.102170113268E+03    0.54046E-06   -0.17702E-06   132   0.464E-03
 155 F= -.10217011E+03 E0= -.10217011E+03  d E =-.130724E-10
       N       E                     dE             d eps       ncg     rms          rms(c)
DAV:   1    -0.102169675451E+03    0.43836E-03   -0.26442E-01    96   0.177E+00    0.115E-01
DAV:   2    -0.102169609393E+03    0.66057E-04   -0.10977E-03   132   0.112E-01    0.665E-02
DAV:   3    -0.102169562235E+03    0.47158E-04   -0.18491E-04   144   0.436E-02    0.947E-03
DAV:   4    -0.102169565984E+03   -0.37488E-05   -0.32372E-05   132   0.182E-02    0.625E-03
DAV:   5    -0.102169566325E+03   -0.34090E-06   -0.72197E-07   108   0.323E-03
 156 F= -.10216957E+03 E0= -.10216957E+03  d E =-.159296E-10
       N       E                     dE             d eps       ncg     rms          rms(c)
DAV:   1    -0.102169875007E+03   -0.30902E-03   -0.52662E-01    96   0.252E+00    0.173E-01
DAV:   2    -0.102169757858E+03    0.11715E-03   -0.26459E-03   120   0.171E-01    0.968E-02
DAV:   3    -0.102169633017E+03    0.12484E-03   -0.38476E-04   132   0.576E-02    0.204E-02
DAV:   4    -0.102169634234E+03   -0.12178E-05   -0.55256E-05   144   0.234E-02    0.977E-03
DAV:   5    -0.102169634432E+03   -0.19794E-06   -0.31149E-06   132   0.617E-03
 157 F= -.10216963E+03 E0= -.10216963E+03  d E =-.888094E-11
