       N       E                     dE             d eps       ncg     rms          rms(c)
DAV:   1     0.201467206522E+03    0.20147E+03   -0.10485E+04   116   0.546E+02
DAV:   2    -0.291987759965E+02   -0.23067E+03   -0.21605E+03   144   0.103E+02
DAV:   3    -0.102781627137E+03   -0.73583E+02   -0.73412E+02   104   0.542E+01
DAV:   4    -0.106974828467E+03   -0.41932E+01   -0.41785E+01   112   0.187E+01
DAV:   5    -0.107051180939E+03   -0.76352E-01   -0.76304E-01   136   0.262E+00    0.150E+01
DAV:   6    -0.103832557596E+03    0.32186E+01   -0.15676E+00   104   0.457E+00    0.873E+00
DAV:   7    -0.102140119566E+03    0.16924E+01   -0.40889E+00   104   0.673E+00    0.122E+00
DAV:   8    -0.102089183820E+03    0.50936E-01   -0.26180E-01   104   0.217E+00    0.617E-01
DAV:   9    -0.102053191540E+03    0.35992E-01   -0.78624E-02   120   0.796E-01    0.334E-01
DAV:  10    -0.102053507803E+03   -0.31626E-03   -0.29842E-03   112   0.222E-01    0.162E-01
DAV:  11    -0.102053540157E+03   -0.32354E-04   -0.65270E-03   104   0.239E-01    0.779E-02
DAV:  12    -0.102057310285E+03   -0.37701E-02   -0.10378E-03    94   0.959E-02    0.576E-02
DAV:  13    -0.102062455141E+03   -0.51449E-02   -0.20404E-03   104   0.114E-01    0.341E-02
DAV:  14    -0.102066588895E+03   -0.41338E-02   -0.34376E-04   112   0.548E-02    0.156E-02
DAV:  15    -0.102071359332E+03   -0.47704E-02   -0.67371E-04   110   0.662E-02    0.164E-02
DAV:  16    -0.102071838005E+03   -0.47867E-03   -0.18846E-05   112   0.153E-02    0.772E-03
DAV:  17    -0.102072945351E+03   -0.11073E-02   -0.95671E-05   102   0.242E-02    0.296E-03
DAV:  18    -0.102073150595E+03   -0.20524E-03   -0.76086E-06   112   0.865E-03    0.265E-03
DAV:  19    -0.102073334033E+03   -0.18344E-03   -0.63422E-06    96   0.607E-03    0.167E-03
DAV:  20    -0.102073372611E+03   -0.38579E-04   -0.77888E-07    88   0.323E-03    0.803E-04
DAV:  21    -0.102073407967E+03   -0.35356E-04   -0.10164E-06    78   0.274E-03    0.592E-04
DAV:  22    -0.102073414994E+03   -0.70276E-05   -0.22559E-07    80   0.156E-03    0.299E-04
DAV:  23    -0.102073418121E+03   -0.31265E-05   -0.62382E-08    88   0.701E-04    0.163E-04
DAV:  24    -0.102073421644E+03   -0.35236E-05   -0.65383E-08    80   0.614E-04    0.733E-05
DAV:  25    -0.102073422184E+03   -0.53911E-06   -0.11805E-08    80   0.300E-04
   1 F= -.10207342E+03 E0= -.10207342E+03  d E =-.102073E+03
       N       E                     dE             d eps       ncg     rms          rms(c)
DAV:   1    -0.102235347483E+03   -0.16193E+00   -0.61203E+00    84   0.105E+01    0.105E+00
DAV:   2    -0.102254060939E+03   -0.18713E-01   -0.25978E-01   112   0.201E+00    0.544E-01
DAV:   3    -0.102249619319E+03    0.44416E-02   -0.10539E-02   120   0.418E-01    0.259E-01
DAV:   4    -0.102248609537E+03    0.10098E-02   -0.54877E-03   112   0.252E-01    0.612E-02
DAV:   5    -0.102248451358E+03    0.15818E-03   -0.33210E-04   120   0.911E-02    0.368E-02
DAV:   6    -0.102248460559E+03   -0.92005E-05   -0.13989E-04   120   0.547E-02    0.182E-02
DAV:   7    -0.102248592131E+03   -0.13157E-03   -0.77945E-05   110   0.389E-02    0.889E-03
DAV:   8    -0.102248660519E+03   -0.68388E-04   -0.19725E-05   120   0.184E-02    0.945E-03
DAV:   9    -0.102248745915E+03   -0.85396E-04   -0.34353E-06   112   0.607E-03    0.432E-03
DAV:  10    -0.102248868789E+03   -0.12287E-03   -0.10088E-05   112   0.811E-03    0.292E-03
DAV:  11    -0.102248900607E+03   -0.31818E-04   -0.10109E-06    88   0.432E-03    0.149E-03
DAV:  12    -0.102248980268E+03   -0.79662E-04   -0.52264E-06   104   0.507E-03    0.112E-03
DAV:  13    -0.102249001793E+03   -0.21525E-04   -0.38247E-07    88   0.227E-03    0.625E-04
DAV:  14    -0.102249026929E+03   -0.25135E-04   -0.87023E-07    88   0.202E-03    0.832E-04
DAV:  15    -0.102249032236E+03   -0.53079E-05   -0.10056E-07    88   0.770E-04    0.522E-04
DAV:  16    -0.102249037405E+03   -0.51690E-05   -0.89982E-08    88   0.914E-04    0.154E-04
DAV:  17    -0.102249038978E+03   -0.15730E-05   -0.27815E-08    88   0.509E-04    0.171E-04
DAV:  18    -0.102249040113E+03   -0.11345E-05   -0.19863E-08    80   0.420E-04    0.619E-05
DAV:  19    -0.102249040402E+03   -0.28959E-06   -0.43076E-09    80   0.222E-04
   2 F= -.10224904E+03 E0= -.10224904E+03  d E =-.175618E+00
       N       E                     dE             d eps       ncg     rms          rms(c)
DAV:   1    -0.102249207244E+03   -0.16713E-03   -0.55718E-03    84   0.320E-01    0.314E-02
DAV:   2    -0.102249222712E+03   -0.15468E-04   -0.24253E-04   118   0.615E-02    0.170E-02
DAV:   3    -0.102249217129E+03    0.55834E-05   -0.10273E-05   120   0.130E-02    0.814E-03
DAV:   4    -0.102249214731E+03    0.23982E-05   -0.51383E-06   112   0.773E-03    0.205E-03
DAV:   5    -0.102249214395E+03    0.33529E-06   -0.28566E-07    88   0.282E-03
   3 F= -.10224921E+03 E0= -.10224921E+03  d E =-.175792E+00
       N       E                     dE             d eps       ncg     rms          rms(c)
DAV:   1    -0.102306103533E+03   -0.56889E-01   -0.15207E+00    84   0.530E+00    0.534E-01
DAV:   2    -0.102312445059E+03   -0.63415E-02   -0.79090E-02   120   0.106E+00    0.254E-01
DAV:   3    -0.102311773058E+03    0.67200E-03   -0.34668E-03   128   0.233E-01    0.132E-01
DAV:   4    -0.102311695511E+03    0.77547E-04   -0.98771E-04   112   0.114E-01    0.445E-02
DAV:   5    -0.102311669867E+03    0.25644E-04   -0.71892E-05   120   0.420E-02    0.231E-02
DAV:   6    -0.102311669102E+03    0.76446E-06   -0.34510E-05   120   0.275E-02    0.102E-02
DAV:   7    -0.102311694463E+03   -0.25361E-04   -0.19555E-05   104   0.194E-02    0.461E-03
DAV:   8    -0.102311707379E+03   -0.12916E-04   -0.48500E-06   112   0.881E-03    0.436E-03
DAV:   9    -0.102311717634E+03   -0.10255E-04   -0.37061E-07    80   0.209E-03    0.273E-03
DAV:  10    -0.102311748129E+03   -0.30495E-04   -0.33466E-06    96   0.493E-03    0.151E-03
DAV:  11    -0.102311757217E+03   -0.90878E-05   -0.55590E-07    88   0.240E-03    0.105E-03
DAV:  12    -0.102311769087E+03   -0.11870E-04   -0.90703E-07    96   0.250E-03    0.477E-04
DAV:  13    -0.102311773704E+03   -0.46174E-05   -0.22474E-07    88   0.146E-03    0.505E-04
DAV:  14    -0.102311777241E+03   -0.35371E-05   -0.12405E-07    88   0.961E-04    0.250E-04
DAV:  15    -0.102311778901E+03   -0.16595E-05   -0.54075E-08    88   0.589E-04    0.140E-04
DAV:  16    -0.102311779805E+03   -0.90458E-06   -0.16002E-08    88   0.348E-04
   4 F= -.10231178E+03 E0= -.10231178E+03  d E =-.625654E-01
       N       E                     dE             d eps       ncg     rms          rms(c)
DAV:   1    -0.102316869362E+03   -0.50905E-02   -0.28214E-01    84   0.229E+00    0.226E-01
DAV:   2    -0.102318072238E+03   -0.12029E-02   -0.15070E-02   120   0.463E-01    0.110E-01
DAV:   3    -0.102317948327E+03    0.12391E-03   -0.67427E-04   128   0.103E-01    0.566E-02
DAV:   4    -0.102317936362E+03    0.11965E-04   -0.19118E-04   112   0.502E-02    0.201E-02
DAV:   5    -0.102317928357E+03    0.80051E-05   -0.13266E-05   120   0.181E-02    0.104E-02
DAV:   6    -0.102317926854E+03    0.15025E-05   -0.71512E-06   112   0.124E-02    0.423E-03
DAV:   7    -0.102317931801E+03   -0.49471E-05   -0.38484E-06    96   0.833E-03    0.204E-03
DAV:   8    -0.102317934848E+03   -0.30465E-05   -0.68894E-07    88   0.345E-03    0.166E-03
DAV:   9    -0.102317938562E+03   -0.37144E-05   -0.16204E-07    80   0.141E-03    0.880E-04
DAV:  10    -0.102317944739E+03   -0.61764E-05   -0.39898E-07    80   0.185E-03    0.446E-04
DAV:  11    -0.102317949964E+03   -0.52255E-05   -0.38884E-07    88   0.164E-03    0.387E-04
DAV:  12    -0.102317951428E+03   -0.14636E-05   -0.83285E-08    88   0.928E-04    0.251E-04
DAV:  13    -0.102317952257E+03   -0.82962E-06   -0.21663E-08    86   0.503E-04
   5 F= -.10231795E+03 E0= -.10231795E+03  d E =-.687379E-01
       N       E                     dE             d eps       ncg     rms          rms(c)
DAV:   1    -0.102329063187E+03   -0.11112E-01   -0.34149E-01    84   0.259E+00    0.213E-01
DAV:   2    -0.102330231901E+03   -0.11687E-02   -0.14811E-02   112   0.491E-01    0.124E-01
DAV:   3    -0.102330107984E+03    0.12392E-03   -0.49724E-04   128   0.920E-02    0.665E-02
DAV:   4    -0.102330072122E+03    0.35862E-04   -0.18841E-04   120   0.512E-02    0.137E-02
DAV:   5    -0.102330059595E+03    0.12526E-04   -0.25596E-05   112   0.199E-02    0.875E-03
DAV:   6    -0.102330063501E+03   -0.39057E-05   -0.56995E-06   112   0.888E-03    0.502E-03
DAV:   7    -0.102330081489E+03   -0.17988E-04   -0.17181E-06    88   0.598E-03    0.135E-03
DAV:   8    -0.102330094501E+03   -0.13012E-04   -0.14596E-06    80   0.467E-03    0.160E-03
DAV:   9    -0.102330113808E+03   -0.19307E-04   -0.11362E-06    86   0.314E-03    0.653E-04
DAV:  10    -0.102330126762E+03   -0.12954E-04   -0.82521E-07    88   0.239E-03    0.489E-04
DAV:  11    -0.102330132209E+03   -0.54466E-05   -0.28751E-07    88   0.137E-03    0.237E-04
DAV:  12    -0.102330136356E+03   -0.41474E-05   -0.14407E-07    80   0.978E-04    0.204E-04
DAV:  13    -0.102330138921E+03   -0.25648E-05   -0.10289E-07    88   0.746E-04    0.976E-05
DAV:  14    -0.102330140360E+03   -0.14391E-05   -0.59529E-08    80   0.539E-04    0.522E-05
DAV:  15    -0.102330140697E+03   -0.33630E-06   -0.65223E-09    88   0.239E-04
   6 F= -.10233014E+03 E0= -.10233014E+03  d E =-.121884E-01
       N       E                     dE             d eps       ncg     rms          rms(c)
DAV:   1    -0.102330865632E+03   -0.72527E-03   -0.38991E-02    84   0.875E-01    0.722E-02
DAV:   2    -0.102331000551E+03   -0.13492E-03   -0.16998E-03   112   0.166E-01    0.420E-02
DAV:   3    -0.102330987478E+03    0.13073E-04   -0.57370E-05   128   0.313E-02    0.223E-02
DAV:   4    -0.102330983615E+03    0.38631E-05   -0.21489E-05   120   0.173E-02    0.469E-03
DAV:   5    -0.102330981110E+03    0.25049E-05   -0.28149E-06   104   0.671E-03    0.290E-03
DAV:   6    -0.102330981020E+03    0.89472E-07   -0.71027E-07    88   0.332E-03
   7 F= -.10233098E+03 E0= -.10233098E+03  d E =-.130288E-01
       N       E                     dE             d eps       ncg     rms          rms(c)
DAV:   1    -0.102341828767E+03   -0.10848E-01   -0.30730E-01    84   0.263E+00    0.154E-01
DAV:   2    -0.102341693561E+03    0.13521E-03   -0.38500E-03   120   0.274E-01    0.853E-02
DAV:   3    -0.102341552043E+03    0.14152E-03   -0.57138E-04   120   0.101E-01    0.325E-02
DAV:   4    -0.102341556362E+03   -0.43193E-05   -0.18798E-04   120   0.529E-02    0.179E-02
DAV:   5    -0.102341554408E+03    0.19546E-05   -0.12485E-05   112   0.138E-02    0.133E-02
DAV:   6    -0.102341551778E+03    0.26293E-05   -0.33089E-06   112   0.711E-03    0.228E-03
DAV:   7    -0.102341553399E+03   -0.16210E-05   -0.83934E-07    88   0.372E-03    0.201E-03
DAV:   8    -0.102341559396E+03   -0.59969E-05   -0.41598E-07    80   0.364E-03    0.676E-04
DAV:   9    -0.102341564823E+03   -0.54269E-05   -0.60846E-07    88   0.336E-03    0.982E-04
DAV:  10    -0.102341570475E+03   -0.56522E-05   -0.33941E-07    88   0.209E-03    0.353E-04
DAV:  11    -0.102341573189E+03   -0.27135E-05   -0.11199E-07    88   0.972E-04    0.222E-04
DAV:  12    -0.102341575669E+03   -0.24797E-05   -0.63730E-08    88   0.647E-04    0.182E-04
DAV:  13    -0.102341578319E+03   -0.26500E-05   -0.10393E-07    80   0.671E-04    0.959E-05
DAV:  14    -0.102341579608E+03   -0.12897E-05   -0.29691E-08    88   0.399E-04    0.570E-05
DAV:  15    -0.102341580109E+03   -0.50045E-06   -0.11399E-08    88   0.253E-04
   8 F= -.10234158E+03 E0= -.10234158E+03  d E =-.105991E-01
       N       E                     dE             d eps       ncg     rms          rms(c)
DAV:   1    -0.102348216799E+03   -0.66372E-02   -0.61641E-01    84   0.372E+00    0.218E-01
DAV:   2    -0.102347936264E+03    0.28053E-03   -0.77424E-03   120   0.390E-01    0.121E-01
DAV:   3    -0.102347644223E+03    0.29204E-03   -0.11449E-03   120   0.143E-01    0.464E-02
DAV:   4    -0.102347652265E+03   -0.80419E-05   -0.37755E-04   118   0.750E-02    0.251E-02
DAV:   5    -0.102347648501E+03    0.37633E-05   -0.24779E-05   112   0.195E-02    0.185E-02
DAV:   6    -0.102347642036E+03    0.64658E-05   -0.65101E-06   112   0.991E-03    0.316E-03
DAV:   7    -0.102347644213E+03   -0.21769E-05   -0.15984E-06    88   0.512E-03    0.276E-03
DAV:   8    -0.102347653224E+03   -0.90114E-05   -0.69239E-07    88   0.481E-03    0.956E-04
DAV:   9    -0.102347661989E+03   -0.87649E-05   -0.10221E-06    88   0.448E-03    0.128E-03
DAV:  10    -0.102347671359E+03   -0.93705E-05   -0.62988E-07    88   0.283E-03    0.459E-04
DAV:  11    -0.102347675356E+03   -0.39971E-05   -0.17900E-07    88   0.128E-03    0.307E-04
DAV:  12    -0.102347679380E+03   -0.40232E-05   -0.11019E-07    88   0.869E-04    0.236E-04
DAV:  13    -0.102347683737E+03   -0.43578E-05   -0.18740E-07    88   0.908E-04    0.132E-04
DAV:  14    -0.102347685834E+03   -0.20962E-05   -0.51069E-08    88   0.519E-04    0.820E-05
DAV:  15    -0.102347686564E+03   -0.72994E-06   -0.17118E-08    88   0.314E-04
   9 F= -.10234769E+03 E0= -.10234769E+03  d E =-.167055E-01
       N       E                     dE             d eps       ncg     rms          rms(c)
DAV:   1    -0.102351820606E+03   -0.41348E-02   -0.19013E-01    84   0.194E+00    0.132E-01
DAV:   2    -0.102352250582E+03   -0.42998E-03   -0.62218E-03   120   0.310E-01    0.766E-02
DAV:   3    -0.102352169715E+03    0.80867E-04   -0.26951E-04   128   0.651E-02    0.403E-02
DAV:   4    -0.102352154994E+03    0.14721E-04   -0.10013E-04   128   0.362E-02    0.872E-03
DAV:   5    -0.102352151397E+03    0.35968E-05   -0.12958E-05   112   0.141E-02    0.632E-03
DAV:   6    -0.102352151612E+03   -0.21496E-06   -0.14386E-06    96   0.531E-03
  10 F= -.10235215E+03 E0= -.10235215E+03  d E =-.446505E-02
       N       E                     dE             d eps       ncg     rms          rms(c)
DAV:   1    -0.102352714762E+03   -0.56336E-03   -0.71856E-02    84   0.119E+00    0.808E-02
DAV:   2    -0.102352879156E+03   -0.16439E-03   -0.23764E-03   120   0.192E-01    0.471E-02
DAV:   3    -0.102352847214E+03    0.31942E-04   -0.10279E-04   128   0.402E-02    0.248E-02
DAV:   4    -0.102352840850E+03    0.63641E-05   -0.37920E-05   128   0.224E-02    0.539E-03
DAV:   5    -0.102352841157E+03   -0.30777E-06   -0.52696E-06   112   0.901E-03
  11 F= -.10235284E+03 E0= -.10235284E+03  d E =-.515459E-02
       N       E                     dE             d eps       ncg     rms          rms(c)
DAV:   1    -0.102355803259E+03   -0.29624E-02   -0.11497E-01    84   0.156E+00    0.947E-02
DAV:   2    -0.102355927551E+03   -0.12429E-03   -0.24364E-03   120   0.193E-01    0.527E-02
DAV:   3    -0.102355885775E+03    0.41776E-04   -0.15276E-04   128   0.493E-02    0.240E-02
DAV:   4    -0.102355889897E+03   -0.41220E-05   -0.61984E-05   112   0.273E-02    0.758E-03
DAV:   5    -0.102355891690E+03   -0.17926E-05   -0.41773E-06   112   0.850E-03    0.396E-03
DAV:   6    -0.102355893509E+03   -0.18190E-05   -0.73895E-07    88   0.324E-03    0.135E-03
DAV:   7    -0.102355895640E+03   -0.21312E-05   -0.22509E-07    88   0.181E-03    0.434E-04
DAV:   8    -0.102355898460E+03   -0.28198E-05   -0.14114E-07    80   0.140E-03    0.491E-04
DAV:   9    -0.102355900889E+03   -0.24296E-05   -0.98750E-08    88   0.113E-03    0.203E-04
DAV:  10    -0.102355902754E+03   -0.18647E-05   -0.75969E-08    80   0.776E-04    0.185E-04
DAV:  11    -0.102355903647E+03   -0.89246E-06   -0.22959E-08    88   0.486E-04
  12 F= -.10235590E+03 E0= -.10235590E+03  d E =-.306249E-02
       N       E                     dE             d eps       ncg     rms          rms(c)
DAV:   1    -0.102357760824E+03   -0.18581E-02   -0.26593E-01    84   0.237E+00    0.144E-01
DAV:   2    -0.102358036924E+03   -0.27610E-03   -0.56335E-03   120   0.294E-01    0.806E-02
DAV:   3    -0.102357930366E+03    0.10656E-03   -0.35836E-04   128   0.749E-02    0.366E-02
DAV:   4    -0.102357932616E+03   -0.22501E-05   -0.14262E-04   112   0.410E-02    0.115E-02
DAV:   5    -0.102357932944E+03   -0.32761E-06   -0.87457E-06   112   0.123E-02
  13 F= -.10235793E+03 E0= -.10235793E+03  d E =-.509179E-02
       N       E                     dE             d eps       ncg     rms          rms(c)
DAV:   1    -0.102359616336E+03   -0.16837E-02   -0.51588E-02    92   0.964E-01    0.708E-02
DAV:   2    -0.102359800103E+03   -0.18377E-03   -0.22295E-03   112   0.161E-01    0.362E-02
DAV:   3    -0.102359784434E+03    0.15669E-04   -0.76420E-05   120   0.334E-02    0.193E-02
DAV:   4    -0.102359784629E+03   -0.19479E-06   -0.26346E-05   104   0.178E-02    0.553E-03
DAV:   5    -0.102359785028E+03   -0.39969E-06   -0.19073E-06    96   0.574E-03
  14 F= -.10235979E+03 E0= -.10235979E+03  d E =-.185208E-02
       N       E                     dE             d eps       ncg     rms          rms(c)
DAV:   1    -0.102360141202E+03   -0.35657E-03   -0.33752E-02    84   0.780E-01    0.574E-02
DAV:   2    -0.102360260494E+03   -0.11929E-03   -0.14744E-03   112   0.131E-01    0.294E-02
DAV:   3    -0.102360248159E+03    0.12335E-04   -0.50228E-05   120   0.271E-02    0.157E-02
DAV:   4    -0.102360246241E+03    0.19181E-05   -0.17364E-05   104   0.145E-02    0.449E-03
DAV:   5    -0.102360246121E+03    0.11971E-06   -0.12710E-06    88   0.489E-03
  15 F= -.10236025E+03 E0= -.10236025E+03  d E =-.231318E-02
       N       E                     dE             d eps       ncg     rms          rms(c)
DAV:   1    -0.102360540326E+03   -0.29409E-03   -0.14098E-02    84   0.502E-01    0.419E-02
DAV:   2    -0.102360596796E+03   -0.56470E-04   -0.68356E-04   120   0.982E-02    0.234E-02
DAV:   3    -0.102360591938E+03    0.48586E-05   -0.20409E-05   128   0.194E-02    0.130E-02
DAV:   4    -0.102360592279E+03   -0.34116E-06   -0.89140E-06   104   0.128E-02
  16 F= -.10236059E+03 E0= -.10236059E+03  d E =-.346158E-03
       N       E                     dE             d eps       ncg     rms          rms(c)
DAV:   1    -0.102360604799E+03   -0.12861E-04   -0.86623E-04    84   0.124E-01    0.112E-02
DAV:   2    -0.102360608409E+03   -0.36102E-05   -0.42578E-05   120   0.244E-02    0.600E-03
DAV:   3    -0.102360608317E+03    0.91978E-07   -0.11276E-06    88   0.471E-03
  17 F= -.10236061E+03 E0= -.10236061E+03  d E =-.362196E-03
       N       E                     dE             d eps       ncg     rms          rms(c)
DAV:   1    -0.102360860708E+03   -0.25230E-03   -0.76351E-03    84   0.401E-01    0.264E-02
DAV:   2    -0.102360867499E+03   -0.67913E-05   -0.17412E-04   112   0.536E-02    0.154E-02
DAV:   3    -0.102360865339E+03    0.21609E-05   -0.91055E-06   120   0.116E-02    0.755E-03
DAV:   4    -0.102360865091E+03    0.24799E-06   -0.25744E-06   104   0.543E-03
  18 F= -.10236087E+03 E0= -.10236087E+03  d E =-.256773E-03
