       N       E                     dE             d eps       ncg     rms          rms(c)
DAV:   1     0.201227293928E+03    0.20123E+03   -0.10488E+04   116   0.546E+02
DAV:   2    -0.293051515984E+02   -0.23053E+03   -0.21586E+03   144   0.103E+02
DAV:   3    -0.102853585221E+03   -0.73548E+02   -0.73378E+02   112   0.543E+01
DAV:   4    -0.106975209428E+03   -0.41216E+01   -0.41057E+01   104   0.179E+01
DAV:   5    -0.107053731678E+03   -0.78522E-01   -0.78447E-01   136   0.274E+00    0.150E+01
DAV:   6    -0.103835598226E+03    0.32181E+01   -0.15709E+00    96   0.457E+00    0.873E+00
DAV:   7    -0.102144006135E+03    0.16916E+01   -0.41336E+00   112   0.678E+00    0.123E+00
DAV:   8    -0.102092690073E+03    0.51316E-01   -0.26945E-01   104   0.220E+00    0.623E-01
DAV:   9    -0.102057142426E+03    0.35548E-01   -0.76602E-02   120   0.788E-01    0.338E-01
DAV:  10    -0.102057136396E+03    0.60302E-05   -0.29282E-03   112   0.213E-01    0.160E-01
DAV:  11    -0.102056829830E+03    0.30657E-03   -0.63979E-03   104   0.233E-01    0.794E-02
DAV:  12    -0.102060594327E+03   -0.37645E-02   -0.10862E-03   104   0.980E-02    0.598E-02
DAV:  13    -0.102065775437E+03   -0.51811E-02   -0.20647E-03   104   0.117E-01    0.355E-02
DAV:  14    -0.102069631311E+03   -0.38559E-02   -0.30005E-04   112   0.516E-02    0.162E-02
DAV:  15    -0.102074251815E+03   -0.46205E-02   -0.57951E-04   112   0.630E-02    0.162E-02
DAV:  16    -0.102075203989E+03   -0.95217E-03   -0.47771E-05   112   0.211E-02    0.705E-03
DAV:  17    -0.102076291828E+03   -0.10878E-02   -0.95803E-05   104   0.236E-02    0.328E-03
DAV:  18    -0.102076548887E+03   -0.25706E-03   -0.82085E-06   104   0.831E-03    0.192E-03
DAV:  19    -0.102076730770E+03   -0.18188E-03   -0.68828E-06    96   0.669E-03    0.196E-03
DAV:  20    -0.102076774997E+03   -0.44227E-04   -0.72553E-07    88   0.318E-03    0.530E-04
DAV:  21    -0.102076807680E+03   -0.32683E-04   -0.11220E-06    80   0.280E-03    0.642E-04
DAV:  22    -0.102076814529E+03   -0.68493E-05   -0.15961E-07    88   0.133E-03    0.232E-04
DAV:  23    -0.102076819487E+03   -0.49580E-05   -0.14799E-07    80   0.991E-04    0.166E-04
DAV:  24    -0.102076821530E+03   -0.20424E-05   -0.31729E-08    80   0.521E-04    0.690E-05
DAV:  25    -0.102076822574E+03   -0.10438E-05   -0.18473E-08    80   0.345E-04    0.470E-05
DAV:  26    -0.102076823021E+03   -0.44736E-06   -0.33125E-09    72   0.209E-04
   1 F= -.10207682E+03 E0= -.10207682E+03  d E =-.102077E+03
       N       E                     dE             d eps       ncg     rms          rms(c)
DAV:   1    -0.102232989885E+03   -0.15617E+00   -0.64839E+00    84   0.108E+01    0.112E+00
DAV:   2    -0.102256471188E+03   -0.23481E-01   -0.30494E-01   120   0.221E+00    0.572E-01
DAV:   3    -0.102251869963E+03    0.46012E-02   -0.11845E-02   128   0.445E-01    0.284E-01
DAV:   4    -0.102250838502E+03    0.10315E-02   -0.62698E-03   112   0.277E-01    0.658E-02
DAV:   5    -0.102250680656E+03    0.15785E-03   -0.47085E-04   112   0.986E-02    0.400E-02
DAV:   6    -0.102250703515E+03   -0.22859E-04   -0.13912E-04   120   0.493E-02    0.207E-02
DAV:   7    -0.102250857635E+03   -0.15412E-03   -0.61040E-05   102   0.371E-02    0.880E-03
DAV:   8    -0.102250937927E+03   -0.80293E-04   -0.22812E-05   112   0.199E-02    0.953E-03
DAV:   9    -0.102250985673E+03   -0.47746E-04   -0.18347E-06    96   0.500E-03    0.694E-03
DAV:  10    -0.102251181037E+03   -0.19536E-03   -0.21027E-05   104   0.109E-02    0.516E-03
DAV:  11    -0.102251200181E+03   -0.19144E-04   -0.68342E-07    96   0.379E-03    0.305E-03
DAV:  12    -0.102251280975E+03   -0.80795E-04   -0.51184E-06    96   0.650E-03    0.131E-03
DAV:  13    -0.102251301439E+03   -0.20464E-04   -0.82743E-07    88   0.341E-03    0.758E-04
DAV:  14    -0.102251319852E+03   -0.18413E-04   -0.43017E-07    88   0.188E-03    0.576E-04
DAV:  15    -0.102251333756E+03   -0.13904E-04   -0.34385E-07    88   0.136E-03    0.509E-04
DAV:  16    -0.102251339385E+03   -0.56289E-05   -0.89488E-08    88   0.863E-04    0.379E-04
DAV:  17    -0.102251341120E+03   -0.17346E-05   -0.29028E-08    88   0.510E-04    0.246E-04
DAV:  18    -0.102251342658E+03   -0.15378E-05   -0.24300E-08    80   0.533E-04    0.167E-04
DAV:  19    -0.102251343290E+03   -0.63269E-06   -0.96496E-09    88   0.299E-04
   2 F= -.10225134E+03 E0= -.10225134E+03  d E =-.174520E+00
       N       E                     dE             d eps       ncg     rms          rms(c)
DAV:   1    -0.102252712203E+03   -0.13695E-02   -0.43862E-02    84   0.892E-01    0.885E-02
DAV:   2    -0.102252859916E+03   -0.14771E-03   -0.20661E-03   120   0.181E-01    0.487E-02
DAV:   3    -0.102252822338E+03    0.37578E-04   -0.86216E-05   120   0.378E-02    0.238E-02
DAV:   4    -0.102252809847E+03    0.12491E-04   -0.42572E-05   112   0.229E-02    0.612E-03
DAV:   5    -0.102252808215E+03    0.16319E-05   -0.29495E-06   112   0.796E-03    0.327E-03
DAV:   6    -0.102252810028E+03   -0.18135E-05   -0.10324E-06    88   0.434E-03    0.149E-03
DAV:   7    -0.102252814302E+03   -0.42736E-05   -0.56420E-07    78   0.329E-03    0.687E-04
DAV:   8    -0.102252816512E+03   -0.22101E-05   -0.21071E-07    88   0.180E-03    0.686E-04
DAV:   9    -0.102252818485E+03   -0.19731E-05   -0.77234E-08    88   0.927E-04    0.326E-04
DAV:  10    -0.102252822196E+03   -0.37111E-05   -0.28398E-07    80   0.118E-03    0.283E-04
DAV:  11    -0.102252822626E+03   -0.42992E-06   -0.23165E-08    88   0.477E-04
   3 F= -.10225282E+03 E0= -.10225282E+03  d E =-.176000E+00
       N       E                     dE             d eps       ncg     rms          rms(c)
DAV:   1    -0.102297210670E+03   -0.44388E-01   -0.11571E+00    84   0.459E+00    0.462E-01
DAV:   2    -0.102302352925E+03   -0.51423E-02   -0.63183E-02   120   0.953E-01    0.221E-01
DAV:   3    -0.102301852856E+03    0.50007E-03   -0.27336E-03   128   0.211E-01    0.115E-01
DAV:   4    -0.102301810983E+03    0.41872E-04   -0.80229E-04   112   0.105E-01    0.398E-02
DAV:   5    -0.102301793881E+03    0.17102E-04   -0.61315E-05   112   0.370E-02    0.206E-02
DAV:   6    -0.102301792073E+03    0.18078E-05   -0.23390E-05   120   0.222E-02    0.894E-03
DAV:   7    -0.102301810450E+03   -0.18377E-04   -0.13668E-05   104   0.155E-02    0.383E-03
DAV:   8    -0.102301821665E+03   -0.11215E-04   -0.28226E-06   104   0.702E-03    0.305E-03
DAV:   9    -0.102301830579E+03   -0.89141E-05   -0.38814E-07    80   0.212E-03    0.161E-03
DAV:  10    -0.102301852812E+03   -0.22233E-04   -0.20505E-06    88   0.433E-03    0.114E-03
DAV:  11    -0.102301856302E+03   -0.34897E-05   -0.25395E-07    88   0.178E-03    0.683E-04
DAV:  12    -0.102301867186E+03   -0.10884E-04   -0.62668E-07    78   0.202E-03    0.273E-04
DAV:  13    -0.102301871612E+03   -0.44265E-05   -0.27190E-07    88   0.125E-03    0.274E-04
DAV:  14    -0.102301875110E+03   -0.34974E-05   -0.10273E-07    88   0.942E-04    0.228E-04
DAV:  15    -0.102301876302E+03   -0.11921E-05   -0.52285E-08    88   0.528E-04    0.139E-04
DAV:  16    -0.102301876753E+03   -0.45100E-06   -0.84843E-09    88   0.267E-04
   4 F= -.10230188E+03 E0= -.10230188E+03  d E =-.490541E-01
       N       E                     dE             d eps       ncg     rms          rms(c)
DAV:   1    -0.102305384490E+03   -0.35082E-02   -0.18244E-01    84   0.183E+00    0.181E-01
DAV:   2    -0.102306204621E+03   -0.82013E-03   -0.10129E-02   120   0.382E-01    0.885E-02
DAV:   3    -0.102306127046E+03    0.77576E-04   -0.44418E-04   128   0.852E-02    0.456E-02
DAV:   4    -0.102306123381E+03    0.36645E-05   -0.13057E-04   112   0.424E-02    0.164E-02
DAV:   5    -0.102306118393E+03    0.49879E-05   -0.96076E-06   112   0.147E-02    0.845E-03
DAV:   6    -0.102306116892E+03    0.15007E-05   -0.39762E-06   112   0.909E-03    0.344E-03
DAV:   7    -0.102306119621E+03   -0.27289E-05   -0.20146E-06    96   0.608E-03    0.132E-03
DAV:   8    -0.102306122029E+03   -0.24073E-05   -0.45456E-07    88   0.288E-03    0.104E-03
DAV:   9    -0.102306125078E+03   -0.30489E-05   -0.15701E-07    80   0.141E-03    0.420E-04
DAV:  10    -0.102306129189E+03   -0.41115E-05   -0.25770E-07    80   0.158E-03    0.388E-04
DAV:  11    -0.102306131048E+03   -0.18586E-05   -0.95675E-08    88   0.987E-04    0.132E-04
DAV:  12    -0.102306132893E+03   -0.18455E-05   -0.79906E-08    80   0.754E-04    0.112E-04
DAV:  13    -0.102306133699E+03   -0.80558E-06   -0.28498E-08    88   0.477E-04
   5 F= -.10230613E+03 E0= -.10230613E+03  d E =-.533111E-01
       N       E                     dE             d eps       ncg     rms          rms(c)
DAV:   1    -0.102318467884E+03   -0.12335E-01   -0.37420E-01    84   0.273E+00    0.241E-01
DAV:   2    -0.102319649156E+03   -0.11813E-02   -0.15696E-02   120   0.495E-01    0.124E-01
DAV:   3    -0.102319524295E+03    0.12486E-03   -0.62741E-04   120   0.101E-01    0.673E-02
DAV:   4    -0.102319508928E+03    0.15366E-04   -0.19995E-04   112   0.510E-02    0.178E-02
DAV:   5    -0.102319501766E+03    0.71624E-05   -0.23347E-05   112   0.188E-02    0.106E-02
DAV:   6    -0.102319504057E+03   -0.22913E-05   -0.51367E-06   112   0.812E-03    0.492E-03
DAV:   7    -0.102319515938E+03   -0.11881E-04   -0.15737E-06    80   0.502E-03    0.118E-03
DAV:   8    -0.102319525608E+03   -0.96694E-05   -0.75176E-07    88   0.307E-03    0.127E-03
DAV:   9    -0.102319539046E+03   -0.13438E-04   -0.58602E-07    78   0.215E-03    0.427E-04
DAV:  10    -0.102319549348E+03   -0.10302E-04   -0.73720E-07    88   0.197E-03    0.524E-04
DAV:  11    -0.102319554632E+03   -0.52844E-05   -0.23112E-07    88   0.129E-03    0.182E-04
DAV:  12    -0.102319557710E+03   -0.30773E-05   -0.12090E-07    88   0.876E-04    0.136E-04
DAV:  13    -0.102319559465E+03   -0.17552E-05   -0.51027E-08    88   0.514E-04    0.840E-05
DAV:  14    -0.102319560716E+03   -0.12517E-05   -0.43301E-08    80   0.446E-04    0.463E-05
DAV:  15    -0.102319561156E+03   -0.43931E-06   -0.81529E-09    88   0.229E-04
   6 F= -.10231956E+03 E0= -.10231956E+03  d E =-.134275E-01
       N       E                     dE             d eps       ncg     rms          rms(c)
DAV:   1    -0.102320529626E+03   -0.96891E-03   -0.53517E-02    84   0.103E+00    0.915E-02
DAV:   2    -0.102320702547E+03   -0.17292E-03   -0.22776E-03   120   0.188E-01    0.473E-02
DAV:   3    -0.102320686095E+03    0.16453E-04   -0.91333E-05   120   0.385E-02    0.256E-02
DAV:   4    -0.102320684851E+03    0.12440E-05   -0.29052E-05   104   0.195E-02    0.692E-03
DAV:   5    -0.102320682792E+03    0.20591E-05   -0.33961E-06   112   0.719E-03    0.408E-03
DAV:   6    -0.102320682573E+03    0.21850E-06   -0.65568E-07    88   0.312E-03
   7 F= -.10232068E+03 E0= -.10232068E+03  d E =-.145489E-01
       N       E                     dE             d eps       ncg     rms          rms(c)
DAV:   1    -0.102329013558E+03   -0.83308E-02   -0.32839E-01    86   0.270E+00    0.179E-01
DAV:   2    -0.102329107913E+03   -0.94355E-04   -0.65081E-03   120   0.332E-01    0.947E-02
DAV:   3    -0.102328958826E+03    0.14909E-03   -0.61977E-04   128   0.104E-01    0.442E-02
DAV:   4    -0.102328956736E+03    0.20903E-05   -0.19859E-04   120   0.587E-02    0.175E-02
DAV:   5    -0.102328958370E+03   -0.16337E-05   -0.22978E-05   112   0.199E-02    0.104E-02
DAV:   6    -0.102328959652E+03   -0.12827E-05   -0.25835E-06   112   0.632E-03    0.279E-03
DAV:   7    -0.102328962184E+03   -0.25320E-05   -0.40473E-07    96   0.272E-03    0.115E-03
DAV:   8    -0.102328966551E+03   -0.43668E-05   -0.24730E-07    88   0.256E-03    0.857E-04
DAV:   9    -0.102328970714E+03   -0.41630E-05   -0.23016E-07    88   0.203E-03    0.377E-04
DAV:  10    -0.102328974963E+03   -0.42490E-05   -0.21120E-07    88   0.162E-03    0.315E-04
DAV:  11    -0.102328976682E+03   -0.17185E-05   -0.69315E-08    88   0.957E-04    0.172E-04
DAV:  12    -0.102328978099E+03   -0.14170E-05   -0.29954E-08    88   0.505E-04    0.103E-04
DAV:  13    -0.102328979529E+03   -0.14302E-05   -0.34184E-08    80   0.427E-04    0.569E-05
DAV:  14    -0.102328980306E+03   -0.77726E-06   -0.15686E-08    88   0.290E-04
   8 F= -.10232898E+03 E0= -.10232898E+03  d E =-.829773E-02
       N       E                     dE             d eps       ncg     rms          rms(c)
DAV:   1    -0.102330014029E+03   -0.10345E-02   -0.75231E-02    86   0.129E+00    0.860E-02
DAV:   2    -0.102330035106E+03   -0.21077E-04   -0.14925E-03   120   0.159E-01    0.455E-02
DAV:   3    -0.102330001285E+03    0.33821E-04   -0.14212E-04   128   0.497E-02    0.213E-02
DAV:   4    -0.102330001134E+03    0.15095E-06   -0.45695E-05   120   0.282E-02    0.840E-03
DAV:   5    -0.102330001648E+03   -0.51425E-06   -0.52605E-06   112   0.952E-03
   9 F= -.10233000E+03 E0= -.10233000E+03  d E =-.931907E-02
       N       E                     dE             d eps       ncg     rms          rms(c)
DAV:   1    -0.102335190803E+03   -0.51897E-02   -0.27398E-01    84   0.242E+00    0.155E-01
DAV:   2    -0.102335648609E+03   -0.45781E-03   -0.81261E-03   120   0.369E-01    0.930E-02
DAV:   3    -0.102335525604E+03    0.12300E-03   -0.42845E-04   128   0.853E-02    0.476E-02
DAV:   4    -0.102335496124E+03    0.29479E-04   -0.14691E-04   120   0.478E-02    0.113E-02
DAV:   5    -0.102335486656E+03    0.94682E-05   -0.23069E-05   120   0.205E-02    0.876E-03
DAV:   6    -0.102335487462E+03   -0.80579E-06   -0.43238E-06   112   0.879E-03
  10 F= -.10233549E+03 E0= -.10233549E+03  d E =-.548581E-02
       N       E                     dE             d eps       ncg     rms          rms(c)
DAV:   1    -0.102336063356E+03   -0.57670E-03   -0.82524E-02    84   0.133E+00    0.854E-02
DAV:   2    -0.102336207491E+03   -0.14414E-03   -0.25037E-03   120   0.205E-01    0.513E-02
DAV:   3    -0.102336170038E+03    0.37452E-04   -0.13125E-04   128   0.472E-02    0.264E-02
DAV:   4    -0.102336162960E+03    0.70782E-05   -0.43740E-05   120   0.266E-02    0.625E-03
DAV:   5    -0.102336164854E+03   -0.18938E-05   -0.77805E-06   120   0.120E-02    0.499E-03
DAV:   6    -0.102336169139E+03   -0.42846E-05   -0.12793E-06    88   0.527E-03    0.326E-03
DAV:   7    -0.102336182009E+03   -0.12870E-04   -0.98447E-07    88   0.500E-03    0.833E-04
DAV:   8    -0.102336189124E+03   -0.71152E-05   -0.81483E-07    88   0.350E-03    0.112E-03
DAV:   9    -0.102336202827E+03   -0.13704E-04   -0.73664E-07    80   0.295E-03    0.419E-04
DAV:  10    -0.102336208139E+03   -0.53115E-05   -0.39626E-07    88   0.192E-03    0.427E-04
DAV:  11    -0.102336211007E+03   -0.28678E-05   -0.12483E-07    88   0.124E-03    0.226E-04
DAV:  12    -0.102336214681E+03   -0.36747E-05   -0.17749E-07    80   0.105E-03    0.147E-04
DAV:  13    -0.102336215600E+03   -0.91878E-06   -0.30759E-08    88   0.465E-04
  11 F= -.10233622E+03 E0= -.10233622E+03  d E =-.621395E-02
       N       E                     dE             d eps       ncg     rms          rms(c)
DAV:   1    -0.102338924704E+03   -0.27100E-02   -0.25924E-01    84   0.233E+00    0.153E-01
DAV:   2    -0.102339240255E+03   -0.31555E-03   -0.60086E-03   120   0.307E-01    0.848E-02
DAV:   3    -0.102339130599E+03    0.10966E-03   -0.35075E-04   128   0.774E-02    0.389E-02
DAV:   4    -0.102339132186E+03   -0.15865E-05   -0.14866E-04   120   0.434E-02    0.117E-02
DAV:   5    -0.102339132500E+03   -0.31399E-06   -0.10088E-05   112   0.134E-02    0.648E-03
DAV:   6    -0.102339133153E+03   -0.65264E-06   -0.19311E-06    96   0.521E-03
  12 F= -.10233913E+03 E0= -.10233913E+03  d E =-.291755E-02
       N       E                     dE             d eps       ncg     rms          rms(c)
DAV:   1    -0.102339228564E+03   -0.96064E-04   -0.13499E-02    84   0.531E-01    0.350E-02
DAV:   2    -0.102339244434E+03   -0.15871E-04   -0.31621E-04   120   0.704E-02    0.195E-02
DAV:   3    -0.102339238692E+03    0.57419E-05   -0.18384E-05   128   0.178E-02    0.904E-03
DAV:   4    -0.102339239501E+03   -0.80844E-06   -0.78926E-06   120   0.101E-02
  13 F= -.10233924E+03 E0= -.10233924E+03  d E =-.302390E-02
       N       E                     dE             d eps       ncg     rms          rms(c)
DAV:   1    -0.102341849736E+03   -0.26110E-02   -0.20625E-01    84   0.206E+00    0.143E-01
DAV:   2    -0.102342059669E+03   -0.20993E-03   -0.43702E-03   112   0.266E-01    0.768E-02
DAV:   3    -0.102341977650E+03    0.82019E-04   -0.25030E-04   128   0.625E-02    0.364E-02
DAV:   4    -0.102341972573E+03    0.50776E-05   -0.83587E-05   112   0.301E-02    0.107E-02
DAV:   5    -0.102341972215E+03    0.35732E-06   -0.47655E-06   112   0.930E-03
  14 F= -.10234197E+03 E0= -.10234197E+03  d E =-.273271E-02
       N       E                     dE             d eps       ncg     rms          rms(c)
DAV:   1    -0.102342320347E+03   -0.34777E-03   -0.63282E-02    84   0.114E+00    0.791E-02
DAV:   2    -0.102342382910E+03   -0.62563E-04   -0.13618E-03   112   0.148E-01    0.423E-02
DAV:   3    -0.102342354547E+03    0.28363E-04   -0.76233E-05   128   0.346E-02    0.203E-02
DAV:   4    -0.102342352791E+03    0.17560E-05   -0.25842E-05   120   0.168E-02    0.595E-03
DAV:   5    -0.102342354860E+03   -0.20695E-05   -0.13836E-06    88   0.530E-03    0.278E-03
DAV:   6    -0.102342357679E+03   -0.28191E-05   -0.92120E-07    88   0.356E-03    0.105E-03
DAV:   7    -0.102342361490E+03   -0.38111E-05   -0.28618E-07    88   0.197E-03    0.427E-04
DAV:   8    -0.102342363767E+03   -0.22768E-05   -0.11850E-07    88   0.112E-03    0.460E-04
DAV:   9    -0.102342367290E+03   -0.35225E-05   -0.17608E-07    80   0.103E-03    0.128E-04
DAV:  10    -0.102342368644E+03   -0.13543E-05   -0.57322E-08    88   0.618E-04    0.133E-04
DAV:  11    -0.102342369648E+03   -0.10040E-05   -0.35468E-08    88   0.460E-04    0.490E-05
DAV:  12    -0.102342370250E+03   -0.60193E-06   -0.17555E-08    88   0.331E-04
  15 F= -.10234237E+03 E0= -.10234237E+03  d E =-.313075E-02
       N       E                     dE             d eps       ncg     rms          rms(c)
DAV:   1    -0.102342511727E+03   -0.14208E-03   -0.20916E-02    84   0.611E-01    0.485E-02
DAV:   2    -0.102342610184E+03   -0.98457E-04   -0.11519E-03   112   0.130E-01    0.298E-02
DAV:   3    -0.102342602272E+03    0.79119E-05   -0.34922E-05   136   0.258E-02    0.167E-02
DAV:   4    -0.102342601423E+03    0.84860E-06   -0.14697E-05   112   0.166E-02    0.339E-03
DAV:   5    -0.102342601500E+03   -0.76775E-07   -0.31835E-06   112   0.736E-03
  16 F= -.10234260E+03 E0= -.10234260E+03  d E =-.231250E-03
       N       E                     dE             d eps       ncg     rms          rms(c)
DAV:   1    -0.102342616239E+03   -0.14816E-04   -0.95608E-04    84   0.131E-01    0.100E-02
DAV:   2    -0.102342621054E+03   -0.48145E-05   -0.50724E-05   112   0.275E-02    0.653E-03
DAV:   3    -0.102342621039E+03    0.15075E-07   -0.15891E-06    96   0.577E-03
  17 F= -.10234262E+03 E0= -.10234262E+03  d E =-.250789E-03
       N       E                     dE             d eps       ncg     rms          rms(c)
DAV:   1    -0.102342776590E+03   -0.15554E-03   -0.46262E-03    84   0.313E-01    0.200E-02
DAV:   2    -0.102342781990E+03   -0.53995E-05   -0.12674E-04   120   0.438E-02    0.122E-02
DAV:   3    -0.102342780180E+03    0.18097E-05   -0.60941E-06   120   0.970E-03    0.609E-03
DAV:   4    -0.102342779794E+03    0.38588E-06   -0.15403E-06    80   0.484E-03
  18 F= -.10234278E+03 E0= -.10234278E+03  d E =-.158756E-03
       N       E                     dE             d eps       ncg     rms          rms(c)
DAV:   1    -0.102342858807E+03   -0.78627E-04   -0.10301E-02    84   0.468E-01    0.302E-02
DAV:   2    -0.102342870966E+03   -0.12159E-04   -0.28592E-04   120   0.658E-02    0.184E-02
DAV:   3    -0.102342866777E+03    0.41896E-05   -0.13501E-05   120   0.144E-02    0.924E-03
DAV:   4    -0.102342865684E+03    0.10931E-05   -0.37465E-06   112   0.723E-03    0.186E-03
DAV:   5    -0.102342865699E+03   -0.15471E-07   -0.33613E-07    80   0.265E-03
  19 F= -.10234287E+03 E0= -.10234287E+03  d E =-.244661E-03
       N       E                     dE             d eps       ncg     rms          rms(c)
DAV:   1    -0.102342963502E+03   -0.97818E-04   -0.38666E-03    84   0.281E-01    0.208E-02
DAV:   2    -0.102342968041E+03   -0.45396E-05   -0.99001E-05   120   0.391E-02    0.114E-02
DAV:   3    -0.102342966492E+03    0.15498E-05   -0.54652E-06   120   0.934E-03    0.565E-03
DAV:   4    -0.102342966803E+03   -0.31133E-06   -0.18917E-06    96   0.521E-03
  20 F= -.10234297E+03 E0= -.10234297E+03  d E =-.101104E-03
